<event>
12    7  0.2466188E-007  0.1755895E+04  0.7818608E-02  0.8730112E-01
          2   -1    0    0  501    0  0.00000000000E+00  0.00000000000E+00  0.17981838797E+04  0.17981838797E+04  0.00000000000E+00 0. -1.
         -1   -1    0    0    0  501 -0.00000000000E+00 -0.00000000000E+00 -0.42864997579E+03  0.42864997579E+03  0.00000000000E+00 0.  1.
         24    2    1    2    0    0  0.12626821273E+02 -0.83161650746E+02  0.13194277826E+04  0.13245603631E+04  0.80592710972E+02 0.  0.
        254    2    1    2    0    0 -0.12626821273E+02  0.83161650746E+02  0.50106121277E+02  0.90227349241E+03  0.89694567001E+03 0.  0.
         23    2    4    4    0    0 -0.43442707720E+02  0.27805644280E+02  0.46396728363E+03  0.47375503742E+03  0.80732722538E+02 0.  0.
         23    2    4    4    0    0  0.30815886446E+02  0.55356006466E+02 -0.41386116235E+03  0.42851845500E+03  0.91285805348E+02 0.  0.
          4    1    3    3  502    0  0.57344491103E+00 -0.44474144397E+02  0.11286759837E+04  0.11295520150E+04  0.00000000000E+00 0. -1.
         -3    1    3    3    0  502  0.12053376362E+02 -0.38687506349E+02  0.19075179890E+03  0.19500834806E+03  0.00000000000E+00 0.  1.
         13    1    5    5    0    0 -0.33414605811E+02 -0.20417683436E+02  0.30013681063E+03  0.30268056226E+03  0.00000000000E+00 0. -1.
        -13    1    5    5    0    0 -0.10028101909E+02  0.48223327716E+02  0.16383047301E+03  0.17107447515E+03  0.00000000000E+00 0.  1.
          2    1    6    6  503    0  0.56334902769E+02  0.45278952948E+02 -0.19535277577E+03  0.20829429145E+03  0.00000000000E+00 0. -1.
         -2    1    6    6    0  503 -0.25519016322E+02  0.10077053518E+02 -0.21850838658E+03  0.22022416354E+03  0.00000000000E+00 0.  1.
<mgrwt>
<rscale>  0 0.17558946E+04</rscale>
<asrwt>0</asrwt>
<pdfrwt beam="1">  1        2 0.27664367E+00 0.17558946E+04</pdfrwt>
<pdfrwt beam="2">  1       -1 0.65946151E-01 0.17558946E+04</pdfrwt>
<totfact> 0.21749584E+01</totfact>
</mgrwt>
</event>
<event>
12    7  0.2466188E-007  0.1409921E+04  0.7818608E-02  0.8946668E-01
         -1   -1    0    0    0  501 -0.00000000000E+00  0.00000000000E+00  0.47407764667E+03  0.47407764667E+03  0.00000000000E+00 0.  1.
          2   -1    0    0  501    0  0.00000000000E+00 -0.00000000000E+00 -0.10482867647E+04  0.10482867647E+04  0.00000000000E+00 0. -1.
         24    2    1    2    0    0  0.23776950812E+03 -0.59525587834E+02  0.18692889059E+03  0.31860449676E+03  0.80552967808E+02 0.  0.
        254    2    1    2    0    0 -0.23776950812E+03  0.59525587834E+02 -0.76113800857E+03  0.12037599146E+04  0.89979399265E+03 0.  0.
         23    2    4    4    0    0 -0.25975704388E+03  0.15588098304E+03  0.10060108378E+03  0.33188826205E+03  0.90866042658E+02 0.  0.
         23    2    4    4    0    0  0.21987535762E+02 -0.96355395206E+02 -0.86173909235E+03  0.87187165251E+03  0.88306858413E+02 0.  0.
          2    1    3    3  502    0  0.17235455576E+03 -0.43325018634E+02  0.86473388668E+02  0.19763804563E+03  0.00000000000E+00 0. -1.
         -1    1    3    3    0  502  0.65414952355E+02 -0.16200569200E+02  0.10045550192E+03  0.12096645113E+03  0.00000000000E+00 0.  1.
         13    1    5    5    0    0 -0.17948456591E+03  0.13881075693E+03  0.10433114209E+03  0.24973610642E+03  0.00000000000E+00 0. -1.
        -13    1    5    5    0    0 -0.80272477976E+02  0.17070226108E+02 -0.37300583114E+01  0.82152155631E+02  0.00000000000E+00 0.  1.
          4    1    6    6  503    0  0.44598657534E+02 -0.53178103506E+02 -0.68590666846E+03  0.68940910118E+03  0.00000000000E+00 0. -1.
         -4    1    6    6    0  503 -0.22611121772E+02 -0.43177291700E+02 -0.17583242389E+03  0.18246255133E+03  0.00000000000E+00 0.  1.
<mgrwt>
<rscale>  0 0.14099210E+04</rscale>
<asrwt>0</asrwt>
<pdfrwt beam="1">  1        2 0.16127488E+00 0.14099210E+04</pdfrwt>
<pdfrwt beam="2">  1       -1 0.72935024E-01 0.14099210E+04</pdfrwt>
<totfact> 0.49350855E+01</totfact>
</mgrwt>
</event>
<event>
12    7  0.2466188E-007  0.1587592E+04  0.7818608E-02  0.8828207E-01
          2   -1    0    0  501    0  0.00000000000E+00  0.00000000000E+00  0.11085720379E+04  0.11085720379E+04  0.00000000000E+00 0. -1.
         -1   -1    0    0    0  501 -0.00000000000E+00 -0.00000000000E+00 -0.56839971971E+03  0.56839971971E+03  0.00000000000E+00 0.  1.
         24    2    1    2    0    0  0.47268956557E+03  0.10178870310E+03  0.42508698348E+03  0.64890120703E+03  0.81101587436E+02 0.  0.
        254    2    1    2    0    0 -0.47268956557E+03 -0.10178870310E+03  0.11508533476E+03  0.10280705506E+04  0.89993780746E+03 0.  0.
         23    2    4    4    0    0 -0.15221473743E+03 -0.47943064600E+03 -0.78135236153E+01  0.51127835280E+03  0.91221884851E+02 0.  0.
         23    2    4    4    0    0 -0.32047482815E+03  0.37764194290E+03  0.12289885837E+03  0.51679219782E+03  0.81562821343E+02 0.  0.
          4    1    3    3  502    0  0.17698147318E+03  0.78354589954E+02  0.17405553969E+03  0.26030216002E+03  0.00000000000E+00 0. -1.
         -3    1    3    3    0  502  0.29570809239E+03  0.23434113143E+02  0.25103144379E+03  0.38859904701E+03  0.00000000000E+00 0.  1.
         13    1    5    5    0    0  0.21428011717E+01 -0.21880998423E+02  0.16946694752E+02  0.27758965252E+02  0.00000000000E+00 0.  1.
        -13    1    5    5    0    0 -0.15435753860E+03 -0.45754964758E+03 -0.24760218368E+02  0.48351938755E+03  0.00000000000E+00 0. -1.
          1    1    6    6  503    0 -0.22729242531E+03  0.31699862221E+03  0.84005672695E+02  0.39900742616E+03  0.00000000000E+00 0. -1.
         -1    1    6    6    0  503 -0.93182402836E+02  0.60643320690E+02  0.38893185676E+02  0.11778477166E+03  0.00000000000E+00 0.  1.
<mgrwt>
<rscale>  0 0.15875919E+04</rscale>
<asrwt>0</asrwt>
<pdfrwt beam="1">  1        2 0.17054954E+00 0.15875919E+04</pdfrwt>
<pdfrwt beam="2">  1       -1 0.87446111E-01 0.15875919E+04</pdfrwt>
<totfact> 0.30327638E+01</totfact>
</mgrwt>
</event>
<event>
12    7  0.2466188E-007  0.9934652E+03  0.7818608E-02  0.9315741E-01
          2   -1    0    0  501    0  0.00000000000E+00  0.00000000000E+00  0.15019214740E+04  0.15019214740E+04  0.00000000000E+00 0. -1.
         -1   -1    0    0    0  501 -0.00000000000E+00 -0.00000000000E+00 -0.16428507542E+03  0.16428507542E+03  0.00000000000E+00 0.  1.
         24    2    1    2    0    0 -0.25533601029E+01  0.49973898660E+02  0.11400339136E+03  0.14739187745E+03  0.78890316904E+02 0.  0.
        254    2    1    2    0    0  0.25533601029E+01 -0.49973898660E+02  0.12236330072E+04  0.15188146720E+04  0.89834089368E+03 0.  0.
         23    2    4    4    0    0  0.43918695056E+03  0.20695493620E+02  0.63047884146E+03  0.77402619856E+03  0.91101621984E+02 0.  0.
         23    2    4    4    0    0 -0.43663359046E+03 -0.70669392280E+02  0.59315416577E+03  0.74478847342E+03  0.85058511936E+02 0.  0.
          2    1    3    3  502    0  0.11601831299E+02 -0.10060080058E+02  0.69897892092E+02  0.71564816908E+02  0.00000000000E+00 0. -1.
         -1    1    3    3    0  502 -0.14155191402E+02  0.60033978718E+02  0.44105499264E+02  0.75827060537E+02  0.00000000000E+00 0.  1.
         13    1    5    5    0    0  0.17122624564E+03 -0.19149764599E+02  0.30745744515E+03  0.35244179840E+03  0.00000000000E+00 0.  1.
        -13    1    5    5    0    0  0.26796070493E+03  0.39845258220E+02  0.32302139631E+03  0.42158440016E+03  0.00000000000E+00 0. -1.
          2    1    6    6  503    0 -0.27179692262E+03 -0.28493421086E+02  0.42703543833E+03  0.50699576702E+03  0.00000000000E+00 0. -1.
         -2    1    6    6    0  503 -0.16483666784E+03 -0.42175971194E+02  0.16611872744E+03  0.23779270640E+03  0.00000000000E+00 0.  1.
<mgrwt>
<rscale>  0 0.99346521E+03</rscale>
<asrwt>0</asrwt>
<pdfrwt beam="1">  1        2 0.23106483E+00 0.99346521E+03</pdfrwt>
<pdfrwt beam="2">  1       -1 0.25274628E-01 0.99346521E+03</pdfrwt>
<totfact> 0.19790746E+02</totfact>
</mgrwt>
</event>
<event>
12    7  0.2466188E-007  0.2590675E+04  0.7818608E-02  0.8371375E-01
          2   -1    0    0  501    0  0.00000000000E+00  0.00000000000E+00  0.21187095212E+04  0.21187095212E+04  0.00000000000E+00 0. -1.
         -1   -1    0    0    0  501 -0.00000000000E+00 -0.00000000000E+00 -0.79194416395E+03  0.79194416395E+03  0.00000000000E+00 0.  1.
         24    2    1    2    0    0  0.26289110825E+03 -0.94050402155E+03 -0.69857231782E+02  0.98271923884E+03  0.84838200130E+02 0.  0.
        254    2    1    2    0    0 -0.26289110825E+03  0.94050402155E+03  0.13966225890E+04  0.19279344463E+04  0.90150819394E+03 0.  0.
         23    2    4    4    0    0 -0.32580924334E+02 -0.45768157224E+02 -0.80756755441E+02  0.13437553215E+03  0.91536272837E+02 0.  0.
         23    2    4    4    0    0 -0.23031018391E+03  0.98627217877E+03  0.14773793445E+04  0.17935589142E+04  0.91805553584E+02 0.  0.
          2    1    3    3  502    0  0.19958349475E+03 -0.64092179293E+03 -0.13724918110E+02  0.67141841604E+03  0.00000000000E+00 0. -1.
         -1    1    3    3    0  502  0.63307613492E+02 -0.29958222862E+03 -0.56132313672E+02  0.31130082279E+03  0.00000000000E+00 0.  1.
         13    1    5    5    0    0  0.16759635581E+02  0.62310402315E+01  0.85823229955E+01  0.19833494780E+02  0.00000000000E+00 0. -1.
        -13    1    5    5    0    0 -0.49340559915E+02 -0.51999197455E+02 -0.89339078436E+02  0.11454203737E+03  0.00000000000E+00 0.  1.
          2    1    6    6  503    0 -0.11183813210E+03  0.29267427260E+03  0.45438561158E+03  0.55193503390E+03  0.00000000000E+00 0. -1.
         -2    1    6    6    0  503 -0.11847205181E+03  0.69359790618E+03  0.10229937329E+04  0.12416238803E+04  0.00000000000E+00 0.  1.
<mgrwt>
<rscale>  0 0.25906753E+04</rscale>
<asrwt>0</asrwt>
<pdfrwt beam="1">  1        2 0.32595531E+00 0.25906753E+04</pdfrwt>
<pdfrwt beam="2">  1       -1 0.12183756E+00 0.25906753E+04</pdfrwt>
<totfact> 0.34444227E+00</totfact>
</mgrwt>
</event>
<event>
12    7  0.2466188E-007  0.4014201E+04  0.7818608E-02  0.8001688E-01
         -1   -1    0    0    0  501 -0.00000000000E+00  0.00000000000E+00  0.10241505104E+04  0.10241505104E+04  0.00000000000E+00 0.  1.
          2   -1    0    0  501    0  0.00000000000E+00 -0.00000000000E+00 -0.39334580213E+04  0.39334580213E+04  0.00000000000E+00 0. -1.
         24    2    1    2    0    0  0.10763261772E+04 -0.15570522803E+04 -0.11078812049E+04  0.21946673260E+04  0.79208991584E+02 0.  0.
        254    2    1    2    0    0 -0.10763261772E+04  0.15570522803E+04 -0.18014263059E+04  0.27629412057E+04  0.89767339660E+03 0.  0.
         23    2    4    4    0    0 -0.78337417420E+03  0.15961231940E+04 -0.14625249685E+04  0.23040235542E+04  0.90889535710E+02 0.  0.
         23    2    4    4    0    0 -0.29295200305E+03 -0.39070913684E+02 -0.33890133740E+03  0.45891765145E+03  0.91672689177E+02 0.  0.
          4    1    3    3  502    0  0.83360961088E+03 -0.12024613367E+04 -0.89423426697E+03  0.17147807947E+04  0.00000000000E+00 0. -1.
         -3    1    3    3    0  502  0.24271656636E+03 -0.35459094362E+03 -0.21364693792E+03  0.47988653135E+03  0.00000000000E+00 0.  1.
         13    1    5    5    0    0 -0.68439869423E+03  0.13336858376E+04 -0.12063612668E+04  0.19241691693E+04  0.00000000000E+00 0.  1.
        -13    1    5    5    0    0 -0.98975479967E+02  0.26243735632E+03 -0.25616370174E+03  0.37985438489E+03  0.00000000000E+00 0. -1.
          1    1    6    6  503    0 -0.13377539276E+03  0.16206332726E+02 -0.10597409831E+03  0.17143223280E+03  0.00000000000E+00 0. -1.
         -1    1    6    6    0  503 -0.15917661029E+03 -0.55277246409E+02 -0.23292723908E+03  0.28748541865E+03  0.00000000000E+00 0.  1.
<mgrwt>
<rscale>  0 0.40142013E+04</rscale>
<asrwt>0</asrwt>
<pdfrwt beam="1">  1        2 0.60514739E+00 0.40142013E+04</pdfrwt>
<pdfrwt beam="2">  1       -1 0.15756162E+00 0.40142013E+04</pdfrwt>
<totfact> 0.10510900E-01</totfact>
</mgrwt>
</event>
<event>
12    7  0.2466188E-007  0.1634354E+04  0.7818608E-02  0.8799717E-01
         -1   -1    0    0    0  501 -0.00000000000E+00  0.00000000000E+00  0.48551930407E+03  0.48551930407E+03  0.00000000000E+00 0.  1.
          2   -1    0    0  501    0  0.00000000000E+00 -0.00000000000E+00 -0.13753894281E+04  0.13753894281E+04  0.00000000000E+00 0. -1.
         24    2    1    2    0    0  0.55575111395E+03  0.96881483319E+02 -0.37585080099E+03  0.68216786092E+03  0.76445035119E+02 0.  0.
        254    2    1    2    0    0 -0.55575111395E+03 -0.96881483319E+02 -0.51401932303E+03  0.11787408712E+04  0.89831445198E+03 0.  0.
         23    2    4    4    0    0 -0.66250731831E+03  0.71510917891E+02 -0.62913445706E+02  0.67545798568E+03  0.90860500603E+02 0.  0.
         23    2    4    4    0    0  0.10675620436E+03 -0.16839240121E+03 -0.45110587732E+03  0.50328288557E+03  0.10022106763E+03 0.  0.
          2    1    3    3  502    0  0.17079094871E+03  0.25873737833E+02 -0.15840671882E+03  0.23437509902E+03  0.00000000000E+00 0. -1.
         -1    1    3    3    0  502  0.38496016524E+03  0.71007745486E+02 -0.21744408217E+03  0.44779276190E+03  0.00000000000E+00 0.  1.
         13    1    5    5    0    0 -0.48138241631E+03  0.10903485548E+02 -0.47377872367E+02  0.48383114773E+03  0.00000000000E+00 0. -1.
        -13    1    5    5    0    0 -0.18112490201E+03  0.60607432343E+02 -0.15535573339E+02  0.19162683795E+03  0.00000000000E+00 0.  1.
          3    1    6    6  503    0  0.75505262253E+02 -0.13198808622E+03 -0.41851403899E+03  0.44528182128E+03  0.00000000000E+00 0. -1.
         -3    1    6    6    0  503  0.31250942109E+02 -0.36404314992E+02 -0.32591838334E+02  0.58001064290E+02  0.00000000000E+00 0.  1.
<mgrwt>
<rscale>  0 0.16343538E+04</rscale>
<asrwt>0</asrwt>
<pdfrwt beam="1">  1        2 0.21159837E+00 0.16343538E+04</pdfrwt>
<pdfrwt beam="2">  1       -1 0.74695278E-01 0.16343538E+04</pdfrwt>
<totfact> 0.29386482E+01</totfact>
</mgrwt>
</event>
<event>
12    7  0.2466188E-007  0.2334883E+04  0.7818608E-02  0.8464293E-01
          2   -1    0    0  501    0  0.00000000000E+00  0.00000000000E+00  0.11896579635E+04  0.11896579635E+04  0.00000000000E+00 0. -1.
         -1   -1    0    0    0  501 -0.00000000000E+00 -0.00000000000E+00 -0.11456399609E+04  0.11456399609E+04  0.00000000000E+00 0.  1.
         24    2    1    2    0    0  0.73379768427E+03  0.61169475340E+03  0.29122330299E+03  0.10014495670E+04  0.73896618109E+02 0.  0.
        254    2    1    2    0    0 -0.73379768427E+03 -0.61169475340E+03 -0.24720530040E+03  0.13338483575E+04  0.89744719479E+03 0.  0.
         23    2    4    4    0    0 -0.80396446451E+03 -0.76082041079E+03 -0.15062018798E+03  0.11210397318E+04  0.94005752949E+02 0.  0.
         23    2    4    4    0    0  0.70166780241E+02  0.14912565739E+03 -0.96585112420E+02  0.21280862568E+03  0.93792262379E+02 0.  0.
          2    1    3    3  502    0  0.57079438962E+03  0.44517222008E+03  0.24231904029E+03  0.76334989227E+03  0.00000000000E+00 0. -1.
         -1    1    3    3    0  502  0.16300329465E+03  0.16652253332E+03  0.48904262701E+02  0.23809967468E+03  0.00000000000E+00 0.  1.
         13    1    5    5    0    0 -0.27759203534E+03 -0.27373683377E+03 -0.97796743136E+02  0.40193705380E+03  0.00000000000E+00 0. -1.
        -13    1    5    5    0    0 -0.52637242917E+03 -0.48708357702E+03 -0.52823444842E+02  0.71910267801E+03  0.00000000000E+00 0.  1.
          1    1    6    6  503    0 -0.20851308278E+02  0.42161536776E+02 -0.10886083785E+02  0.48279178332E+02  0.00000000000E+00 0. -1.
         -1    1    6    6    0  503  0.91018088519E+02  0.10696412061E+03 -0.85699028635E+02  0.16452944735E+03  0.00000000000E+00 0.  1.
<mgrwt>
<rscale>  0 0.23348830E+04</rscale>
<asrwt>0</asrwt>
<pdfrwt beam="1">  1        2 0.18302430E+00 0.23348830E+04</pdfrwt>
<pdfrwt beam="2">  1       -1 0.17625230E+00 0.23348830E+04</pdfrwt>
<totfact> 0.43855311E+00</totfact>
</mgrwt>
</event>
<event>
12    7  0.2466188E-007  0.1729355E+04  0.7818608E-02  0.8744797E-01
          2   -1    0    0  501    0  0.00000000000E+00  0.00000000000E+00  0.81200410187E+03  0.81200410187E+03  0.00000000000E+00 0. -1.
         -1   -1    0    0    0  501 -0.00000000000E+00 -0.00000000000E+00 -0.92076764294E+03  0.92076764294E+03  0.00000000000E+00 0.  1.
         24    2    1    2    0    0 -0.58309560175E+03  0.15643397360E+03  0.13865712456E+03  0.62442670650E+03  0.78808912734E+02 0.  0.
        254    2    1    2    0    0  0.58309560175E+03 -0.15643397360E+03 -0.24742066564E+03  0.11083450383E+04  0.89595740371E+03 0.  0.
         23    2    4    4    0    0 -0.13740065365E+03 -0.29755277708E+03 -0.74638522643E+02  0.34911465442E+03  0.94305557085E+02 0.  0.
         23    2    4    4    0    0  0.72049625541E+03  0.14111880348E+03 -0.17278214299E+03  0.75923038388E+03  0.86877707836E+02 0.  0.
          4    1    3    3  502    0 -0.46363899164E+03  0.14201419937E+03  0.13779514565E+03  0.50409984086E+03  0.00000000000E+00 0. -1.
         -3    1    3    3    0  502 -0.11945661011E+03  0.14419774236E+02  0.86197891145E+00  0.12032686564E+03  0.00000000000E+00 0.  1.
         13    1    5    5    0    0 -0.43002030529E+02 -0.91584137419E+02 -0.69015604463E+02  0.12247441576E+03  0.00000000000E+00 0.  1.
        -13    1    5    5    0    0 -0.94398623125E+02 -0.20596863966E+03 -0.56229181802E+01  0.22664023866E+03  0.00000000000E+00 0. -1.
          4    1    6    6  503    0  0.23747944708E+03  0.44616973852E+02 -0.99189559943E+02  0.26120055693E+03  0.00000000000E+00 0. -1.
         -4    1    6    6    0  503  0.48301680833E+03  0.96501829627E+02 -0.73592583050E+02  0.49802982694E+03  0.00000000000E+00 0.  1.
<mgrwt>
<rscale>  0 0.17293549E+04</rscale>
<asrwt>0</asrwt>
<pdfrwt beam="1">  1        2 0.12492371E+00 0.17293549E+04</pdfrwt>
<pdfrwt beam="2">  1       -1 0.14165656E+00 0.17293549E+04</pdfrwt>
<totfact> 0.14873754E+01</totfact>
</mgrwt>
</event>
<event>
12    7  0.2466188E-007  0.1955408E+04  0.7818608E-02  0.8627757E-01
         -1   -1    0    0    0  501 -0.00000000000E+00  0.00000000000E+00  0.49581238615E+03  0.49581238615E+03  0.00000000000E+00 0.  1.
          2   -1    0    0  501    0  0.00000000000E+00 -0.00000000000E+00 -0.19279578504E+04  0.19279578504E+04  0.00000000000E+00 0. -1.
         24    2    1    2    0    0 -0.59137213103E+03  0.46762108719E+03 -0.74515685512E+03  0.10632212590E+04  0.82402841089E+02 0.  0.
        254    2    1    2    0    0  0.59137213103E+03 -0.46762108719E+03 -0.68698860915E+03  0.13605489776E+04  0.90041639969E+03 0.  0.
         23    2    4    4    0    0  0.72991809131E+03 -0.29032949772E+03 -0.19942703944E+03  0.81564268371E+03  0.91816154142E+02 0.  0.
         23    2    4    4    0    0 -0.13854596028E+03 -0.17729158947E+03 -0.48756156971E+03  0.54490629390E+03  0.92624478743E+02 0.  0.
          4    1    3    3  502    0 -0.18439268995E+03  0.12510792087E+03 -0.17389061486E+03  0.28264925599E+03  0.00000000000E+00 0. -1.
         -3    1    3    3    0  502 -0.40697944108E+03  0.34251316632E+03 -0.57126624026E+03  0.78057200297E+03  0.00000000000E+00 0.  1.
         13    1    5    5    0    0  0.16465582316E+03 -0.29718659578E+02 -0.24636857186E+02  0.16912041143E+03  0.00000000000E+00 0. -1.
        -13    1    5    5    0    0  0.56526226815E+03 -0.26061083814E+03 -0.17479018225E+03  0.64652227229E+03  0.00000000000E+00 0.  1.
          3    1    6    6  503    0  0.16549237759E+01 -0.61111849992E+02 -0.11563807450E+03  0.13080352158E+03  0.00000000000E+00 0. -1.
         -3    1    6    6    0  503 -0.14020088406E+03 -0.11617973948E+03 -0.37192349521E+03  0.41410277232E+03  0.00000000000E+00 0.  1.
<mgrwt>
<rscale>  0 0.19554083E+04</rscale>
<asrwt>0</asrwt>
<pdfrwt beam="1">  1        2 0.29660890E+00 0.19554083E+04</pdfrwt>
<pdfrwt beam="2">  1       -1 0.76278828E-01 0.19554083E+04</pdfrwt>
<totfact> 0.13422205E+01</totfact>
</mgrwt>
</event>
<event>
12    7  0.2466188E-007  0.2363815E+04  0.7818608E-02  0.8453176E-01
          2   -1    0    0  501    0  0.00000000000E+00  0.00000000000E+00  0.51962482616E+04  0.51962482616E+04  0.00000000000E+00 0. -1.
         -1   -1    0    0    0  501 -0.00000000000E+00 -0.00000000000E+00 -0.26882966968E+03  0.26882966968E+03  0.00000000000E+00 0.  1.
         24    2    1    2    0    0 -0.72466662286E+03 -0.33165071226E+03  0.67903355181E+03  0.10498773732E+04  0.77601707217E+02 0.  0.
        254    2    1    2    0    0  0.72466662286E+03  0.33165071226E+03  0.42483850401E+04  0.44152005581E+04  0.90004811550E+03 0.  0.
         23    2    4    4    0    0 -0.81383668627E+02  0.35472767122E+02  0.20416805248E+04  0.20455800639E+04  0.89759755496E+02 0.  0.
         23    2    4    4    0    0  0.80605029149E+03  0.29617794514E+03  0.22067045153E+04  0.23696204942E+04  0.90100062300E+02 0.  0.
          2    1    3    3  502    0 -0.33044229119E+03 -0.13667745585E+03  0.25726527139E+03  0.44052043609E+03  0.00000000000E+00 0. -1.
         -1    1    3    3    0  502 -0.39422433167E+03 -0.19497325640E+03  0.42176828042E+03  0.60935693708E+03  0.00000000000E+00 0.  1.
         13    1    5    5    0    0 -0.79939142061E+02  0.42459179743E+02  0.10555765747E+04  0.10594503072E+04  0.00000000000E+00 0. -1.
        -13    1    5    5    0    0 -0.14445265656E+01 -0.69864126206E+01  0.98610395011E+03  0.98612975670E+03  0.00000000000E+00 0.  1.
          2    1    6    6  503    0  0.52011571845E+03  0.14663011891E+03  0.13471656380E+04  0.14515081841E+04  0.00000000000E+00 0. -1.
         -2    1    6    6    0  503  0.28593457304E+03  0.14954782622E+03  0.85953887731E+03  0.91811231012E+03  0.00000000000E+00 0.  1.
<mgrwt>
<rscale>  0 0.23638153E+04</rscale>
<asrwt>0</asrwt>
<pdfrwt beam="1">  1        2 0.79942273E+00 0.23638153E+04</pdfrwt>
<pdfrwt beam="2">  1       -1 0.41358415E-01 0.23638153E+04</pdfrwt>
<totfact> 0.11149652E-01</totfact>
</mgrwt>
</event>
<event>
12    7  0.2466188E-007  0.3351823E+04  0.7818608E-02  0.8149833E-01
          2   -1    0    0  501    0  0.00000000000E+00  0.00000000000E+00  0.29279812992E+04  0.29279812992E+04  0.00000000000E+00 0. -1.
         -1   -1    0    0    0  501 -0.00000000000E+00 -0.00000000000E+00 -0.95925450068E+03  0.95925450068E+03  0.00000000000E+00 0.  1.
         24    2    1    2    0    0 -0.10081588806E+04 -0.30284021749E+02  0.22851407425E+04  0.24995284200E+04  0.92047047225E+02 0.  0.
        254    2    1    2    0    0  0.10081588806E+04  0.30284021749E+02 -0.31641394396E+03  0.13877073799E+04  0.89906203216E+03 0.  0.
         23    2    4    4    0    0  0.88829577146E+03 -0.11137125141E+03  0.11727792360E+03  0.90727476736E+03  0.88996960036E+02 0.  0.
         23    2    4    4    0    0  0.11986310918E+03  0.14165527316E+03 -0.43369186757E+03  0.48043261252E+03  0.91068533669E+02 0.  0.
          2    1    3    3  502    0 -0.69306012208E+03 -0.29291068646E+02  0.16712090527E+04  0.18094557185E+04  0.00000000000E+00 0. -1.
         -1    1    3    3    0  502 -0.31509875855E+03 -0.99295310237E+00  0.61393168980E+03  0.69007270149E+03  0.00000000000E+00 0.  1.
         13    1    5    5    0    0  0.45621832186E+03 -0.61495238160E+02  0.15635695588E+02  0.46060970083E+03  0.00000000000E+00 0.  1.
        -13    1    5    5    0    0  0.43207744959E+03 -0.49876013251E+02  0.10164222801E+03  0.44666506653E+03  0.00000000000E+00 0. -1.
          2    1    6    6  503    0  0.83753931940E+02  0.51507811290E+02 -0.29628256972E+03  0.31217164646E+03  0.00000000000E+00 0. -1.
         -2    1    6    6    0  503  0.36109177236E+02  0.90147461869E+02 -0.13740929785E+03  0.16826096606E+03  0.00000000000E+00 0.  1.
<mgrwt>
<rscale>  0 0.33518229E+04</rscale>
<asrwt>0</asrwt>
<pdfrwt beam="1">  1        2 0.45045866E+00 0.33518229E+04</pdfrwt>
<pdfrwt beam="2">  1       -1 0.14757762E+00 0.33518229E+04</pdfrwt>
<totfact> 0.66439933E-01</totfact>
</mgrwt>
</event>
<event>
12    7  0.2466188E-007  0.3160527E+04  0.7818608E-02  0.8199320E-01
          2   -1    0    0  501    0  0.00000000000E+00  0.00000000000E+00  0.25822139169E+04  0.25822139169E+04  0.00000000000E+00 0. -1.
         -1   -1    0    0    0  501 -0.00000000000E+00 -0.00000000000E+00 -0.96708999850E+03  0.96708999850E+03  0.00000000000E+00 0.  1.
         24    2    1    2    0    0  0.62045152293E+03  0.57618932263E+03  0.20647773911E+04  0.22330766117E+04  0.79820117526E+02 0.  0.
        254    2    1    2    0    0 -0.62045152293E+03 -0.57618932263E+03 -0.44965347272E+03  0.13162273037E+04  0.90183803509E+03 0.  0.
         23    2    4    4    0    0 -0.56134413198E+03  0.72590652051E+02 -0.14780935921E+03  0.59207931261E+03  0.91288928589E+02 0.  0.
         23    2    4    4    0    0 -0.59107390954E+02 -0.64877997468E+03 -0.30184411352E+03  0.72414799104E+03  0.94187604559E+02 0.  0.
          2    1    3    3  502    0  0.47360221516E+03  0.41888904082E+03  0.14549325449E+04  0.15863782011E+04  0.00000000000E+00 0. -1.
         -1    1    3    3    0  502  0.14684930778E+03  0.15730028181E+03  0.60984484620E+03  0.64669841061E+03  0.00000000000E+00 0.  1.
         13    1    5    5    0    0 -0.95692820526E+02 -0.73255683044E+01  0.33404274585E+01  0.96030923701E+02  0.00000000000E+00 0.  1.
        -13    1    5    5    0    0 -0.46565131145E+03  0.79916220355E+02 -0.15114978666E+03  0.49604838891E+03  0.00000000000E+00 0. -1.
          2    1    6    6  503    0  0.19626680617E+02 -0.22309641378E+03 -0.80904138607E+02  0.23812327916E+03  0.00000000000E+00 0. -1.
         -2    1    6    6    0  503 -0.78734071571E+02 -0.42568356089E+03 -0.22093997491E+03  0.48602471188E+03  0.00000000000E+00 0.  1.
<mgrwt>
<rscale>  0 0.31605273E+04</rscale>
<asrwt>0</asrwt>
<pdfrwt beam="1">  1        2 0.39726368E+00 0.31605273E+04</pdfrwt>
<pdfrwt beam="2">  1       -1 0.14878308E+00 0.31605273E+04</pdfrwt>
<totfact> 0.10670018E+00</totfact>
</mgrwt>
</event>
<event>
12    7  0.2466188E-007  0.1711641E+04  0.7818608E-02  0.8754753E-01
          2   -1    0    0  501    0  0.00000000000E+00  0.00000000000E+00  0.23145621738E+04  0.23145621738E+04  0.00000000000E+00 0. -1.
         -1   -1    0    0    0  501 -0.00000000000E+00 -0.00000000000E+00 -0.31644365340E+03  0.31644365340E+03  0.00000000000E+00 0.  1.
         24    2    1    2    0    0 -0.51476335394E+02 -0.56047848397E+03  0.11106507451E+04  0.12473121501E+04  0.73868654198E+02 0.  0.
        254    2    1    2    0    0  0.51476335394E+02  0.56047848397E+03  0.88746777537E+03  0.13836936772E+04  0.90012398915E+03 0.  0.
         23    2    4    4    0    0 -0.13471698131E+03 -0.19296241212E+03  0.35441645318E+03  0.43681611548E+03  0.99066335941E+02 0.  0.
         23    2    4    4    0    0  0.18619331670E+03  0.75344089609E+03  0.53305132220E+03  0.94687756170E+03  0.10046028899E+03 0.  0.
          4    1    3    3  502    0 -0.44860234169E+02 -0.31600605028E+03  0.70041362582E+03  0.76970871871E+03  0.00000000000E+00 0. -1.
         -3    1    3    3    0  502 -0.66161012246E+01 -0.24447243370E+03  0.41023711924E+03  0.47760343134E+03  0.00000000000E+00 0.  1.
         13    1    5    5    0    0 -0.14168306392E+03 -0.18470294133E+03  0.29181855736E+03  0.37329256295E+03  0.00000000000E+00 0. -1.
        -13    1    5    5    0    0  0.69660826129E+01 -0.82594707905E+01  0.62597895818E+02  0.63523552526E+02  0.00000000000E+00 0.  1.
          4    1    6    6  503    0  0.16902982383E+03  0.65496850027E+03  0.50151343700E+03  0.84206326673E+03  0.00000000000E+00 0. -1.
         -4    1    6    6    0  503  0.17163492873E+02  0.98472395827E+02  0.31537885201E+02  0.10481429497E+03  0.00000000000E+00 0.  1.
<mgrwt>
<rscale>  0 0.17116407E+04</rscale>
<asrwt>0</asrwt>
<pdfrwt beam="1">  1        2 0.35608648E+00 0.17116407E+04</pdfrwt>
<pdfrwt beam="2">  1       -1 0.48683640E-01 0.17116407E+04</pdfrwt>
<totfact> 0.20352023E+01</totfact>
</mgrwt>
</event>
<event>
12    7  0.2466188E-007  0.1979372E+04  0.7818608E-02  0.8616326E-01
         -1   -1    0    0    0  501 -0.00000000000E+00  0.00000000000E+00  0.47150666410E+03  0.47150666410E+03  0.00000000000E+00 0.  1.
          2   -1    0    0  501    0  0.00000000000E+00 -0.00000000000E+00 -0.20773367803E+04  0.20773367803E+04  0.00000000000E+00 0. -1.
         24    2    1    2    0    0  0.67166337976E+01  0.45440386061E+03  0.18232855789E+03  0.49595505038E+03  0.78738346898E+02 0.  0.
        254    2    1    2    0    0 -0.67166337976E+01 -0.45440386061E+03 -0.17881586741E+04  0.20528883940E+04  0.90017294607E+03 0.  0.
         23    2    4    4    0    0  0.22055227078E+03 -0.60466995531E+03 -0.83973554965E+03  0.10618531535E+04  0.90040364407E+02 0.  0.
         23    2    4    4    0    0 -0.22726890458E+03  0.15026609471E+03 -0.94842312444E+03  0.99103524053E+03  0.91724428483E+02 0.  0.
          4    1    3    3  502    0 -0.87576165559E+01  0.20366280997E+03  0.41763365480E+02  0.20808511410E+03  0.00000000000E+00 0. -1.
         -3    1    3    3    0  502  0.15474250353E+02  0.25074105063E+03  0.14056519241E+03  0.28786993628E+03  0.00000000000E+00 0.  1.
         13    1    5    5    0    0  0.11995773980E+03 -0.44750047438E+03 -0.59877313867E+03  0.75708375065E+03  0.00000000000E+00 0. -1.
        -13    1    5    5    0    0  0.10059453098E+03 -0.15716948094E+03 -0.24096241097E+03  0.30476940283E+03  0.00000000000E+00 0.  1.
          1    1    6    6  503    0 -0.50797641074E+02  0.43064635410E+02 -0.39033171647E+03  0.39597198392E+03  0.00000000000E+00 0. -1.
         -1    1    6    6    0  503 -0.17647126350E+03  0.10720145930E+03 -0.55809140797E+03  0.59506325661E+03  0.00000000000E+00 0.  1.
<mgrwt>
<rscale>  0 0.19793718E+04</rscale>
<asrwt>0</asrwt>
<pdfrwt beam="1">  1        2 0.31959027E+00 0.19793718E+04</pdfrwt>
<pdfrwt beam="2">  1       -1 0.72539487E-01 0.19793718E+04</pdfrwt>
<totfact> 0.12285798E+01</totfact>
</mgrwt>
</event>
<event>
12    7  0.2466188E-007  0.2137022E+04  0.7818608E-02  0.8545108E-01
         -1   -1    0    0    0  501 -0.00000000000E+00  0.00000000000E+00  0.85802699691E+03  0.85802699691E+03  0.00000000000E+00 0.  1.
          2   -1    0    0  501    0  0.00000000000E+00 -0.00000000000E+00 -0.13306297399E+04  0.13306297399E+04  0.00000000000E+00 0. -1.
         24    2    1    2    0    0  0.18630667933E+03 -0.75613726363E+03 -0.60668017155E+03  0.99046474942E+03  0.80658843839E+02 0.  0.
        254    2    1    2    0    0 -0.18630667933E+03  0.75613726363E+03  0.13407742857E+03  0.11981919874E+04  0.90068504017E+03 0.  0.
         23    2    4    4    0    0 -0.53072836802E+03  0.58169508866E+03  0.64481599589E+02  0.79515055416E+03  0.89803954837E+02 0.  0.
         23    2    4    4    0    0  0.34442168869E+03  0.17444217496E+03  0.69595828977E+02  0.40304143323E+03  0.92425350657E+02 0.  0.
          4    1    3    3  502    0  0.11614381994E+03 -0.60813237564E+03 -0.47955851527E+03  0.78312881621E+03  0.00000000000E+00 0. -1.
         -3    1    3    3    0  502  0.70162859386E+02 -0.14800488799E+03 -0.12712165629E+03  0.20733593321E+03  0.00000000000E+00 0.  1.
         13    1    5    5    0    0 -0.40743640479E+02  0.15200350838E+02  0.16161295824E+01  0.43516741376E+02  0.00000000000E+00 0. -1.
        -13    1    5    5    0    0 -0.48998472754E+03  0.56649473783E+03  0.62865470007E+02  0.75163381279E+03  0.00000000000E+00 0.  1.
          1    1    6    6  503    0  0.10403183179E+03  0.41069580090E+02  0.62318966383E+02  0.12803509677E+03  0.00000000000E+00 0.  1.
         -1    1    6    6    0  503  0.24038985690E+03  0.13337259487E+03  0.72768625943E+01  0.27500633646E+03  0.00000000000E+00 0. -1.
<mgrwt>
<rscale>  0 0.21370225E+04</rscale>
<asrwt>0</asrwt>
<pdfrwt beam="1">  1        2 0.20471227E+00 0.21370225E+04</pdfrwt>
<pdfrwt beam="2">  1       -1 0.13200415E+00 0.21370225E+04</pdfrwt>
<totfact> 0.81055516E+00</totfact>
</mgrwt>
</event>
<event>
12    7  0.2466188E-007  0.2328849E+04  0.7818608E-02  0.8466633E-01
          2   -1    0    0  501    0  0.00000000000E+00  0.00000000000E+00  0.28613147318E+04  0.28613147318E+04  0.00000000000E+00 0. -1.
         -1   -1    0    0    0  501 -0.00000000000E+00 -0.00000000000E+00 -0.47386746933E+03  0.47386746933E+03  0.00000000000E+00 0.  1.
         24    2    1    2    0    0 -0.96483976546E+03 -0.18681208665E+03  0.11422803560E+04  0.15089455066E+04  0.79357429398E+02 0.  0.
        254    2    1    2    0    0  0.96483976546E+03  0.18681208665E+03  0.12451669065E+04  0.18262366945E+04  0.90492282023E+03 0.  0.
         23    2    4    4    0    0  0.53392109207E+03  0.45689057751E+03  0.10657780389E+04  0.12797381793E+04  0.89589323204E+02 0.  0.
         23    2    4    4    0    0  0.43091867339E+03 -0.27007849086E+03  0.17938886755E+03  0.54649851522E+03  0.88583108089E+02 0.  0.
          4    1    3    3  502    0 -0.41487360995E+03 -0.96571665051E+02  0.44024283591E+03  0.61258464991E+03  0.00000000000E+00 0. -1.
         -3    1    3    3    0  502 -0.54996615551E+03 -0.90240421594E+02  0.70203752007E+03  0.89636085673E+03  0.00000000000E+00 0.  1.
         13    1    5    5    0    0  0.27373746240E+03  0.17550877161E+03  0.49128426275E+03  0.58914832942E+03  0.00000000000E+00 0.  1.
        -13    1    5    5    0    0  0.26018362967E+03  0.28138180590E+03  0.57449377618E+03  0.69058984985E+03  0.00000000000E+00 0. -1.
          3    1    6    6  503    0  0.33081618028E+03 -0.21631521662E+03  0.17638640083E+03  0.43283227753E+03  0.00000000000E+00 0. -1.
         -3    1    6    6    0  503  0.10010249311E+03 -0.53763274241E+02  0.30024667157E+01  0.11366623769E+03  0.00000000000E+00 0.  1.
<mgrwt>
<rscale>  0 0.23288486E+04</rscale>
<asrwt>0</asrwt>
<pdfrwt beam="1">  1        2 0.44020226E+00 0.23288486E+04</pdfrwt>
<pdfrwt beam="2">  1       -1 0.72902689E-01 0.23288486E+04</pdfrwt>
<totfact> 0.41435346E+00</totfact>
</mgrwt>
</event>
<event>
12    7  0.2466188E-007  0.1845141E+04  0.7818608E-02  0.8682656E-01
          2   -1    0    0  501    0  0.00000000000E+00  0.00000000000E+00  0.20882062325E+04  0.20882062325E+04  0.00000000000E+00 0. -1.
         -1   -1    0    0    0  501 -0.00000000000E+00 -0.00000000000E+00 -0.40759188222E+03  0.40759188222E+03  0.00000000000E+00 0.  1.
         24    2    1    2    0    0 -0.22779756843E+03  0.62634105368E+03  0.35108120365E+03  0.75752779499E+03  0.79971875823E+02 0.  0.
        254    2    1    2    0    0  0.22779756843E+03 -0.62634105368E+03  0.13295331466E+04  0.17382703197E+04  0.89985024795E+03 0.  0.
         23    2    4    4    0    0  0.16170231978E+03  0.47166167958E+02 -0.45711578439E+02  0.20288915897E+03  0.10345131609E+03 0.  0.
         23    2    4    4    0    0  0.66095248645E+02 -0.67350722164E+03  0.13752447250E+04  0.15353811607E+04  0.90092705006E+02 0.  0.
          4    1    3    3  502    0 -0.11106202267E+03  0.30583213211E+03  0.21656784478E+03  0.39085764327E+03  0.00000000000E+00 0. -1.
         -3    1    3    3    0  502 -0.11673554576E+03  0.32050892157E+03  0.13451335888E+03  0.36667015172E+03  0.00000000000E+00 0.  1.
         13    1    5    5    0    0  0.46245310462E+02  0.23613036822E+01 -0.62634128572E+02  0.77892480746E+02  0.00000000000E+00 0.  1.
        -13    1    5    5    0    0  0.11545700932E+03  0.44804864275E+02  0.16922550133E+02  0.12499667822E+03  0.00000000000E+00 0. -1.
          2    1    6    6  503    0  0.50073547783E+02 -0.60974463405E+03  0.11768282717E+04  0.13263561588E+04  0.00000000000E+00 0. -1.
         -2    1    6    6    0  503  0.16021700862E+02 -0.63762587583E+02  0.19841645329E+03  0.20902500188E+03  0.00000000000E+00 0.  1.
<mgrwt>
<rscale>  0 0.18451405E+04</rscale>
<asrwt>0</asrwt>
<pdfrwt beam="1">  1        2 0.32126249E+00 0.18451405E+04</pdfrwt>
<pdfrwt beam="2">  1       -1 0.62706444E-01 0.18451405E+04</pdfrwt>
<totfact> 0.16484607E+01</totfact>
</mgrwt>
</event>
<event>
12    7  0.2466188E-007  0.1132447E+04  0.7818608E-02  0.9174132E-01
         -1   -1    0    0    0  501 -0.00000000000E+00  0.00000000000E+00  0.29024746602E+03  0.29024746602E+03  0.00000000000E+00 0.  1.
          2   -1    0    0  501    0  0.00000000000E+00 -0.00000000000E+00 -0.11046049515E+04  0.11046049515E+04  0.00000000000E+00 0. -1.
         24    2    1    2    0    0  0.16202207418E+03 -0.75621241087E+02 -0.25519084359E+03  0.32082765338E+03  0.76408716085E+02 0.  0.
        254    2    1    2    0    0 -0.16202207418E+03  0.75621241087E+02 -0.55916664183E+03  0.10740247641E+04  0.89938430936E+03 0.  0.
         23    2    4    4    0    0 -0.38173915879E+03 -0.16080371134E+03 -0.29510851459E+01  0.42449549470E+03  0.92763663052E+02 0.  0.
         23    2    4    4    0    0  0.21971708460E+03  0.23642495243E+03 -0.55621555669E+03  0.64952926940E+03  0.91324536172E+02 0.  0.
          4    1    3    3  502    0  0.84036565302E+02 -0.18919809003E+02 -0.17640313436E+03  0.19631140897E+03  0.00000000000E+00 0. -1.
         -3    1    3    3    0  502  0.77985508880E+02 -0.56701432084E+02 -0.78787709239E+02  0.12451624441E+03  0.00000000000E+00 0.  1.
         13    1    5    5    0    0 -0.36210257475E+03 -0.12403968173E+03 -0.77946338030E+00  0.38275935632E+03  0.00000000000E+00 0. -1.
        -13    1    5    5    0    0 -0.19636584032E+02 -0.36764029608E+02 -0.21716217656E+01  0.41736138377E+02  0.00000000000E+00 0.  1.
          3    1    6    6  503    0  0.22106992562E+03  0.20259099253E+03 -0.47757534255E+03  0.56390888456E+03  0.00000000000E+00 0. -1.
         -3    1    6    6    0  503 -0.13528410176E+01  0.33833959900E+02 -0.78640214133E+02  0.85620384841E+02  0.00000000000E+00 0.  1.
<mgrwt>
<rscale>  0 0.11324465E+04</rscale>
<asrwt>0</asrwt>
<pdfrwt beam="1">  1        2 0.16993923E+00 0.11324465E+04</pdfrwt>
<pdfrwt beam="2">  1       -1 0.44653455E-01 0.11324465E+04</pdfrwt>
<totfact> 0.12143892E+02</totfact>
</mgrwt>
</event>
<event>
12    7  0.2466188E-007  0.3527604E+04  0.7818608E-02  0.8107279E-01
          2   -1    0    0  501    0  0.00000000000E+00  0.00000000000E+00  0.22124104634E+04  0.22124104634E+04  0.00000000000E+00 0. -1.
         -1   -1    0    0    0  501 -0.00000000000E+00 -0.00000000000E+00 -0.14061571980E+04  0.14061571980E+04  0.00000000000E+00 0.  1.
         24    2    1    2    0    0 -0.68295706631E+03 -0.13741302982E+04 -0.24196404902E+03  0.15553793109E+04  0.77419434208E+02 0.  0.
        254    2    1    2    0    0  0.68295706631E+03  0.13741302982E+04  0.10482173144E+04  0.20631883505E+04  0.89628243342E+03 0.  0.
         23    2    4    4    0    0  0.27324799469E+03  0.36380451596E+03  0.82458193316E+03  0.94639239933E+03  0.93300678383E+02 0.  0.
         23    2    4    4    0    0  0.40970907162E+03  0.10103257823E+04  0.22363538121E+03  0.11167959511E+04  0.92739975530E+02 0.  0.
          4    1    3    3  502    0 -0.35526555932E+03 -0.79776781224E+03 -0.12707239677E+03  0.88249333930E+03  0.00000000000E+00 0. -1.
         -3    1    3    3    0  502 -0.32769150699E+03 -0.57636248600E+03 -0.11489165225E+03  0.67288597160E+03  0.00000000000E+00 0.  1.
         13    1    5    5    0    0  0.39258636544E+02  0.83901108903E+02  0.10797986287E+03  0.14226836403E+03  0.00000000000E+00 0.  1.
        -13    1    5    5    0    0  0.23398935815E+03  0.27990340705E+03  0.71660207028E+03  0.80412403530E+03  0.00000000000E+00 0. -1.
          3    1    6    6  503    0  0.40931200214E+03  0.95717117734E+03  0.21343779779E+03  0.10626705375E+04  0.00000000000E+00 0. -1.
         -3    1    6    6    0  503  0.39706947650E+00  0.53154604945E+02  0.10197583417E+02  0.54125413611E+02  0.00000000000E+00 0.  1.
<mgrwt>
<rscale>  0 0.35276037E+04</rscale>
<asrwt>0</asrwt>
<pdfrwt beam="1">  1        2 0.34037084E+00 0.35276037E+04</pdfrwt>
<pdfrwt beam="2">  1       -1 0.21633188E+00 0.35276037E+04</pdfrwt>
<totfact> 0.55174233E-01</totfact>
</mgrwt>
</event>
<event>
12    7  0.2466188E-007  0.1064523E+04  0.7818608E-02  0.9240477E-01
         -1   -1    0    0    0  501 -0.00000000000E+00  0.00000000000E+00  0.15176349558E+04  0.15176349558E+04  0.00000000000E+00 0.  1.
          2   -1    0    0  501    0  0.00000000000E+00 -0.00000000000E+00 -0.18667369100E+03  0.18667369100E+03  0.00000000000E+00 0. -1.
         24    2    1    2    0    0 -0.10290913741E+03  0.75481005146E+02  0.23683787398E+03  0.28066308332E+03  0.79949453333E+02 0.  0.
        254    2    1    2    0    0  0.10290913741E+03 -0.75481005146E+02  0.10941233908E+04  0.14236455634E+04  0.90187195507E+03 0.  0.
         23    2    4    4    0    0  0.89386999212E+02  0.34897136082E+03  0.18240600011E+03  0.41350128779E+03  0.89108472261E+02 0.  0.
         23    2    4    4    0    0  0.13522138197E+02 -0.42445236596E+03  0.91171739068E+03  0.10101442757E+04  0.93915909064E+02 0.  0.
          2    1    3    3  502    0 -0.81339277008E+02  0.34291755234E+02  0.87645327793E+02  0.12439335169E+03  0.00000000000E+00 0. -1.
         -1    1    3    3    0  502 -0.21569860402E+02  0.41189249912E+02  0.14919254619E+03  0.15626973163E+03  0.00000000000E+00 0.  1.
         13    1    5    5    0    0  0.10129484152E+03  0.24673330577E+03  0.11492298362E+03  0.29042255639E+03  0.00000000000E+00 0. -1.
        -13    1    5    5    0    0 -0.11907842312E+02  0.10223805504E+03  0.67483016492E+02  0.12307873140E+03  0.00000000000E+00 0.  1.
          1    1    6    6  503    0  0.14950631889E+02 -0.15375799690E+03  0.43924435540E+03  0.46561856359E+03  0.00000000000E+00 0. -1.
         -1    1    6    6    0  503 -0.14284936917E+01 -0.27069436906E+03  0.47247303528E+03  0.54452571207E+03  0.00000000000E+00 0.  1.
<mgrwt>
<rscale>  0 0.10645234E+04</rscale>
<asrwt>0</asrwt>
<pdfrwt beam="1">  1        2 0.28719030E-01 0.10645234E+04</pdfrwt>
<pdfrwt beam="2">  1       -1 0.23348229E+00 0.10645234E+04</pdfrwt>
<totfact> 0.19194542E+01</totfact>
</mgrwt>
</event>
<event>
12    7  0.2466188E-007  0.1059049E+04  0.7818608E-02  0.9246051E-01
         -1   -1    0    0    0  501 -0.00000000000E+00  0.00000000000E+00  0.19300370200E+03  0.19300370200E+03  0.00000000000E+00 0.  1.
          2   -1    0    0  501    0  0.00000000000E+00 -0.00000000000E+00 -0.14528020038E+04  0.14528020038E+04  0.00000000000E+00 0. -1.
         24    2    1    2    0    0  0.39771585462E+01 -0.98999513660E+02 -0.55278869413E+02  0.13957941028E+03  0.81301518292E+02 0.  0.
        254    2    1    2    0    0 -0.39771585462E+01  0.98999513660E+02 -0.12045194324E+04  0.15062262955E+04  0.89890704124E+03 0.  0.
         23    2    4    4    0    0  0.28360192753E+03  0.28117508285E+03 -0.22793147575E+03  0.46782338522E+03  0.86118996802E+02 0.  0.
         23    2    4    4    0    0 -0.28757908607E+03 -0.18217556919E+03 -0.97658795664E+03  0.10384029103E+04  0.93096177576E+02 0.  0.
          2    1    3    3  502    0 -0.10598684265E+02  0.42753336155E+01 -0.30225886165E+02  0.32314312311E+02  0.00000000000E+00 0. -1.
         -3    1    3    3    0  502  0.14575842811E+02 -0.10327484728E+03 -0.25052983248E+02  0.10726509797E+03  0.00000000000E+00 0.  1.
         13    1    5    5    0    0  0.14008095363E+03  0.19513951056E+03 -0.11818904077E+03  0.26771393596E+03  0.00000000000E+00 0. -1.
        -13    1    5    5    0    0  0.14352097390E+03  0.86035572297E+02 -0.10974243497E+03  0.20010944926E+03  0.00000000000E+00 0.  1.
          1    1    6    6  503    0 -0.49654883282E+01 -0.14639799151E+02 -0.11964160309E+03  0.12063620097E+03  0.00000000000E+00 0. -1.
         -1    1    6    6    0  503 -0.28261359775E+03 -0.16753577004E+03 -0.85694635355E+03  0.91776670932E+03  0.00000000000E+00 0.  1.
<mgrwt>
<rscale>  0 0.10590489E+04</rscale>
<asrwt>0</asrwt>
<pdfrwt beam="1">  1        2 0.22350799E+00 0.10590489E+04</pdfrwt>
<pdfrwt beam="2">  1       -1 0.29692879E-01 0.10590489E+04</pdfrwt>
<totfact> 0.15891479E+02</totfact>
</mgrwt>
</event>
<event>
12    7  0.2466188E-007  0.3488674E+04  0.7818608E-02  0.8116479E-01
          2   -1    0    0  501    0  0.00000000000E+00  0.00000000000E+00  0.16960036003E+04  0.16960036003E+04  0.00000000000E+00 0. -1.
         -1   -1    0    0    0  501 -0.00000000000E+00 -0.00000000000E+00 -0.17940473922E+04  0.17940473922E+04  0.00000000000E+00 0.  1.
         24    2    1    2    0    0  0.13464256913E+04  0.62779092626E+03  0.61766222135E+03  0.16107348023E+04  0.77307142881E+02 0.  0.
        254    2    1    2    0    0 -0.13464256913E+04 -0.62779092626E+03 -0.71570601318E+03  0.18793161902E+04  0.90144919784E+03 0.  0.
         23    2    4    4    0    0 -0.28729578239E+03 -0.47426957219E+03  0.42798224748E+02  0.56458988520E+03  0.97260252684E+02 0.  0.
         23    2    4    4    0    0 -0.10591299089E+04 -0.15352135407E+03 -0.75850423793E+03  0.13147263050E+04  0.88609300251E+02 0.  0.
          4    1    3    3  502    0  0.11884348971E+04  0.52933747353E+03  0.55339834728E+03  0.14137982163E+04  0.00000000000E+00 0. -1.
         -3    1    3    3    0  502  0.15799079415E+03  0.98453452728E+02  0.64263874077E+02  0.19693658599E+03  0.00000000000E+00 0.  1.
         13    1    5    5    0    0 -0.18216380083E+03 -0.36576215628E+03  0.58133615302E+02  0.41272887291E+03  0.00000000000E+00 0. -1.
        -13    1    5    5    0    0 -0.10513198156E+03 -0.10850741590E+03 -0.15335390554E+02  0.15186101230E+03  0.00000000000E+00 0.  1.
          4    1    6    6  503    0 -0.76466756972E+03 -0.76314676843E+02 -0.51768776736E+03  0.92657490067E+03  0.00000000000E+00 0. -1.
         -4    1    6    6    0  503 -0.29446233917E+03 -0.77206677230E+02 -0.24081647057E+03  0.38815140434E+03  0.00000000000E+00 0.  1.
<mgrwt>
<rscale>  0 0.34886736E+04</rscale>
<asrwt>0</asrwt>
<pdfrwt beam="1">  1        2 0.26092363E+00 0.34886736E+04</pdfrwt>
<pdfrwt beam="2">  1       -1 0.27600729E+00 0.34886736E+04</pdfrwt>
<totfact> 0.43585064E-01</totfact>
</mgrwt>
</event>
<event>
12    7  0.2466188E-007  0.2119177E+04  0.7818608E-02  0.8552842E-01
          2   -1    0    0  501    0  0.00000000000E+00  0.00000000000E+00  0.11716967447E+04  0.11716967447E+04  0.00000000000E+00 0. -1.
         -1   -1    0    0    0  501 -0.00000000000E+00 -0.00000000000E+00 -0.95820714335E+03  0.95820714335E+03  0.00000000000E+00 0.  1.
         24    2    1    2    0    0  0.51964543228E+03 -0.62282333621E+03  0.39053878340E+03  0.90388517783E+03  0.80917179512E+02 0.  0.
        254    2    1    2    0    0 -0.51964543228E+03  0.62282333621E+03 -0.17704918209E+03  0.12260187102E+04  0.90212814026E+03 0.  0.
         23    2    4    4    0    0  0.85759444218E+02  0.12455752695E+03 -0.37290863050E+03  0.41277663942E+03  0.91948069889E+02 0.  0.
         23    2    4    4    0    0 -0.60540487650E+03  0.49826580926E+03  0.19585944842E+03  0.81324207077E+03  0.90652418463E+02 0.  0.
          2    1    3    3  502    0  0.46401301843E+03 -0.57328939660E+03  0.37650836791E+03  0.82808656832E+03  0.00000000000E+00 0. -1.
         -1    1    3    3    0  502  0.55632413852E+02 -0.49533939603E+02  0.14030415483E+02  0.75798609501E+02  0.00000000000E+00 0.  1.
         13    1    5    5    0    0  0.11317631028E+02 -0.87436777819E+01 -0.62650705905E+01  0.15613833058E+02  0.00000000000E+00 0. -1.
        -13    1    5    5    0    0  0.74441813189E+02  0.13330120473E+03 -0.36664355991E+03  0.39716280636E+03  0.00000000000E+00 0.  1.
          3    1    6    6  503    0 -0.92849251266E+02  0.75219173367E+02  0.64508175492E+02  0.13579474293E+03  0.00000000000E+00 0. -1.
         -3    1    6    6    0  503 -0.51255562523E+03  0.42304663589E+03  0.13135127292E+03  0.67744732784E+03  0.00000000000E+00 0.  1.
<mgrwt>
<rscale>  0 0.21191774E+04</rscale>
<asrwt>0</asrwt>
<pdfrwt beam="1">  1        2 0.18026104E+00 0.21191774E+04</pdfrwt>
<pdfrwt beam="2">  1       -1 0.14741648E+00 0.21191774E+04</pdfrwt>
<totfact> 0.75548916E+00</totfact>
</mgrwt>
</event>
<event>
12    7  0.2466188E-007  0.1419205E+04  0.7818608E-02  0.8940033E-01
          2   -1    0    0  501    0  0.00000000000E+00  0.00000000000E+00  0.38178949990E+04  0.38178949990E+04  0.00000000000E+00 0. -1.
         -3   -1    0    0    0  501 -0.00000000000E+00 -0.00000000000E+00 -0.13188829718E+03  0.13188829718E+03  0.00000000000E+00 0.  1.
         24    2    1    2    0    0  0.44765600982E+02 -0.35174782651E+03  0.49399691351E+03  0.61394494227E+03  0.84646022319E+02 0.  0.
        254    2    1    2    0    0 -0.44765600982E+02  0.35174782651E+03  0.31920097883E+04  0.33358383539E+04  0.90175414737E+03 0.  0.
         23    2    4    4    0    0  0.30490393010E+03 -0.14799980548E+03  0.10819834276E+04  0.11375213249E+04  0.91631205651E+02 0.  0.
         23    2    4    4    0    0 -0.34966953108E+03  0.49974763199E+03  0.21100263607E+04  0.21983170291E+04  0.91487927113E+02 0.  0.
          4    1    3    3  502    0  0.34716170157E+01 -0.25214855689E+03  0.38800509874E+03  0.46275144896E+03  0.00000000000E+00 0. -1.
         -3    1    3    3    0  502  0.41293983967E+02 -0.99599269622E+02  0.10599181477E+03  0.15119349331E+03  0.00000000000E+00 0.  1.
         13    1    5    5    0    0  0.97520540958E+02 -0.84664310713E+02  0.50144927296E+03  0.51781239341E+03  0.00000000000E+00 0.  1.
        -13    1    5    5    0    0  0.20738338914E+03 -0.63335494765E+02  0.58053415468E+03  0.61970893147E+03  0.00000000000E+00 0. -1.
          4    1    6    6  503    0 -0.83694037570E+02  0.66691509345E+02  0.31174637023E+03  0.32960316852E+03  0.00000000000E+00 0.  1.
         -4    1    6    6    0  503 -0.26597549351E+03  0.43305612264E+03  0.17982799905E+04  0.18687138606E+04  0.00000000000E+00 0. -1.
<mgrwt>
<rscale>  0 0.14192049E+04</rscale>
<asrwt>0</asrwt>
<pdfrwt beam="1">  1        2 0.58736838E+00 0.14192049E+04</pdfrwt>
<pdfrwt beam="2">  1       -3 0.20290510E-01 0.14192049E+04</pdfrwt>
<totfact> 0.69336455E+00</totfact>
</mgrwt>
</event>
<event>
12    7  0.2466188E-007  0.2394522E+04  0.7818608E-02  0.8441557E-01
          2   -1    0    0  501    0  0.00000000000E+00  0.00000000000E+00  0.23110782388E+04  0.23110782388E+04  0.00000000000E+00 0. -1.
         -1   -1    0    0    0  501 -0.00000000000E+00 -0.00000000000E+00 -0.62024473603E+03  0.62024473603E+03  0.00000000000E+00 0.  1.
         24    2    1    2    0    0  0.49217789129E+03 -0.50079596847E+03 -0.18955661912E+03  0.73175609865E+03  0.80620080314E+02 0.  0.
        254    2    1    2    0    0 -0.49217789129E+03  0.50079596847E+03  0.18803901219E+04  0.21995668762E+04  0.89955086214E+03 0.  0.
         23    2    4    4    0    0 -0.80822597073E+01  0.17193622036E+03 -0.32082469831E+02  0.19764622360E+03  0.91691646516E+02 0.  0.
         23    2    4    4    0    0 -0.48409563158E+03  0.32885974811E+03  0.19124725918E+04  0.20019206526E+04  0.87393195763E+02 0.  0.
          2    1    3    3  502    0  0.80205053083E+02 -0.10760408685E+03 -0.97845226603E+01  0.13456309647E+03  0.00000000000E+00 0. -1.
         -1    1    3    3    0  502  0.41197283820E+03 -0.39319188162E+03 -0.17977209646E+03  0.59719300218E+03  0.00000000000E+00 0.  1.
         13    1    5    5    0    0 -0.29128778101E+02  0.27716920698E+02 -0.32812125347E+02  0.51897485261E+02  0.00000000000E+00 0. -1.
        -13    1    5    5    0    0  0.21046518394E+02  0.14421929966E+03  0.72965551608E+00  0.14574873834E+03  0.00000000000E+00 0.  1.
          1    1    6    6  503    0 -0.23661895525E+03  0.20605760882E+03  0.10920426282E+04  0.11362241724E+04  0.00000000000E+00 0. -1.
         -1    1    6    6    0  503 -0.24747667633E+03  0.12280213930E+03  0.82042996358E+03  0.86569648023E+03  0.00000000000E+00 0.  1.
<mgrwt>
<rscale>  0 0.23945222E+04</rscale>
<asrwt>0</asrwt>
<pdfrwt beam="1">  1        2 0.35555049E+00 0.23945222E+04</pdfrwt>
<pdfrwt beam="2">  1       -1 0.95422268E-01 0.23945222E+04</pdfrwt>
<totfact> 0.48476339E+00</totfact>
</mgrwt>
</event>
<event>
12    7  0.2466188E-007  0.1419949E+04  0.7818608E-02  0.8939503E-01
          2   -1    0    0  501    0  0.00000000000E+00  0.00000000000E+00  0.26823546583E+04  0.26823546583E+04  0.00000000000E+00 0. -1.
         -1   -1    0    0    0  501 -0.00000000000E+00 -0.00000000000E+00 -0.18791852683E+03  0.18791852683E+03  0.00000000000E+00 0.  1.
         24    2    1    2    0    0  0.13854241536E+02  0.31981565425E+03  0.19476082351E+03  0.38157371071E+03  0.72060569072E+02 0.  0.
        254    2    1    2    0    0 -0.13854241536E+02 -0.31981565425E+03  0.22996753079E+04  0.24886994744E+04  0.89590432481E+03 0.  0.
         23    2    4    4    0    0 -0.12789271027E+03 -0.33824107254E+03  0.28616942127E+03  0.46977735062E+03  0.89633994652E+02 0.  0.
         23    2    4    4    0    0  0.11403846873E+03  0.18425418290E+02  0.20135058867E+04  0.20189221238E+04  0.92175472956E+02 0.  0.
          2    1    3    3  502    0 -0.27798824160E+02  0.17568247291E+03  0.11270093818E+03  0.21056734642E+03  0.00000000000E+00 0. -1.
         -1    1    3    3    0  502  0.41653065696E+02  0.14413318134E+03  0.82059885338E+02  0.17100636429E+03  0.00000000000E+00 0.  1.
         13    1    5    5    0    0 -0.20848361885E+02 -0.88681808177E+02  0.28546265648E+02  0.95467306326E+02  0.00000000000E+00 0. -1.
        -13    1    5    5    0    0 -0.10704434838E+03 -0.24955926437E+03  0.25762315562E+03  0.37431004430E+03  0.00000000000E+00 0.  1.
          2    1    6    6  503    0  0.53764080647E+02 -0.26978016348E+01  0.15613467527E+04  0.15622744754E+04  0.00000000000E+00 0. -1.
         -2    1    6    6    0  503  0.60274388086E+02  0.21123219924E+02  0.45215913401E+03  0.45664764835E+03  0.00000000000E+00 0.  1.
<mgrwt>
<rscale>  0 0.14199495E+04</rscale>
<asrwt>0</asrwt>
<pdfrwt beam="1">  1        2 0.41266992E+00 0.14199495E+04</pdfrwt>
<pdfrwt beam="2">  1       -1 0.28910545E-01 0.14199495E+04</pdfrwt>
<totfact> 0.32954711E+01</totfact>
</mgrwt>
</event>
<event>
12    7  0.2466188E-007  0.1498537E+04  0.7818608E-02  0.8885426E-01
          4   -1    0    0  501    0  0.00000000000E+00  0.00000000000E+00  0.93023141931E+03  0.93023141931E+03  0.00000000000E+00 0. -1.
         -3   -1    0    0    0  501 -0.00000000000E+00 -0.00000000000E+00 -0.60350965984E+03  0.60350965984E+03  0.00000000000E+00 0.  1.
         24    2    1    2    0    0  0.29300929907E+03 -0.14392132863E+03  0.45750680463E+03  0.56762997440E+03  0.79520521760E+02 0.  0.
        254    2    1    2    0    0 -0.29300929907E+03  0.14392132863E+03 -0.13078504516E+03  0.96611110475E+03  0.89983228466E+03 0.  0.
         23    2    4    4    0    0 -0.11948216033E+02  0.48316278255E+03 -0.15517233934E+03  0.51572604572E+03  0.91136518621E+02 0.  0.
         23    2    4    4    0    0 -0.28106108304E+03 -0.33924145392E+03  0.24387294185E+02  0.45038505904E+03  0.90398367414E+02 0.  0.
          2    1    3    3  502    0  0.11649552333E+03 -0.10108215991E+03  0.20257758570E+03  0.25461046372E+03  0.00000000000E+00 0. -1.
         -1    1    3    3    0  502  0.17651377574E+03 -0.42839168717E+02  0.25492921893E+03  0.31301951068E+03  0.00000000000E+00 0.  1.
         13    1    5    5    0    0  0.39880975522E+02  0.22153904533E+03 -0.68712180189E+02  0.23535378586E+03  0.00000000000E+00 0.  1.
        -13    1    5    5    0    0 -0.51829191555E+02  0.26162373722E+03 -0.86460159154E+02  0.28037225985E+03  0.00000000000E+00 0. -1.
          2    1    6    6  503    0  0.19350257601E+01 -0.28501582445E+02 -0.52618200198E+01  0.29047741332E+02  0.00000000000E+00 0. -1.
         -2    1    6    6    0  503 -0.28299610880E+03 -0.31073987147E+03  0.29649114204E+02  0.42133731770E+03  0.00000000000E+00 0.  1.
<mgrwt>
<rscale>  0 0.14985375E+04</rscale>
<asrwt>0</asrwt>
<pdfrwt beam="1">  1        4 0.14311253E+00 0.14985375E+04</pdfrwt>
<pdfrwt beam="2">  1       -3 0.92847640E-01 0.14985375E+04</pdfrwt>
<totfact> 0.77365874E-01</totfact>
</mgrwt>
</event>
<event>
12    7  0.2466188E-007  0.1819063E+04  0.7818608E-02  0.8696227E-01
          2   -1    0    0  501    0  0.00000000000E+00  0.00000000000E+00  0.16708840197E+04  0.16708840197E+04  0.00000000000E+00 0. -1.
         -1   -1    0    0    0  501 -0.00000000000E+00 -0.00000000000E+00 -0.49509575021E+03  0.49509575021E+03  0.00000000000E+00 0.  1.
         24    2    1    2    0    0  0.42381831187E+03 -0.41086048564E+03  0.85867609614E+03  0.10446777098E+04  0.74823653325E+02 0.  0.
        254    2    1    2    0    0 -0.42381831187E+03  0.41086048564E+03  0.31711217337E+03  0.11213020601E+04  0.89907167648E+03 0.  0.
         23    2    4    4    0    0  0.13650171714E+03 -0.14534105585E+03 -0.79762224065E+02  0.23312026918E+03  0.90698986869E+02 0.  0.
         23    2    4    4    0    0 -0.56032002901E+03  0.55620154149E+03  0.39687439743E+03  0.88818179096E+03  0.89660006669E+02 0.  0.
          2    1    3    3  502    0  0.13177496982E+03 -0.12396525959E+03  0.32624479141E+03  0.37305186259E+03  0.00000000000E+00 0. -1.
         -1    1    3    3    0  502  0.29204334205E+03 -0.28689522605E+03  0.53243130472E+03  0.67162584719E+03  0.00000000000E+00 0.  1.
         13    1    5    5    0    0  0.92229786322E+01  0.24704790805E+01  0.13801109982E+02  0.16782051080E+02  0.00000000000E+00 0.  1.
        -13    1    5    5    0    0  0.12727873851E+03 -0.14781153493E+03 -0.93563334046E+02  0.21633821810E+03  0.00000000000E+00 0. -1.
          4    1    6    6  503    0 -0.46991926947E+03  0.47355903134E+03  0.36965652257E+03  0.76271109908E+03  0.00000000000E+00 0. -1.
         -4    1    6    6    0  503 -0.90400759537E+02  0.82642510154E+02  0.27217874861E+02  0.12547069188E+03  0.00000000000E+00 0.  1.
<mgrwt>
<rscale>  0 0.18190630E+04</rscale>
<asrwt>0</asrwt>
<pdfrwt beam="1">  1        2 0.25705908E+00 0.18190630E+04</pdfrwt>
<pdfrwt beam="2">  1       -1 0.76168577E-01 0.18190630E+04</pdfrwt>
<totfact> 0.18918939E+01</totfact>
</mgrwt>
</event>
<event>
12    7  0.2466188E-007  0.2587368E+04  0.7818608E-02  0.8372505E-01
          2   -1    0    0  501    0  0.00000000000E+00  0.00000000000E+00  0.12383680093E+04  0.12383680093E+04  0.00000000000E+00 0. -1.
         -1   -1    0    0    0  501 -0.00000000000E+00 -0.00000000000E+00 -0.13514704370E+04  0.13514704370E+04  0.00000000000E+00 0.  1.
         24    2    1    2    0    0  0.11113519103E+04 -0.19562657731E+03 -0.17013847443E+03  0.11440550305E+04  0.80882545153E+02 0.  0.
        254    2    1    2    0    0 -0.11113519103E+04  0.19562657731E+03  0.57036046722E+02  0.14457834158E+04  0.90203311934E+03 0.  0.
         23    2    4    4    0    0 -0.16698344444E+03 -0.18611268798E+03 -0.26164196023E+03  0.37447767558E+03  0.96206085096E+02 0.  0.
         23    2    4    4    0    0 -0.94436846584E+03  0.38173926529E+03  0.31867800695E+03  0.10713057402E+04  0.92647994434E+02 0.  0.
          2    1    3    3  502    0  0.91452204442E+03 -0.14469180877E+03 -0.11235409842E+03  0.93268951569E+03  0.00000000000E+00 0. -1.
         -1    1    3    3    0  502  0.19682986587E+03 -0.50934768543E+02 -0.57784376004E+02  0.21136551482E+03  0.00000000000E+00 0.  1.
         13    1    5    5    0    0  0.10699318556E+02 -0.13744911576E+00 -0.10547981262E+02  0.15025119585E+02  0.00000000000E+00 0.  1.
        -13    1    5    5    0    0 -0.17768276300E+03 -0.18597523886E+03 -0.25109397897E+03  0.35945255599E+03  0.00000000000E+00 0. -1.
          2    1    6    6  503    0 -0.37699078208E+03  0.11178300396E+03  0.14872279411E+03  0.42039976123E+03  0.00000000000E+00 0. -1.
         -2    1    6    6    0  503 -0.56737768376E+03  0.26995626133E+03  0.16995521284E+03  0.65090597895E+03  0.00000000000E+00 0.  1.
<mgrwt>
<rscale>  0 0.25873676E+04</rscale>
<asrwt>0</asrwt>
<pdfrwt beam="1">  1        2 0.19051815E+00 0.25873676E+04</pdfrwt>
<pdfrwt beam="2">  1       -1 0.20791853E+00 0.25873676E+04</pdfrwt>
<totfact> 0.24083205E+00</totfact>
</mgrwt>
</event>
<event>
12    7  0.2466188E-007  0.1865398E+04  0.7818608E-02  0.8672274E-01
         -1   -1    0    0    0  501 -0.00000000000E+00  0.00000000000E+00  0.13773379377E+04  0.13773379377E+04  0.00000000000E+00 0.  1.
          2   -1    0    0  501    0  0.00000000000E+00 -0.00000000000E+00 -0.63160062074E+03  0.63160062074E+03  0.00000000000E+00 0. -1.
         24    2    1    2    0    0  0.65409063884E+03 -0.22512337131E+03  0.91815966532E+02  0.70210917946E+03  0.77537294570E+02 0.  0.
        254    2    1    2    0    0 -0.65409063884E+03  0.22512337131E+03  0.65392135043E+03  0.13068293790E+04  0.89536294154E+03 0.  0.
         23    2    4    4    0    0 -0.28424858408E+03 -0.31472887504E+03  0.42748724476E+03  0.60936427050E+03  0.93423484188E+02 0.  0.
         23    2    4    4    0    0 -0.36984205476E+03  0.53985224636E+03  0.22643410567E+03  0.69746510847E+03  0.83436083105E+02 0.  0.
          2    1    3    3  502    0  0.11871739440E+03 -0.33158107776E+02 -0.12428293675E+02  0.12388600538E+03  0.00000000000E+00 0. -1.
         -1    1    3    3    0  502  0.53537324444E+03 -0.19196526354E+03  0.10424426021E+03  0.57822317409E+03  0.00000000000E+00 0.  1.
         13    1    5    5    0    0 -0.18136360785E+03 -0.13116647877E+03  0.21909172607E+03  0.31320694091E+03  0.00000000000E+00 0.  1.
        -13    1    5    5    0    0 -0.10288497623E+03 -0.18356239627E+03  0.20839551869E+03  0.29615732959E+03  0.00000000000E+00 0. -1.
          2    1    6    6  503    0 -0.37573097587E+02  0.85480661899E+02  0.81702726550E+01  0.93730649076E+02  0.00000000000E+00 0.  1.
         -2    1    6    6    0  503 -0.33226895717E+03  0.45437158446E+03  0.21826383301E+03  0.60373445940E+03  0.00000000000E+00 0. -1.
<mgrwt>
<rscale>  0 0.18653981E+04</rscale>
<asrwt>0</asrwt>
<pdfrwt beam="1">  1        2 0.97169327E-01 0.18653981E+04</pdfrwt>
<pdfrwt beam="2">  1       -1 0.21189814E+00 0.18653981E+04</pdfrwt>
<totfact> 0.62345045E+00</totfact>
</mgrwt>
</event>
<event>
12    7  0.2466188E-007  0.1350932E+04  0.7818608E-02  0.8990123E-01
         -1   -1    0    0    0  501 -0.00000000000E+00  0.00000000000E+00  0.77584014552E+03  0.77584014552E+03  0.00000000000E+00 0.  1.
          2   -1    0    0  501    0  0.00000000000E+00 -0.00000000000E+00 -0.58807767623E+03  0.58807767623E+03  0.00000000000E+00 0. -1.
         24    2    1    2    0    0  0.36355799390E+03  0.43689413806E+02  0.81632920542E+01  0.37470096072E+03  0.79063207739E+02 0.  0.
        254    2    1    2    0    0 -0.36355799390E+03 -0.43689413806E+02  0.17959917723E+03  0.98921686104E+03  0.90122747067E+03 0.  0.
         23    2    4    4    0    0 -0.39629138041E+03  0.12624419224E+03 -0.26652410988E+03  0.50242034440E+03  0.91687769410E+02 0.  0.
         23    2    4    4    0    0  0.32733386514E+02 -0.16993360604E+03  0.44612328712E+03  0.48679651664E+03  0.89420110964E+02 0.  0.
          2    1    3    3  502    0  0.93866755509E+02 -0.15674117739E+02 -0.19592101877E+02  0.97162215972E+02  0.00000000000E+00 0. -1.
         -1    1    3    3    0  502  0.26969123839E+03  0.59363531544E+02  0.27755393932E+02  0.27753874474E+03  0.00000000000E+00 0.  1.
         13    1    5    5    0    0 -0.29779315444E+03  0.51408786877E+02 -0.18893180619E+03  0.35639704487E+03  0.00000000000E+00 0. -1.
        -13    1    5    5    0    0 -0.98498225969E+02  0.74835405361E+02 -0.77592303694E+02  0.14602329953E+03  0.00000000000E+00 0.  1.
          1    1    6    6  503    0  0.54083646265E+02 -0.12372548719E+03  0.24955072546E+03  0.28374037702E+03  0.00000000000E+00 0. -1.
         -1    1    6    6    0  503 -0.21350259751E+02 -0.46208118855E+02  0.19657256166E+03  0.20305613962E+03  0.00000000000E+00 0.  1.
<mgrwt>
<rscale>  0 0.13509319E+04</rscale>
<asrwt>0</asrwt>
<pdfrwt beam="1">  1        2 0.90473489E-01 0.13509319E+04</pdfrwt>
<pdfrwt beam="2">  1       -1 0.11936002E+00 0.13509319E+04</pdfrwt>
<totfact> 0.35592638E+01</totfact>
</mgrwt>
</event>
<event>
12    7  0.2466188E-007  0.2030191E+04  0.7818608E-02  0.8592634E-01
          2   -1    0    0  501    0  0.00000000000E+00  0.00000000000E+00  0.74477412746E+03  0.74477412746E+03  0.00000000000E+00 0. -1.
         -1   -1    0    0    0  501 -0.00000000000E+00 -0.00000000000E+00 -0.13835315188E+04  0.13835315188E+04  0.00000000000E+00 0.  1.
         24    2    1    2    0    0  0.74083907400E+03 -0.32626694602E+03 -0.34201350088E+03  0.88178415692E+03  0.72645791191E+02 0.  0.
        254    2    1    2    0    0 -0.74083907400E+03  0.32626694602E+03 -0.29674389050E+03  0.12465214894E+04  0.90025898124E+03 0.  0.
         23    2    4    4    0    0  0.19830933327E+03  0.86289321538E+02 -0.26145719006E+02  0.23606667780E+03  0.90947452268E+02 0.  0.
         23    2    4    4    0    0 -0.93914840726E+03  0.23997762448E+03 -0.27059817150E+03  0.10104548116E+04  0.90590091600E+02 0.  0.
          2    1    3    3  502    0  0.19986415106E+03 -0.73103003762E+02 -0.12177159366E+03  0.24518982251E+03  0.00000000000E+00 0. -1.
         -1    1    3    3    0  502  0.54097492294E+03 -0.25316394226E+03 -0.22024190721E+03  0.63659433441E+03  0.00000000000E+00 0.  1.
         13    1    5    5    0    0  0.59528815054E+02  0.71589222350E+02  0.43857413781E+01  0.93209073088E+02  0.00000000000E+00 0. -1.
        -13    1    5    5    0    0  0.13878051821E+03  0.14700099188E+02 -0.30531460385E+02  0.14285760471E+03  0.00000000000E+00 0.  1.
          1    1    6    6  503    0 -0.59016556298E+03  0.15535824637E+03 -0.21524532654E+03  0.64711832538E+03  0.00000000000E+00 0. -1.
         -1    1    6    6    0  503 -0.34898284428E+03  0.84619378115E+02 -0.55352844959E+02  0.36333648619E+03  0.00000000000E+00 0.  1.
<mgrwt>
<rscale>  0 0.20301906E+04</rscale>
<asrwt>0</asrwt>
<pdfrwt beam="1">  1        2 0.11458064E+00 0.20301906E+04</pdfrwt>
<pdfrwt beam="2">  1       -1 0.21285100E+00 0.20301906E+04</pdfrwt>
<totfact> 0.49214752E+00</totfact>
</mgrwt>
</event>
<event>
12    7  0.2466188E-007  0.3527298E+04  0.7818608E-02  0.8107351E-01
         -3   -1    0    0    0  501 -0.00000000000E+00  0.00000000000E+00  0.17137600350E+04  0.17137600350E+04  0.00000000000E+00 0.  1.
          2   -1    0    0  501    0  0.00000000000E+00 -0.00000000000E+00 -0.18149900145E+04  0.18149900145E+04  0.00000000000E+00 0. -1.
         24    2    1    2    0    0  0.62121968926E+03 -0.14927194056E+04  0.26938262475E+03  0.16410738449E+04  0.80195011163E+02 0.  0.
        254    2    1    2    0    0 -0.62121968926E+03  0.14927194056E+04 -0.37061260418E+03  0.18876762046E+04  0.90102309913E+03 0.  0.
         23    2    4    4    0    0 -0.30768784354E+03  0.14891832408E+04 -0.29171124596E+03  0.15511856978E+04  0.93504460562E+02 0.  0.
         23    2    4    4    0    0 -0.31353184572E+03  0.35361647444E+01 -0.78901358219E+02  0.33649050688E+03  0.93197178903E+02 0.  0.
          2    1    3    3  502    0  0.27587463461E+03 -0.69022508425E+03  0.84766081869E+02  0.74813285557E+03  0.00000000000E+00 0. -1.
         -1    1    3    3    0  502  0.34534505465E+03 -0.80249432130E+03  0.18461654288E+03  0.89294098931E+03  0.00000000000E+00 0.  1.
         13    1    5    5    0    0 -0.77136643817E+02  0.58026565556E+03 -0.13021477255E+03  0.59967839701E+03  0.00000000000E+00 0.  1.
        -13    1    5    5    0    0 -0.23055119973E+03  0.90891758524E+03 -0.16149647341E+03  0.95150730075E+03  0.00000000000E+00 0. -1.
          3    1    6    6  503    0 -0.49639203276E+01  0.42363844282E+01 -0.21705981527E+02  0.22665769171E+02  0.00000000000E+00 0. -1.
         -3    1    6    6    0  503 -0.30856792539E+03 -0.70021968373E+00 -0.57195376692E+02  0.31382473771E+03  0.00000000000E+00 0.  1.
<mgrwt>
<rscale>  0 0.35272977E+04</rscale>
<asrwt>0</asrwt>
<pdfrwt beam="1">  1        2 0.27922923E+00 0.35272977E+04</pdfrwt>
<pdfrwt beam="2">  1       -3 0.26365539E+00 0.35272977E+04</pdfrwt>
<totfact> 0.26653708E-01</totfact>
</mgrwt>
</event>
<event>
12    7  0.2466188E-007  0.1614185E+04  0.7818608E-02  0.8811881E-01
         -1   -1    0    0    0  501 -0.00000000000E+00  0.00000000000E+00  0.11683997489E+04  0.11683997489E+04  0.00000000000E+00 0.  1.
          2   -1    0    0  501    0  0.00000000000E+00 -0.00000000000E+00 -0.55751293380E+03  0.55751293380E+03  0.00000000000E+00 0. -1.
         24    2    1    2    0    0 -0.48751385170E+03 -0.17979717037E+03  0.13890029655E+02  0.52571854138E+03  0.78678292814E+02 0.  0.
        254    2    1    2    0    0  0.48751385170E+03  0.17979717037E+03  0.59699678549E+03  0.12001941414E+04  0.90225497339E+03 0.  0.
         23    2    4    4    0    0  0.58779571876E+03  0.20452359022E+03  0.75901360874E+03  0.98626028263E+03  0.96301510395E+02 0.  0.
         23    2    4    4    0    0 -0.10028186706E+03 -0.24726419852E+02 -0.16201682325E+03  0.21393385873E+03  0.94076544347E+02 0.  0.
          4    1    3    3  502    0 -0.43841790696E+03 -0.14092239406E+03 -0.42202787992E+01  0.46052925319E+03  0.00000000000E+00 0. -1.
         -3    1    3    3    0  502 -0.49095944737E+02 -0.38874776308E+02  0.18110308454E+02  0.65189288191E+02  0.00000000000E+00 0.  1.
         13    1    5    5    0    0  0.40115347307E+03  0.94984417859E+02  0.46948709335E+03  0.62479138872E+03  0.00000000000E+00 0. -1.
        -13    1    5    5    0    0  0.18664224569E+03  0.10953917236E+03  0.28952651539E+03  0.36146889392E+03  0.00000000000E+00 0.  1.
          2    1    6    6  503    0 -0.11019939397E+03  0.28360043628E+01 -0.12346527244E+03  0.16551623138E+03  0.00000000000E+00 0. -1.
         -2    1    6    6    0  503  0.99175269079E+01 -0.27562424215E+02 -0.38551550804E+02  0.48417627348E+02  0.00000000000E+00 0.  1.
<mgrwt>
<rscale>  0 0.16141846E+04</rscale>
<asrwt>0</asrwt>
<pdfrwt beam="1">  1        2 0.85771221E-01 0.16141846E+04</pdfrwt>
<pdfrwt beam="2">  1       -1 0.17975381E+00 0.16141846E+04</pdfrwt>
<totfact> 0.12389226E+01</totfact>
</mgrwt>
</event>
<event>
12    7  0.2466188E-007  0.2449463E+04  0.7818608E-02  0.8421214E-01
         -1   -1    0    0    0  501 -0.00000000000E+00  0.00000000000E+00  0.89348114547E+03  0.89348114547E+03  0.00000000000E+00 0.  1.
          2   -1    0    0  501    0  0.00000000000E+00 -0.00000000000E+00 -0.16787896330E+04  0.16787896330E+04  0.00000000000E+00 0. -1.
         24    2    1    2    0    0  0.19114160238E+03  0.10085460557E+04 -0.67942906308E+02  0.10316794746E+04  0.77756293160E+02 0.  0.
        254    2    1    2    0    0 -0.19114160238E+03 -0.10085460557E+04 -0.71736558125E+03  0.15405913039E+04  0.89727806710E+03 0.  0.
         23    2    4    4    0    0 -0.53559008165E+02 -0.11023725141E+04 -0.41226656781E+03  0.11813903460E+04  0.87325251413E+02 0.  0.
         23    2    4    4    0    0 -0.13758259422E+03  0.93826458320E+02 -0.30509901344E+03  0.35920095789E+03  0.90595505578E+02 0.  0.
          4    1    3    3  502    0  0.70051406228E+02  0.57461377977E+03 -0.43773471175E+02  0.58052072504E+03  0.00000000000E+00 0. -1.
         -3    1    3    3    0  502  0.12109019616E+03  0.43393227598E+03 -0.24169435134E+02  0.45115874959E+03  0.00000000000E+00 0.  1.
         13    1    5    5    0    0 -0.32447769911E+02 -0.63138224883E+03 -0.28202955682E+03  0.69226950881E+03  0.00000000000E+00 0. -1.
        -13    1    5    5    0    0 -0.21111238254E+02 -0.47099026524E+03 -0.13023701099E+03  0.48912083718E+03  0.00000000000E+00 0.  1.
          2    1    6    6  503    0 -0.33658883633E+02  0.73451697739E+02 -0.10174443838E+03  0.12992306604E+03  0.00000000000E+00 0. -1.
         -2    1    6    6    0  503 -0.10392371059E+03  0.20374760580E+02 -0.20335457507E+03  0.22927789185E+03  0.00000000000E+00 0.  1.
<mgrwt>
<rscale>  0 0.24494627E+04</rscale>
<asrwt>0</asrwt>
<pdfrwt beam="1">  1        2 0.25827532E+00 0.24494627E+04</pdfrwt>
<pdfrwt beam="2">  1       -1 0.13745864E+00 0.24494627E+04</pdfrwt>
<totfact> 0.45182831E+00</totfact>
</mgrwt>
</event>
<event>
12    7  0.2466188E-007  0.3532508E+04  0.7818608E-02  0.8106129E-01
          2   -1    0    0  501    0  0.00000000000E+00  0.00000000000E+00  0.20685534096E+04  0.20685534096E+04  0.00000000000E+00 0. -1.
         -1   -1    0    0    0  501 -0.00000000000E+00 -0.00000000000E+00 -0.15081331168E+04  0.15081331168E+04  0.00000000000E+00 0.  1.
         24    2    1    2    0    0 -0.20613545837E+03  0.12319096942E+04  0.13542229880E+04  0.18441796314E+04  0.83578046723E+02 0.  0.
        254    2    1    2    0    0  0.20613545837E+03 -0.12319096942E+04 -0.79380269521E+03  0.17325068951E+04  0.90075751495E+03 0.  0.
         23    2    4    4    0    0  0.17433650924E+03 -0.13042250877E+04 -0.49252751416E+03  0.14081072062E+04  0.93735019941E+02 0.  0.
         23    2    4    4    0    0  0.31798949128E+02  0.72315393581E+02 -0.30127518105E+03  0.32439968887E+03  0.90706858110E+02 0.  0.
          4    1    3    3  502    0 -0.79819417215E+02  0.60951292110E+03  0.71856510799E+03  0.94562833861E+03  0.00000000000E+00 0. -1.
         -3    1    3    3    0  502 -0.12631604115E+03  0.62239677306E+03  0.63565787996E+03  0.89855129276E+03  0.00000000000E+00 0.  1.
         13    1    5    5    0    0  0.89729315719E+02 -0.97254735149E+03 -0.35439118278E+03  0.10389864347E+04  0.00000000000E+00 0. -1.
        -13    1    5    5    0    0  0.84607193523E+02 -0.33167773625E+03 -0.13813633138E+03  0.36912077152E+03  0.00000000000E+00 0.  1.
          3    1    6    6  503    0  0.25436628248E+02  0.41561661032E+02 -0.45385500858E+02  0.66590069924E+02  0.00000000000E+00 0. -1.
         -3    1    6    6    0  503  0.63623208799E+01  0.30753732550E+02 -0.25588968019E+03  0.25780961895E+03  0.00000000000E+00 0.  1.
<mgrwt>
<rscale>  0 0.35325084E+04</rscale>
<asrwt>0</asrwt>
<pdfrwt beam="1">  1        2 0.31823899E+00 0.35325084E+04</pdfrwt>
<pdfrwt beam="2">  1       -1 0.23202048E+00 0.35325084E+04</pdfrwt>
<totfact> 0.52197219E-01</totfact>
</mgrwt>
</event>
<event>
12    7  0.2466188E-007  0.1235099E+04  0.7818608E-02  0.9082678E-01
          2   -1    0    0  501    0  0.00000000000E+00  0.00000000000E+00  0.11418660655E+04  0.11418660655E+04  0.00000000000E+00 0. -1.
         -1   -1    0    0    0  501 -0.00000000000E+00 -0.00000000000E+00 -0.33398589753E+03  0.33398589753E+03  0.00000000000E+00 0.  1.
         24    2    1    2    0    0 -0.20033468486E+03  0.19159320609E+03  0.14090334156E+03  0.32123778985E+03  0.80610318143E+02 0.  0.
        254    2    1    2    0    0  0.20033468486E+03 -0.19159320609E+03  0.66697682639E+03  0.11546141732E+04  0.90079623631E+03 0.  0.
         23    2    4    4    0    0  0.41098411775E+03  0.89149811598E+02  0.42713407802E+02  0.43258600452E+03  0.91927047974E+02 0.  0.
         23    2    4    4    0    0 -0.21064943289E+03 -0.28074301769E+03  0.62426341859E+03  0.72202816864E+03  0.91815221840E+02 0.  0.
          2    1    3    3  502    0 -0.97580172215E+02  0.14296095937E+03  0.10293188804E+03  0.20138197409E+03  0.00000000000E+00 0. -1.
         -1    1    3    3    0  502 -0.10275451264E+03  0.48632246715E+02  0.37971453519E+02  0.11985581576E+03  0.00000000000E+00 0.  1.
         13    1    5    5    0    0  0.25447010474E+03  0.64594319794E+02  0.70262955013E+02  0.27177995364E+03  0.00000000000E+00 0.  1.
        -13    1    5    5    0    0  0.15651401302E+03  0.24555491804E+02 -0.27549547212E+02  0.16080605088E+03  0.00000000000E+00 0. -1.
          4    1    6    6  503    0 -0.74635063280E+02 -0.13116353745E+03  0.18707657682E+03  0.24035788279E+03  0.00000000000E+00 0.  1.
         -4    1    6    6    0  503 -0.13601436961E+03 -0.14957948024E+03  0.43718684177E+03  0.48167028585E+03  0.00000000000E+00 0. -1.
<mgrwt>
<rscale>  0 0.12350986E+04</rscale>
<asrwt>0</asrwt>
<pdfrwt beam="1">  1        2 0.17567170E+00 0.12350986E+04</pdfrwt>
<pdfrwt beam="2">  1       -1 0.51382446E-01 0.12350986E+04</pdfrwt>
<totfact> 0.87801942E+01</totfact>
</mgrwt>
</event>
<event>
12    7  0.2466188E-007  0.2665246E+04  0.7818608E-02  0.8346370E-01
         -1   -1    0    0    0  501 -0.00000000000E+00  0.00000000000E+00  0.10997098676E+04  0.10997098676E+04  0.00000000000E+00 0.  1.
          2   -1    0    0  501    0  0.00000000000E+00 -0.00000000000E+00 -0.16148656645E+04  0.16148656645E+04  0.00000000000E+00 0. -1.
         24    2    1    2    0    0  0.40348775091E+03 -0.11071177530E+04 -0.27865035012E+03  0.12140238142E+04  0.87725251463E+02 0.  0.
        254    2    1    2    0    0 -0.40348775091E+03  0.11071177530E+04 -0.23650544677E+03  0.15005517180E+04  0.89844785481E+03 0.  0.
         23    2    4    4    0    0 -0.60254897610E+03  0.80001965774E+03 -0.40882576303E+03  0.10857451564E+04  0.92775636120E+02 0.  0.
         23    2    4    4    0    0  0.19906122519E+03  0.30709809525E+03  0.17232031626E+03  0.41480656161E+03  0.91845417311E+02 0.  0.
          2    1    3    3  502    0  0.10270206832E+03 -0.25092050029E+03 -0.10086110371E+03  0.28927802292E+03  0.00000000000E+00 0. -1.
         -1    1    3    3    0  502  0.30078568259E+03 -0.85619725270E+03 -0.17778924641E+03  0.92474579130E+03  0.00000000000E+00 0.  1.
         13    1    5    5    0    0 -0.55743033760E+03  0.72716101990E+03 -0.39948550032E+03  0.99954009179E+03  0.00000000000E+00 0. -1.
        -13    1    5    5    0    0 -0.45118638506E+02  0.72858637840E+02 -0.93402627082E+01  0.86205064561E+02  0.00000000000E+00 0.  1.
          3    1    6    6  503    0  0.17773288318E+03  0.27821889512E+03  0.11983994148E+03  0.35122121653E+03  0.00000000000E+00 0. -1.
         -3    1    6    6    0  503  0.21328342017E+02  0.28879200127E+02  0.52480374772E+02  0.63585345084E+02  0.00000000000E+00 0.  1.
<mgrwt>
<rscale>  0 0.26652457E+04</rscale>
<asrwt>0</asrwt>
<pdfrwt beam="1">  1        2 0.24844087E+00 0.26652457E+04</pdfrwt>
<pdfrwt beam="2">  1       -1 0.16918613E+00 0.26652457E+04</pdfrwt>
<totfact> 0.27343126E+00</totfact>
</mgrwt>
</event>
<event>
12    7  0.2466188E-007  0.1848212E+04  0.7818608E-02  0.8681073E-01
         -1   -1    0    0    0  501 -0.00000000000E+00  0.00000000000E+00  0.64033913541E+03  0.64033913541E+03  0.00000000000E+00 0.  1.
          2   -1    0    0  501    0  0.00000000000E+00 -0.00000000000E+00 -0.13336243311E+04  0.13336243311E+04  0.00000000000E+00 0. -1.
         24    2    1    2    0    0  0.11209970841E+03  0.66371242245E+03 -0.52032067755E+02  0.67984195180E+03  0.79982616972E+02 0.  0.
        254    2    1    2    0    0 -0.11209970841E+03 -0.66371242245E+03 -0.64125312798E+03  0.12941215148E+04  0.90025796107E+03 0.  0.
         23    2    4    4    0    0  0.30030960606E+03 -0.25930071432E+03 -0.57705676131E+03  0.70614765748E+03  0.90704401552E+02 0.  0.
         23    2    4    4    0    0 -0.41240931447E+03 -0.40441170812E+03 -0.64196366674E+02  0.58797385727E+03  0.89228980784E+02 0.  0.
          2    1    3    3  502    0  0.73656388057E+02  0.57282837801E+03 -0.27711830440E+02  0.57820892392E+03  0.00000000000E+00 0. -1.
         -1    1    3    3    0  502  0.38443320353E+02  0.90884044432E+02 -0.24320237315E+02  0.10163302788E+03  0.00000000000E+00 0.  1.
         13    1    5    5    0    0  0.21149766875E+03 -0.23123020176E+03 -0.45905656002E+03  0.55581615251E+03  0.00000000000E+00 0. -1.
        -13    1    5    5    0    0  0.88811937314E+02 -0.28070512564E+02 -0.11800020129E+03  0.15033150498E+03  0.00000000000E+00 0.  1.
          1    1    6    6  503    0 -0.21229004387E+03 -0.20924361431E+03  0.11748904871E+02  0.29830854769E+03  0.00000000000E+00 0. -1.
         -1    1    6    6    0  503 -0.20011927060E+03 -0.19516809381E+03 -0.75945271545E+02  0.28966530958E+03  0.00000000000E+00 0.  1.
<mgrwt>
<rscale>  0 0.18482119E+04</rscale>
<asrwt>0</asrwt>
<pdfrwt beam="1">  1        2 0.20517297E+00 0.18482119E+04</pdfrwt>
<pdfrwt beam="2">  1       -1 0.98513713E-01 0.18482119E+04</pdfrwt>
<totfact> 0.16709050E+01</totfact>
</mgrwt>
</event>
<event>
12    7  0.2466188E-007  0.3469071E+04  0.7818608E-02  0.8121159E-01
         -1   -1    0    0    0  501 -0.00000000000E+00  0.00000000000E+00  0.13097868621E+04  0.13097868621E+04  0.00000000000E+00 0.  1.
          2   -1    0    0  501    0  0.00000000000E+00 -0.00000000000E+00 -0.22970251969E+04  0.22970251969E+04  0.00000000000E+00 0. -1.
         24    2    1    2    0    0  0.53918777425E+02  0.14468381306E+04 -0.12066271978E+04  0.18863927845E+04  0.79251068744E+02 0.  0.
        254    2    1    2    0    0 -0.53918777425E+02 -0.14468381306E+04  0.21938886300E+03  0.17204192746E+04  0.90303000851E+03 0.  0.
         23    2    4    4    0    0  0.24740338397E+03 -0.84303189203E+03  0.46286804838E+03  0.99719920955E+03  0.90819755238E+02 0.  0.
         23    2    4    4    0    0 -0.30132216140E+03 -0.60380623861E+03 -0.24347918537E+03  0.72322006501E+03  0.91586734835E+02 0.  0.
          2    1    3    3  502    0 -0.21769963153E+00  0.70957282560E+03 -0.55283101753E+03  0.89950863040E+03  0.00000000000E+00 0. -1.
         -1    1    3    3    0  502  0.54136477056E+02  0.73726530504E+03 -0.65379618029E+03  0.98688415406E+03  0.00000000000E+00 0.  1.
         13    1    5    5    0    0  0.21054263023E+03 -0.63819246514E+03  0.31697243943E+03  0.74302715230E+03  0.00000000000E+00 0. -1.
        -13    1    5    5    0    0  0.36860753749E+02 -0.20483942689E+03  0.14589560895E+03  0.25417205725E+03  0.00000000000E+00 0.  1.
          3    1    6    6  503    0 -0.13292029172E+03 -0.18249765078E+03 -0.10377920710E+03  0.24848203218E+03  0.00000000000E+00 0. -1.
         -3    1    6    6    0  503 -0.16840186968E+03 -0.42130858783E+03 -0.13969997828E+03  0.47473803284E+03  0.00000000000E+00 0.  1.
<mgrwt>
<rscale>  0 0.34690710E+04</rscale>
<asrwt>0</asrwt>
<pdfrwt beam="1">  1        2 0.35338849E+00 0.34690710E+04</pdfrwt>
<pdfrwt beam="2">  1       -1 0.20150567E+00 0.34690710E+04</pdfrwt>
<totfact> 0.62631224E-01</totfact>
</mgrwt>
</event>
<event>
12    7  0.2466188E-007  0.3171039E+04  0.7818608E-02  0.8196508E-01
          2   -1    0    0  501    0  0.00000000000E+00  0.00000000000E+00  0.20426217077E+04  0.20426217077E+04  0.00000000000E+00 0. -1.
         -1   -1    0    0    0  501 -0.00000000000E+00 -0.00000000000E+00 -0.12307085321E+04  0.12307085321E+04  0.00000000000E+00 0.  1.
         24    2    1    2    0    0  0.13249353094E+04  0.44367186560E+03  0.79734897565E+03  0.16107989845E+04  0.81299946075E+02 0.  0.
        254    2    1    2    0    0 -0.13249353094E+04 -0.44367186560E+03  0.14564199904E+02  0.16625312553E+04  0.90083281508E+03 0.  0.
         23    2    4    4    0    0 -0.12584739940E+04 -0.56803691253E+03 -0.19089425511E+03  0.13969058219E+04  0.92100657313E+02 0.  0.
         23    2    4    4    0    0 -0.66461315398E+02  0.12436504693E+03  0.20545845502E+03  0.26562543346E+03  0.91977838728E+02 0.  0.
          2    1    3    3  502    0  0.65618148162E+03  0.20125943439E+03  0.43377806035E+03  0.81193774539E+03  0.00000000000E+00 0. -1.
         -1    1    3    3    0  502  0.66875382774E+03  0.24241243120E+03  0.36357091530E+03  0.79886123912E+03  0.00000000000E+00 0.  1.
         13    1    5    5    0    0 -0.17990419854E+03 -0.96706768198E+02 -0.58279229999E+02  0.21240100828E+03  0.00000000000E+00 0.  1.
        -13    1    5    5    0    0 -0.10785697954E+04 -0.47133014433E+03 -0.13261502512E+03  0.11845048136E+04  0.00000000000E+00 0. -1.
          4    1    6    6  503    0  0.49899748959E+01  0.31539479518E+02  0.34595737123E+01  0.32118643620E+02  0.00000000000E+00 0. -1.
         -4    1    6    6    0  503 -0.71451290294E+02  0.92825567416E+02  0.20199888131E+03  0.23350678984E+03  0.00000000000E+00 0.  1.
<mgrwt>
<rscale>  0 0.31710389E+04</rscale>
<asrwt>0</asrwt>
<pdfrwt beam="1">  1        2 0.31424949E+00 0.31710389E+04</pdfrwt>
<pdfrwt beam="2">  1       -1 0.18933977E+00 0.31710389E+04</pdfrwt>
<totfact> 0.10846077E+00</totfact>
</mgrwt>
</event>
<event>
12    7  0.2466188E-007  0.1497896E+04  0.7818608E-02  0.8885853E-01
          2   -1    0    0  501    0  0.00000000000E+00  0.00000000000E+00  0.28031474602E+04  0.28031474602E+04  0.00000000000E+00 0. -1.
         -1   -1    0    0    0  501 -0.00000000000E+00 -0.00000000000E+00 -0.20010475975E+03  0.20010475975E+03  0.00000000000E+00 0.  1.
         24    2    1    2    0    0  0.32035240719E+03  0.12995703512E+03  0.14886397032E+04  0.15303199864E+04  0.79477034337E+02 0.  0.
        254    2    1    2    0    0 -0.32035240719E+03 -0.12995703512E+03  0.11144029972E+04  0.14729322335E+04  0.89895540971E+03 0.  0.
         23    2    4    4    0    0 -0.39306530175E+03 -0.30013148822E+03  0.20938420290E+03  0.54475138463E+03  0.91285732559E+02 0.  0.
         23    2    4    4    0    0  0.72712894558E+02  0.17017445310E+03  0.90501879431E+03  0.92818084892E+03  0.90632007149E+02 0.  0.
          4    1    3    3  502    0  0.12925781921E+03  0.68686986076E+02  0.78928918633E+03  0.80274709936E+03  0.00000000000E+00 0. -1.
         -3    1    3    3    0  502  0.19109458798E+03  0.61270049046E+02  0.69935051691E+03  0.72757288705E+03  0.00000000000E+00 0.  1.
         13    1    5    5    0    0 -0.19219870454E+03 -0.93171061833E+02  0.73008764195E+02  0.22572431956E+03  0.00000000000E+00 0.  1.
        -13    1    5    5    0    0 -0.20086659720E+03 -0.20696042639E+03  0.13637543870E+03  0.31902706507E+03  0.00000000000E+00 0. -1.
          3    1    6    6  503    0 -0.18934849980E+02  0.58976364910E+02  0.26616050353E+03  0.27327303892E+03  0.00000000000E+00 0. -1.
         -3    1    6    6    0  503  0.91647744538E+02  0.11119808819E+03  0.63885829078E+03  0.65490780999E+03  0.00000000000E+00 0.  1.
<mgrwt>
<rscale>  0 0.14978961E+04</rscale>
<asrwt>0</asrwt>
<pdfrwt beam="1">  1        2 0.43125343E+00 0.14978961E+04</pdfrwt>
<pdfrwt beam="2">  1       -1 0.30785350E-01 0.14978961E+04</pdfrwt>
<totfact> 0.24833922E+01</totfact>
</mgrwt>
</event>
<event>
12    7  0.2466188E-007  0.2749062E+04  0.7818608E-02  0.8319259E-01
          2   -1    0    0  501    0  0.00000000000E+00  0.00000000000E+00  0.10236539084E+04  0.10236539084E+04  0.00000000000E+00 0. -1.
         -1   -1    0    0    0  501 -0.00000000000E+00 -0.00000000000E+00 -0.18456784134E+04  0.18456784134E+04  0.00000000000E+00 0.  1.
         24    2    1    2    0    0 -0.94601071874E+03  0.77703332757E+03 -0.35418980632E+03  0.12769071313E+04  0.79525662884E+02 0.  0.
        254    2    1    2    0    0  0.94601071874E+03 -0.77703332757E+03 -0.46783469877E+03  0.15924251905E+04  0.90456155661E+03 0.  0.
         23    2    4    4    0    0  0.26224004685E+02 -0.69606148748E+01  0.19653321977E+03  0.21823625463E+03  0.90915388029E+02 0.  0.
         23    2    4    4    0    0  0.91978671405E+03 -0.77007271270E+03 -0.66436791854E+03  0.13741889358E+04  0.89391934634E+02 0.  0.
          4    1    3    3  502    0 -0.57813525120E+03  0.44058274853E+03 -0.18013820988E+03  0.74886801350E+03  0.00000000000E+00 0. -1.
         -3    1    3    3    0  502 -0.36787546754E+03  0.33645057904E+03 -0.17405159644E+03  0.52803911785E+03  0.00000000000E+00 0.  1.
         13    1    5    5    0    0  0.54703715223E+02  0.14061721139E+02  0.14594390088E+03  0.15649233420E+03  0.00000000000E+00 0. -1.
        -13    1    5    5    0    0 -0.28479710538E+02 -0.21022336014E+02  0.50589318894E+02  0.61743920429E+02  0.00000000000E+00 0.  1.
          3    1    6    6  503    0  0.62287801384E+03 -0.56740865765E+03 -0.48931121960E+03  0.97434853853E+03  0.00000000000E+00 0. -1.
         -3    1    6    6    0  503  0.29690870022E+03 -0.20266405505E+03 -0.17505669893E+03  0.39984039730E+03  0.00000000000E+00 0.  1.
<mgrwt>
<rscale>  0 0.27490623E+04</rscale>
<asrwt>0</asrwt>
<pdfrwt beam="1">  1        2 0.15748522E+00 0.27490623E+04</pdfrwt>
<pdfrwt beam="2">  1       -1 0.28395052E+00 0.27490623E+04</pdfrwt>
<totfact> 0.10165400E+00</totfact>
</mgrwt>
</event>
<event>
12    7  0.2466188E-007  0.2834465E+04  0.7818608E-02  0.8292648E-01
         -3   -1    0    0    0  501 -0.00000000000E+00  0.00000000000E+00  0.75325126558E+03  0.75325126558E+03  0.00000000000E+00 0.  1.
          4   -1    0    0  501    0  0.00000000000E+00 -0.00000000000E+00 -0.26665038645E+04  0.26665038645E+04  0.00000000000E+00 0. -1.
         24    2    1    2    0    0  0.12729659652E+04 -0.93519526554E+01 -0.87927746641E+03  0.15493673072E+04  0.82948067649E+02 0.  0.
        254    2    1    2    0    0 -0.12729659652E+04  0.93519526554E+01 -0.10339751325E+04  0.18703878230E+04  0.89928650937E+03 0.  0.
         23    2    4    4    0    0 -0.20799624686E+03  0.23814473137E+03 -0.61763772103E+03  0.70054144532E+03  0.96470774769E+02 0.  0.
         23    2    4    4    0    0 -0.10649697184E+04 -0.22879277871E+03 -0.41633741151E+03  0.11698463776E+04  0.93258085114E+02 0.  0.
          2    1    3    3  502    0  0.19651113918E+03 -0.12219913508E+02 -0.17112191594E+03  0.26086138891E+03  0.00000000000E+00 0. -1.
         -1    1    3    3    0  502  0.10764548260E+04  0.28679608526E+01 -0.70815555047E+03  0.12885059182E+04  0.00000000000E+00 0.  1.
         13    1    5    5    0    0 -0.82288198048E+02  0.68371976318E+02 -0.12507066898E+03  0.16458659400E+03  0.00000000000E+00 0. -1.
        -13    1    5    5    0    0 -0.12570804881E+03  0.16977275505E+03 -0.49256705205E+03  0.53595485132E+03  0.00000000000E+00 0.  1.
          2    1    6    6  503    0 -0.26373795125E+03 -0.63978058223E+02 -0.61927062054E+02  0.27836282057E+03  0.00000000000E+00 0. -1.
         -2    1    6    6    0  503 -0.80123176711E+03 -0.16481472049E+03 -0.35441034946E+03  0.89148355706E+03  0.00000000000E+00 0.  1.
<mgrwt>
<rscale>  0 0.28344646E+04</rscale>
<asrwt>0</asrwt>
<pdfrwt beam="1">  1        4 0.41023138E+00 0.28344646E+04</pdfrwt>
<pdfrwt beam="2">  1       -3 0.11588481E+00 0.28344646E+04</pdfrwt>
<totfact> 0.69767394E-03</totfact>
</mgrwt>
</event>
<event>
12    7  0.2466188E-007  0.3304388E+04  0.7818608E-02  0.8161780E-01
          2   -1    0    0  501    0  0.00000000000E+00  0.00000000000E+00  0.26688294305E+04  0.26688294305E+04  0.00000000000E+00 0. -1.
         -1   -1    0    0    0  501 -0.00000000000E+00 -0.00000000000E+00 -0.10228250740E+04  0.10228250740E+04  0.00000000000E+00 0.  1.
         24    2    1    2    0    0 -0.14698453163E+03  0.13170842870E+04 -0.87585745484E+02  0.13305421173E+04  0.79721963365E+02 0.  0.
        254    2    1    2    0    0  0.14698453163E+03 -0.13170842870E+04  0.17335901020E+04  0.23611123872E+04  0.90177690788E+03 0.  0.
         23    2    4    4    0    0 -0.23228147827E+03 -0.22817916223E+03  0.82044617843E+03  0.88739605061E+03  0.91210765341E+02 0.  0.
         23    2    4    4    0    0  0.37926600991E+03 -0.10889051247E+04  0.91314392357E+03  0.14737163366E+04  0.91928986321E+02 0.  0.
          4    1    3    3  502    0 -0.25677446254E+02  0.34760675805E+03  0.95766993832E+01  0.34868539209E+03  0.00000000000E+00 0. -1.
         -3    1    3    3    0  502 -0.12130708538E+03  0.96947752893E+03 -0.97162444867E+02  0.98185672517E+03  0.00000000000E+00 0.  1.
         13    1    5    5    0    0 -0.12058866917E+03 -0.82852343635E+02  0.26797798041E+03  0.30531677969E+03  0.00000000000E+00 0. -1.
        -13    1    5    5    0    0 -0.11169280911E+03 -0.14532681859E+03  0.55246819802E+03  0.58207927092E+03  0.00000000000E+00 0.  1.
          2    1    6    6  503    0  0.30183335688E+03 -0.88156547143E+03  0.78191820921E+03  0.12164115840E+04  0.00000000000E+00 0. -1.
         -2    1    6    6    0  503  0.77432653032E+02 -0.20733965332E+03  0.13122571436E+03  0.25730475258E+03  0.00000000000E+00 0.  1.
<mgrwt>
<rscale>  0 0.33043884E+04</rscale>
<asrwt>0</asrwt>
<pdfrwt beam="1">  1        2 0.41058914E+00 0.33043884E+04</pdfrwt>
<pdfrwt beam="2">  1       -1 0.15735770E+00 0.33043884E+04</pdfrwt>
<totfact> 0.80442972E-01</totfact>
</mgrwt>
</event>
<event>
12    7  0.2466188E-007  0.2226807E+04  0.7818608E-02  0.8507353E-01
         -1   -1    0    0    0  501 -0.00000000000E+00  0.00000000000E+00  0.41290273853E+03  0.41290273853E+03  0.00000000000E+00 0.  1.
          2   -1    0    0  501    0  0.00000000000E+00 -0.00000000000E+00 -0.30023221080E+04  0.30023221080E+04  0.00000000000E+00 0. -1.
         24    2    1    2    0    0  0.82318030090E+03 -0.73434907526E+02 -0.17365914086E+04  0.19249240581E+04  0.81021081160E+02 0.  0.
        254    2    1    2    0    0 -0.82318030090E+03  0.73434907526E+02 -0.85282796080E+03  0.14903007884E+04  0.90036793347E+03 0.  0.
         23    2    4    4    0    0 -0.79318345606E+03  0.27485715430E+03 -0.92831631363E+03  0.12548997683E+04  0.91191008548E+02 0.  0.
         23    2    4    4    0    0 -0.29996844836E+02 -0.20142224677E+03  0.75488352835E+02  0.23540102007E+03  0.90798770051E+02 0.  0.
          2    1    3    3  502    0  0.57854596590E+03 -0.88072326539E+02 -0.12084688456E+04  0.13427096187E+04  0.00000000000E+00 0. -1.
         -1    1    3    3    0  502  0.24463433501E+03  0.14637419012E+02 -0.52812256303E+03  0.58221443943E+03  0.00000000000E+00 0.  1.
         13    1    5    5    0    0 -0.35007465922E+03  0.12711733110E+03 -0.47926852853E+03  0.60696738408E+03  0.00000000000E+00 0.  1.
        -13    1    5    5    0    0 -0.44310879684E+03  0.14773982320E+03 -0.44904778511E+03  0.64793238421E+03  0.00000000000E+00 0. -1.
          3    1    6    6  503    0  0.17640532334E+02 -0.15615216223E+03  0.49893242694E+02  0.16487577692E+03  0.00000000000E+00 0. -1.
         -3    1    6    6    0  503 -0.47637377170E+02 -0.45270084546E+02  0.25595110141E+02  0.70525243152E+02  0.00000000000E+00 0.  1.
<mgrwt>
<rscale>  0 0.22268067E+04</rscale>
<asrwt>0</asrwt>
<pdfrwt beam="1">  1        2 0.46189571E+00 0.22268067E+04</pdfrwt>
<pdfrwt beam="2">  1       -1 0.63523498E-01 0.22268067E+04</pdfrwt>
<totfact> 0.45310434E+00</totfact>
</mgrwt>
</event>
<event>
12    7  0.2466188E-007  0.1327261E+04  0.7818608E-02  0.9008222E-01
         -1   -1    0    0    0  501 -0.00000000000E+00  0.00000000000E+00  0.77932264795E+03  0.77932264795E+03  0.00000000000E+00 0.  1.
          2   -1    0    0  501    0  0.00000000000E+00 -0.00000000000E+00 -0.56511289909E+03  0.56511289909E+03  0.00000000000E+00 0. -1.
         24    2    1    2    0    0  0.16500938436E+03 -0.31193013296E+03  0.46328333190E+02  0.36456317310E+03  0.78939774165E+02 0.  0.
        254    2    1    2    0    0 -0.16500938436E+03  0.31193013296E+03  0.16788141568E+03  0.97987237394E+03  0.89857509130E+03 0.  0.
         23    2    4    4    0    0 -0.25068998787E+03  0.23791122762E+03  0.50231344415E+03  0.61532366814E+03  0.82808200972E+02 0.  0.
         23    2    4    4    0    0  0.85680603516E+02  0.74018905346E+02 -0.33443202848E+03  0.36454870580E+03  0.90724930779E+02 0.  0.
          2    1    3    3  502    0  0.13272207123E+03 -0.29404054742E+03  0.53352844628E+02  0.32698855905E+03  0.00000000000E+00 0. -1.
         -1    1    3    3    0  502  0.32287313130E+02 -0.17889585546E+02 -0.70245114379E+01  0.37574614051E+02  0.00000000000E+00 0.  1.
         13    1    5    5    0    0 -0.19505460028E+02  0.17645114328E+02  0.90327910094E+02  0.94079457761E+02  0.00000000000E+00 0. -1.
        -13    1    5    5    0    0 -0.23118452785E+03  0.22026611329E+03  0.41198553406E+03  0.52124421038E+03  0.00000000000E+00 0.  1.
          4    1    6    6  503    0 -0.95400411506E+00  0.42483622405E+02 -0.50375800993E+02  0.65905156264E+02  0.00000000000E+00 0. -1.
         -4    1    6    6    0  503  0.86634607631E+02  0.31535282941E+02 -0.28405622748E+03  0.29864354954E+03  0.00000000000E+00 0.  1.
<mgrwt>
<rscale>  0 0.13272608E+04</rscale>
<asrwt>0</asrwt>
<pdfrwt beam="1">  1        2 0.86940446E-01 0.13272608E+04</pdfrwt>
<pdfrwt beam="2">  1       -1 0.11989579E+00 0.13272608E+04</pdfrwt>
<totfact> 0.36994568E+01</totfact>
</mgrwt>
</event>
<event>
12    7  0.2466188E-007  0.2081229E+04  0.7818608E-02  0.8569557E-01
          2   -1    0    0  501    0  0.00000000000E+00  0.00000000000E+00  0.26225287008E+04  0.26225287008E+04  0.00000000000E+00 0. -1.
         -1   -1    0    0    0  501 -0.00000000000E+00 -0.00000000000E+00 -0.41291400617E+03  0.41291400617E+03  0.00000000000E+00 0.  1.
         24    2    1    2    0    0  0.67515390425E+03  0.12006119192E+02  0.16207093818E+03  0.69892862930E+03  0.79103087984E+02 0.  0.
        254    2    1    2    0    0 -0.67515390425E+03 -0.12006119192E+02  0.20475437564E+04  0.23365140777E+04  0.90049189850E+03 0.  0.
         23    2    4    4    0    0  0.15180830864E+02 -0.29505954075E+03  0.28616698138E+03  0.42146283704E+03  0.91917308244E+02 0.  0.
         23    2    4    4    0    0 -0.69033473511E+03  0.28305342156E+03  0.17613767751E+04  0.19150512406E+04  0.91059456144E+02 0.  0.
          2    1    3    3  502    0  0.48681287257E+03 -0.69879277156E+01  0.14912793994E+03  0.50919028516E+03  0.00000000000E+00 0. -1.
         -1    1    3    3    0  502  0.18834103168E+03  0.18994046908E+02  0.12942998244E+02  0.18973834413E+03  0.00000000000E+00 0.  1.
         13    1    5    5    0    0 -0.10474671796E+02  0.61364742817E+00  0.22227234188E+01  0.10725474899E+02  0.00000000000E+00 0.  1.
        -13    1    5    5    0    0  0.25655502661E+02 -0.29567318818E+03  0.28394425796E+03  0.41073736214E+03  0.00000000000E+00 0. -1.
          1    1    6    6  503    0 -0.25890077954E+03  0.12349878812E+03  0.57390532190E+03  0.64159869297E+03  0.00000000000E+00 0. -1.
         -1    1    6    6    0  503 -0.43143395557E+03  0.15955463344E+03  0.11874714532E+04  0.12734525476E+04  0.00000000000E+00 0.  1.
<mgrwt>
<rscale>  0 0.20812293E+04</rscale>
<asrwt>0</asrwt>
<pdfrwt beam="1">  1        2 0.40346594E+00 0.20812293E+04</pdfrwt>
<pdfrwt beam="2">  1       -1 0.63525233E-01 0.20812293E+04</pdfrwt>
<totfact> 0.77975948E+00</totfact>
</mgrwt>
</event>
<event>
12    7  0.2466188E-007  0.2377966E+04  0.7818608E-02  0.8447799E-01
         -1   -1    0    0    0  501 -0.00000000000E+00  0.00000000000E+00  0.54513266768E+03  0.54513266768E+03  0.00000000000E+00 0.  1.
          2   -1    0    0  501    0  0.00000000000E+00 -0.00000000000E+00 -0.25932790662E+04  0.25932790662E+04  0.00000000000E+00 0. -1.
         24    2    1    2    0    0 -0.45697415769E+03 -0.32816102092E+03 -0.19966123585E+04  0.20758685455E+04  0.79083952823E+02 0.  0.
        254    2    1    2    0    0  0.45697415769E+03  0.32816102092E+03 -0.51534040102E+02  0.10625431885E+04  0.89990401356E+03 0.  0.
         23    2    4    4    0    0  0.50603256982E+03  0.10131842293E+03  0.32093822026E+03  0.61471496389E+03  0.92405416854E+02 0.  0.
         23    2    4    4    0    0 -0.49058412121E+02  0.22684259799E+03 -0.37247226037E+03  0.44782822458E+03  0.89164129129E+02 0.  0.
          2    1    3    3  502    0 -0.42321957318E+03 -0.31361721545E+03 -0.19191713870E+04  0.19901480793E+04  0.00000000000E+00 0. -1.
         -1    1    3    3    0  502 -0.33754584514E+02 -0.14543805467E+02 -0.77440971482E+02  0.85720466152E+02  0.00000000000E+00 0.  1.
         13    1    5    5    0    0  0.43869978259E+03  0.11794293500E+03  0.28853523753E+03  0.53816411852E+03  0.00000000000E+00 0. -1.
        -13    1    5    5    0    0  0.67332787226E+02 -0.16624512074E+02  0.32402982734E+02  0.76550845373E+02  0.00000000000E+00 0.  1.
          4    1    6    6  503    0 -0.65085201546E+02  0.10615698399E+03 -0.21906890255E+03  0.25198526302E+03  0.00000000000E+00 0. -1.
         -4    1    6    6    0  503  0.16026789425E+02  0.12068561400E+03 -0.15340335781E+03  0.19584296156E+03  0.00000000000E+00 0.  1.
<mgrwt>
<rscale>  0 0.23779665E+04</rscale>
<asrwt>0</asrwt>
<pdfrwt beam="1">  1        2 0.39896600E+00 0.23779665E+04</pdfrwt>
<pdfrwt beam="2">  1       -1 0.83866567E-01 0.23779665E+04</pdfrwt>
<totfact> 0.44358164E+00</totfact>
</mgrwt>
</event>
<event>
12    7  0.2466188E-007  0.1417648E+04  0.7818608E-02  0.8941142E-01
         -1   -1    0    0    0  501 -0.00000000000E+00  0.00000000000E+00  0.55397304581E+03  0.55397304581E+03  0.00000000000E+00 0.  1.
          2   -1    0    0  501    0  0.00000000000E+00 -0.00000000000E+00 -0.90696054339E+03  0.90696054339E+03  0.00000000000E+00 0. -1.
         24    2    1    2    0    0  0.28147684589E+03 -0.24244760304E+03  0.91368735357E+02  0.39042339652E+03  0.77923858698E+02 0.  0.
        254    2    1    2    0    0 -0.28147684589E+03  0.24244760304E+03 -0.44435623293E+03  0.10705101927E+04  0.90029414964E+03 0.  0.
         23    2    4    4    0    0 -0.47257092020E+03 -0.15226430275E+03 -0.12319420163E+03  0.51935668560E+03  0.89704308988E+02 0.  0.
         23    2    4    4    0    0  0.19109407430E+03  0.39471190579E+03 -0.32116203130E+03  0.55115350708E+03  0.91163063834E+02 0.  0.
          2    1    3    3  502    0  0.24321809408E+03 -0.18784763222E+03  0.48388355477E+02  0.31109999544E+03  0.00000000000E+00 0. -1.
         -1    1    3    3    0  502  0.38258751819E+02 -0.54599970820E+02  0.42980379880E+02  0.79323401080E+02  0.00000000000E+00 0.  1.
         13    1    5    5    0    0 -0.27686685958E+03 -0.53724890570E+02 -0.39406565844E+02  0.28477095925E+03  0.00000000000E+00 0. -1.
        -13    1    5    5    0    0 -0.19570406062E+03 -0.98539412183E+02 -0.83787635791E+02  0.23458572635E+03  0.00000000000E+00 0.  1.
          1    1    6    6  503    0  0.11503984680E+03  0.17772628360E+03 -0.20006741275E+03  0.29128640181E+03  0.00000000000E+00 0. -1.
         -1    1    6    6    0  503  0.76054227500E+02  0.21698562219E+03 -0.12109461855E+03  0.25986710527E+03  0.00000000000E+00 0.  1.
<mgrwt>
<rscale>  0 0.14176483E+04</rscale>
<asrwt>0</asrwt>
<pdfrwt beam="1">  1        2 0.13953239E+00 0.14176483E+04</pdfrwt>
<pdfrwt beam="2">  1       -1 0.85226623E-01 0.14176483E+04</pdfrwt>
<totfact> 0.43814957E+01</totfact>
</mgrwt>
</event>
<event>
12    7  0.2466188E-007  0.2354841E+04  0.7818608E-02  0.8456607E-01
         -1   -1    0    0    0  501 -0.00000000000E+00  0.00000000000E+00  0.95836553575E+03  0.95836553575E+03  0.00000000000E+00 0.  1.
          2   -1    0    0  501    0  0.00000000000E+00 -0.00000000000E+00 -0.14465447856E+04  0.14465447856E+04  0.00000000000E+00 0. -1.
         24    2    1    2    0    0  0.68121181631E+03 -0.73683822916E+03 -0.26757689905E+03  0.10415747613E+04  0.79375511518E+02 0.  0.
        254    2    1    2    0    0 -0.68121181631E+03  0.73683822916E+03 -0.22060235077E+03  0.13633355600E+04  0.89612406366E+03 0.  0.
         23    2    4    4    0    0 -0.79883480635E+03  0.37766195987E+03  0.49882696570E+02  0.88965452527E+03  0.90726441210E+02 0.  0.
         23    2    4    4    0    0  0.11762299004E+03  0.35917626928E+03 -0.27048504734E+03  0.47368103477E+03  0.91481154691E+02 0.  0.
          2    1    3    3  502    0  0.31019791558E+03 -0.27823956631E+03 -0.11488012043E+03  0.43224697241E+03  0.00000000000E+00 0. -1.
         -1    1    3    3    0  502  0.37101390073E+03 -0.45859866284E+03 -0.15269677862E+03  0.60932778888E+03  0.00000000000E+00 0.  1.
         13    1    5    5    0    0 -0.58682949376E+03  0.32050470275E+03  0.34373145506E+02  0.66953239830E+03  0.00000000000E+00 0.  1.
        -13    1    5    5    0    0 -0.21200531259E+03  0.57157257122E+02  0.15509551064E+02  0.22012212697E+03  0.00000000000E+00 0. -1.
          2    1    6    6  503    0  0.33398629912E+02  0.23807959532E+03 -0.18347454338E+03  0.30242399088E+03  0.00000000000E+00 0. -1.
         -2    1    6    6    0  503  0.84224360133E+02  0.12109667396E+03 -0.87010503959E+02  0.17125704390E+03  0.00000000000E+00 0.  1.
<mgrwt>
<rscale>  0 0.23548407E+04</rscale>
<asrwt>0</asrwt>
<pdfrwt beam="1">  1        2 0.22254535E+00 0.23548407E+04</pdfrwt>
<pdfrwt beam="2">  1       -1 0.14744085E+00 0.23548407E+04</pdfrwt>
<totfact> 0.51147274E+00</totfact>
</mgrwt>
</event>
<event>
12    7  0.2466188E-007  0.1342800E+04  0.7818608E-02  0.8996296E-01
         -1   -1    0    0    0  501 -0.00000000000E+00  0.00000000000E+00  0.16935824073E+03  0.16935824073E+03  0.00000000000E+00 0.  1.
          2   -1    0    0  501    0  0.00000000000E+00 -0.00000000000E+00 -0.26616847224E+04  0.26616847224E+04  0.00000000000E+00 0. -1.
         24    2    1    2    0    0 -0.33571485972E+03 -0.68331463270E+02 -0.43048996962E+03  0.55593547100E+03  0.79805877373E+02 0.  0.
        254    2    1    2    0    0  0.33571485972E+03  0.68331463270E+02 -0.20618365120E+04  0.22751074921E+04  0.89864934344E+03 0.  0.
         23    2    4    4    0    0  0.19698805249E+03 -0.38944162042E+03 -0.12656049840E+04  0.13417746384E+04  0.90189444747E+02 0.  0.
         23    2    4    4    0    0  0.13872680723E+03  0.45777308369E+03 -0.79623152797E+03  0.93333285376E+03  0.91237309113E+02 0.  0.
          2    1    3    3  502    0 -0.27215483009E+03 -0.80718065664E+02 -0.37712362107E+03  0.47202318082E+03  0.00000000000E+00 0. -1.
         -1    1    3    3    0  502 -0.63560029624E+02  0.12386602395E+02 -0.53366348557E+02  0.83912290178E+02  0.00000000000E+00 0.  1.
         13    1    5    5    0    0  0.17836058868E+03 -0.36552317325E+03 -0.12272261104E+04  0.12928664339E+04  0.00000000000E+00 0. -1.
        -13    1    5    5    0    0  0.18627463808E+02 -0.23918447167E+02 -0.38378873613E+02  0.48908204451E+02  0.00000000000E+00 0.  1.
          3    1    6    6  503    0  0.12927212293E+03  0.32030456616E+03 -0.61886359512E+03  0.70873016462E+03  0.00000000000E+00 0. -1.
         -3    1    6    6    0  503  0.94546843022E+01  0.13746851753E+03 -0.17736793285E+03  0.22460268914E+03  0.00000000000E+00 0.  1.
<mgrwt>
<rscale>  0 0.13428004E+04</rscale>
<asrwt>0</asrwt>
<pdfrwt beam="1">  1        2 0.40948994E+00 0.13428004E+04</pdfrwt>
<pdfrwt beam="2">  1       -1 0.26055115E-01 0.13428004E+04</pdfrwt>
<totfact> 0.40874471E+01</totfact>
</mgrwt>
</event>
<event>
12    7  0.2466188E-007  0.2286349E+04  0.7818608E-02  0.8483323E-01
          2   -1    0    0  501    0  0.00000000000E+00  0.00000000000E+00  0.24777212923E+04  0.24777212923E+04  0.00000000000E+00 0. -1.
         -1   -1    0    0    0  501 -0.00000000000E+00 -0.00000000000E+00 -0.52743943171E+03  0.52743943171E+03  0.00000000000E+00 0.  1.
         24    2    1    2    0    0  0.94761369804E+03 -0.99675393407E+02  0.11016242320E+04  0.14587553377E+04  0.80525039164E+02 0.  0.
        254    2    1    2    0    0 -0.94761369804E+03  0.99675393407E+02  0.84865762853E+03  0.15464053863E+04  0.87363776444E+03 0.  0.
         23    2    4    4    0    0 -0.90622345994E+03  0.12210754378E+03  0.26820459478E+03  0.95711212358E+03  0.89323573908E+02 0.  0.
         23    2    4    4    0    0 -0.41390238098E+02 -0.22432150373E+02  0.58045303375E+03  0.58929326268E+03  0.90135852314E+02 0.  0.
          4    1    3    3  502    0  0.38626942523E+03 -0.38957988968E+02  0.50988230301E+03  0.64086016938E+03  0.00000000000E+00 0. -1.
         -3    1    3    3    0  502  0.56134427281E+03 -0.60717404439E+02  0.59174192903E+03  0.81789516834E+03  0.00000000000E+00 0.  1.
         13    1    5    5    0    0 -0.26695581161E+03  0.28086638887E+02  0.12084510406E+03  0.29437697568E+03  0.00000000000E+00 0. -1.
        -13    1    5    5    0    0 -0.63926764834E+03  0.94020904893E+02  0.14735949072E+03  0.66273514791E+03  0.00000000000E+00 0.  1.
          1    1    6    6  503    0  0.16266332816E+02  0.19719284540E+02  0.24447566187E+03  0.24580844780E+03  0.00000000000E+00 0. -1.
         -1    1    6    6    0  503 -0.57656570914E+02 -0.42151434913E+02  0.33597737188E+03  0.34348481488E+03  0.00000000000E+00 0.  1.
<mgrwt>
<rscale>  0 0.22863490E+04</rscale>
<asrwt>0</asrwt>
<pdfrwt beam="1">  1        2 0.38118789E+00 0.22863490E+04</pdfrwt>
<pdfrwt beam="2">  1       -1 0.81144529E-01 0.22863490E+04</pdfrwt>
<totfact> 0.56039890E+00</totfact>
</mgrwt>
</event>
<event>
12    7  0.2466188E-007  0.2660062E+04  0.7818608E-02  0.8348081E-01
         -3   -1    0    0    0  501 -0.00000000000E+00  0.00000000000E+00  0.67527321298E+03  0.67527321298E+03  0.00000000000E+00 0.  1.
          2   -1    0    0  501    0  0.00000000000E+00 -0.00000000000E+00 -0.26196541048E+04  0.26196541048E+04  0.00000000000E+00 0. -1.
         24    2    1    2    0    0  0.34243524119E+03 -0.10431781232E+04 -0.13842358648E+04  0.17686716083E+04  0.81288606878E+02 0.  0.
        254    2    1    2    0    0 -0.34243524119E+03  0.10431781232E+04 -0.56014502696E+03  0.15262557094E+04  0.90011751916E+03 0.  0.
         23    2    4    4    0    0 -0.54729990329E+03  0.92503719796E+03 -0.64812051923E+03  0.12582658058E+04  0.89115816561E+02 0.  0.
         23    2    4    4    0    0  0.20486466210E+03  0.11814092520E+03  0.87975492265E+02  0.26798990367E+03  0.90288943084E+02 0.  0.
          2    1    3    3  502    0  0.15862340266E+03 -0.36514836584E+03 -0.52169911820E+03  0.65625047267E+03  0.00000000000E+00 0. -1.
         -1    1    3    3    0  502  0.18381183853E+03 -0.67802975732E+03 -0.86253674664E+03  0.11124211357E+04  0.00000000000E+00 0.  1.
         13    1    5    5    0    0 -0.48199669154E+03  0.76951514911E+03 -0.51921132074E+03  0.10459707314E+04  0.00000000000E+00 0. -1.
        -13    1    5    5    0    0 -0.65303211745E+02  0.15552204885E+03 -0.12890919849E+03  0.21229507436E+03  0.00000000000E+00 0.  1.
          1    1    6    6  503    0  0.13069283039E+03  0.10612883401E+03  0.25511407336E+02  0.17027852838E+03  0.00000000000E+00 0. -1.
         -1    1    6    6    0  503  0.74171831714E+02  0.12012091190E+02  0.62464084930E+02  0.97711375288E+02  0.00000000000E+00 0.  1.
<mgrwt>
<rscale>  0 0.26600618E+04</rscale>
<asrwt>0</asrwt>
<pdfrwt beam="1">  1        2 0.40302371E+00 0.26600618E+04</pdfrwt>
<pdfrwt beam="2">  1       -3 0.10388819E+00 0.26600618E+04</pdfrwt>
<totfact> 0.13310286E+00</totfact>
</mgrwt>
</event>
<event>
12    7  0.2466188E-007  0.1941962E+04  0.7818608E-02  0.8634247E-01
          2   -1    0    0  501    0  0.00000000000E+00  0.00000000000E+00  0.12164684959E+04  0.12164684959E+04  0.00000000000E+00 0. -1.
         -1   -1    0    0    0  501 -0.00000000000E+00 -0.00000000000E+00 -0.77503338981E+03  0.77503338981E+03  0.00000000000E+00 0.  1.
         24    2    1    2    0    0 -0.29831219139E+03 -0.59470561196E+03 -0.20412703149E+03  0.69983488089E+03  0.73729825026E+02 0.  0.
        254    2    1    2    0    0  0.29831219139E+03  0.59470561196E+03  0.64556213762E+03  0.12916670049E+04  0.89943774075E+03 0.  0.
         23    2    4    4    0    0  0.26286071196E+03  0.81873070294E+03  0.43726454770E+03  0.96899980899E+03  0.91348931667E+02 0.  0.
         23    2    4    4    0    0  0.35451479430E+02 -0.22402509098E+03  0.20829758992E+03  0.32266719587E+03  0.96344094482E+02 0.  0.
          4    1    3    3  502    0 -0.16240619264E+03 -0.28495359509E+03 -0.66534200631E+02  0.33466568784E+03  0.00000000000E+00 0. -1.
         -3    1    3    3    0  502 -0.13590599875E+03 -0.30975201687E+03 -0.13759283086E+03  0.36516919305E+03  0.00000000000E+00 0.  1.
         13    1    5    5    0    0  0.20869091545E+03  0.55124952830E+03  0.26493883956E+03  0.64623566084E+03  0.00000000000E+00 0. -1.
        -13    1    5    5    0    0  0.54169796515E+02  0.26748117464E+03  0.17232570814E+03  0.32276414815E+03  0.00000000000E+00 0.  1.
          1    1    6    6  503    0  0.10240610346E+02 -0.30670966921E+02  0.87517883907E+02  0.93300366107E+02  0.00000000000E+00 0. -1.
         -1    1    6    6    0  503  0.25210869083E+02 -0.19335412406E+03  0.12077970601E+03  0.22936682976E+03  0.00000000000E+00 0.  1.
<mgrwt>
<rscale>  0 0.19419616E+04</rscale>
<asrwt>0</asrwt>
<pdfrwt beam="1">  1        2 0.18714900E+00 0.19419616E+04</pdfrwt>
<pdfrwt beam="2">  1       -1 0.11923591E+00 0.19419616E+04</pdfrwt>
<totfact> 0.12393382E+01</totfact>
</mgrwt>
</event>
<event>
12    7  0.2466188E-007  0.1884019E+04  0.7818608E-02  0.8662852E-01
          2   -1    0    0  501    0  0.00000000000E+00  0.00000000000E+00  0.19040314459E+04  0.19040314459E+04  0.00000000000E+00 0. -1.
         -1   -1    0    0    0  501 -0.00000000000E+00 -0.00000000000E+00 -0.46605430662E+03  0.46605430662E+03  0.00000000000E+00 0.  1.
         24    2    1    2    0    0 -0.21080962320E+02 -0.53364297575E+03  0.11705871313E+04  0.12899126845E+04  0.91549271807E+02 0.  0.
        254    2    1    2    0    0  0.21080962320E+02  0.53364297575E+03  0.26739000804E+03  0.10801730681E+04  0.90003178167E+03 0.  0.
         23    2    4    4    0    0 -0.76316889482E+02 -0.22110708216E+03  0.17299185657E+03  0.30798076743E+03  0.10106117587E+03 0.  0.
         23    2    4    4    0    0  0.97397851802E+02  0.75475005790E+03  0.94398151470E+02  0.77219230062E+03  0.90752116804E+02 0.  0.
          2    1    3    3  502    0 -0.58074380298E+01 -0.46643587396E+03  0.10770523989E+04  0.11737282568E+04  0.00000000000E+00 0. -1.
         -1    1    3    3    0  502 -0.15273524290E+02 -0.67207101790E+02  0.93534732351E+02  0.11618442766E+03  0.00000000000E+00 0.  1.
         13    1    5    5    0    0 -0.58471572837E+01 -0.38688271817E+01  0.46267987549E+02  0.46796193690E+02  0.00000000000E+00 0.  1.
        -13    1    5    5    0    0 -0.70469732198E+02 -0.21723825497E+03  0.12672386902E+03  0.26118457374E+03  0.00000000000E+00 0. -1.
          1    1    6    6  503    0  0.25017974615E+02  0.44241217067E+03  0.86485333044E+02  0.45147994490E+03  0.00000000000E+00 0. -1.
         -1    1    6    6    0  503  0.72379877187E+02  0.31233788723E+03  0.79128184262E+01  0.32071235573E+03  0.00000000000E+00 0.  1.
<mgrwt>
<rscale>  0 0.18840192E+04</rscale>
<asrwt>0</asrwt>
<pdfrwt beam="1">  1        2 0.29292791E+00 0.18840192E+04</pdfrwt>
<pdfrwt beam="2">  1       -1 0.71700663E-01 0.18840192E+04</pdfrwt>
<totfact> 0.15839731E+01</totfact>
</mgrwt>
</event>
<event>
12    7  0.2466188E-007  0.1395046E+04  0.7818608E-02  0.8957412E-01
         -1   -1    0    0    0  501 -0.00000000000E+00  0.00000000000E+00  0.31605162232E+03  0.31605162232E+03  0.00000000000E+00 0.  1.
          2   -1    0    0  501    0  0.00000000000E+00 -0.00000000000E+00 -0.15394267889E+04  0.15394267889E+04  0.00000000000E+00 0. -1.
         24    2    1    2    0    0 -0.26063154742E+02  0.11692885422E+03 -0.86971057014E+03  0.88152474115E+03  0.79609977098E+02 0.  0.
        254    2    1    2    0    0  0.26063154742E+02 -0.11692885422E+03 -0.35366459649E+03  0.97395367011E+03  0.89953068860E+03 0.  0.
         23    2    4    4    0    0 -0.12393002083E+03  0.43547446814E+02 -0.60624833495E+03  0.62703219040E+03  0.91527558544E+02 0.  0.
         23    2    4    4    0    0  0.14999317557E+03 -0.16047630104E+03  0.25258373847E+03  0.34692147972E+03  0.91133815012E+02 0.  0.
          4    1    3    3  502    0  0.59313506101E+01  0.11099851873E+03 -0.68868054880E+03  0.69759354238E+03  0.00000000000E+00 0. -1.
         -3    1    3    3    0  502 -0.31994505352E+02  0.59303354983E+01 -0.18103002134E+03  0.18393119876E+03  0.00000000000E+00 0.  1.
         13    1    5    5    0    0 -0.11642355700E+03  0.10186570784E+02 -0.36188707947E+03  0.38028998033E+03  0.00000000000E+00 0.  1.
        -13    1    5    5    0    0 -0.75064638239E+01  0.33360876030E+02 -0.24436125548E+03  0.24674221007E+03  0.00000000000E+00 0. -1.
          3    1    6    6  503    0  0.81347468242E+02 -0.13622338197E+03  0.13354834292E+03  0.20738703017E+03  0.00000000000E+00 0. -1.
         -3    1    6    6    0  503  0.68645707325E+02 -0.24252919066E+02  0.11903539555E+03  0.13953444955E+03  0.00000000000E+00 0.  1.
<mgrwt>
<rscale>  0 0.13950460E+04</rscale>
<asrwt>0</asrwt>
<pdfrwt beam="1">  1        2 0.23683489E+00 0.13950460E+04</pdfrwt>
<pdfrwt beam="2">  1       -1 0.48623327E-01 0.13950460E+04</pdfrwt>
<totfact> 0.56625485E+01</totfact>
</mgrwt>
</event>
<event>
12    7  0.2466188E-007  0.2721811E+04  0.7818608E-02  0.8327963E-01
         -1   -1    0    0    0  501 -0.00000000000E+00  0.00000000000E+00  0.52265696821E+03  0.52265696821E+03  0.00000000000E+00 0.  1.
          2   -1    0    0  501    0  0.00000000000E+00 -0.00000000000E+00 -0.35435551168E+04  0.35435551168E+04  0.00000000000E+00 0. -1.
         24    2    1    2    0    0 -0.63612527295E+03 -0.10213900250E+04 -0.11476526777E+04  0.16645690452E+04  0.76095279054E+02 0.  0.
        254    2    1    2    0    0  0.63612527295E+03  0.10213900250E+04 -0.18732454708E+04  0.24016430398E+04  0.90052637420E+03 0.  0.
         23    2    4    4    0    0 -0.20538551124E+03  0.86242758338E+02 -0.32384898414E+03  0.40344998854E+03  0.90954423352E+02 0.  0.
         23    2    4    4    0    0  0.84151078420E+03  0.93514726663E+03 -0.15493964867E+04  0.19981930513E+04  0.97494548247E+02 0.  0.
          2    1    3    3  502    0 -0.17564619646E+03 -0.26426295181E+03 -0.34805020625E+03  0.47098348177E+03  0.00000000000E+00 0. -1.
         -1    1    3    3    0  502 -0.46047907649E+03 -0.75712707315E+03 -0.79960247150E+03  0.11935855634E+04  0.00000000000E+00 0.  1.
         13    1    5    5    0    0  0.86159239449E+01 -0.34037109447E+00 -0.20577866614E+02  0.22311400500E+02  0.00000000000E+00 0.  1.
        -13    1    5    5    0    0 -0.21400143519E+03  0.86583129432E+02 -0.30327111753E+03  0.38113858804E+03  0.00000000000E+00 0. -1.
          4    1    6    6  503    0  0.16237287526E+03  0.24141640332E+03 -0.36413841801E+03  0.46609400112E+03  0.00000000000E+00 0.  1.
         -4    1    6    6    0  503  0.67913790894E+03  0.69373086331E+03 -0.11852580687E+04  0.15320990501E+04  0.00000000000E+00 0. -1.
<mgrwt>
<rscale>  0 0.27218110E+04</rscale>
<asrwt>0</asrwt>
<pdfrwt beam="1">  1        2 0.54516232E+00 0.27218110E+04</pdfrwt>
<pdfrwt beam="2">  1       -1 0.80408765E-01 0.27218110E+04</pdfrwt>
<totfact> 0.11637638E+00</totfact>
</mgrwt>
</event>
<event>
12    7  0.2466188E-007  0.1640829E+04  0.7818608E-02  0.8795851E-01
         -1   -1    0    0    0  501 -0.00000000000E+00  0.00000000000E+00  0.31493793294E+03  0.31493793294E+03  0.00000000000E+00 0.  1.
          2   -1    0    0  501    0  0.00000000000E+00 -0.00000000000E+00 -0.21371821900E+04  0.21371821900E+04  0.00000000000E+00 0. -1.
         24    2    1    2    0    0 -0.44215832333E+03 -0.25237179897E+03 -0.10199372796E+04  0.11427163205E+04  0.79580317761E+02 0.  0.
        254    2    1    2    0    0  0.44215832333E+03  0.25237179897E+03 -0.80230697746E+03  0.13094038025E+04  0.90091416018E+03 0.  0.
         23    2    4    4    0    0  0.14401996716E+02  0.47203397305E+03 -0.16939600658E+03  0.50990050539E+03  0.90994665424E+02 0.  0.
         23    2    4    4    0    0  0.42775632661E+03 -0.21966217408E+03 -0.63291097088E+03  0.79950329707E+03  0.86036499712E+02 0.  0.
          4    1    3    3  502    0 -0.31959428780E+03 -0.19199226339E+03 -0.81728776566E+03  0.89830998541E+03  0.00000000000E+00 0. -1.
         -3    1    3    3    0  502 -0.12256403553E+03 -0.60379535581E+02 -0.20264951395E+03  0.24440633508E+03  0.00000000000E+00 0.  1.
         13    1    5    5    0    0  0.24489203778E+02  0.44356201563E+03 -0.13537803824E+03  0.46440736003E+03  0.00000000000E+00 0.  1.
        -13    1    5    5    0    0 -0.10087207063E+02  0.28471957418E+02 -0.34017968334E+02  0.45493145364E+02  0.00000000000E+00 0. -1.
          1    1    6    6  503    0  0.22570760094E+03 -0.78391086177E+02 -0.26714441783E+03  0.35840650592E+03  0.00000000000E+00 0. -1.
         -1    1    6    6    0  503  0.20204872567E+03 -0.14127108790E+03 -0.36576655305E+03  0.44109679114E+03  0.00000000000E+00 0.  1.
<mgrwt>
<rscale>  0 0.16408287E+04</rscale>
<asrwt>0</asrwt>
<pdfrwt beam="1">  1        2 0.32879726E+00 0.16408287E+04</pdfrwt>
<pdfrwt beam="2">  1       -1 0.48451990E-01 0.16408287E+04</pdfrwt>
<totfact> 0.25996598E+01</totfact>
</mgrwt>
</event>
<event>
12    7  0.2466188E-007  0.2718326E+04  0.7818608E-02  0.8329083E-01
         -1   -1    0    0    0  501 -0.00000000000E+00  0.00000000000E+00  0.98329124042E+03  0.98329124042E+03  0.00000000000E+00 0.  1.
          2   -1    0    0  501    0  0.00000000000E+00 -0.00000000000E+00 -0.18787155548E+04  0.18787155548E+04  0.00000000000E+00 0. -1.
         24    2    1    2    0    0  0.80123398606E+03 -0.35903191316E+03 -0.12742591117E+04  0.15494878895E+04  0.79351249288E+02 0.  0.
        254    2    1    2    0    0 -0.80123398606E+03  0.35903191316E+03  0.37883479739E+03  0.13125189057E+04  0.89906076493E+03 0.  0.
         23    2    4    4    0    0 -0.81698494713E+03  0.18347084348E+02  0.47468390625E+03  0.94953077610E+03  0.92102467784E+02 0.  0.
         23    2    4    4    0    0  0.15750961070E+02  0.34068482881E+03 -0.95849108861E+02  0.36298812960E+03  0.79114380522E+02 0.  0.
          4    1    3    3  502    0  0.50764563367E+03 -0.18911770317E+03 -0.75476032278E+03  0.92904937430E+03  0.00000000000E+00 0. -1.
         -3    1    3    3    0  502  0.29358835239E+03 -0.16991420998E+03 -0.51949878896E+03  0.62043851520E+03  0.00000000000E+00 0.  1.
         13    1    5    5    0    0 -0.54495382525E+03  0.38516938566E+02  0.35588286301E+03  0.65200524415E+03  0.00000000000E+00 0. -1.
        -13    1    5    5    0    0 -0.27203112188E+03 -0.20169854219E+02  0.11880104324E+03  0.29752553195E+03  0.00000000000E+00 0.  1.
          4    1    6    6  503    0  0.45436415794E+02  0.26193479695E+03 -0.76477415146E+02  0.27662809105E+03  0.00000000000E+00 0. -1.
         -4    1    6    6    0  503 -0.29685454724E+02  0.78750031859E+02 -0.19371693714E+02  0.86360038544E+02  0.00000000000E+00 0.  1.
<mgrwt>
<rscale>  0 0.27183264E+04</rscale>
<asrwt>0</asrwt>
<pdfrwt beam="1">  1        2 0.28903316E+00 0.27183264E+04</pdfrwt>
<pdfrwt beam="2">  1       -1 0.15127558E+00 0.27183264E+04</pdfrwt>
<totfact> 0.26523530E+00</totfact>
</mgrwt>
</event>
<event>
12    7  0.2466188E-007  0.2561462E+04  0.7818608E-02  0.8381411E-01
          2   -1    0    0  501    0  0.00000000000E+00  0.00000000000E+00  0.12786702692E+04  0.12786702692E+04  0.00000000000E+00 0. -1.
         -1   -1    0    0    0  501 -0.00000000000E+00 -0.00000000000E+00 -0.12827952652E+04  0.12827952652E+04  0.00000000000E+00 0.  1.
         24    2    1    2    0    0 -0.74314513375E+03 -0.61488852050E+03  0.57006035985E+03  0.11232198799E+04  0.79382001858E+02 0.  0.
        254    2    1    2    0    0  0.74314513375E+03  0.61488852050E+03 -0.57418535583E+03  0.14382456546E+04  0.89917137273E+03 0.  0.
         23    2    4    4    0    0  0.64830316431E+03  0.21333721773E+03  0.42603965246E+02  0.69035993551E+03  0.94720543602E+02 0.  0.
         23    2    4    4    0    0  0.94841969437E+02  0.40155130277E+03 -0.61678932108E+03  0.74788571904E+03  0.93088851234E+02 0.  0.
          2    1    3    3  502    0 -0.41862161225E+03 -0.39086798534E+03  0.35912867384E+03  0.67601423105E+03  0.00000000000E+00 0. -1.
         -1    1    3    3    0  502 -0.32452352150E+03 -0.22402053516E+03  0.21093168601E+03  0.44720564883E+03  0.00000000000E+00 0.  1.
         13    1    5    5    0    0  0.28108607893E+03  0.53254190034E+02  0.45948247093E+02  0.28975271169E+03  0.00000000000E+00 0. -1.
        -13    1    5    5    0    0  0.36721708539E+03  0.16008302769E+03 -0.33442818474E+01  0.40060722382E+03  0.00000000000E+00 0.  1.
          3    1    6    6  503    0  0.49723455831E+02  0.14022037942E+03 -0.15155897058E+03  0.21237772583E+03  0.00000000000E+00 0. -1.
         -3    1    6    6    0  503  0.45118513607E+02  0.26133092335E+03 -0.46523035050E+03  0.53550799321E+03  0.00000000000E+00 0.  1.
<mgrwt>
<rscale>  0 0.25614622E+04</rscale>
<asrwt>0</asrwt>
<pdfrwt beam="1">  1        2 0.19671850E+00 0.25614622E+04</pdfrwt>
<pdfrwt beam="2">  1       -1 0.19735312E+00 0.25614622E+04</pdfrwt>
<totfact> 0.27007109E+00</totfact>
</mgrwt>
</event>
<event>
12    7  0.2466188E-007  0.4855018E+04  0.7818608E-02  0.7851270E-01
         -1   -1    0    0    0  501 -0.00000000000E+00  0.00000000000E+00  0.29166477130E+04  0.29166477130E+04  0.00000000000E+00 0.  1.
          2   -1    0    0  501    0  0.00000000000E+00 -0.00000000000E+00 -0.20204020329E+04  0.20204020329E+04  0.00000000000E+00 0. -1.
         24    2    1    2    0    0  0.72018680694E+03  0.22302941763E+04  0.43864869840E+03  0.23857555915E+04  0.80844986364E+02 0.  0.
        254    2    1    2    0    0 -0.72018680694E+03 -0.22302941763E+04  0.45759698167E+03  0.25512941544E+04  0.89823477727E+03 0.  0.
         23    2    4    4    0    0  0.94577002495E+02 -0.24000704597E+03  0.27985998396E+03  0.39140981485E+03  0.91278918801E+02 0.  0.
         23    2    4    4    0    0 -0.81476380944E+03 -0.19902871303E+04  0.17773699770E+03  0.21598843396E+04  0.91798658654E+02 0.  0.
          2    1    3    3  502    0  0.26931914734E+03  0.94259278830E+03  0.20564029096E+03  0.10016495879E+04  0.00000000000E+00 0. -1.
         -1    1    3    3    0  502  0.45086765960E+03  0.12877013880E+04  0.23300840744E+03  0.13841060036E+04  0.00000000000E+00 0.  1.
         13    1    5    5    0    0  0.24744507432E+02 -0.17899529355E+03  0.17755423648E+03  0.25333202059E+03  0.00000000000E+00 0. -1.
        -13    1    5    5    0    0  0.69832495063E+02 -0.61011752420E+02  0.10230574748E+03  0.13807779426E+03  0.00000000000E+00 0.  1.
          1    1    6    6  503    0 -0.21564725849E+03 -0.45599321434E+03  0.13451817942E+02  0.50459340367E+03  0.00000000000E+00 0. -1.
         -1    1    6    6    0  503 -0.59911655095E+03 -0.15342939160E+04  0.16428517976E+03  0.16552909359E+04  0.00000000000E+00 0.  1.
<mgrwt>
<rscale>  0 0.48550184E+04</rscale>
<asrwt>0</asrwt>
<pdfrwt beam="1">  1        2 0.31083108E+00 0.48550184E+04</pdfrwt>
<pdfrwt beam="2">  1       -1 0.44871503E+00 0.48550184E+04</pdfrwt>
<totfact> 0.18061039E-02</totfact>
</mgrwt>
</event>
<event>
12    7  0.2466188E-007  0.1564706E+04  0.7818608E-02  0.8842529E-01
          2   -1    0    0  501    0  0.00000000000E+00  0.00000000000E+00  0.48022195122E+03  0.48022195122E+03  0.00000000000E+00 0. -1.
         -1   -1    0    0    0  501 -0.00000000000E+00 -0.00000000000E+00 -0.12745687743E+04  0.12745687743E+04  0.00000000000E+00 0.  1.
         24    2    1    2    0    0  0.14735018485E+03 -0.18885282124E+03 -0.78383142523E+03  0.82354013515E+03  0.80306823913E+02 0.  0.
        254    2    1    2    0    0 -0.14735018485E+03  0.18885282124E+03 -0.10515397828E+02  0.93125059034E+03  0.89985533468E+03 0.  0.
         23    2    4    4    0    0 -0.61869356654E+02 -0.21519594528E+03 -0.32371638447E+03  0.40407117022E+03  0.91346050134E+02 0.  0.
         23    2    4    4    0    0 -0.85480828194E+02  0.40404876652E+03  0.31320098664E+03  0.52717942012E+03  0.96233597310E+02 0.  0.
          4    1    3    3  502    0  0.32754825929E+02 -0.61526928744E+01 -0.64890190536E+02  0.72948413822E+02  0.00000000000E+00 0. -1.
         -3    1    3    3    0  502  0.11459535892E+03 -0.18270012836E+03 -0.71894123469E+03  0.75059172133E+03  0.00000000000E+00 0.  1.
         13    1    5    5    0    0 -0.25766401197E+02 -0.20078293398E+03 -0.26128129085E+03  0.33052323210E+03  0.00000000000E+00 0. -1.
        -13    1    5    5    0    0 -0.36102955458E+02 -0.14413011300E+02 -0.62435093611E+02  0.73547938120E+02  0.00000000000E+00 0.  1.
          4    1    6    6  503    0 -0.81710282990E+02  0.24128161657E+03  0.23492123002E+03  0.34652759364E+03  0.00000000000E+00 0. -1.
         -4    1    6    6    0  503 -0.37705452033E+01  0.16276714995E+03  0.78279756621E+02  0.18065182648E+03  0.00000000000E+00 0.  1.
<mgrwt>
<rscale>  0 0.15647056E+04</rscale>
<asrwt>0</asrwt>
<pdfrwt beam="1">  1        2 0.73880301E-01 0.15647056E+04</pdfrwt>
<pdfrwt beam="2">  1       -1 0.19608750E+00 0.15647056E+04</pdfrwt>
<totfact> 0.11362898E+01</totfact>
</mgrwt>
</event>
<event>
12    7  0.2466188E-007  0.3632251E+04  0.7818608E-02  0.8083144E-01
          2   -1    0    0  501    0  0.00000000000E+00  0.00000000000E+00  0.10635121594E+04  0.10635121594E+04  0.00000000000E+00 0. -1.
         -1   -1    0    0    0  501 -0.00000000000E+00 -0.00000000000E+00 -0.31013390579E+04  0.31013390579E+04  0.00000000000E+00 0.  1.
         24    2    1    2    0    0 -0.76208529844E+03 -0.75661360766E+03 -0.24727913260E+04  0.26970799698E+04  0.79405719168E+02 0.  0.
        254    2    1    2    0    0  0.76208529844E+03  0.75661360766E+03  0.43496442755E+03  0.14677712474E+04  0.90106616195E+03 0.  0.
         23    2    4    4    0    0  0.69091175472E+03  0.31670838173E+03  0.61153305891E+03  0.97972593119E+03  0.90702625293E+02 0.  0.
         23    2    4    4    0    0  0.71173543725E+02  0.43990522593E+03 -0.17656863136E+03  0.48804531626E+03  0.91812134363E+02 0.  0.
          2    1    3    3  502    0 -0.15546926054E+03 -0.11576228358E+03 -0.47967577091E+03  0.51735910398E+03  0.00000000000E+00 0. -1.
         -3    1    3    3    0  502 -0.60661603791E+03 -0.64085132408E+03 -0.19931155551E+04  0.21797208658E+04  0.00000000000E+00 0.  1.
         13    1    5    5    0    0  0.17924397592E+03  0.11633988567E+03  0.20569417007E+03  0.29660320885E+03  0.00000000000E+00 0.  1.
        -13    1    5    5    0    0  0.51166777880E+03  0.20036849606E+03  0.40583888884E+03  0.68312272234E+03  0.00000000000E+00 0. -1.
          4    1    6    6  503    0 -0.43236798066E+01 -0.28240604348E+01  0.69026366200E+00  0.52101812188E+01  0.00000000000E+00 0.  1.
         -4    1    6    6    0  503  0.75497223532E+02  0.44272928636E+03 -0.17725889502E+03  0.48283513504E+03  0.00000000000E+00 0. -1.
<mgrwt>
<rscale>  0 0.36322510E+04</rscale>
<asrwt>0</asrwt>
<pdfrwt beam="1">  1        2 0.16361726E+00 0.36322510E+04</pdfrwt>
<pdfrwt beam="2">  1       -1 0.47712909E+00 0.36322510E+04</pdfrwt>
<totfact> 0.44872797E-02</totfact>
</mgrwt>
</event>
<event>
12    7  0.2466188E-007  0.1882205E+04  0.7818608E-02  0.8663765E-01
         -3   -1    0    0    0  501 -0.00000000000E+00  0.00000000000E+00  0.70931898288E+03  0.70931898288E+03  0.00000000000E+00 0.  1.
          4   -1    0    0  501    0  0.00000000000E+00 -0.00000000000E+00 -0.12486256073E+04  0.12486256073E+04  0.00000000000E+00 0. -1.
         24    2    1    2    0    0 -0.34112904478E+03 -0.52093416960E+03  0.17741700373E+03  0.65238156349E+03  0.79896664018E+02 0.  0.
        254    2    1    2    0    0  0.34112904478E+03  0.52093416960E+03 -0.71672362814E+03  0.13055630267E+04  0.89613649810E+03 0.  0.
         23    2    4    4    0    0  0.51209641320E+03  0.51770262471E+03 -0.21001745938E+03  0.76352407617E+03  0.92752022074E+02 0.  0.
         23    2    4    4    0    0 -0.17096736842E+03  0.32315448891E+01 -0.50670616875E+03  0.54203895050E+03  0.88401348729E+02 0.  0.
          2    1    3    3  502    0 -0.19159213803E+03 -0.25849481958E+03  0.54798942275E+02  0.32638940420E+03  0.00000000000E+00 0. -1.
         -1    1    3    3    0  502 -0.14953690675E+03 -0.26243935003E+03  0.12261806146E+03  0.32599215929E+03  0.00000000000E+00 0.  1.
         13    1    5    5    0    0  0.27970269915E+03  0.34617483630E+03 -0.11907521952E+03  0.46070546459E+03  0.00000000000E+00 0.  1.
        -13    1    5    5    0    0  0.23239371406E+03  0.17152778841E+03 -0.90942239859E+02  0.30281861158E+03  0.00000000000E+00 0. -1.
          2    1    6    6  503    0 -0.11160913442E+03  0.35093102029E+02 -0.39121633425E+03  0.40833606855E+03  0.00000000000E+00 0. -1.
         -2    1    6    6    0  503 -0.59358234001E+02 -0.31861557140E+02 -0.11548983450E+03  0.13370288194E+03  0.00000000000E+00 0.  1.
<mgrwt>
<rscale>  0 0.18822049E+04</rscale>
<asrwt>0</asrwt>
<pdfrwt beam="1">  1        4 0.19209624E+00 0.18822049E+04</pdfrwt>
<pdfrwt beam="2">  1       -3 0.10912600E+00 0.18822049E+04</pdfrwt>
<totfact> 0.22621299E-01</totfact>
</mgrwt>
</event>
<event>
12    7  0.2466188E-007  0.1705592E+04  0.7818608E-02  0.8758181E-01
         -1   -1    0    0    0  501 -0.00000000000E+00  0.00000000000E+00  0.99182170603E+03  0.99182170603E+03  0.00000000000E+00 0.  1.
          2   -1    0    0  501    0  0.00000000000E+00 -0.00000000000E+00 -0.73325805409E+03  0.73325805409E+03  0.00000000000E+00 0. -1.
         24    2    1    2    0    0  0.61273420501E+03  0.31252257794E+02  0.15024209504E+03  0.63628553140E+03  0.76594260543E+02 0.  0.
        254    2    1    2    0    0 -0.61273420501E+03 -0.31252257794E+02  0.10832155689E+03  0.10887942287E+04  0.89292743445E+03 0.  0.
         23    2    4    4    0    0  0.21886000313E+03  0.49750127359E+02  0.43552514055E+02  0.24630077110E+03  0.91610437290E+02 0.  0.
         23    2    4    4    0    0 -0.83159420814E+03 -0.81002385153E+02  0.64769042840E+02  0.84249345762E+03  0.86544114810E+02 0.  0.
          4    1    3    3  502    0  0.54309662335E+03  0.39851065723E+02  0.11053076714E+03  0.55566095797E+03  0.00000000000E+00 0. -1.
         -3    1    3    3    0  502  0.69637581660E+02 -0.85988079284E+01  0.39711327902E+02  0.80624573431E+02  0.00000000000E+00 0.  1.
         13    1    5    5    0    0  0.15633191487E+03  0.51788117437E+02  0.69267469657E+02  0.17866073734E+03  0.00000000000E+00 0.  1.
        -13    1    5    5    0    0  0.62528088259E+02 -0.20379900784E+01 -0.25714955602E+02  0.67640033755E+02  0.00000000000E+00 0. -1.
          4    1    6    6  503    0 -0.48757830303E+03 -0.32922184626E+02  0.78039988524E+02  0.49488050238E+03  0.00000000000E+00 0. -1.
         -4    1    6    6    0  503 -0.34401590511E+03 -0.48080200527E+02 -0.13270945685E+02  0.34761295524E+03  0.00000000000E+00 0.  1.
<mgrwt>
<rscale>  0 0.17055923E+04</rscale>
<asrwt>0</asrwt>
<pdfrwt beam="1">  1        2 0.11280893E+00 0.17055923E+04</pdfrwt>
<pdfrwt beam="2">  1       -1 0.15258796E+00 0.17055923E+04</pdfrwt>
<totfact> 0.13968674E+01</totfact>
</mgrwt>
</event>
<event>
12    7  0.2466188E-007  0.1261571E+04  0.7818608E-02  0.9060608E-01
         -1   -1    0    0    0  501 -0.00000000000E+00  0.00000000000E+00  0.10750178042E+04  0.10750178042E+04  0.00000000000E+00 0.  1.
          2   -1    0    0  501    0  0.00000000000E+00 -0.00000000000E+00 -0.37012422580E+03  0.37012422580E+03  0.00000000000E+00 0. -1.
         24    2    1    2    0    0  0.15811803681E+03 -0.10545132018E+03 -0.93384445446E+02  0.22596621327E+03  0.78859244220E+02 0.  0.
        254    2    1    2    0    0 -0.15811803681E+03  0.10545132018E+03  0.79827802388E+03  0.12191758168E+04  0.90167653528E+03 0.  0.
         23    2    4    4    0    0 -0.47422014660E+03  0.99008911196E+01  0.72089556936E+03  0.86779762126E+03  0.91648865027E+02 0.  0.
         23    2    4    4    0    0  0.31610210979E+03  0.95550429059E+02  0.77382454517E+02  0.35137819549E+03  0.91805030864E+02 0.  0.
          2    1    3    3  502    0  0.51667708208E+02 -0.70528118123E+02 -0.68837161710E+02  0.11127588395E+03  0.00000000000E+00 0. -1.
         -1    1    3    3    0  502  0.10645032860E+03 -0.34923202055E+02 -0.24547283736E+02  0.11469032932E+03  0.00000000000E+00 0.  1.
         13    1    5    5    0    0 -0.38241649917E+03 -0.28217309080E+02  0.56127294561E+03  0.67975430476E+03  0.00000000000E+00 0. -1.
        -13    1    5    5    0    0 -0.91803647435E+02  0.38118200200E+02  0.15962262375E+03  0.18804331650E+03  0.00000000000E+00 0.  1.
          1    1    6    6  503    0  0.29095901255E+03  0.10008718454E+03  0.46321537544E+02  0.31115956731E+03  0.00000000000E+00 0. -1.
         -1    1    6    6    0  503  0.25143097248E+02 -0.45367554779E+01  0.31060916974E+02  0.40218628181E+02  0.00000000000E+00 0.  1.
<mgrwt>
<rscale>  0 0.12615707E+04</rscale>
<asrwt>0</asrwt>
<pdfrwt beam="1">  1        2 0.56942189E-01 0.12615707E+04</pdfrwt>
<pdfrwt beam="2">  1       -1 0.16538735E+00 0.12615707E+04</pdfrwt>
<totfact> 0.25990945E+01</totfact>
</mgrwt>
</event>
<event>
12    7  0.2466188E-007  0.1842557E+04  0.7818608E-02  0.8683990E-01
         -1   -1    0    0    0  501 -0.00000000000E+00  0.00000000000E+00  0.80310711799E+03  0.80310711799E+03  0.00000000000E+00 0.  1.
          2   -1    0    0  501    0  0.00000000000E+00 -0.00000000000E+00 -0.10568379297E+04  0.10568379297E+04  0.00000000000E+00 0. -1.
         24    2    1    2    0    0  0.46427231038E+03 -0.21981515914E+03  0.38098043568E+03  0.64483731799E+03  0.82471764448E+02 0.  0.
        254    2    1    2    0    0 -0.46427231038E+03  0.21981515914E+03 -0.63471124738E+03  0.12151077297E+04  0.89986718177E+03 0.  0.
         23    2    4    4    0    0 -0.40639757151E+03  0.97777885917E+02 -0.84641186882E+03  0.94817874488E+03  0.88940314069E+02 0.  0.
         23    2    4    4    0    0 -0.57874738864E+02  0.12203727323E+03  0.21170062144E+03  0.26692898480E+03  0.90506068058E+02 0.  0.
          4    1    3    3  502    0  0.32586092895E+03 -0.13176968718E+03  0.29893260520E+03  0.46142095523E+03  0.00000000000E+00 0. -1.
         -3    1    3    3    0  502  0.13841138143E+03 -0.88045471963E+02  0.82047830487E+02  0.18341636276E+03  0.00000000000E+00 0.  1.
         13    1    5    5    0    0 -0.66508225818E+02 -0.72842959854E+01 -0.88677359214E+02  0.11108590868E+03  0.00000000000E+00 0. -1.
        -13    1    5    5    0    0 -0.33988934569E+03  0.10506218190E+03 -0.75773450960E+03  0.83709283621E+03  0.00000000000E+00 0.  1.
          1    1    6    6  503    0  0.20602452356E+02  0.15134752146E+02  0.14817603520E+02  0.29547980297E+02  0.00000000000E+00 0. -1.
         -1    1    6    6    0  503 -0.78477191220E+02  0.10690252108E+03  0.19688301792E+03  0.23738100451E+03  0.00000000000E+00 0.  1.
<mgrwt>
<rscale>  0 0.18425570E+04</rscale>
<asrwt>0</asrwt>
<pdfrwt beam="1">  1        2 0.16259045E+00 0.18425570E+04</pdfrwt>
<pdfrwt beam="2">  1       -1 0.12355494E+00 0.18425570E+04</pdfrwt>
<totfact> 0.14330564E+01</totfact>
</mgrwt>
</event>
<event>
12    7  0.2466188E-007  0.1780095E+04  0.7818608E-02  0.8716957E-01
         -1   -1    0    0    0  501 -0.00000000000E+00  0.00000000000E+00  0.10063844419E+04  0.10063844419E+04  0.00000000000E+00 0.  1.
          2   -1    0    0  501    0  0.00000000000E+00 -0.00000000000E+00 -0.78715895021E+03  0.78715895021E+03  0.00000000000E+00 0. -1.
         24    2    1    2    0    0 -0.46003050671E+03  0.15636472134E+03  0.54395835892E+03  0.73373181551E+03  0.79960538123E+02 0.  0.
        254    2    1    2    0    0  0.46003050671E+03 -0.15636472134E+03 -0.32473286725E+03  0.10598115766E+04  0.88412168259E+03 0.  0.
         23    2    4    4    0    0 -0.17779256028E+03 -0.50364727428E+01 -0.34441624184E+03  0.39745787781E+03  0.87833116995E+02 0.  0.
         23    2    4    4    0    0  0.63782306700E+03 -0.15132824860E+03  0.19683374587E+02  0.66235369878E+03  0.92771134735E+02 0.  0.
          2    1    3    3  502    0 -0.16821778870E+03  0.83432079225E+02  0.16545709688E+03  0.25026823048E+03  0.00000000000E+00 0. -1.
         -1    1    3    3    0  502 -0.29181271802E+03  0.72932642117E+02  0.37850126204E+03  0.48346358503E+03  0.00000000000E+00 0.  1.
         13    1    5    5    0    0 -0.10688670494E+03 -0.14152578952E+02 -0.11715649113E+03  0.15921905225E+03  0.00000000000E+00 0.  1.
        -13    1    5    5    0    0 -0.70905855343E+02  0.91161062094E+01 -0.22725975071E+03  0.23823882556E+03  0.00000000000E+00 0. -1.
          2    1    6    6  503    0  0.34357176887E+03 -0.10319507989E+03  0.51845285429E+02  0.36246202353E+03  0.00000000000E+00 0. -1.
         -2    1    6    6    0  503  0.29425129813E+03 -0.48133168711E+02 -0.32161910843E+02  0.29989167526E+03  0.00000000000E+00 0.  1.
<mgrwt>
<rscale>  0 0.17800950E+04</rscale>
<asrwt>0</asrwt>
<pdfrwt beam="1">  1        2 0.12110138E+00 0.17800950E+04</pdfrwt>
<pdfrwt beam="2">  1       -1 0.15482838E+00 0.17800950E+04</pdfrwt>
<totfact> 0.12160929E+01</totfact>
</mgrwt>
</event>
<event>
12    7  0.2466188E-007  0.1287919E+04  0.7818608E-02  0.9039201E-01
          2   -1    0    0  501    0  0.00000000000E+00  0.00000000000E+00  0.69912036295E+03  0.69912036295E+03  0.00000000000E+00 0. -1.
         -1   -1    0    0    0  501 -0.00000000000E+00 -0.00000000000E+00 -0.59315088298E+03  0.59315088298E+03  0.00000000000E+00 0.  1.
         24    2    1    2    0    0 -0.26210106640E+03 -0.86942783300E+02 -0.14074202522E+03  0.32006353375E+03  0.79851934218E+02 0.  0.
        254    2    1    2    0    0  0.26210106640E+03  0.86942783300E+02  0.24671150519E+03  0.97220771218E+03  0.89892449752E+03 0.  0.
         23    2    4    4    0    0 -0.53490727834E+02  0.41894021512E+03 -0.22796684587E+02  0.43305394164E+03  0.92972392305E+02 0.  0.
         23    2    4    4    0    0  0.31559179423E+03 -0.33199743182E+03  0.26950818978E+03  0.53915377054E+03  0.90728433307E+02 0.  0.
          2    1    3    3  502    0 -0.20762666971E+03 -0.36702325074E+02 -0.85000723267E+02  0.22733459393E+03  0.00000000000E+00 0. -1.
         -1    1    3    3    0  502 -0.54474396692E+02 -0.50240458227E+02 -0.55741301949E+02  0.92728939824E+02  0.00000000000E+00 0.  1.
         13    1    5    5    0    0 -0.60837313006E+02  0.40647829960E+03 -0.62203593841E+01  0.41105289145E+03  0.00000000000E+00 0. -1.
        -13    1    5    5    0    0  0.73465851724E+01  0.12461915522E+02 -0.16576325203E+02  0.22001050188E+02  0.00000000000E+00 0.  1.
          3    1    6    6  503    0  0.13056568854E+03 -0.12922582919E+03  0.58074159255E+02  0.19266375354E+03  0.00000000000E+00 0. -1.
         -3    1    6    6    0  503  0.18502610569E+03 -0.20277160263E+03  0.21143403052E+03  0.34649001700E+03  0.00000000000E+00 0.  1.
<mgrwt>
<rscale>  0 0.12879190E+04</rscale>
<asrwt>0</asrwt>
<pdfrwt beam="1">  1        2 0.10755698E+00 0.12879190E+04</pdfrwt>
<pdfrwt beam="2">  1       -1 0.91253982E-01 0.12879190E+04</pdfrwt>
<totfact> 0.53896306E+01</totfact>
</mgrwt>
</event>
<event>
12    7  0.2466188E-007  0.1760079E+04  0.7818608E-02  0.8727822E-01
         -1   -1    0    0    0  501 -0.00000000000E+00  0.00000000000E+00  0.76877751469E+03  0.76877751469E+03  0.00000000000E+00 0.  1.
          2   -1    0    0  501    0  0.00000000000E+00 -0.00000000000E+00 -0.10074036479E+04  0.10074036479E+04  0.00000000000E+00 0. -1.
         24    2    1    2    0    0 -0.10972254958E+03 -0.58177310706E+03 -0.35156376580E+03  0.69307931199E+03  0.79138267017E+02 0.  0.
        254    2    1    2    0    0  0.10972254958E+03  0.58177310706E+03  0.11293763258E+03  0.10831018506E+04  0.89991984308E+03 0.  0.
         23    2    4    4    0    0  0.14182560504E+03 -0.18203788899E+03 -0.12454079297E+03  0.27761157943E+03  0.91134431720E+02 0.  0.
         23    2    4    4    0    0 -0.32103055466E+02  0.76381099605E+03  0.23747842556E+03  0.80549027118E+03  0.89334934453E+02 0.  0.
          2    1    3    3  502    0  0.93525495253E+01 -0.11551594892E+03 -0.75020462947E+02  0.13805605564E+03  0.00000000000E+00 0. -1.
         -1    1    3    3    0  502 -0.11907509910E+03 -0.46625715813E+03 -0.27654330285E+03  0.55502325635E+03  0.00000000000E+00 0.  1.
         13    1    5    5    0    0  0.10624805142E+03 -0.98299112201E+02 -0.32821599657E+02  0.14842042074E+03  0.00000000000E+00 0. -1.
        -13    1    5    5    0    0  0.35577553627E+02 -0.83738776789E+02 -0.91719193317E+02  0.12919115869E+03  0.00000000000E+00 0.  1.
          4    1    6    6  503    0 -0.41339862407E+02  0.70574202759E+03  0.19627783119E+03  0.73369324704E+03  0.00000000000E+00 0. -1.
         -4    1    6    6    0  503  0.92368069409E+01  0.58068968453E+02  0.41200594365E+02  0.71797024142E+02  0.00000000000E+00 0.  1.
<mgrwt>
<rscale>  0 0.17600787E+04</rscale>
<asrwt>0</asrwt>
<pdfrwt beam="1">  1        2 0.15498518E+00 0.17600787E+04</pdfrwt>
<pdfrwt beam="2">  1       -1 0.11827346E+00 0.17600787E+04</pdfrwt>
<totfact> 0.17269082E+01</totfact>
</mgrwt>
</event>
<event>
12    7  0.2466188E-007  0.1550403E+04  0.7818608E-02  0.8851610E-01
          2   -1    0    0  501    0  0.00000000000E+00  0.00000000000E+00  0.34816695179E+04  0.34816695179E+04  0.00000000000E+00 0. -1.
         -1   -1    0    0    0  501 -0.00000000000E+00 -0.00000000000E+00 -0.17260040066E+03  0.17260040066E+03  0.00000000000E+00 0.  1.
         24    2    1    2    0    0  0.27744943885E+03  0.34987412419E+03  0.52846832998E+03  0.69618211333E+03  0.77463960897E+02 0.  0.
        254    2    1    2    0    0 -0.27744943885E+03 -0.34987412419E+03  0.27806007873E+04  0.29580878053E+04  0.90507051183E+03 0.  0.
         23    2    4    4    0    0 -0.46370204158E+03 -0.54730242343E+03  0.19540236110E+04  0.20834792112E+04  0.90098975241E+02 0.  0.
         23    2    4    4    0    0  0.18625260273E+03  0.19742829923E+03  0.82657717634E+03  0.87460859404E+03  0.89679423272E+02 0.  0.
          4    1    3    3  502    0  0.15957140117E+03  0.20140673016E+03  0.36178100646E+03  0.44374902779E+03  0.00000000000E+00 0. -1.
         -3    1    3    3    0  502  0.11787803767E+03  0.14846739403E+03  0.16668732352E+03  0.25243308554E+03  0.00000000000E+00 0.  1.
         13    1    5    5    0    0 -0.40568330865E+02 -0.44871515881E+02  0.10414779240E+03  0.12044087789E+03  0.00000000000E+00 0. -1.
        -13    1    5    5    0    0 -0.42313371071E+03 -0.50243090754E+03  0.18498758186E+04  0.19630383333E+04  0.00000000000E+00 0.  1.
          4    1    6    6  503    0 -0.80885570166E+01 -0.37129981470E+00  0.16383745541E+02  0.18275386073E+02  0.00000000000E+00 0. -1.
         -4    1    6    6    0  503  0.19434115975E+03  0.19779959905E+03  0.81019343080E+03  0.85633320797E+03  0.00000000000E+00 0.  1.
<mgrwt>
<rscale>  0 0.15504032E+04</rscale>
<asrwt>0</asrwt>
<pdfrwt beam="1">  1        2 0.53564141E+00 0.15504032E+04</pdfrwt>
<pdfrwt beam="2">  1       -1 0.26553910E-01 0.15504032E+04</pdfrwt>
<totfact> 0.11733289E+01</totfact>
</mgrwt>
</event>
<event>
12    7  0.2466188E-007  0.1386033E+04  0.7818608E-02  0.8963991E-01
          2   -1    0    0  501    0  0.00000000000E+00  0.00000000000E+00  0.12037396941E+04  0.12037396941E+04  0.00000000000E+00 0. -1.
         -1   -1    0    0    0  501 -0.00000000000E+00 -0.00000000000E+00 -0.39898342307E+03  0.39898342307E+03  0.00000000000E+00 0.  1.
         24    2    1    2    0    0  0.23868516438E+03 -0.28961795409E+03  0.92531221889E+02  0.39436811651E+03  0.78198575892E+02 0.  0.
        254    2    1    2    0    0 -0.23868516438E+03  0.28961795409E+03  0.71222504911E+03  0.12083550006E+04  0.90111493158E+03 0.  0.
         23    2    4    4    0    0  0.62728076112E+01 -0.48046177305E+02 -0.18636755524E+03  0.21442207831E+03  0.94319556576E+02 0.  0.
         23    2    4    4    0    0 -0.24495797199E+03  0.33766413139E+03  0.89859260435E+03  0.99393292231E+03  0.80078160506E+02 0.  0.
          2    1    3    3  502    0  0.22621526612E+02 -0.41987599425E+02  0.38547573708E+02  0.61323791553E+02  0.00000000000E+00 0. -1.
         -1    1    3    3    0  502  0.21606363777E+03 -0.24763035466E+03  0.53983648181E+02  0.33304432496E+03  0.00000000000E+00 0.  1.
         13    1    5    5    0    0  0.24564262717E+02 -0.69926817170E+02 -0.10764443182E+03  0.13069233514E+03  0.00000000000E+00 0. -1.
        -13    1    5    5    0    0 -0.18291455106E+02  0.21880639865E+02 -0.78723123419E+02  0.83729743172E+02  0.00000000000E+00 0.  1.
          3    1    6    6  503    0 -0.15332695355E+03  0.21426108184E+03  0.47290636996E+03  0.54134776311E+03  0.00000000000E+00 0. -1.
         -3    1    6    6    0  503 -0.91631018444E+02  0.12340304955E+03  0.42568623439E+03  0.45258515920E+03  0.00000000000E+00 0.  1.
<mgrwt>
<rscale>  0 0.13860335E+04</rscale>
<asrwt>0</asrwt>
<pdfrwt beam="1">  1        2 0.18519072E+00 0.13860335E+04</pdfrwt>
<pdfrwt beam="2">  1       -1 0.61382066E-01 0.13860335E+04</pdfrwt>
<totfact> 0.56347224E+01</totfact>
</mgrwt>
</event>
<event>
12    7  0.2466188E-007  0.3201579E+04  0.7818608E-02  0.8188400E-01
         -1   -1    0    0    0  501 -0.00000000000E+00  0.00000000000E+00  0.85273875742E+03  0.85273875742E+03  0.00000000000E+00 0.  1.
          2   -1    0    0  501    0  0.00000000000E+00 -0.00000000000E+00 -0.30050555943E+04  0.30050555943E+04  0.00000000000E+00 0. -1.
         24    2    1    2    0    0 -0.56891491842E+03 -0.12630175101E+04 -0.38650670632E+03  0.14403725510E+04  0.80051460006E+02 0.  0.
        254    2    1    2    0    0  0.56891491842E+03  0.12630175101E+04 -0.17658101306E+04  0.24174218008E+04  0.89831249036E+03 0.  0.
         23    2    4    4    0    0  0.45958718717E+03  0.56277727993E+03 -0.30939095291E+03  0.79514823404E+03  0.92732426644E+02 0.  0.
         23    2    4    4    0    0  0.10932773125E+03  0.70024023020E+03 -0.14564191777E+04  0.16222735667E+04  0.91245665181E+02 0.  0.
          4    1    3    3  502    0 -0.11327119885E+03 -0.18540665543E+03 -0.49778449875E+02  0.22289882557E+03  0.00000000000E+00 0. -1.
         -3    1    3    3    0  502 -0.45564371957E+03 -0.10776108547E+04 -0.33672825644E+03  0.12174737254E+04  0.00000000000E+00 0.  1.
         13    1    5    5    0    0  0.34683233227E+03  0.46092801454E+03 -0.21146283778E+03  0.61438085343E+03  0.00000000000E+00 0. -1.
        -13    1    5    5    0    0  0.11275485490E+03  0.10184926539E+03 -0.97928115128E+02  0.18076738062E+03  0.00000000000E+00 0.  1.
          3    1    6    6  503    0  0.46193424049E+02  0.12416965282E+03 -0.32789699610E+03  0.35365007445E+03  0.00000000000E+00 0. -1.
         -3    1    6    6    0  503  0.63134307197E+02  0.57607057739E+03 -0.11285221816E+04  0.12686234923E+04  0.00000000000E+00 0.  1.
<mgrwt>
<rscale>  0 0.32015792E+04</rscale>
<asrwt>0</asrwt>
<pdfrwt beam="1">  1        2 0.46231624E+00 0.32015792E+04</pdfrwt>
<pdfrwt beam="2">  1       -1 0.13119058E+00 0.32015792E+04</pdfrwt>
<totfact> 0.81858493E-01</totfact>
</mgrwt>
</event>
<event>
12    7  0.2466188E-007  0.2111330E+04  0.7818608E-02  0.8556269E-01
          2   -1    0    0  501    0  0.00000000000E+00  0.00000000000E+00  0.24213103397E+04  0.24213103397E+04  0.00000000000E+00 0. -1.
         -1   -1    0    0    0  501 -0.00000000000E+00 -0.00000000000E+00 -0.46025867965E+03  0.46025867965E+03  0.00000000000E+00 0.  1.
         24    2    1    2    0    0  0.14633497854E+03 -0.84734553076E+03  0.70233444909E+03  0.11130942875E+04  0.79352630538E+02 0.  0.
        254    2    1    2    0    0 -0.14633497854E+03  0.84734553076E+03  0.12587172110E+04  0.17684747319E+04  0.89650738186E+03 0.  0.
         23    2    4    4    0    0  0.34295255067E+03  0.23594501894E+03  0.62785193908E+03  0.75886316767E+03  0.91590096985E+02 0.  0.
         23    2    4    4    0    0 -0.48928752921E+03  0.61140051182E+03  0.63086527192E+03  0.10096115642E+04  0.90064683687E+02 0.  0.
          4    1    3    3  502    0  0.34587539256E+02 -0.38498456588E+03  0.34572945026E+03  0.51859258249E+03  0.00000000000E+00 0. -1.
         -3    1    3    3    0  502  0.11174743928E+03 -0.46236096487E+03  0.35660499883E+03  0.59450170497E+03  0.00000000000E+00 0.  1.
         13    1    5    5    0    0  0.14931618847E+03  0.11670714797E+03  0.20805213131E+03  0.28142773827E+03  0.00000000000E+00 0.  1.
        -13    1    5    5    0    0  0.19363636220E+03  0.11923787097E+03  0.41979980777E+03  0.47743542940E+03  0.00000000000E+00 0. -1.
          4    1    6    6  503    0 -0.75177668696E+01  0.90593582874E+00 -0.92864527377E+00  0.76288872371E+01  0.00000000000E+00 0. -1.
         -4    1    6    6    0  503 -0.48176976234E+03  0.61049457599E+03  0.63179391719E+03  0.10019826770E+04  0.00000000000E+00 0.  1.
<mgrwt>
<rscale>  0 0.21113305E+04</rscale>
<asrwt>0</asrwt>
<pdfrwt beam="1">  1        2 0.37250927E+00 0.21113305E+04</pdfrwt>
<pdfrwt beam="2">  1       -1 0.70809029E-01 0.21113305E+04</pdfrwt>
<totfact> 0.81622717E+00</totfact>
</mgrwt>
</event>
<event>
12    7  0.2466188E-007  0.2668519E+04  0.7818608E-02  0.8345292E-01
          2   -1    0    0  501    0  0.00000000000E+00  0.00000000000E+00  0.18051479927E+04  0.18051479927E+04  0.00000000000E+00 0. -1.
         -1   -1    0    0    0  501 -0.00000000000E+00 -0.00000000000E+00 -0.98620667494E+03  0.98620667494E+03  0.00000000000E+00 0.  1.
         24    2    1    2    0    0 -0.22105147955E+03  0.75989514259E+03 -0.55370248979E+03  0.96918101604E+03  0.80131206771E+02 0.  0.
        254    2    1    2    0    0  0.22105147955E+03 -0.75989514259E+03  0.13726438076E+04  0.18221736516E+04  0.89992300218E+03 0.  0.
         23    2    4    4    0    0 -0.29124712052E+03 -0.50425620166E+03  0.49486639848E+03  0.77018077600E+03  0.95846091471E+02 0.  0.
         23    2    4    4    0    0  0.51229860008E+03 -0.25563894093E+03  0.87777740909E+03  0.10519928756E+04  0.91622631934E+02 0.  0.
          2    1    3    3  502    0 -0.12192368383E+03  0.38413493362E+03 -0.23450722443E+03  0.46628174982E+03  0.00000000000E+00 0. -1.
         -1    1    3    3    0  502 -0.99127795722E+02  0.37576020897E+03 -0.31919526537E+03  0.50289926622E+03  0.00000000000E+00 0.  1.
         13    1    5    5    0    0 -0.18828152146E+03 -0.40638547625E+03  0.38451863480E+03  0.59029964182E+03  0.00000000000E+00 0.  1.
        -13    1    5    5    0    0 -0.10296559907E+03 -0.97870725412E+02  0.11034776368E+03  0.17988113417E+03  0.00000000000E+00 0. -1.
          2    1    6    6  503    0  0.32528309775E+03 -0.20985105685E+03  0.59861447788E+03  0.71287155426E+03  0.00000000000E+00 0. -1.
         -2    1    6    6    0  503  0.18701550232E+03 -0.45787884076E+02  0.27916293120E+03  0.33912132135E+03  0.00000000000E+00 0.  1.
<mgrwt>
<rscale>  0 0.26685194E+04</rscale>
<asrwt>0</asrwt>
<pdfrwt beam="1">  1        2 0.27771508E+00 0.26685194E+04</pdfrwt>
<pdfrwt beam="2">  1       -1 0.15172410E+00 0.26685194E+04</pdfrwt>
<totfact> 0.29029108E+00</totfact>
</mgrwt>
</event>
<event>
12    7  0.2466188E-007  0.2148623E+04  0.7818608E-02  0.8540122E-01
          2   -1    0    0  501    0  0.00000000000E+00  0.00000000000E+00  0.91486542332E+03  0.91486542332E+03  0.00000000000E+00 0. -1.
         -3   -1    0    0    0  501 -0.00000000000E+00 -0.00000000000E+00 -0.12615459848E+04  0.12615459848E+04  0.00000000000E+00 0.  1.
         24    2    1    2    0    0  0.25164449408E+01 -0.25773569464E+03 -0.99972773607E+03  0.10355438654E+04  0.80383642743E+02 0.  0.
        254    2    1    2    0    0 -0.25164449408E+01  0.25773569464E+03  0.65304717461E+03  0.11408675427E+04  0.89926309668E+03 0.  0.
         23    2    4    4    0    0  0.31340300595E+03  0.27376916449E+03  0.18708391469E+02  0.42630469813E+03  0.90634939039E+02 0.  0.
         23    2    4    4    0    0 -0.31591945089E+03 -0.16033469855E+02  0.63433878314E+03  0.71456284461E+03  0.90289509367E+02 0.  0.
          2    1    3    3  502    0 -0.11412423000E+02 -0.25289804265E+03 -0.90765233694E+03  0.94229529773E+03  0.00000000000E+00 0. -1.
         -1    1    3    3    0  502  0.13928867941E+02 -0.48376519905E+01 -0.92075399133E+02  0.93248567626E+02  0.00000000000E+00 0.  1.
         13    1    5    5    0    0  0.54719761527E+02  0.91957234168E+02  0.25674742402E+02  0.11004352600E+03  0.00000000000E+00 0. -1.
        -13    1    5    5    0    0  0.25868324442E+03  0.18181193032E+03 -0.69663509334E+01  0.31626117213E+03  0.00000000000E+00 0.  1.
          3    1    6    6  503    0 -0.33390763314E+02 -0.18579873526E+02  0.14058106989E+03  0.14568181762E+03  0.00000000000E+00 0. -1.
         -3    1    6    6    0  503 -0.28252868758E+03  0.25464036712E+01  0.49375771325E+03  0.56888102699E+03  0.00000000000E+00 0.  1.
<mgrwt>
<rscale>  0 0.21486226E+04</rscale>
<asrwt>0</asrwt>
<pdfrwt beam="1">  1        2 0.14074853E+00 0.21486226E+04</pdfrwt>
<pdfrwt beam="2">  1       -3 0.19408400E+00 0.21486226E+04</pdfrwt>
<totfact> 0.26432705E+00</totfact>
</mgrwt>
</event>
<event>
12    7  0.2466188E-007  0.1789339E+04  0.7818608E-02  0.8711989E-01
          2   -1    0    0  501    0  0.00000000000E+00  0.00000000000E+00  0.27256978567E+04  0.27256978567E+04  0.00000000000E+00 0. -1.
         -1   -1    0    0    0  501 -0.00000000000E+00 -0.00000000000E+00 -0.29366200902E+03  0.29366200902E+03  0.00000000000E+00 0.  1.
         24    2    1    2    0    0  0.66136142648E+03  0.48825254449E+00  0.10154048404E+04  0.12144049639E+04  0.79581729359E+02 0.  0.
        254    2    1    2    0    0 -0.66136142648E+03 -0.48825254449E+00  0.14166310073E+04  0.18049549018E+04  0.90200865400E+03 0.  0.
         23    2    4    4    0    0  0.13648716590E+03 -0.10828756453E+03  0.29294049756E+02  0.19838379786E+03  0.90238832093E+02 0.  0.
         23    2    4    4    0    0 -0.79784859238E+03  0.10779931198E+03  0.13873369575E+04  0.16065711039E+04  0.90464414275E+02 0.  0.
          4    1    3    3  502    0  0.54098240908E+03  0.65638419772E+01  0.88109969621E+03  0.10339447401E+04  0.00000000000E+00 0. -1.
         -1    1    3    3    0  502  0.12037901740E+03 -0.60755894327E+01  0.13430514419E+03  0.18046022380E+03  0.00000000000E+00 0.  1.
         13    1    5    5    0    0  0.16129228573E+02 -0.65136857627E+02 -0.47012657972E+00  0.67105761712E+02  0.00000000000E+00 0.  1.
        -13    1    5    5    0    0  0.12035793732E+03 -0.43150706902E+02  0.29764176336E+02  0.13127803615E+03  0.00000000000E+00 0. -1.
          3    1    6    6  503    0 -0.44132297329E+03  0.64785862741E+02  0.67904889037E+03  0.81244727231E+03  0.00000000000E+00 0. -1.
         -3    1    6    6    0  503 -0.35652561909E+03  0.43013449244E+02  0.70828806715E+03  0.79412383162E+03  0.00000000000E+00 0.  1.
<mgrwt>
<rscale>  0 0.17893394E+04</rscale>
<asrwt>0</asrwt>
<pdfrwt beam="1">  1        2 0.41933811E+00 0.17893394E+04</pdfrwt>
<pdfrwt beam="2">  1       -1 0.45178773E-01 0.17893394E+04</pdfrwt>
<totfact> 0.13435442E+01</totfact>
</mgrwt>
</event>
<event>
12    7  0.2466188E-007  0.2640861E+04  0.7818608E-02  0.8354453E-01
          2   -1    0    0  501    0  0.00000000000E+00  0.00000000000E+00  0.17328111139E+04  0.17328111139E+04  0.00000000000E+00 0. -1.
         -1   -1    0    0    0  501 -0.00000000000E+00 -0.00000000000E+00 -0.10061897599E+04  0.10061897599E+04  0.00000000000E+00 0.  1.
         24    2    1    2    0    0  0.53128053350E+03 -0.42542374540E+03  0.13026070694E+04  0.14724129375E+04  0.89276607885E+02 0.  0.
        254    2    1    2    0    0 -0.53128053350E+03  0.42542374540E+03 -0.57598571545E+03  0.12665879362E+04  0.89957828308E+03 0.  0.
         23    2    4    4    0    0 -0.60202382180E+03  0.63208702400E+03 -0.37724986183E+03  0.95549900080E+03  0.93242663800E+02 0.  0.
         23    2    4    4    0    0  0.70743288301E+02 -0.20666327860E+03 -0.19873585362E+03  0.31108893544E+03  0.97806250700E+02 0.  0.
          2    1    3    3  502    0  0.31705459420E+03 -0.22642687649E+03  0.82582709488E+03  0.91311726341E+03  0.00000000000E+00 0. -1.
         -1    1    3    3    0  502  0.21422593929E+03 -0.19899686892E+03  0.47677997455E+03  0.55929567407E+03  0.00000000000E+00 0.  1.
         13    1    5    5    0    0 -0.15629461290E+02  0.34869517441E+02 -0.33015371759E+02  0.50499287908E+02  0.00000000000E+00 0. -1.
        -13    1    5    5    0    0 -0.58639436051E+03  0.59721750656E+03 -0.34423449007E+03  0.90499971289E+03  0.00000000000E+00 0.  1.
          1    1    6    6  503    0  0.51080253999E+02 -0.45242524940E+02 -0.23851607883E+02  0.72284006600E+02  0.00000000000E+00 0. -1.
         -1    1    6    6    0  503  0.19663034302E+02 -0.16142075366E+03 -0.17488424573E+03  0.23880492883E+03  0.00000000000E+00 0.  1.
<mgrwt>
<rscale>  0 0.26408611E+04</rscale>
<asrwt>0</asrwt>
<pdfrwt beam="1">  1        2 0.26658633E+00 0.26408611E+04</pdfrwt>
<pdfrwt beam="2">  1       -1 0.15479842E+00 0.26408611E+04</pdfrwt>
<totfact> 0.30222713E+00</totfact>
</mgrwt>
</event>
<event>
12    7  0.2466188E-007  0.1687875E+04  0.7818608E-02  0.8768310E-01
         -1   -1    0    0    0  501 -0.00000000000E+00  0.00000000000E+00  0.50956239876E+03  0.50956239876E+03  0.00000000000E+00 0.  1.
          2   -1    0    0  501    0  0.00000000000E+00 -0.00000000000E+00 -0.13977299745E+04  0.13977299745E+04  0.00000000000E+00 0. -1.
         24    2    1    2    0    0  0.59436889012E+03 -0.26028529428E+02 -0.42212273705E+03  0.73396884479E+03  0.81060459494E+02 0.  0.
        254    2    1    2    0    0 -0.59436889012E+03  0.26028529428E+02 -0.46604483869E+03  0.11733235285E+04  0.89751793793E+03 0.  0.
         23    2    4    4    0    0 -0.52074777347E+03  0.35146944959E+03 -0.52287682944E+03  0.82255823218E+03  0.92156654613E+02 0.  0.
         23    2    4    4    0    0 -0.73621116657E+02 -0.32544092016E+03  0.56831990746E+02  0.35076529630E+03  0.92057354833E+02 0.  0.
          2    1    3    3  502    0  0.44413842727E+02  0.19687928085E+02 -0.34608091721E+02  0.59648335691E+02  0.00000000000E+00 0. -1.
         -1    1    3    3    0  502  0.54995504740E+03 -0.45716457514E+02 -0.38751464533E+03  0.67432050910E+03  0.00000000000E+00 0.  1.
         13    1    5    5    0    0 -0.19161615723E+03  0.79509226299E+02 -0.15479378844E+03  0.25884278185E+03  0.00000000000E+00 0. -1.
        -13    1    5    5    0    0 -0.32913161623E+03  0.27196022329E+03 -0.36808304100E+03  0.56371545032E+03  0.00000000000E+00 0.  1.
          3    1    6    6  503    0  0.84922515852E+01 -0.11014208860E+03 -0.97885419521E+01  0.11090181951E+03  0.00000000000E+00 0. -1.
         -3    1    6    6    0  503 -0.82113368242E+02 -0.21529883156E+03  0.66620532698E+02  0.23986347678E+03  0.00000000000E+00 0.  1.
<mgrwt>
<rscale>  0 0.16878752E+04</rscale>
<asrwt>0</asrwt>
<pdfrwt beam="1">  1        2 0.21503538E+00 0.16878752E+04</pdfrwt>
<pdfrwt beam="2">  1       -1 0.78394214E-01 0.16878752E+04</pdfrwt>
<totfact> 0.25660958E+01</totfact>
</mgrwt>
</event>
<event>
12    7  0.2466188E-007  0.2549049E+04  0.7818608E-02  0.8385717E-01
          2   -1    0    0  501    0  0.00000000000E+00  0.00000000000E+00  0.17573532820E+04  0.17573532820E+04  0.00000000000E+00 0. -1.
         -1   -1    0    0    0  501 -0.00000000000E+00 -0.00000000000E+00 -0.92435181218E+03  0.92435181218E+03  0.00000000000E+00 0.  1.
         24    2    1    2    0    0  0.45941997762E+03  0.10071822570E+04  0.49693097870E+03  0.12160213030E+04  0.79275451137E+02 0.  0.
        254    2    1    2    0    0 -0.45941997762E+03 -0.10071822570E+04  0.33607049112E+03  0.14656837912E+04  0.89989042998E+03 0.  0.
         23    2    4    4    0    0  0.10728484783E+03 -0.27606453973E+03 -0.22223019542E+03  0.38141231409E+03  0.91473629611E+02 0.  0.
         23    2    4    4    0    0 -0.56670482545E+03 -0.73111771728E+03  0.55830068654E+03  0.10842714771E+04  0.90870807575E+02 0.  0.
          2    1    3    3  502    0  0.28071442759E+03  0.67542219825E+03  0.35853536380E+03  0.81458169808E+03  0.00000000000E+00 0. -1.
         -1    1    3    3    0  502  0.17870555003E+03  0.33176005876E+03  0.13839561490E+03  0.40143960495E+03  0.00000000000E+00 0.  1.
         13    1    5    5    0    0  0.96584365055E+02 -0.14396086875E+03 -0.94957217301E+02  0.19766169184E+03  0.00000000000E+00 0. -1.
        -13    1    5    5    0    0  0.10700482776E+02 -0.13210367098E+03 -0.12727297812E+03  0.18375062225E+03  0.00000000000E+00 0.  1.
          1    1    6    6  503    0 -0.33461624193E+03 -0.35782391815E+03  0.29055187621E+03  0.56958439105E+03  0.00000000000E+00 0. -1.
         -1    1    6    6    0  503 -0.23208858352E+03 -0.37329379914E+03  0.26774881033E+03  0.51468708601E+03  0.00000000000E+00 0.  1.
<mgrwt>
<rscale>  0 0.25490490E+04</rscale>
<asrwt>0</asrwt>
<pdfrwt beam="1">  1        2 0.27036204E+00 0.25490490E+04</pdfrwt>
<pdfrwt beam="2">  1       -1 0.14220797E+00 0.25490490E+04</pdfrwt>
<totfact> 0.37066976E+00</totfact>
</mgrwt>
</event>
<event>
12    7  0.2466188E-007  0.2321958E+04  0.7818608E-02  0.8469313E-01
         -1   -1    0    0    0  501 -0.00000000000E+00  0.00000000000E+00  0.48956430514E+03  0.48956430514E+03  0.00000000000E+00 0.  1.
          2   -1    0    0  501    0  0.00000000000E+00 -0.00000000000E+00 -0.27532081369E+04  0.27532081369E+04  0.00000000000E+00 0. -1.
         24    2    1    2    0    0  0.21758373619E+03 -0.95319848969E+03 -0.11250322121E+04  0.14926056038E+04  0.79018777858E+02 0.  0.
        254    2    1    2    0    0 -0.21758373619E+03  0.95319848969E+03 -0.11386116197E+04  0.17501668383E+04  0.90039852193E+03 0.  0.
         23    2    4    4    0    0 -0.13349536276E+03 -0.14441964466E+03 -0.12758808632E+03  0.25293659079E+03  0.94974488922E+02 0.  0.
         23    2    4    4    0    0 -0.84088373430E+02  0.10976181343E+04 -0.10110235334E+04  0.14972302475E+04  0.87712060448E+02 0.  0.
          2    1    3    3  502    0  0.87251139253E+02 -0.25923823095E+03 -0.28051472532E+03  0.39179807658E+03  0.00000000000E+00 0. -1.
         -1    1    3    3    0  502  0.13033259694E+03 -0.69396025873E+03 -0.84451748674E+03  0.11008075272E+04  0.00000000000E+00 0.  1.
         13    1    5    5    0    0 -0.11504719633E+02  0.64040169600E+01 -0.36168615284E+02  0.38490761731E+02  0.00000000000E+00 0. -1.
        -13    1    5    5    0    0 -0.12199064313E+03 -0.15082366162E+03 -0.91419471039E+02  0.21444582906E+03  0.00000000000E+00 0.  1.
          4    1    6    6  503    0 -0.62942244444E+02  0.91184977115E+03 -0.88108258456E+03  0.12695425365E+04  0.00000000000E+00 0.  1.
         -4    1    6    6    0  503 -0.21146128986E+02  0.18576836320E+03 -0.12994094886E+03  0.22768771097E+03  0.00000000000E+00 0. -1.
<mgrwt>
<rscale>  0 0.23219582E+04</rscale>
<asrwt>0</asrwt>
<pdfrwt beam="1">  1        2 0.42357048E+00 0.23219582E+04</pdfrwt>
<pdfrwt beam="2">  1       -1 0.75317586E-01 0.23219582E+04</pdfrwt>
<totfact> 0.45035225E+00</totfact>
</mgrwt>
</event>
<event>
12    7  0.3115903E-007  0.4567895E+04  0.7818608E-02  0.7898857E-01
          2   -1    0    0  501    0  0.00000000000E+00  0.00000000000E+00  0.20110910620E+04  0.20110910620E+04  0.00000000000E+00 0. -1.
         -3   -1    0    0    0  501 -0.00000000000E+00 -0.00000000000E+00 -0.25938243592E+04  0.25938243592E+04  0.00000000000E+00 0.  1.
         24    2    1    2    0    0  0.14497216942E+04  0.73603653614E+03 -0.17666056453E+04  0.24022346736E+04  0.79957165076E+02 0.  0.
        254    2    1    2    0    0 -0.14497216942E+04 -0.73603653614E+03  0.11838723480E+04  0.22026807475E+04  0.89822378399E+03 0.  0.
         23    2    4    4    0    0 -0.85044210873E+03 -0.97212353057E+02  0.96870901720E+03  0.12958971288E+04  0.90830537610E+02 0.  0.
         23    2    4    4    0    0 -0.59927958544E+03 -0.63882418309E+03  0.21516333081E+03  0.90678361873E+03  0.93428656533E+02 0.  0.
          2    1    3    3  502    0  0.59749263589E+03  0.27052404781E+03 -0.67383633662E+03  0.94033830026E+03  0.00000000000E+00 0. -1.
         -3    1    3    3    0  502  0.85222905828E+03  0.46551248833E+03 -0.10927693086E+04  0.14618963734E+04  0.00000000000E+00 0.  1.
         13    1    5    5    0    0 -0.88165106535E+02 -0.38620706218E+02  0.10664595802E+03  0.14365933774E+03  0.00000000000E+00 0. -1.
        -13    1    5    5    0    0 -0.76227700219E+03 -0.58591646839E+02  0.86206305918E+03  0.11522377911E+04  0.00000000000E+00 0.  1.
          1    1    6    6  503    0 -0.58575620181E+01 -0.46491019892E+00 -0.51236316086E+01  0.77960743422E+01  0.00000000000E+00 0. -1.
         -1    1    6    6    0  503 -0.59342202342E+03 -0.63835927289E+03  0.22028696242E+03  0.89898754439E+03  0.00000000000E+00 0.  1.
<mgrwt>
<rscale>  0 0.45678954E+04</rscale>
<asrwt>0</asrwt>
<pdfrwt beam="1">  1        2 0.30939863E+00 0.45678954E+04</pdfrwt>
<pdfrwt beam="2">  1       -3 0.39904990E+00 0.45678954E+04</pdfrwt>
<totfact> 0.33294198E-02</totfact>
</mgrwt>
</event>
<event>
12    7  0.2466188E-007  0.3303088E+04  0.7818608E-02  0.8162110E-01
         -1   -1    0    0    0  501 -0.00000000000E+00  0.00000000000E+00  0.97437423296E+03  0.97437423296E+03  0.00000000000E+00 0.  1.
          2   -1    0    0  501    0  0.00000000000E+00 -0.00000000000E+00 -0.27993320893E+04  0.27993320893E+04  0.00000000000E+00 0. -1.
         24    2    1    2    0    0 -0.76072875691E+03  0.15002011289E+03 -0.23470477694E+04  0.24739726510E+04  0.10340778708E+03 0.  0.
        254    2    1    2    0    0  0.76072875691E+03 -0.15002011289E+03  0.52208991306E+03  0.12997336712E+04  0.90305894764E+03 0.  0.
         23    2    4    4    0    0  0.69065216251E+03 -0.11648894412E+03 -0.56715890179E+02  0.70841697598E+03  0.89821133279E+02 0.  0.
         23    2    4    4    0    0  0.70076594399E+02 -0.33531168779E+02  0.57880580324E+03  0.59131669523E+03  0.92758869297E+02 0.  0.
          4    1    3    3  502    0 -0.63039847874E+03  0.99135889672E+02 -0.20155187124E+04  0.21141300448E+04  0.00000000000E+00 0. -1.
         -3    1    3    3    0  502 -0.13033027817E+03  0.50884223223E+02 -0.33152905699E+03  0.35984260616E+03  0.00000000000E+00 0.  1.
         13    1    5    5    0    0  0.43217735827E+03 -0.48613885069E+02  0.15267620749E+01  0.43490563324E+03  0.00000000000E+00 0. -1.
        -13    1    5    5    0    0  0.25847480424E+03 -0.67875059047E+02 -0.58242652254E+02  0.27351134274E+03  0.00000000000E+00 0.  1.
          1    1    6    6  503    0 -0.45950048216E+01 -0.70365614943E+01  0.14239911291E+01  0.85237912756E+01  0.00000000000E+00 0. -1.
         -1    1    6    6    0  503  0.74671599221E+02 -0.26494607284E+02  0.57738181211E+03  0.58279290396E+03  0.00000000000E+00 0.  1.
<mgrwt>
<rscale>  0 0.33030877E+04</rscale>
<asrwt>0</asrwt>
<pdfrwt beam="1">  1        2 0.43066646E+00 0.33030877E+04</pdfrwt>
<pdfrwt beam="2">  1       -1 0.14990373E+00 0.33030877E+04</pdfrwt>
<totfact> 0.76696456E-01</totfact>
</mgrwt>
</event>
<event>
12    7  0.2466188E-007  0.2308975E+04  0.7818608E-02  0.8474391E-01
         -1   -1    0    0    0  501 -0.00000000000E+00  0.00000000000E+00  0.89019759512E+03  0.89019759512E+03  0.00000000000E+00 0.  1.
          2   -1    0    0  501    0  0.00000000000E+00 -0.00000000000E+00 -0.14972420949E+04  0.14972420949E+04  0.00000000000E+00 0. -1.
         24    2    1    2    0    0  0.25897598758E+03  0.66498013016E+03 -0.95126287796E+03  0.11917965093E+04  0.78808127876E+02 0.  0.
        254    2    1    2    0    0 -0.25897598758E+03 -0.66498013016E+03  0.34421837822E+03  0.11956431806E+04  0.89543798661E+03 0.  0.
         23    2    4    4    0    0 -0.14438819536E+03  0.10444234166E+02  0.46387903191E+03  0.49446284046E+03  0.91393169114E+02 0.  0.
         23    2    4    4    0    0 -0.11458779222E+03 -0.67542436432E+03 -0.11966065369E+03  0.70118034018E+03  0.89480519500E+02 0.  0.
          2    1    3    3  502    0  0.10461292307E+03  0.26347886201E+03 -0.44301077106E+03  0.52595010949E+03  0.00000000000E+00 0. -1.
         -1    1    3    3    0  502  0.15436306452E+03  0.40150126815E+03 -0.50825210690E+03  0.66584639984E+03  0.00000000000E+00 0.  1.
         13    1    5    5    0    0 -0.34786983952E+02 -0.72770346513E+01  0.25907318021E+03  0.26149952618E+03  0.00000000000E+00 0.  1.
        -13    1    5    5    0    0 -0.10960121141E+03  0.17721268818E+02  0.20480585170E+03  0.23296331428E+03  0.00000000000E+00 0. -1.
          3    1    6    6  503    0 -0.39644576941E+02 -0.47877973189E+03 -0.86446631617E+02  0.48813394091E+03  0.00000000000E+00 0. -1.
         -3    1    6    6    0  503 -0.74943215280E+02 -0.19664463244E+03 -0.33214022070E+02  0.21304639928E+03  0.00000000000E+00 0.  1.
<mgrwt>
<rscale>  0 0.23089749E+04</rscale>
<asrwt>0</asrwt>
<pdfrwt beam="1">  1        2 0.23034494E+00 0.23089749E+04</pdfrwt>
<pdfrwt beam="2">  1       -1 0.13695348E+00 0.23089749E+04</pdfrwt>
<totfact> 0.58363555E+00</totfact>
</mgrwt>
</event>
<event>
12    7  0.2466188E-007  0.2813370E+04  0.7818608E-02  0.8299130E-01
         -1   -1    0    0    0  501 -0.00000000000E+00  0.00000000000E+00  0.22160123234E+04  0.22160123234E+04  0.00000000000E+00 0.  1.
          2   -1    0    0  501    0  0.00000000000E+00 -0.00000000000E+00 -0.89293830953E+03  0.89293830953E+03  0.00000000000E+00 0. -1.
         24    2    1    2    0    0  0.79101558721E+03  0.15383454970E+03  0.16658712788E+04  0.18520642923E+04  0.75128537945E+02 0.  0.
        254    2    1    2    0    0 -0.79101558721E+03 -0.15383454970E+03 -0.34279726500E+03  0.12568863406E+04  0.90160001131E+03 0.  0.
         23    2    4    4    0    0 -0.34618861556E+03  0.14409939094E+03 -0.55342419357E+03  0.67442761938E+03  0.89236112331E+02 0.  0.
         23    2    4    4    0    0 -0.44482697166E+03 -0.29793394064E+03  0.21062692857E+03  0.58245872122E+03  0.90877891631E+02 0.  0.
          2    1    3    3  502    0  0.47459350737E+03  0.56692722829E+02  0.10114575278E+04  0.11187043366E+04  0.00000000000E+00 0. -1.
         -1    1    3    3    0  502  0.31642207984E+03  0.97141826871E+02  0.65441375103E+03  0.73335995573E+03  0.00000000000E+00 0.  1.
         13    1    5    5    0    0 -0.27159650862E+03  0.14510879073E+03 -0.47594477235E+03  0.56687269380E+03  0.00000000000E+00 0.  1.
        -13    1    5    5    0    0 -0.74592106938E+02 -0.10093997909E+01 -0.77479421219E+02  0.10755492559E+03  0.00000000000E+00 0. -1.
          4    1    6    6  503    0 -0.83262679421E+02 -0.41414409152E+02  0.73140844735E+02  0.11831065142E+03  0.00000000000E+00 0. -1.
         -4    1    6    6    0  503 -0.36156429224E+03 -0.25651953149E+03  0.13748608383E+03  0.46414806980E+03  0.00000000000E+00 0.  1.
<mgrwt>
<rscale>  0 0.28133697E+04</rscale>
<asrwt>0</asrwt>
<pdfrwt beam="1">  1        2 0.13737512E+00 0.28133697E+04</pdfrwt>
<pdfrwt beam="2">  1       -1 0.34092497E+00 0.28133697E+04</pdfrwt>
<totfact> 0.52407360E-01</totfact>
</mgrwt>
</event>
<event>
12    7  0.2466188E-007  0.4118786E+04  0.7818608E-02  0.7981003E-01
          2   -1    0    0  501    0  0.00000000000E+00  0.00000000000E+00  0.34668182160E+04  0.34668182160E+04  0.00000000000E+00 0. -1.
         -1   -1    0    0    0  501 -0.00000000000E+00 -0.00000000000E+00 -0.12233404883E+04  0.12233404883E+04  0.00000000000E+00 0.  1.
         24    2    1    2    0    0 -0.13412456340E+04 -0.13293035041E+03  0.26889119445E+04  0.30088935988E+04  0.81135164517E+02 0.  0.
        254    2    1    2    0    0  0.13412456340E+04  0.13293035041E+03 -0.44543421681E+03  0.16812651055E+04  0.90090531391E+03 0.  0.
         23    2    4    4    0    0  0.26334798189E+02  0.19563432144E+03 -0.27589164654E+03  0.35113459989E+03  0.90625588490E+02 0.  0.
         23    2    4    4    0    0  0.13149108358E+04 -0.62703971021E+02 -0.16954257027E+03  0.13301305056E+04  0.87064256011E+02 0.  0.
          4    1    3    3  502    0 -0.25721712080E+03 -0.50662682614E+02  0.56830777427E+03  0.62586027269E+03  0.00000000000E+00 0. -1.
         -3    1    3    3    0  502 -0.10840285132E+04 -0.82267667801E+02  0.21206041702E+04  0.23830333261E+04  0.00000000000E+00 0.  1.
         13    1    5    5    0    0  0.22230717156E+01  0.50591823489E+02 -0.17025499492E+02  0.53426045003E+02  0.00000000000E+00 0. -1.
        -13    1    5    5    0    0  0.24111726474E+02  0.14504249795E+03 -0.25886614705E+03  0.29770855488E+03  0.00000000000E+00 0.  1.
          3    1    6    6  503    0  0.47312215722E+03  0.47604946498E+01 -0.92820199073E+02  0.48216473048E+03  0.00000000000E+00 0. -1.
         -3    1    6    6    0  503  0.84178867857E+03 -0.67464465671E+02 -0.76722371200E+02  0.84796577510E+03  0.00000000000E+00 0.  1.
<mgrwt>
<rscale>  0 0.41187858E+04</rscale>
<asrwt>0</asrwt>
<pdfrwt beam="1">  1        2 0.53335664E+00 0.41187858E+04</pdfrwt>
<pdfrwt beam="2">  1       -1 0.18820623E+00 0.41187858E+04</pdfrwt>
<totfact> 0.13809338E-01</totfact>
</mgrwt>
</event>
<event>
12    7  0.2466188E-007  0.2104415E+04  0.7818608E-02  0.8559301E-01
          2   -1    0    0  501    0  0.00000000000E+00  0.00000000000E+00  0.96132073667E+03  0.96132073667E+03  0.00000000000E+00 0. -1.
         -1   -1    0    0    0  501 -0.00000000000E+00 -0.00000000000E+00 -0.11516870185E+04  0.11516870185E+04  0.00000000000E+00 0.  1.
         24    2    1    2    0    0 -0.62458309280E+03  0.57689206712E+03 -0.19284587373E+03  0.87557228292E+03  0.80800957208E+02 0.  0.
        254    2    1    2    0    0  0.62458309280E+03 -0.57689206712E+03  0.24795919047E+01  0.12374354723E+04  0.89907280167E+03 0.  0.
         23    2    4    4    0    0  0.62955900467E+03 -0.42735852189E+01 -0.11240542930E+03  0.64577347416E+03  0.89585688027E+02 0.  0.
         23    2    4    4    0    0 -0.49759118670E+01 -0.57261848190E+03  0.11488502121E+03  0.59166199810E+03  0.94597391003E+02 0.  0.
          2    1    3    3  502    0 -0.33839366610E+03  0.27742626482E+03 -0.13089968316E+03  0.45673880142E+03  0.00000000000E+00 0. -1.
         -1    1    3    3    0  502 -0.28618942670E+03  0.29946580229E+03 -0.61946190570E+02  0.41883348150E+03  0.00000000000E+00 0.  1.
         13    1    5    5    0    0  0.28175071536E+03 -0.26020309437E+02 -0.88499447213E+02  0.29646698680E+03  0.00000000000E+00 0.  1.
        -13    1    5    5    0    0  0.34780828931E+03  0.21746724218E+02 -0.23905982088E+02  0.34930648736E+03  0.00000000000E+00 0. -1.
          2    1    6    6  503    0  0.25628548242E+02 -0.25479927335E+03  0.12621914182E+02  0.25639579735E+03  0.00000000000E+00 0. -1.
         -2    1    6    6    0  503 -0.30604460109E+02 -0.31781920855E+03  0.10226310702E+03  0.33526620074E+03  0.00000000000E+00 0.  1.
<mgrwt>
<rscale>  0 0.21044150E+04</rscale>
<asrwt>0</asrwt>
<pdfrwt beam="1">  1        2 0.14789550E+00 0.21044150E+04</pdfrwt>
<pdfrwt beam="2">  1       -1 0.17718262E+00 0.21044150E+04</pdfrwt>
<totfact> 0.61160328E+00</totfact>
</mgrwt>
</event>
<event>
12    7  0.2466188E-007  0.1854599E+04  0.7818608E-02  0.8677791E-01
          2   -1    0    0  501    0  0.00000000000E+00  0.00000000000E+00  0.30423704860E+04  0.30423704860E+04  0.00000000000E+00 0. -1.
         -1   -1    0    0    0  501 -0.00000000000E+00 -0.00000000000E+00 -0.28263639679E+03  0.28263639679E+03  0.00000000000E+00 0.  1.
         24    2    1    2    0    0 -0.48036279569E+03 -0.17171968732E+03  0.19341561483E+04  0.20018164125E+04  0.77928664979E+02 0.  0.
        254    2    1    2    0    0  0.48036279569E+03  0.17171968732E+03  0.82557794092E+03  0.13231904703E+04  0.89945428881E+03 0.  0.
         23    2    4    4    0    0 -0.25524006453E+03  0.84170335474E+02  0.19677190350E+03  0.34681687998E+03  0.96595187868E+02 0.  0.
         23    2    4    4    0    0  0.73560286021E+03  0.87549351849E+02  0.62880603742E+03  0.97637359032E+03  0.95560965946E+02 0.  0.
          2    1    3    3  502    0 -0.34537288000E+03 -0.14813124005E+03  0.15106473898E+04  0.15566890592E+04  0.00000000000E+00 0. -1.
         -1    1    3    3    0  502 -0.13498991569E+03 -0.23588447271E+02  0.42350875850E+03  0.44512735336E+03  0.00000000000E+00 0.  1.
         13    1    5    5    0    0 -0.22902302074E+03  0.10477696826E+03  0.16770059721E+03  0.30257767170E+03  0.00000000000E+00 0.  1.
        -13    1    5    5    0    0 -0.26217043785E+02 -0.20606632789E+02  0.29071306291E+02  0.44239208279E+02  0.00000000000E+00 0. -1.
          1    1    6    6  503    0  0.54058300067E+02  0.26625521046E+02  0.31051789696E+02  0.67789614399E+02  0.00000000000E+00 0. -1.
         -1    1    6    6    0  503  0.68154456015E+03  0.60923830803E+02  0.59775424772E+03  0.90858397592E+03  0.00000000000E+00 0.  1.
<mgrwt>
<rscale>  0 0.18545993E+04</rscale>
<asrwt>0</asrwt>
<pdfrwt beam="1">  1        2 0.46805697E+00 0.18545993E+04</pdfrwt>
<pdfrwt beam="2">  1       -1 0.43482525E-01 0.18545993E+04</pdfrwt>
<totfact> 0.91812006E+00</totfact>
</mgrwt>
</event>
<event>
12    7  0.2466188E-007  0.1364769E+04  0.7818608E-02  0.8979723E-01
          2   -1    0    0  501    0  0.00000000000E+00  0.00000000000E+00  0.10391096209E+04  0.10391096209E+04  0.00000000000E+00 0. -1.
         -1   -1    0    0    0  501 -0.00000000000E+00 -0.00000000000E+00 -0.44812285806E+03  0.44812285806E+03  0.00000000000E+00 0.  1.
         24    2    1    2    0    0  0.22171967599E+03  0.28136582087E+03  0.30539992377E+03  0.47736616030E+03  0.79265362442E+02 0.  0.
        254    2    1    2    0    0 -0.22171967599E+03 -0.28136582087E+03  0.28558683911E+03  0.10098663187E+04  0.89996877673E+03 0.  0.
         23    2    4    4    0    0  0.17214993955E+03  0.38783603859E+02  0.43125264021E+03  0.47493988580E+03  0.91919996836E+02 0.  0.
         23    2    4    4    0    0 -0.39386961554E+03 -0.32014942473E+03 -0.14566580110E+03  0.53492643290E+03  0.85433218369E+02 0.  0.
          4    1    3    3  502    0  0.21192718450E+03  0.28041225600E+03  0.30783235802E+03  0.46723112641E+03  0.00000000000E+00 0. -1.
         -3    1    3    3    0  502  0.97924914858E+01  0.95356487090E+00 -0.24324342476E+01  0.10135033884E+02  0.00000000000E+00 0.  1.
         13    1    5    5    0    0  0.16399057427E+03  0.50312480595E+02  0.32256893287E+03  0.36534226502E+03  0.00000000000E+00 0. -1.
        -13    1    5    5    0    0  0.81593652838E+01 -0.11528876736E+02  0.10868370734E+03  0.10959762078E+03  0.00000000000E+00 0.  1.
          1    1    6    6  503    0 -0.35871203942E+03 -0.30886221944E+03 -0.15261228826E+03  0.49735370548E+03  0.00000000000E+00 0. -1.
         -1    1    6    6    0  503 -0.35157576121E+02 -0.11287205291E+02  0.69464871632E+01  0.37572727421E+02  0.00000000000E+00 0.  1.
<mgrwt>
<rscale>  0 0.13647692E+04</rscale>
<asrwt>0</asrwt>
<pdfrwt beam="1">  1        2 0.15986302E+00 0.13647692E+04</pdfrwt>
<pdfrwt beam="2">  1       -1 0.68941978E-01 0.13647692E+04</pdfrwt>
<totfact> 0.56358595E+01</totfact>
</mgrwt>
</event>
<event>
12    7  0.2466188E-007  0.2261259E+04  0.7818608E-02  0.8493355E-01
          2   -1    0    0  501    0  0.00000000000E+00  0.00000000000E+00  0.27129172491E+04  0.27129172491E+04  0.00000000000E+00 0. -1.
         -1   -1    0    0    0  501 -0.00000000000E+00 -0.00000000000E+00 -0.47119872952E+03  0.47119872952E+03  0.00000000000E+00 0.  1.
         24    2    1    2    0    0 -0.72428012182E+03 -0.58419373346E+03  0.12086431988E+04  0.15274262714E+04  0.79678223609E+02 0.  0.
        254    2    1    2    0    0  0.72428012182E+03  0.58419373346E+03  0.10330753207E+04  0.16566897072E+04  0.90083969422E+03 0.  0.
         23    2    4    4    0    0  0.52365334512E+03  0.47066895620E+03  0.13202434850E+03  0.72228070591E+03  0.92287037816E+02 0.  0.
         23    2    4    4    0    0  0.20062677670E+03  0.11352477725E+03  0.90105097224E+03  0.93440900133E+03  0.89935246733E+02 0.  0.
          4    1    3    3  502    0 -0.94416419077E+02 -0.59264317430E+02  0.18368000861E+03  0.21486057124E+03  0.00000000000E+00 0. -1.
         -3    1    3    3    0  502 -0.62986370274E+03 -0.52492941603E+03  0.10249631902E+04  0.13125657001E+04  0.00000000000E+00 0.  1.
         13    1    5    5    0    0  0.40657969890E+03  0.41303298969E+03  0.10449059266E+03  0.58891560184E+03  0.00000000000E+00 0. -1.
        -13    1    5    5    0    0  0.11707364622E+03  0.57635966512E+02  0.27533755838E+02  0.13336510408E+03  0.00000000000E+00 0.  1.
          1    1    6    6  503    0  0.92768807529E+02  0.17862683371E+02  0.48423504020E+03  0.49336467371E+03  0.00000000000E+00 0. -1.
         -1    1    6    6    0  503  0.10785796917E+03  0.95662093883E+02  0.41681593204E+03  0.44104432761E+03  0.00000000000E+00 0.  1.
<mgrwt>
<rscale>  0 0.22612591E+04</rscale>
<asrwt>0</asrwt>
<pdfrwt beam="1">  1        2 0.41737188E+00 0.22612591E+04</pdfrwt>
<pdfrwt beam="2">  1       -1 0.72492114E-01 0.22612591E+04</pdfrwt>
<totfact> 0.51829183E+00</totfact>
</mgrwt>
</event>
<event>
12    7  0.2466188E-007  0.1361493E+04  0.7818608E-02  0.8982173E-01
         -1   -1    0    0    0  501 -0.00000000000E+00  0.00000000000E+00  0.32987911158E+03  0.32987911158E+03  0.00000000000E+00 0.  1.
          2   -1    0    0  501    0  0.00000000000E+00 -0.00000000000E+00 -0.14048055625E+04  0.14048055625E+04  0.00000000000E+00 0. -1.
         24    2    1    2    0    0 -0.22432253367E+03  0.17120485578E+03  0.14782244501E+02  0.29415777565E+03  0.81722582356E+02 0.  0.
        254    2    1    2    0    0  0.22432253367E+03 -0.17120485578E+03 -0.10897086955E+04  0.14405268985E+04  0.89889988459E+03 0.  0.
         23    2    4    4    0    0  0.51234689650E+03  0.10396367763E+03 -0.56074792857E+03  0.77232549255E+03  0.93491381507E+02 0.  0.
         23    2    4    4    0    0 -0.28802436284E+03 -0.27516853341E+03 -0.52896076689E+03  0.66820140594E+03  0.89542563140E+02 0.  0.
          2    1    3    3  502    0 -0.74294171976E+02  0.10721970205E+03  0.67724418041E+00  0.13044595492E+03  0.00000000000E+00 0. -1.
         -1    1    3    3    0  502 -0.15002836169E+03  0.63985153736E+02  0.14105000321E+02  0.16371182072E+03  0.00000000000E+00 0.  1.
         13    1    5    5    0    0  0.43543506082E+03  0.84674433049E+02 -0.42055123270E+03  0.61125836692E+03  0.00000000000E+00 0.  1.
        -13    1    5    5    0    0  0.76911835688E+02  0.19289244577E+02 -0.14019669587E+03  0.16106712563E+03  0.00000000000E+00 0. -1.
          1    1    6    6  503    0  0.40189338899E+01 -0.15948879809E+02 -0.33822766850E+02  0.37609814599E+02  0.00000000000E+00 0. -1.
         -1    1    6    6    0  503 -0.29204329673E+03 -0.25921965360E+03 -0.49513800004E+03  0.63059159134E+03  0.00000000000E+00 0.  1.
<mgrwt>
<rscale>  0 0.13614933E+04</rscale>
<asrwt>0</asrwt>
<pdfrwt beam="1">  1        2 0.21612393E+00 0.13614933E+04</pdfrwt>
<pdfrwt beam="2">  1       -1 0.50750633E-01 0.13614933E+04</pdfrwt>
<totfact> 0.62385347E+01</totfact>
</mgrwt>
</event>
<event>
12    7  0.2466188E-007  0.1552039E+04  0.7818608E-02  0.8850567E-01
          2   -1    0    0  501    0  0.00000000000E+00  0.00000000000E+00  0.19478474418E+04  0.19478474418E+04  0.00000000000E+00 0. -1.
         -1   -1    0    0    0  501 -0.00000000000E+00 -0.00000000000E+00 -0.30916483209E+03  0.30916483209E+03  0.00000000000E+00 0.  1.
         24    2    1    2    0    0 -0.45701988767E+03 -0.36153200177E+02  0.84682248707E+03  0.96625893939E+03  0.79835967668E+02 0.  0.
        254    2    1    2    0    0  0.45701988767E+03  0.36153200177E+02  0.79186012259E+03  0.12907533345E+04  0.91039962932E+03 0.  0.
         23    2    4    4    0    0  0.16551664708E+03  0.43378079826E+03  0.57603832926E+03  0.74547927982E+03  0.91420230007E+02 0.  0.
         23    2    4    4    0    0  0.29150324059E+03 -0.39762759808E+03  0.21582179333E+03  0.54527405464E+03  0.87538004090E+02 0.  0.
          4    1    3    3  502    0 -0.10937408335E+03 -0.40160383601E+02  0.24325479234E+03  0.26971918826E+03  0.00000000000E+00 0. -1.
         -3    1    3    3    0  502 -0.34764580432E+03  0.40071834239E+01  0.60356769473E+03  0.69653975112E+03  0.00000000000E+00 0.  1.
         13    1    5    5    0    0  0.12563161844E+03  0.31757422812E+03  0.48214994139E+03  0.59085130100E+03  0.00000000000E+00 0. -1.
        -13    1    5    5    0    0  0.39885028638E+02  0.11620657015E+03  0.93888387877E+02  0.15462797882E+03  0.00000000000E+00 0.  1.
          3    1    6    6  503    0  0.17568961681E+03 -0.17694206888E+03  0.82607394918E+02  0.26267721426E+03  0.00000000000E+00 0. -1.
         -3    1    6    6    0  503  0.11581362378E+03 -0.22068552920E+03  0.13321439841E+03  0.28259684039E+03  0.00000000000E+00 0.  1.
<mgrwt>
<rscale>  0 0.15520386E+04</rscale>
<asrwt>0</asrwt>
<pdfrwt beam="1">  1        2 0.29966883E+00 0.15520386E+04</pdfrwt>
<pdfrwt beam="2">  1       -1 0.47563821E-01 0.15520386E+04</pdfrwt>
<totfact> 0.34562243E+01</totfact>
</mgrwt>
</event>
<event>
12    7  0.2466188E-007  0.3821238E+04  0.7818608E-02  0.8041613E-01
          2   -1    0    0  501    0  0.00000000000E+00  0.00000000000E+00  0.21968190913E+04  0.21968190913E+04  0.00000000000E+00 0. -1.
         -1   -1    0    0    0  501 -0.00000000000E+00 -0.00000000000E+00 -0.16617049823E+04  0.16617049823E+04  0.00000000000E+00 0.  1.
         24    2    1    2    0    0  0.16500460738E+04  0.66741509256E+03  0.54772008152E+03  0.18639354949E+04  0.78506622101E+02 0.  0.
        254    2    1    2    0    0 -0.16500460738E+04 -0.66741509256E+03 -0.12605972527E+02  0.19945885787E+04  0.90007207280E+03 0.  0.
         23    2    4    4    0    0 -0.15771076589E+04 -0.32191094970E+03  0.91447395299E+02  0.16148398041E+04  0.91922463846E+02 0.  0.
         23    2    4    4    0    0 -0.72938414899E+02 -0.34550414286E+03 -0.10405336783E+03  0.37974877462E+03  0.93214287359E+02 0.  0.
          2    1    3    3  502    0  0.99179391950E+03  0.43623511510E+03  0.31193031540E+03  0.11275002333E+04  0.00000000000E+00 0. -1.
         -1    1    3    3    0  502  0.65825215434E+03  0.23117997746E+03  0.23578976611E+03  0.73643526156E+03  0.00000000000E+00 0.  1.
         13    1    5    5    0    0 -0.12625344625E+04 -0.22661565316E+03  0.93857382269E+02  0.12861404011E+04  0.00000000000E+00 0. -1.
        -13    1    5    5    0    0 -0.31457319644E+03 -0.95295296540E+02 -0.24099869701E+01  0.32869940295E+03  0.00000000000E+00 0.  1.
          2    1    6    6  503    0 -0.13312662585E+02 -0.16282153004E+03 -0.47349616910E+01  0.16343346503E+03  0.00000000000E+00 0. -1.
         -2    1    6    6    0  503 -0.59625752313E+02 -0.18268261282E+03 -0.99318406135E+02  0.21631530959E+03  0.00000000000E+00 0.  1.
<mgrwt>
<rscale>  0 0.38212381E+04</rscale>
<asrwt>0</asrwt>
<pdfrwt beam="1">  1        2 0.33797217E+00 0.38212381E+04</pdfrwt>
<pdfrwt beam="2">  1       -1 0.25564692E+00 0.38212381E+04</pdfrwt>
<totfact> 0.30228389E-01</totfact>
</mgrwt>
</event>
<event>
12    7  0.2466188E-007  0.2146019E+04  0.7818608E-02  0.8541238E-01
         -1   -1    0    0    0  501 -0.00000000000E+00  0.00000000000E+00  0.60659108425E+03  0.60659108425E+03  0.00000000000E+00 0.  1.
          2   -1    0    0  501    0  0.00000000000E+00 -0.00000000000E+00 -0.18980645326E+04  0.18980645326E+04  0.00000000000E+00 0. -1.
         24    2    1    2    0    0 -0.14859669605E+02 -0.88096671237E+03 -0.53441412389E+03  0.10335418083E+04  0.79290955868E+02 0.  0.
        254    2    1    2    0    0  0.14859669605E+02  0.88096671237E+03 -0.75705932441E+03  0.14711138085E+04  0.90261501134E+03 0.  0.
         23    2    4    4    0    0  0.29799064766E+03 -0.18502786667E+02 -0.20582760175E+03  0.37505495823E+03  0.95710191947E+02 0.  0.
         23    2    4    4    0    0 -0.28313097805E+03  0.89946949904E+03 -0.55123172266E+03  0.10960588502E+04  0.90994838796E+02 0.  0.
          4    1    3    3  502    0 -0.22287415893E+01 -0.40666943565E+03 -0.29267638628E+03  0.50104337563E+03  0.00000000000E+00 0. -1.
         -3    1    3    3    0  502 -0.12630928016E+02 -0.47429727672E+03 -0.24173773761E+03  0.53249843271E+03  0.00000000000E+00 0.  1.
         13    1    5    5    0    0  0.96527272077E+02  0.14805736386E+02 -0.11692683611E+03  0.15234372021E+03  0.00000000000E+00 0. -1.
        -13    1    5    5    0    0  0.20146337558E+03 -0.33308523053E+02 -0.88900765641E+02  0.22271123802E+03  0.00000000000E+00 0.  1.
          4    1    6    6  503    0 -0.19516716263E+03  0.68868743426E+03 -0.45524084909E+03  0.84830704002E+03  0.00000000000E+00 0.  1.
         -4    1    6    6    0  503 -0.87963815419E+02  0.21078206478E+03 -0.95990873575E+02  0.24775181022E+03  0.00000000000E+00 0. -1.
<mgrwt>
<rscale>  0 0.21460187E+04</rscale>
<asrwt>0</asrwt>
<pdfrwt beam="1">  1        2 0.29200992E+00 0.21460187E+04</pdfrwt>
<pdfrwt beam="2">  1       -1 0.93321707E-01 0.21460187E+04</pdfrwt>
<totfact> 0.88664076E+00</totfact>
</mgrwt>
</event>
<event>
12    7  0.2466188E-007  0.1501353E+04  0.7818608E-02  0.8883554E-01
         -1   -1    0    0    0  501 -0.00000000000E+00  0.00000000000E+00  0.40898409979E+03  0.40898409979E+03  0.00000000000E+00 0.  1.
          2   -1    0    0  501    0  0.00000000000E+00 -0.00000000000E+00 -0.13778408767E+04  0.13778408767E+04  0.00000000000E+00 0. -1.
         24    2    1    2    0    0  0.86847257043E+02  0.23490053631E+03 -0.79472926079E+03  0.83703966685E+03  0.79499043492E+02 0.  0.
        254    2    1    2    0    0 -0.86847257043E+02 -0.23490053631E+03 -0.17412751608E+03  0.94978530959E+03  0.89947264241E+03 0.  0.
         23    2    4    4    0    0  0.21038165016E+03  0.79373041270E+02 -0.38780886381E+03  0.45909837949E+03  0.99071129963E+02 0.  0.
         23    2    4    4    0    0 -0.29722890721E+03 -0.31427357758E+03  0.21368134773E+03  0.49068693010E+03  0.89448533596E+02 0.  0.
          2    1    3    3  502    0  0.47225509559E+01  0.97116829608E+02 -0.38352028445E+03  0.39565362335E+03  0.00000000000E+00 0. -1.
         -1    1    3    3    0  502  0.82124706087E+02  0.13778370670E+03 -0.41120897633E+03  0.44138604350E+03  0.00000000000E+00 0.  1.
         13    1    5    5    0    0  0.19328716650E+03  0.32871221673E+02 -0.30401977436E+03  0.36175747283E+03  0.00000000000E+00 0.  1.
        -13    1    5    5    0    0  0.17094483663E+02  0.46501819597E+02 -0.83789089451E+02  0.97340906656E+02  0.00000000000E+00 0. -1.
          3    1    6    6  503    0 -0.11229846127E+03 -0.95257404278E+02  0.30135105986E+02  0.15030982033E+03  0.00000000000E+00 0. -1.
         -3    1    6    6    0  503 -0.18493044593E+03 -0.21901617330E+03  0.18354624175E+03  0.34037710977E+03  0.00000000000E+00 0.  1.
<mgrwt>
<rscale>  0 0.15013527E+04</rscale>
<asrwt>0</asrwt>
<pdfrwt beam="1">  1        2 0.21197551E+00 0.15013527E+04</pdfrwt>
<pdfrwt beam="2">  1       -1 0.62920633E-01 0.15013527E+04</pdfrwt>
<totfact> 0.42033868E+01</totfact>
</mgrwt>
</event>
<event>
12    7  0.2466188E-007  0.1932789E+04  0.7818608E-02  0.8638705E-01
          2   -1    0    0  501    0  0.00000000000E+00  0.00000000000E+00  0.41956517555E+03  0.41956517555E+03  0.00000000000E+00 0. -1.
         -1   -1    0    0    0  501 -0.00000000000E+00 -0.00000000000E+00 -0.22259199635E+04  0.22259199635E+04  0.00000000000E+00 0.  1.
         24    2    1    2    0    0 -0.47266582703E+03 -0.53743146894E+03 -0.10266613330E+04  0.12541314918E+04  0.81035413942E+02 0.  0.
        254    2    1    2    0    0  0.47266582703E+03  0.53743146894E+03 -0.77969345501E+03  0.13913536473E+04  0.90315974229E+03 0.  0.
         23    2    4    4    0    0  0.89343500792E+02 -0.24759039053E+02 -0.68605801517E+03  0.69837290615E+03  0.91944791672E+02 0.  0.
         23    2    4    4    0    0  0.38332232624E+03  0.56219050800E+03 -0.93635439837E+02  0.69298074111E+03  0.91981187608E+02 0.  0.
          4    1    3    3  502    0 -0.22979740293E+03 -0.31935640788E+03 -0.53929374555E+03  0.66755756728E+03  0.00000000000E+00 0. -1.
         -3    1    3    3    0  502 -0.24286842410E+03 -0.21807506107E+03 -0.48736758741E+03  0.58657392453E+03  0.00000000000E+00 0.  1.
         13    1    5    5    0    0  0.15701747701E+02 -0.38138242395E+02 -0.41898624703E+03  0.42101133668E+03  0.00000000000E+00 0. -1.
        -13    1    5    5    0    0  0.73641753091E+02  0.13379203342E+02 -0.26707176814E+03  0.27736156947E+03  0.00000000000E+00 0.  1.
          1    1    6    6  503    0  0.25457595468E+03  0.36608335422E+03 -0.10506559704E+03  0.45810994163E+03  0.00000000000E+00 0. -1.
         -1    1    6    6    0  503  0.12874637156E+03  0.19610715378E+03  0.11430157207E+02  0.23487079948E+03  0.00000000000E+00 0.  1.
<mgrwt>
<rscale>  0 0.19327892E+04</rscale>
<asrwt>0</asrwt>
<pdfrwt beam="1">  1        2 0.64548489E-01 0.19327892E+04</pdfrwt>
<pdfrwt beam="2">  1       -1 0.34244922E+00 0.19327892E+04</pdfrwt>
<totfact> 0.14044308E+00</totfact>
</mgrwt>
</event>
<event>
12    7  0.2466188E-007  0.2697731E+04  0.7818608E-02  0.8335742E-01
          2   -1    0    0  501    0  0.00000000000E+00  0.00000000000E+00  0.14957483325E+04  0.14957483325E+04  0.00000000000E+00 0. -1.
         -1   -1    0    0    0  501 -0.00000000000E+00 -0.00000000000E+00 -0.12164063796E+04  0.12164063796E+04  0.00000000000E+00 0.  1.
         24    2    1    2    0    0 -0.22998027577E+03 -0.11671106718E+04  0.25702585154E+03  0.12196278580E+04  0.79947333837E+02 0.  0.
        254    2    1    2    0    0  0.22998027577E+03  0.11671106718E+04  0.22316101327E+02  0.14925268541E+04  0.90116599718E+03 0.  0.
         23    2    4    4    0    0 -0.18195087841E+03 -0.30091492318E+02  0.82410750095E+02  0.22181768862E+03  0.91651160322E+02 0.  0.
         23    2    4    4    0    0  0.41193115418E+03  0.11972021641E+04 -0.60094648768E+02  0.12707091655E+04  0.90056198954E+02 0.  0.
          4    1    3    3  502    0 -0.17558202991E+03 -0.95249957688E+03  0.23834471254E+03  0.99744307866E+03  0.00000000000E+00 0. -1.
         -3    1    3    3    0  502 -0.54398245859E+02 -0.21461109493E+03  0.18681139004E+02  0.22218477934E+03  0.00000000000E+00 0.  1.
         13    1    5    5    0    0 -0.99019984247E+02 -0.45502951998E+02  0.83777350331E+02  0.13745588510E+03  0.00000000000E+00 0. -1.
        -13    1    5    5    0    0 -0.82930894164E+02  0.15411459680E+02 -0.13666002354E+01  0.84361803516E+02  0.00000000000E+00 0.  1.
          3    1    6    6  503    0  0.40989407379E+03  0.11843800841E+04 -0.68614824757E+02  0.12551801980E+04  0.00000000000E+00 0. -1.
         -3    1    6    6    0  503  0.20370803905E+01  0.12822080017E+02  0.85201759886E+01  0.15528967491E+02  0.00000000000E+00 0.  1.
<mgrwt>
<rscale>  0 0.26977308E+04</rscale>
<asrwt>0</asrwt>
<pdfrwt beam="1">  1        2 0.23011513E+00 0.26977308E+04</pdfrwt>
<pdfrwt beam="2">  1       -1 0.18713944E+00 0.26977308E+04</pdfrwt>
<totfact> 0.23610396E+00</totfact>
</mgrwt>
</event>
<event>
12    7  0.2466188E-007  0.2320271E+04  0.7818608E-02  0.8469971E-01
         -1   -1    0    0    0  501 -0.00000000000E+00  0.00000000000E+00  0.11753014635E+04  0.11753014635E+04  0.00000000000E+00 0.  1.
          2   -1    0    0  501    0  0.00000000000E+00 -0.00000000000E+00 -0.11451652830E+04  0.11451652830E+04  0.00000000000E+00 0. -1.
         24    2    1    2    0    0  0.59534777483E+03 -0.61758868362E+03  0.48531964217E+03  0.98885234404E+03  0.80243679573E+02 0.  0.
        254    2    1    2    0    0 -0.59534777483E+03  0.61758868362E+03 -0.45518346161E+03  0.13316144025E+04  0.91112577507E+03 0.  0.
         23    2    4    4    0    0  0.17915913624E+03  0.29841539164E+03 -0.31414207087E+03  0.47795386086E+03  0.92762656039E+02 0.  0.
         23    2    4    4    0    0 -0.77450691107E+03  0.31917329197E+03 -0.14104139074E+03  0.85366054160E+03  0.84327343042E+02 0.  0.
          2    1    3    3  502    0  0.23505696251E+03 -0.19436537119E+03  0.19174382765E+03  0.36027124307E+03  0.00000000000E+00 0. -1.
         -1    1    3    3    0  502  0.36029081231E+03 -0.42322331243E+03  0.29357581452E+03  0.62858110097E+03  0.00000000000E+00 0.  1.
         13    1    5    5    0    0 -0.13051711758E+00  0.66842688938E+02 -0.68507381928E+02  0.95714280428E+02  0.00000000000E+00 0. -1.
        -13    1    5    5    0    0  0.17928965336E+03  0.23157270270E+03 -0.24563468894E+03  0.38223958043E+03  0.00000000000E+00 0.  1.
          4    1    6    6  503    0 -0.34772956220E+03  0.11177526418E+03 -0.31005548931E+02  0.36656636804E+03  0.00000000000E+00 0. -1.
         -4    1    6    6    0  503 -0.42677734886E+03  0.20739802779E+03 -0.11003584181E+03  0.48709417356E+03  0.00000000000E+00 0.  1.
<mgrwt>
<rscale>  0 0.23202710E+04</rscale>
<asrwt>0</asrwt>
<pdfrwt beam="1">  1        2 0.17617928E+00 0.23202710E+04</pdfrwt>
<pdfrwt beam="2">  1       -1 0.18081561E+00 0.23202710E+04</pdfrwt>
<totfact> 0.43304957E+00</totfact>
</mgrwt>
</event>
<event>
12    7  0.2466188E-007  0.2700754E+04  0.7818608E-02  0.8334760E-01
         -1   -1    0    0    0  501 -0.00000000000E+00  0.00000000000E+00  0.88132157433E+03  0.88132157433E+03  0.00000000000E+00 0.  1.
          2   -1    0    0  501    0  0.00000000000E+00 -0.00000000000E+00 -0.20690716821E+04  0.20690716821E+04  0.00000000000E+00 0. -1.
         24    2    1    2    0    0 -0.84422679686E+03 -0.39491774540E+03  0.29457614233E+03  0.98069897117E+03  0.79476148948E+02 0.  0.
        254    2    1    2    0    0  0.84422679686E+03  0.39491774540E+03 -0.14823262501E+04  0.19696942853E+04  0.90206737858E+03 0.  0.
         23    2    4    4    0    0  0.20505841591E+03  0.19699039049E+03  0.42580767085E+02  0.30170406440E+03  0.91422387120E+02 0.  0.
         23    2    4    4    0    0  0.63916838095E+03  0.19792735491E+03 -0.15249070172E+04  0.16679902209E+04  0.95595547982E+02 0.  0.
          2    1    3    3  502    0 -0.34949807462E+03 -0.20261935900E+03  0.14530410885E+03  0.42932131656E+03  0.00000000000E+00 0. -1.
         -1    1    3    3    0  502 -0.49472872224E+03 -0.19229838641E+03  0.14927203348E+03  0.55137765461E+03  0.00000000000E+00 0.  1.
         13    1    5    5    0    0  0.13961307342E+02  0.30544841832E+02  0.34510210244E+02  0.48154543673E+02  0.00000000000E+00 0. -1.
        -13    1    5    5    0    0  0.19109710857E+03  0.16644554866E+03  0.80705568409E+01  0.25354952073E+03  0.00000000000E+00 0.  1.
          1    1    6    6  503    0  0.51825412158E+03  0.18487231163E+03 -0.13135415022E+04  0.14241335556E+04  0.00000000000E+00 0.  1.
         -1    1    6    6    0  503  0.12091425937E+03  0.13055043282E+02 -0.21136551500E+03  0.24385666528E+03  0.00000000000E+00 0. -1.
<mgrwt>
<rscale>  0 0.27007536E+04</rscale>
<asrwt>0</asrwt>
<pdfrwt beam="1">  1        2 0.31831872E+00 0.27007536E+04</pdfrwt>
<pdfrwt beam="2">  1       -1 0.13558794E+00 0.27007536E+04</pdfrwt>
<totfact> 0.27793247E+00</totfact>
</mgrwt>
</event>
<event>
12    7  0.2466188E-007  0.2183483E+04  0.7818608E-02  0.8525335E-01
          2   -1    0    0  501    0  0.00000000000E+00  0.00000000000E+00  0.14550508851E+04  0.14550508851E+04  0.00000000000E+00 0. -1.
         -1   -1    0    0    0  501 -0.00000000000E+00 -0.00000000000E+00 -0.81914589472E+03  0.81914589472E+03  0.00000000000E+00 0.  1.
         24    2    1    2    0    0 -0.20342148636E+03  0.70268133297E+03 -0.28865248113E+03  0.79068056826E+03  0.81939913018E+02 0.  0.
        254    2    1    2    0    0  0.20342148636E+03 -0.70268133297E+03  0.92455747147E+03  0.14835162115E+04  0.90048457787E+03 0.  0.
         23    2    4    4    0    0  0.37631928279E+03  0.17402644142E+02  0.17333375807E+03  0.42485624444E+03  0.92407695198E+02 0.  0.
         23    2    4    4    0    0 -0.17289779643E+03 -0.72008397711E+03  0.75122371339E+03  0.10586599671E+04  0.89494559749E+02 0.  0.
          2    1    3    3  502    0 -0.25430862559E+02  0.12150016726E+03 -0.18426846275E+02  0.12549329893E+03  0.00000000000E+00 0. -1.
         -1    1    3    3    0  502 -0.17799062380E+03  0.58118116571E+03 -0.27022563485E+03  0.66518726932E+03  0.00000000000E+00 0.  1.
         13    1    5    5    0    0  0.59994790782E+02 -0.48617801524E+01 -0.61052735422E+01  0.60500299109E+02  0.00000000000E+00 0. -1.
        -13    1    5    5    0    0  0.31632449201E+03  0.22264424295E+02  0.17943903162E+03  0.36435594533E+03  0.00000000000E+00 0.  1.
          3    1    6    6  503    0  0.51920863105E+00 -0.34440830224E+01 -0.24839108175E+01  0.42779783096E+01  0.00000000000E+00 0. -1.
         -3    1    6    6    0  503 -0.17341700506E+03 -0.71663989409E+03  0.75370762421E+03  0.10543819888E+04  0.00000000000E+00 0.  1.
<mgrwt>
<rscale>  0 0.21834825E+04</rscale>
<asrwt>0</asrwt>
<pdfrwt beam="1">  1        2 0.22385398E+00 0.21834825E+04</pdfrwt>
<pdfrwt beam="2">  1       -1 0.12602245E+00 0.21834825E+04</pdfrwt>
<totfact> 0.76978363E+00</totfact>
</mgrwt>
</event>
<event>
12    7  0.2466188E-007  0.2962487E+04  0.7818608E-02  0.8254525E-01
          2   -1    0    0  501    0  0.00000000000E+00  0.00000000000E+00  0.23873139264E+04  0.23873139264E+04  0.00000000000E+00 0. -1.
         -1   -1    0    0    0  501 -0.00000000000E+00 -0.00000000000E+00 -0.91905895075E+03  0.91905895075E+03  0.00000000000E+00 0.  1.
         24    2    1    2    0    0  0.11567379405E+03 -0.12976414802E+04  0.10161582074E+04  0.16541294883E+04  0.79454541371E+02 0.  0.
        254    2    1    2    0    0 -0.11567379405E+03  0.12976414802E+04  0.45209676825E+03  0.16522433888E+04  0.91008949570E+03 0.  0.
         23    2    4    4    0    0 -0.22443767453E+03  0.10408301773E+04  0.69154909998E+03  0.12729212179E+04  0.91588981709E+02 0.  0.
         23    2    4    4    0    0  0.10876388048E+03  0.25681130285E+03 -0.23945233173E+03  0.37932217085E+03  0.93628324561E+02 0.  0.
          4    1    3    3  502    0  0.15581985648E+02 -0.57005487806E+03  0.42146952898E+03  0.70911347902E+03  0.00000000000E+00 0. -1.
         -3    1    3    3    0  502  0.10009180841E+03 -0.72758660211E+03  0.59468867839E+03  0.94501600933E+03  0.00000000000E+00 0.  1.
         13    1    5    5    0    0 -0.10500017075E+03  0.59898373299E+03  0.34821412293E+03  0.70075646529E+03  0.00000000000E+00 0.  1.
        -13    1    5    5    0    0 -0.11943750378E+03  0.44184644433E+03  0.34333497705E+03  0.57216475262E+03  0.00000000000E+00 0. -1.
          3    1    6    6  503    0  0.45572890563E+02  0.55513040559E+02 -0.19250573930E+02  0.74358393090E+02  0.00000000000E+00 0. -1.
         -3    1    6    6    0  503  0.63190989918E+02  0.20129826229E+03 -0.22020175780E+03  0.30496377776E+03  0.00000000000E+00 0.  1.
<mgrwt>
<rscale>  0 0.29624870E+04</rscale>
<asrwt>0</asrwt>
<pdfrwt beam="1">  1        2 0.36727906E+00 0.29624870E+04</pdfrwt>
<pdfrwt beam="2">  1       -1 0.14139369E+00 0.29624870E+04</pdfrwt>
<totfact> 0.16113357E+00</totfact>
</mgrwt>
</event>
<event>
12    7  0.2466188E-007  0.1605782E+04  0.7818608E-02  0.8817004E-01
          2   -1    0    0  501    0  0.00000000000E+00  0.00000000000E+00  0.16251525139E+04  0.16251525139E+04  0.00000000000E+00 0. -1.
         -1   -1    0    0    0  501 -0.00000000000E+00 -0.00000000000E+00 -0.39666059710E+03  0.39666059710E+03  0.00000000000E+00 0.  1.
         24    2    1    2    0    0  0.11037033064E+03  0.39919122750E+03  0.86439917690E+03  0.96152511461E+03  0.76219177461E+02 0.  0.
        254    2    1    2    0    0 -0.11037033064E+03 -0.39919122750E+03  0.36409273989E+03  0.10602879964E+04  0.90560027938E+03 0.  0.
         23    2    4    4    0    0 -0.47112703997E+02  0.28507894366E+03  0.10672600978E+03  0.32126684964E+03  0.91281632997E+02 0.  0.
         23    2    4    4    0    0 -0.63257626639E+02 -0.68427017116E+03  0.25736673011E+03  0.73902114673E+03  0.87677973716E+02 0.  0.
          2    1    3    3  502    0  0.36439421629E+02  0.17201688834E+03  0.45093003714E+03  0.48399952450E+03  0.00000000000E+00 0. -1.
         -1    1    3    3    0  502  0.73930909008E+02  0.22717433916E+03  0.41346913976E+03  0.47752559011E+03  0.00000000000E+00 0.  1.
         13    1    5    5    0    0 -0.34132146249E+02  0.13721642816E+03  0.53100680770E+01  0.14149752078E+03  0.00000000000E+00 0. -1.
        -13    1    5    5    0    0 -0.12980557748E+02  0.14786251550E+03  0.10141594170E+03  0.17976932886E+03  0.00000000000E+00 0.  1.
          2    1    6    6  503    0 -0.45319338714E+01 -0.24741583706E+03  0.13346235006E+03  0.28115357678E+03  0.00000000000E+00 0. -1.
         -2    1    6    6    0  503 -0.58725692768E+02 -0.43685433410E+03  0.12390438005E+03  0.45786756995E+03  0.00000000000E+00 0.  1.
<mgrwt>
<rscale>  0 0.16057820E+04</rscale>
<asrwt>0</asrwt>
<pdfrwt beam="1">  1        2 0.25002346E+00 0.16057820E+04</pdfrwt>
<pdfrwt beam="2">  1       -1 0.61024708E-01 0.16057820E+04</pdfrwt>
<totfact> 0.32106960E+01</totfact>
</mgrwt>
</event>
<event>
12    7  0.2466188E-007  0.4517994E+04  0.7818608E-02  0.7907494E-01
         -1   -1    0    0    0  501 -0.00000000000E+00  0.00000000000E+00  0.26172550068E+04  0.26172550068E+04  0.00000000000E+00 0.  1.
          2   -1    0    0  501    0  0.00000000000E+00 -0.00000000000E+00 -0.19497783248E+04  0.19497783248E+04  0.00000000000E+00 0. -1.
         24    2    1    2    0    0 -0.10436683121E+04  0.12253432484E+04 -0.11489687522E+04  0.19790212034E+04  0.75406284745E+02 0.  0.
        254    2    1    2    0    0  0.10436683121E+04 -0.12253432484E+04  0.18164454343E+04  0.25880121282E+04  0.89867855080E+03 0.  0.
         23    2    4    4    0    0  0.77507220667E+03 -0.48925289661E+03  0.14494778824E+04  0.17173590441E+04  0.90722832883E+02 0.  0.
         23    2    4    4    0    0  0.26859610546E+03 -0.73609035182E+03  0.36696755183E+03  0.87065308403E+03  0.96947071763E+02 0.  0.
          2    1    3    3  502    0 -0.85235440212E+03  0.95431277214E+03 -0.91826712986E+03  0.15749398133E+04  0.00000000000E+00 0. -1.
         -1    1    3    3    0  502 -0.19131391000E+03  0.27103047629E+03 -0.23070162238E+03  0.40408139008E+03  0.00000000000E+00 0.  1.
         13    1    5    5    0    0  0.60315430397E+03 -0.39551928319E+03  0.12018352184E+04  0.14016556317E+04  0.00000000000E+00 0.  1.
        -13    1    5    5    0    0  0.17191790270E+03 -0.93733613418E+02  0.24764266404E+03  0.31570341241E+03  0.00000000000E+00 0. -1.
          2    1    6    6  503    0  0.11804133700E+03 -0.40795325184E+03  0.24085989958E+03  0.48823468143E+03  0.00000000000E+00 0. -1.
         -2    1    6    6    0  503  0.15055476846E+03 -0.32813709999E+03  0.12610765225E+03  0.38241840260E+03  0.00000000000E+00 0.  1.
<mgrwt>
<rscale>  0 0.45179938E+04</rscale>
<asrwt>0</asrwt>
<pdfrwt beam="1">  1        2 0.29996589E+00 0.45179938E+04</pdfrwt>
<pdfrwt beam="2">  1       -1 0.40265462E+00 0.45179938E+04</pdfrwt>
<totfact> 0.42102261E-02</totfact>
</mgrwt>
</event>
<event>
12    7  0.2466188E-007  0.1568175E+04  0.7818608E-02  0.8840342E-01
          2   -1    0    0  501    0  0.00000000000E+00  0.00000000000E+00  0.95578447758E+03  0.95578447758E+03  0.00000000000E+00 0. -1.
         -1   -1    0    0    0  501 -0.00000000000E+00 -0.00000000000E+00 -0.64323374047E+03  0.64323374047E+03  0.00000000000E+00 0.  1.
         24    2    1    2    0    0 -0.41680776358E+03 -0.24247002708E+03 -0.97225784829E+02  0.49869169684E+03  0.81976395707E+02 0.  0.
        254    2    1    2    0    0  0.41680776358E+03  0.24247002708E+03  0.40977652193E+03  0.11003265212E+04  0.90015622507E+03 0.  0.
         23    2    4    4    0    0  0.38660085919E+03  0.11990678669E+03 -0.20829559845E+03  0.46284572990E+03  0.83673481614E+02 0.  0.
         23    2    4    4    0    0  0.30206904382E+02  0.12256324039E+03  0.61807212039E+03  0.63748079131E+03  0.91839034860E+02 0.  0.
          2    1    3    3  502    0 -0.20261685614E+02 -0.22884715247E+02  0.11316474340E+02  0.32593077292E+02  0.00000000000E+00 0. -1.
         -1    1    3    3    0  502 -0.39654607796E+03 -0.21958531183E+03 -0.10854225917E+03  0.46609861955E+03  0.00000000000E+00 0.  1.
         13    1    5    5    0    0  0.14734136491E+03  0.69060154358E+02 -0.12232955607E+03  0.20357628305E+03  0.00000000000E+00 0. -1.
        -13    1    5    5    0    0  0.23925949428E+03  0.50846632335E+02 -0.85966042386E+02  0.25926944684E+03  0.00000000000E+00 0.  1.
          4    1    6    6  503    0  0.16632488864E+02 -0.96135063372E+01  0.40547596728E+02  0.44868327251E+02  0.00000000000E+00 0. -1.
         -4    1    6    6    0  503  0.13574415519E+02  0.13217674672E+03  0.57752452366E+03  0.59261246406E+03  0.00000000000E+00 0.  1.
<mgrwt>
<rscale>  0 0.15681745E+04</rscale>
<asrwt>0</asrwt>
<pdfrwt beam="1">  1        2 0.14704377E+00 0.15681745E+04</pdfrwt>
<pdfrwt beam="2">  1       -1 0.98959037E-01 0.15681745E+04</pdfrwt>
<totfact> 0.28824465E+01</totfact>
</mgrwt>
</event>
<event>
12    7  0.2466188E-007  0.1153549E+04  0.7818608E-02  0.9154516E-01
         -1   -1    0    0    0  501 -0.00000000000E+00  0.00000000000E+00  0.21348480631E+03  0.21348480631E+03  0.00000000000E+00 0.  1.
          2   -1    0    0  501    0  0.00000000000E+00 -0.00000000000E+00 -0.15582786002E+04  0.15582786002E+04  0.00000000000E+00 0. -1.
         24    2    1    2    0    0  0.16886016922E+03  0.11522812521E+03 -0.16982003151E+03  0.27747525626E+03  0.79764635934E+02 0.  0.
        254    2    1    2    0    0 -0.16886016922E+03 -0.11522812521E+03 -0.11749737624E+04  0.14942881503E+04  0.90030131409E+03 0.  0.
         23    2    4    4    0    0 -0.42168181164E+03  0.20984143631E+03 -0.46250438327E+03  0.66633746226E+03  0.90809307942E+02 0.  0.
         23    2    4    4    0    0  0.25282164243E+03 -0.32506956152E+03 -0.71246937910E+03  0.82795068799E+03  0.91108303040E+02 0.  0.
          2    1    3    3  502    0  0.47954847463E+02 -0.32006641135E+01 -0.54567419053E+02  0.72715300096E+02  0.00000000000E+00 0. -1.
         -1    1    3    3    0  502  0.12090532175E+03  0.11842878933E+03 -0.11525261246E+03  0.20475995616E+03  0.00000000000E+00 0.  1.
         13    1    5    5    0    0 -0.40485928235E+03  0.18746772625E+03 -0.45524457632E+03  0.63741886633E+03  0.00000000000E+00 0. -1.
        -13    1    5    5    0    0 -0.16822529298E+02  0.22373710060E+02 -0.72598069533E+01  0.28918595935E+02  0.00000000000E+00 0.  1.
          4    1    6    6  503    0  0.25227562280E+03 -0.28746557982E+03 -0.62497806441E+03  0.73271893004E+03  0.00000000000E+00 0. -1.
         -4    1    6    6    0  503  0.54601963124E+00 -0.37603981700E+02 -0.87491314688E+02  0.95231757954E+02  0.00000000000E+00 0.  1.
<mgrwt>
<rscale>  0 0.11535490E+04</rscale>
<asrwt>0</asrwt>
<pdfrwt beam="1">  1        2 0.23973518E+00 0.11535490E+04</pdfrwt>
<pdfrwt beam="2">  1       -1 0.32843815E-01 0.11535490E+04</pdfrwt>
<totfact> 0.11531425E+02</totfact>
</mgrwt>
</event>
<event>
12    7  0.2466188E-007  0.2010881E+04  0.7818608E-02  0.8601550E-01
         -1   -1    0    0    0  501 -0.00000000000E+00  0.00000000000E+00  0.10640743818E+04  0.10640743818E+04  0.00000000000E+00 0.  1.
          2   -1    0    0  501    0  0.00000000000E+00 -0.00000000000E+00 -0.95003722855E+03  0.95003722855E+03  0.00000000000E+00 0. -1.
         24    2    1    2    0    0 -0.70901892651E+03 -0.11531380091E+03 -0.30934748226E+03  0.78608170467E+03  0.78888977715E+02 0.  0.
        254    2    1    2    0    0  0.70901892651E+03  0.11531380091E+03  0.42338463547E+03  0.12280299056E+04  0.90155298722E+03 0.  0.
         23    2    4    4    0    0  0.29157759209E+03 -0.34784747696E+03  0.37561076395E+03  0.59587926690E+03  0.89293310402E+02 0.  0.
         23    2    4    4    0    0  0.41744133442E+03  0.46316127787E+03  0.47773871517E+02  0.63215063874E+03  0.92501082488E+02 0.  0.
          4    1    3    3  502    0 -0.60379275104E+03 -0.10437534393E+03 -0.29240383911E+03  0.67894027996E+03  0.00000000000E+00 0. -1.
         -3    1    3    3    0  502 -0.10522617547E+03 -0.10938456979E+02 -0.16943643153E+02  0.10714142471E+03  0.00000000000E+00 0.  1.
         13    1    5    5    0    0  0.70108679015E+02 -0.14016991927E+03  0.15632319372E+03  0.22135892582E+03  0.00000000000E+00 0.  1.
        -13    1    5    5    0    0  0.22146891308E+03 -0.20767755769E+03  0.21928757023E+03  0.37452034108E+03  0.00000000000E+00 0. -1.
          3    1    6    6  503    0 -0.47394949377E+01  0.91122088350E+01  0.20124479301E+01  0.10466379928E+02  0.00000000000E+00 0. -1.
         -3    1    6    6    0  503  0.42218082936E+03  0.45404906904E+03  0.45761423587E+02  0.62168425882E+03  0.00000000000E+00 0.  1.
<mgrwt>
<rscale>  0 0.20108807E+04</rscale>
<asrwt>0</asrwt>
<pdfrwt beam="1">  1        2 0.14615957E+00 0.20108807E+04</pdfrwt>
<pdfrwt beam="2">  1       -1 0.16370375E+00 0.20108807E+04</pdfrwt>
<totfact> 0.78785217E+00</totfact>
</mgrwt>
</event>
<event>
12    7  0.2466188E-007  0.1153541E+04  0.7818608E-02  0.9154523E-01
          2   -1    0    0  501    0  0.00000000000E+00  0.00000000000E+00  0.15361604123E+04  0.15361604123E+04  0.00000000000E+00 0. -1.
         -1   -1    0    0    0  501 -0.00000000000E+00 -0.00000000000E+00 -0.21655562759E+03  0.21655562759E+03  0.00000000000E+00 0.  1.
         24    2    1    2    0    0 -0.13358996772E+03  0.23047297551E+01  0.51939680894E+03  0.54219916845E+03  0.79720147252E+02 0.  0.
        254    2    1    2    0    0  0.13358996772E+03 -0.23047297551E+01  0.80020797580E+03  0.12105168715E+04  0.89842456574E+03 0.  0.
         23    2    4    4    0    0 -0.54674769440E+02 -0.21546880324E+03 -0.10274059471E+03  0.25949207281E+03  0.85815910354E+02 0.  0.
         23    2    4    4    0    0  0.18826473716E+03  0.21316407348E+03  0.90294857051E+03  0.95102479865E+03  0.90826830809E+02 0.  0.
          4    1    3    3  502    0  0.10295469374E+02  0.53693084189E+01  0.42766847423E+02  0.44315114815E+02  0.00000000000E+00 0. -1.
         -3    1    3    3    0  502 -0.14388543710E+03 -0.30645786638E+01  0.47662996152E+03  0.49788405364E+03  0.00000000000E+00 0.  1.
         13    1    5    5    0    0 -0.60011033123E+02 -0.21419960517E+03 -0.80468327239E+02  0.23655432070E+03  0.00000000000E+00 0.  1.
        -13    1    5    5    0    0  0.53362636839E+01 -0.12691980668E+01 -0.22272267472E+02  0.22937752117E+02  0.00000000000E+00 0. -1.
          1    1    6    6  503    0  0.47274327682E+02  0.70068835759E+02  0.41174569437E+03  0.42033203617E+03  0.00000000000E+00 0. -1.
         -1    1    6    6    0  503  0.14099040948E+03  0.14309523772E+03  0.49120287614E+03  0.53069276248E+03  0.00000000000E+00 0.  1.
<mgrwt>
<rscale>  0 0.11535410E+04</rscale>
<asrwt>0</asrwt>
<pdfrwt beam="1">  1        2 0.23633236E+00 0.11535410E+04</pdfrwt>
<pdfrwt beam="2">  1       -1 0.33316251E-01 0.11535410E+04</pdfrwt>
<totfact> 0.11568196E+02</totfact>
</mgrwt>
</event>
<event>
12    7  0.2466188E-007  0.1300336E+04  0.7818608E-02  0.9029299E-01
         -1   -1    0    0    0  501 -0.00000000000E+00  0.00000000000E+00  0.42122772486E+03  0.42122772486E+03  0.00000000000E+00 0.  1.
          2   -1    0    0  501    0  0.00000000000E+00 -0.00000000000E+00 -0.10035382330E+04  0.10035382330E+04  0.00000000000E+00 0. -1.
         24    2    1    2    0    0  0.11625731000E+03 -0.87909766653E+02  0.17165424857E+03  0.23965393272E+03  0.82005714517E+02 0.  0.
        254    2    1    2    0    0 -0.11625731000E+03  0.87909766653E+02 -0.75396475675E+03  0.11851120252E+04  0.90265373684E+03 0.  0.
         23    2    4    4    0    0 -0.31713026148E+03 -0.17267081566E+03 -0.75709654677E+03  0.84368234255E+03  0.90652637436E+02 0.  0.
         23    2    4    4    0    0  0.20087295148E+03  0.26058058231E+03  0.31317900108E+01  0.34142968265E+03  0.91171473446E+02 0.  0.
          2    1    3    3  502    0  0.79243881322E+02 -0.91645823054E+02  0.93298992913E+02  0.15291583204E+03  0.00000000000E+00 0. -1.
         -1    1    3    3    0  502  0.37013428681E+02  0.37360564008E+01  0.78355255658E+02  0.86738100679E+02  0.00000000000E+00 0.  1.
         13    1    5    5    0    0 -0.20416084688E+03 -0.93248484197E+02 -0.37073793032E+03  0.43338613750E+03  0.00000000000E+00 0.  1.
        -13    1    5    5    0    0 -0.11296941460E+03 -0.79422331461E+02 -0.38635861645E+03  0.41029620505E+03  0.00000000000E+00 0. -1.
          4    1    6    6  503    0  0.68650115380E+02  0.32584811960E+02  0.15589232602E+02  0.77573400630E+02  0.00000000000E+00 0. -1.
         -4    1    6    6    0  503  0.13222283610E+03  0.22799577035E+03 -0.12457442591E+02  0.26385628202E+03  0.00000000000E+00 0.  1.
<mgrwt>
<rscale>  0 0.13003355E+04</rscale>
<asrwt>0</asrwt>
<pdfrwt beam="1">  1        2 0.15439050E+00 0.13003355E+04</pdfrwt>
<pdfrwt beam="2">  1       -1 0.64804266E-01 0.13003355E+04</pdfrwt>
<totfact> 0.67650957E+01</totfact>
</mgrwt>
</event>
<event>
12    7  0.2466188E-007  0.3596678E+04  0.7818608E-02  0.8091253E-01
         -1   -1    0    0    0  501 -0.00000000000E+00  0.00000000000E+00  0.14272588953E+04  0.14272588953E+04  0.00000000000E+00 0.  1.
          2   -1    0    0  501    0  0.00000000000E+00 -0.00000000000E+00 -0.22658979657E+04  0.22658979657E+04  0.00000000000E+00 0. -1.
         24    2    1    2    0    0  0.32525117669E+03 -0.16533342953E+04 -0.42429933684E+03  0.17393095320E+04  0.76583946215E+02 0.  0.
        254    2    1    2    0    0 -0.32525117669E+03  0.16533342953E+04 -0.41433973356E+03  0.19538473289E+04  0.89807535876E+03 0.  0.
         23    2    4    4    0    0 -0.44732675520E+02  0.33463928316E+02 -0.28289252857E+03  0.30218478218E+03  0.90369315074E+02 0.  0.
         23    2    4    4    0    0 -0.28051850117E+03  0.16198703670E+04 -0.13144720500E+03  0.16516625467E+04  0.89666968818E+02 0.  0.
          2    1    3    3  502    0  0.16145049289E+03 -0.10028161351E+04 -0.26893099976E+03  0.10507284830E+04  0.00000000000E+00 0. -1.
         -1    1    3    3    0  502  0.16380068380E+03 -0.65051816023E+03 -0.15536833707E+03  0.68858104894E+03  0.00000000000E+00 0.  1.
         13    1    5    5    0    0 -0.46619596728E+02  0.24771198699E+02 -0.28740302170E+03  0.29221138918E+03  0.00000000000E+00 0. -1.
        -13    1    5    5    0    0  0.18869212085E+01  0.86927296166E+01  0.45104931287E+01  0.99733930083E+01  0.00000000000E+00 0.  1.
          2    1    6    6  503    0 -0.16889543667E+03  0.10231392424E+04 -0.12549666116E+03  0.10445520522E+04  0.00000000000E+00 0. -1.
         -2    1    6    6    0  503 -0.11162306450E+03  0.59673112460E+03 -0.59505438392E+01  0.60711049453E+03  0.00000000000E+00 0.  1.
<mgrwt>
<rscale>  0 0.35966779E+04</rscale>
<asrwt>0</asrwt>
<pdfrwt beam="1">  1        2 0.34859968E+00 0.35966779E+04</pdfrwt>
<pdfrwt beam="2">  1       -1 0.21957829E+00 0.35966779E+04</pdfrwt>
<totfact> 0.48665012E-01</totfact>
</mgrwt>
</event>
<event>
12    7  0.2466188E-007  0.2127955E+04  0.7818608E-02  0.8549028E-01
          2   -1    0    0  501    0  0.00000000000E+00  0.00000000000E+00  0.26309271632E+04  0.26309271632E+04  0.00000000000E+00 0. -1.
         -1   -1    0    0    0  501 -0.00000000000E+00 -0.00000000000E+00 -0.43028483832E+03  0.43028483832E+03  0.00000000000E+00 0.  1.
         24    2    1    2    0    0  0.38138468255E+03  0.28293190092E+03 -0.14033556146E+03  0.50160420254E+03  0.80049794251E+02 0.  0.
        254    2    1    2    0    0 -0.38138468255E+03 -0.28293190092E+03  0.23409778864E+04  0.25596077990E+04  0.91973359384E+03 0.  0.
         23    2    4    4    0    0 -0.39076159868E+03  0.16865210436E+03  0.17873684089E+04  0.18395448404E+04  0.90006840648E+02 0.  0.
         23    2    4    4    0    0  0.93769161390E+01 -0.45158400528E+03  0.55360947747E+03  0.72006295862E+03  0.89393346764E+02 0.  0.
          2    1    3    3  502    0  0.14492096477E+03  0.79626806828E+02 -0.16899331269E+02  0.16621703220E+03  0.00000000000E+00 0. -1.
         -1    1    3    3    0  502  0.23646371778E+03  0.20330509409E+03 -0.12343623019E+03  0.33538717035E+03  0.00000000000E+00 0.  1.
         13    1    5    5    0    0 -0.13405730787E+03  0.74788294526E+02  0.82284373943E+03  0.83704030387E+03  0.00000000000E+00 0.  1.
        -13    1    5    5    0    0 -0.25670429082E+03  0.93863809836E+02  0.96452466948E+03  0.10025045365E+04  0.00000000000E+00 0. -1.
          2    1    6    6  503    0 -0.11291290775E+02 -0.42061082114E+03  0.52664575589E+03  0.67408954027E+03  0.00000000000E+00 0. -1.
         -2    1    6    6    0  503  0.20668206914E+02 -0.30973184148E+02  0.26963721583E+02  0.45973418351E+02  0.00000000000E+00 0.  1.
<mgrwt>
<rscale>  0 0.21279550E+04</rscale>
<asrwt>0</asrwt>
<pdfrwt beam="1">  1        2 0.40475802E+00 0.21279550E+04</pdfrwt>
<pdfrwt beam="2">  1       -1 0.66197669E-01 0.21279550E+04</pdfrwt>
<totfact> 0.70653892E+00</totfact>
</mgrwt>
</event>
<event>
12    7  0.2466188E-007  0.1821926E+04  0.7818608E-02  0.8694725E-01
          2   -1    0    0  501    0  0.00000000000E+00  0.00000000000E+00  0.29210119319E+04  0.29210119319E+04  0.00000000000E+00 0. -1.
         -1   -1    0    0    0  501 -0.00000000000E+00 -0.00000000000E+00 -0.28409812755E+03  0.28409812755E+03  0.00000000000E+00 0.  1.
         24    2    1    2    0    0  0.50848260950E+03  0.39802547472E+03  0.59195657336E+03  0.87951742760E+03  0.78482342019E+02 0.  0.
        254    2    1    2    0    0 -0.50848260950E+03 -0.39802547472E+03  0.20449572310E+04  0.23255926318E+04  0.89975117118E+03 0.  0.
         23    2    4    4    0    0 -0.61787886754E+03 -0.56366571523E+02  0.74322837492E+03  0.97240654033E+03  0.90744570470E+02 0.  0.
         23    2    4    4    0    0  0.10939625804E+03 -0.34165890320E+03  0.13017288561E+04  0.13531860915E+04  0.88973232679E+02 0.  0.
          2    1    3    3  502    0  0.41124934075E+02  0.17146078226E+02  0.64867335488E+02  0.78695739494E+02  0.00000000000E+00 0. -1.
         -1    1    3    3    0  502  0.46735767542E+03  0.38087939649E+03  0.52708923788E+03  0.80082168810E+03  0.00000000000E+00 0.  1.
         13    1    5    5    0    0 -0.28830000880E+02 -0.59042558336E+01  0.11278362736E+02  0.31515562088E+02  0.00000000000E+00 0. -1.
        -13    1    5    5    0    0 -0.58904886666E+03 -0.50462315690E+02  0.73195001218E+03  0.94089097825E+03  0.00000000000E+00 0.  1.
          4    1    6    6  503    0 -0.12454533603E+02 -0.30100566856E+02  0.77421683492E+02  0.83995693979E+02  0.00000000000E+00 0. -1.
         -4    1    6    6    0  503  0.12185079164E+03 -0.31155833634E+03  0.12243071726E+04  0.12691903975E+04  0.00000000000E+00 0.  1.
<mgrwt>
<rscale>  0 0.18219265E+04</rscale>
<asrwt>0</asrwt>
<pdfrwt beam="1">  1        2 0.44938643E+00 0.18219265E+04</pdfrwt>
<pdfrwt beam="2">  1       -1 0.43707406E-01 0.18219265E+04</pdfrwt>
<totfact> 0.10852827E+01</totfact>
</mgrwt>
</event>
<event>
12    7  0.2466188E-007  0.1644921E+04  0.7818608E-02  0.8793417E-01
          2   -1    0    0  501    0  0.00000000000E+00  0.00000000000E+00  0.33802752196E+03  0.33802752196E+03  0.00000000000E+00 0. -1.
         -1   -1    0    0    0  501 -0.00000000000E+00 -0.00000000000E+00 -0.20011437192E+04  0.20011437192E+04  0.00000000000E+00 0.  1.
         24    2    1    2    0    0 -0.68095379523E+02  0.53236877568E+03 -0.30207512687E+03  0.62133888637E+03  0.82213961173E+02 0.  0.
        254    2    1    2    0    0  0.68095379523E+02 -0.53236877568E+03 -0.13610410704E+04  0.17178323548E+04  0.90025646895E+03 0.  0.
         23    2    4    4    0    0 -0.52951235065E+02  0.19105838476E+03 -0.67548423252E+03  0.70973217973E+03  0.90186910739E+02 0.  0.
         23    2    4    4    0    0  0.12104661459E+03 -0.72342716044E+03 -0.68555683786E+03  0.10081001751E+04  0.90987063306E+02 0.  0.
          2    1    3    3  502    0 -0.16812059780E+02  0.40516516121E+03 -0.21666345676E+03  0.45976570849E+03  0.00000000000E+00 0. -1.
         -1    1    3    3    0  502 -0.51283319743E+02  0.12720361447E+03 -0.85411670107E+02  0.16157317788E+03  0.00000000000E+00 0.  1.
         13    1    5    5    0    0 -0.25861016106E+02  0.29819607476E+02 -0.26435401502E+03  0.26728457943E+03  0.00000000000E+00 0.  1.
        -13    1    5    5    0    0 -0.27090218959E+02  0.16123877728E+03 -0.41113021751E+03  0.44244760030E+03  0.00000000000E+00 0. -1.
          4    1    6    6  503    0  0.45921660575E+02 -0.12064068680E+03 -0.15371861705E+03  0.20072963769E+03  0.00000000000E+00 0. -1.
         -4    1    6    6    0  503  0.75124954012E+02 -0.60278647364E+03 -0.53183822082E+03  0.80737053739E+03  0.00000000000E+00 0.  1.
<mgrwt>
<rscale>  0 0.16449215E+04</rscale>
<asrwt>0</asrwt>
<pdfrwt beam="1">  1        2 0.52004234E-01 0.16449215E+04</pdfrwt>
<pdfrwt beam="2">  1       -1 0.30786826E+00 0.16449215E+04</pdfrwt>
<totfact> 0.30910493E+00</totfact>
</mgrwt>
</event>
<event>
12    7  0.2466188E-007  0.3617621E+04  0.7818608E-02  0.8086467E-01
         -1   -1    0    0    0  501 -0.00000000000E+00  0.00000000000E+00  0.19471969125E+04  0.19471969125E+04  0.00000000000E+00 0.  1.
          2   -1    0    0  501    0  0.00000000000E+00 -0.00000000000E+00 -0.16802593520E+04  0.16802593520E+04  0.00000000000E+00 0. -1.
         24    2    1    2    0    0  0.13576533940E+04 -0.10074092774E+04  0.25889478084E+03  0.17121232468E+04  0.79014646749E+02 0.  0.
        254    2    1    2    0    0 -0.13576533940E+04  0.10074092774E+04  0.80427796793E+01  0.19153330176E+04  0.90018869774E+03 0.  0.
         23    2    4    4    0    0 -0.12415625743E+04  0.43941582483E+03 -0.76506383920E+02  0.13223623012E+04  0.90691431503E+02 0.  0.
         23    2    4    4    0    0 -0.11609081971E+03  0.56799345254E+03  0.84549163599E+02  0.59297071641E+03  0.91499010424E+02 0.  0.
          4    1    3    3  502    0  0.10670390453E+04 -0.82638791021E+03  0.19099079036E+03  0.13630725529E+04  0.00000000000E+00 0. -1.
         -3    1    3    3    0  502  0.29061434874E+03 -0.18102136716E+03  0.67903990478E+02  0.34905069400E+03  0.00000000000E+00 0.  1.
         13    1    5    5    0    0 -0.10878388465E+03  0.56054449601E+02  0.13341100659E+02  0.12310166468E+03  0.00000000000E+00 0. -1.
        -13    1    5    5    0    0 -0.11327786897E+04  0.38336137522E+03 -0.89847484579E+02  0.11992606365E+04  0.00000000000E+00 0.  1.
          3    1    6    6  503    0 -0.17653498250E+02  0.13263274277E+03 -0.17953827654E+02  0.13500159400E+03  0.00000000000E+00 0. -1.
         -3    1    6    6    0  503 -0.98437321458E+02  0.43536070976E+03  0.10250299125E+03  0.45796912241E+03  0.00000000000E+00 0.  1.
<mgrwt>
<rscale>  0 0.36176212E+04</rscale>
<asrwt>0</asrwt>
<pdfrwt beam="1">  1        2 0.25850144E+00 0.36176212E+04</pdfrwt>
<pdfrwt beam="2">  1       -1 0.29956876E+00 0.36176212E+04</pdfrwt>
<totfact> 0.30966516E-01</totfact>
</mgrwt>
</event>
<event>
12    7  0.2466188E-007  0.3269712E+04  0.7818608E-02  0.8170645E-01
          2   -1    0    0  501    0  0.00000000000E+00  0.00000000000E+00  0.18466219502E+04  0.18466219502E+04  0.00000000000E+00 0. -1.
         -1   -1    0    0    0  501 -0.00000000000E+00 -0.00000000000E+00 -0.14473747555E+04  0.14473747555E+04  0.00000000000E+00 0.  1.
         24    2    1    2    0    0 -0.11425118846E+04 -0.27266190962E+03  0.11390231747E+04  0.16382103991E+04  0.81741028423E+02 0.  0.
        254    2    1    2    0    0  0.11425118846E+04  0.27266190962E+03 -0.73977598007E+03  0.16557863066E+04  0.90259729065E+03 0.  0.
         23    2    4    4    0    0 -0.11902368466E+03 -0.67516140277E+02 -0.35628514234E+02  0.16860117705E+03  0.91825373231E+02 0.  0.
         23    2    4    4    0    0  0.12615355692E+04  0.34017804990E+03 -0.70414746583E+03  0.14871851296E+04  0.93289108778E+02 0.  0.
          4    1    3    3  502    0 -0.78396740921E+03 -0.21886627129E+03  0.81780252626E+03  0.11538233467E+04  0.00000000000E+00 0. -1.
         -3    1    3    3    0  502 -0.35854447538E+03 -0.53795638332E+02  0.32122064848E+03  0.48438705240E+03  0.00000000000E+00 0.  1.
         13    1    5    5    0    0 -0.67228580765E+02 -0.63342372274E+02  0.17803283362E+02  0.94068565926E+02  0.00000000000E+00 0.  1.
        -13    1    5    5    0    0 -0.51795103898E+02 -0.41737680025E+01 -0.53431797597E+02  0.74532611128E+02  0.00000000000E+00 0. -1.
          1    1    6    6  503    0  0.57290871661E+03  0.20008147265E+03 -0.30923715214E+03  0.68109074985E+03  0.00000000000E+00 0. -1.
         -1    1    6    6    0  503  0.68862685264E+03  0.14009657724E+03 -0.39491031369E+03  0.80609437971E+03  0.00000000000E+00 0.  1.
<mgrwt>
<rscale>  0 0.32697119E+04</rscale>
<asrwt>0</asrwt>
<pdfrwt beam="1">  1        2 0.28409569E+00 0.32697119E+04</pdfrwt>
<pdfrwt beam="2">  1       -1 0.22267304E+00 0.32697119E+04</pdfrwt>
<totfact> 0.81791715E-01</totfact>
</mgrwt>
</event>
<event>
12    7  0.2466188E-007  0.2174108E+04  0.7818608E-02  0.8529283E-01
          2   -1    0    0  501    0  0.00000000000E+00  0.00000000000E+00  0.84876202427E+03  0.84876202427E+03  0.00000000000E+00 0. -1.
         -1   -1    0    0    0  501 -0.00000000000E+00 -0.00000000000E+00 -0.13922469289E+04  0.13922469289E+04  0.00000000000E+00 0.  1.
         24    2    1    2    0    0 -0.27300165186E+02  0.86508372517E+03  0.24701449000E+02  0.86966577812E+03  0.81198851462E+02 0.  0.
        254    2    1    2    0    0  0.27300165186E+02 -0.86508372517E+03 -0.56818635361E+03  0.13713431750E+04  0.89923924553E+03 0.  0.
         23    2    4    4    0    0  0.26634995421E+03 -0.31834208644E+03 -0.63516541590E+03  0.76387530858E+03  0.88240576826E+02 0.  0.
         23    2    4    4    0    0 -0.23904978902E+03 -0.54674163873E+03  0.66979062283E+02  0.60746786645E+03  0.91977132138E+02 0.  0.
          2    1    3    3  502    0 -0.14407644812E+02  0.45319635703E+03  0.53505170018E+02  0.45657126659E+03  0.00000000000E+00 0. -1.
         -1    1    3    3    0  502 -0.12892520375E+02  0.41188736814E+03 -0.28803721018E+02  0.41309451154E+03  0.00000000000E+00 0.  1.
         13    1    5    5    0    0  0.20444778585E+03 -0.22616773688E+03 -0.39235888286E+03  0.49688654168E+03  0.00000000000E+00 0. -1.
        -13    1    5    5    0    0  0.61902168361E+02 -0.92174349558E+02 -0.24280653304E+03  0.26698876690E+03  0.00000000000E+00 0.  1.
          4    1    6    6  503    0 -0.15401528427E+03 -0.32659434394E+03  0.84419152852E+02  0.37082498116E+03  0.00000000000E+00 0.  1.
         -4    1    6    6    0  503 -0.85034504750E+02 -0.22014729479E+03 -0.17440090569E+02  0.23664288530E+03  0.00000000000E+00 0. -1.
<mgrwt>
<rscale>  0 0.21741079E+04</rscale>
<asrwt>0</asrwt>
<pdfrwt beam="1">  1        2 0.13057877E+00 0.21741079E+04</pdfrwt>
<pdfrwt beam="2">  1       -1 0.21419183E+00 0.21741079E+04</pdfrwt>
<totfact> 0.40015949E+00</totfact>
</mgrwt>
</event>
<event>
12    7  0.2466188E-007  0.2013522E+04  0.7818608E-02  0.8600325E-01
         -1   -1    0    0    0  501 -0.00000000000E+00  0.00000000000E+00  0.78659287366E+03  0.78659287366E+03  0.00000000000E+00 0.  1.
          2   -1    0    0  501    0  0.00000000000E+00 -0.00000000000E+00 -0.12885541759E+04  0.12885541759E+04  0.00000000000E+00 0. -1.
         24    2    1    2    0    0  0.57780063398E+03 -0.53336046125E+03 -0.29167454522E+02  0.79113422164E+03  0.81949142682E+02 0.  0.
        254    2    1    2    0    0 -0.57780063398E+03  0.53336046125E+03 -0.47279384767E+03  0.12840128279E+04  0.89823602996E+03 0.  0.
         23    2    4    4    0    0 -0.70297334067E+03  0.86990672583E+02 -0.35131235343E+03  0.79615354399E+03  0.93280229076E+02 0.  0.
         23    2    4    4    0    0  0.12517270669E+03  0.44636978867E+03 -0.12148149424E+03  0.48785928388E+03  0.91294757201E+02 0.  0.
          2    1    3    3  502    0  0.22875063181E+03 -0.24238440803E+03 -0.45739129782E+02  0.33640618425E+03  0.00000000000E+00 0. -1.
         -1    1    3    3    0  502  0.34905000216E+03 -0.29097605323E+03  0.16571675260E+02  0.45472803738E+03  0.00000000000E+00 0.  1.
         13    1    5    5    0    0 -0.41784399670E+03  0.54082789789E+01 -0.20489824110E+03  0.46540965210E+03  0.00000000000E+00 0.  1.
        -13    1    5    5    0    0 -0.28512934396E+03  0.81582393604E+02 -0.14641411234E+03  0.33074389190E+03  0.00000000000E+00 0. -1.
          2    1    6    6  503    0  0.11379311028E+03  0.25355696208E+03 -0.90216356992E+02  0.29219684467E+03  0.00000000000E+00 0. -1.
         -2    1    6    6    0  503  0.11379596410E+02  0.19281282659E+03 -0.31265137243E+02  0.19566243921E+03  0.00000000000E+00 0.  1.
<mgrwt>
<rscale>  0 0.20135218E+04</rscale>
<asrwt>0</asrwt>
<pdfrwt beam="1">  1        2 0.19823910E+00 0.20135218E+04</pdfrwt>
<pdfrwt beam="2">  1       -1 0.12101429E+00 0.20135218E+04</pdfrwt>
<totfact> 0.10770515E+01</totfact>
</mgrwt>
</event>
<event>
12    7  0.2466188E-007  0.1102502E+04  0.7818608E-02  0.9202756E-01
          2   -1    0    0  501    0  0.00000000000E+00  0.00000000000E+00  0.20020281391E+04  0.20020281391E+04  0.00000000000E+00 0. -1.
         -1   -1    0    0    0  501 -0.00000000000E+00 -0.00000000000E+00 -0.15178496866E+03  0.15178496866E+03  0.00000000000E+00 0.  1.
         24    2    1    2    0    0 -0.15602538945E+03 -0.27639019414E+02  0.18147931546E+03  0.25336831860E+03  0.78440585054E+02 0.  0.
        254    2    1    2    0    0  0.15602538945E+03  0.27639019414E+02  0.16687638550E+04  0.19004447892E+04  0.89543830352E+03 0.  0.
         23    2    4    4    0    0  0.48325702790E+03  0.16998618066E+03  0.11702567420E+04  0.12807263473E+04  0.91249536997E+02 0.  0.
         23    2    4    4    0    0 -0.32723163845E+03 -0.14234716125E+03  0.49850711304E+03  0.61971844185E+03  0.90544717684E+02 0.  0.
          4    1    3    3  502    0 -0.69872307426E+02  0.25550733748E+02  0.62729483511E+02  0.97313757721E+02  0.00000000000E+00 0. -1.
         -3    1    3    3    0  502 -0.86153082026E+02 -0.53189753163E+02  0.11874983194E+03  0.15605456088E+03  0.00000000000E+00 0.  1.
         13    1    5    5    0    0  0.68097242693E+02 -0.70652384279E+01  0.17489276869E+03  0.18781542161E+03  0.00000000000E+00 0. -1.
        -13    1    5    5    0    0  0.41515978521E+03  0.17705141909E+03  0.99536397327E+03  0.10929109257E+04  0.00000000000E+00 0.  1.
          1    1    6    6  503    0 -0.11687609802E+03 -0.46281043989E+02  0.25263444028E+03  0.28218100173E+03  0.00000000000E+00 0. -1.
         -1    1    6    6    0  503 -0.21035554042E+03 -0.96066117262E+02  0.24587267276E+03  0.33753744012E+03  0.00000000000E+00 0.  1.
<mgrwt>
<rscale>  0 0.11025022E+04</rscale>
<asrwt>0</asrwt>
<pdfrwt beam="1">  1        2 0.30800431E+00 0.11025022E+04</pdfrwt>
<pdfrwt beam="2">  1       -1 0.23351535E-01 0.11025022E+04</pdfrwt>
<totfact> 0.11888710E+02</totfact>
</mgrwt>
</event>
<event>
12    7  0.2466188E-007  0.2558041E+04  0.7818608E-02  0.8382595E-01
          2   -1    0    0  501    0  0.00000000000E+00  0.00000000000E+00  0.12162010358E+04  0.12162010358E+04  0.00000000000E+00 0. -1.
         -1   -1    0    0    0  501 -0.00000000000E+00 -0.00000000000E+00 -0.13450847470E+04  0.13450847470E+04  0.00000000000E+00 0.  1.
         24    2    1    2    0    0 -0.65684014535E+03  0.73531987382E+03 -0.59487827137E+03  0.11542470789E+04  0.79195125554E+02 0.  0.
        254    2    1    2    0    0  0.65684014535E+03 -0.73531987382E+03  0.46599456023E+03  0.14070387039E+04  0.88908531135E+03 0.  0.
         23    2    4    4    0    0  0.12462361204E+03 -0.58658765228E+03 -0.95762411044E+02  0.61352993881E+03  0.87363768019E+02 0.  0.
         23    2    4    4    0    0  0.53221653331E+03 -0.14873222155E+03  0.56175697128E+03  0.79350876514E+03  0.93324988708E+02 0.  0.
          4    1    3    3  502    0 -0.27059778403E+03  0.27791842327E+03 -0.27496851268E+03  0.47546765787E+03  0.00000000000E+00 0. -1.
         -3    1    3    3    0  502 -0.38624236132E+03  0.45740145055E+03 -0.31990975869E+03  0.67877942099E+03  0.00000000000E+00 0.  1.
         13    1    5    5    0    0  0.10312018492E+03 -0.48449188874E+03 -0.11223879615E+03  0.50790127993E+03  0.00000000000E+00 0.  1.
        -13    1    5    5    0    0  0.21503427125E+02 -0.10209576354E+03  0.16476385107E+02  0.10562865888E+03  0.00000000000E+00 0. -1.
          4    1    6    6  503    0  0.15653548093E+03 -0.51924064576E+00  0.16097979054E+03  0.22453979461E+03  0.00000000000E+00 0. -1.
         -4    1    6    6    0  503  0.37568105238E+03 -0.14821298090E+03  0.40077718073E+03  0.56896897053E+03  0.00000000000E+00 0.  1.
<mgrwt>
<rscale>  0 0.25580410E+04</rscale>
<asrwt>0</asrwt>
<pdfrwt beam="1">  1        2 0.18710785E+00 0.25580410E+04</pdfrwt>
<pdfrwt beam="2">  1       -1 0.20693612E+00 0.25580410E+04</pdfrwt>
<totfact> 0.25273116E+00</totfact>
</mgrwt>
</event>
<event>
12    7  0.2466188E-007  0.1528223E+04  0.7818608E-02  0.8865899E-01
         -1   -1    0    0    0  501 -0.00000000000E+00  0.00000000000E+00  0.37280188828E+03  0.37280188828E+03  0.00000000000E+00 0.  1.
          2   -1    0    0  501    0  0.00000000000E+00 -0.00000000000E+00 -0.15661582707E+04  0.15661582707E+04  0.00000000000E+00 0. -1.
         24    2    1    2    0    0 -0.31545076804E+03 -0.17403178444E+03 -0.82219872400E+03  0.90094907874E+03  0.76826113219E+02 0.  0.
        254    2    1    2    0    0  0.31545076804E+03  0.17403178444E+03 -0.37115765840E+03  0.10380110802E+04  0.89995152436E+03 0.  0.
         23    2    4    4    0    0  0.84753342610E+02  0.16928565978E+03  0.27461575175E+03  0.34606384180E+03  0.92225852132E+02 0.  0.
         23    2    4    4    0    0  0.23069742543E+03  0.47461246580E+01 -0.64577341015E+03  0.69194723841E+03  0.92324729591E+02 0.  0.
          2    1    3    3  502    0 -0.22161710574E+03 -0.14639373079E+03 -0.66135030280E+03  0.71269172086E+03  0.00000000000E+00 0. -1.
         -1    1    3    3    0  502 -0.93833662309E+02 -0.27638053651E+02 -0.16084842121E+03  0.18825735788E+03  0.00000000000E+00 0.  1.
         13    1    5    5    0    0  0.55933405339E+01  0.11136894401E+03  0.16275710732E+03  0.19729217707E+03  0.00000000000E+00 0. -1.
        -13    1    5    5    0    0  0.79160002076E+02  0.57916715778E+02  0.11185864442E+03  0.14877166473E+03  0.00000000000E+00 0.  1.
          1    1    6    6  503    0  0.13789698336E+03  0.31411520377E+02 -0.28063630303E+03  0.31425944093E+03  0.00000000000E+00 0. -1.
         -1    1    6    6    0  503  0.92800442074E+02 -0.26665395719E+02 -0.36513710711E+03  0.37768779748E+03  0.00000000000E+00 0.  1.
<mgrwt>
<rscale>  0 0.15282235E+04</rscale>
<asrwt>0</asrwt>
<pdfrwt beam="1">  1        2 0.24094742E+00 0.15282235E+04</pdfrwt>
<pdfrwt beam="2">  1       -1 0.57354137E-01 0.15282235E+04</pdfrwt>
<totfact> 0.39397352E+01</totfact>
</mgrwt>
</event>
<event>
12    7  0.2466188E-007  0.2872515E+04  0.7818608E-02  0.8281102E-01
          2   -1    0    0  501    0  0.00000000000E+00  0.00000000000E+00  0.13244041345E+04  0.13244041345E+04  0.00000000000E+00 0. -1.
         -1   -1    0    0    0  501 -0.00000000000E+00 -0.00000000000E+00 -0.15575574351E+04  0.15575574351E+04  0.00000000000E+00 0.  1.
         24    2    1    2    0    0  0.51909533563E+03 -0.99047022367E+03  0.54860513116E+03  0.12480775809E+04  0.78986243599E+02 0.  0.
        254    2    1    2    0    0 -0.51909533563E+03  0.99047022367E+03 -0.78175843174E+03  0.16338839886E+04  0.89885449951E+03 0.  0.
         23    2    4    4    0    0 -0.50867764018E+03  0.96109233051E+03 -0.28484826955E+03  0.11278935690E+04  0.92487604169E+02 0.  0.
         23    2    4    4    0    0 -0.10417695455E+02  0.29377893163E+02 -0.49691016219E+03  0.50599041965E+03  0.90194270902E+02 0.  0.
          2    1    3    3  502    0  0.24356619063E+03 -0.38264563995E+03  0.22990616323E+03  0.50852632074E+03  0.00000000000E+00 0. -1.
         -1    1    3    3    0  502  0.27552914500E+03 -0.60782458372E+03  0.31869896793E+03  0.73955126021E+03  0.00000000000E+00 0.  1.
         13    1    5    5    0    0 -0.21668087033E+03  0.36667862161E+03 -0.69831370753E+02  0.43160193634E+03  0.00000000000E+00 0.  1.
        -13    1    5    5    0    0 -0.29199676985E+03  0.59441370890E+03 -0.21501689880E+03  0.69629163265E+03  0.00000000000E+00 0. -1.
          2    1    6    6  503    0 -0.19000664244E+01 -0.29103643057E+02 -0.26769565328E+03  0.26927977101E+03  0.00000000000E+00 0. -1.
         -2    1    6    6    0  503 -0.85176290301E+01  0.58481536220E+02 -0.22921450891E+03  0.23671064864E+03  0.00000000000E+00 0.  1.
<mgrwt>
<rscale>  0 0.28725149E+04</rscale>
<asrwt>0</asrwt>
<pdfrwt beam="1">  1        2 0.20375448E+00 0.28725149E+04</pdfrwt>
<pdfrwt beam="2">  1       -1 0.23962422E+00 0.28725149E+04</pdfrwt>
<totfact> 0.12853610E+00</totfact>
</mgrwt>
</event>
<event>
12    7  0.2466188E-007  0.1268924E+04  0.7818608E-02  0.9054578E-01
         -1   -1    0    0    0  501 -0.00000000000E+00  0.00000000000E+00  0.37826917094E+03  0.37826917094E+03  0.00000000000E+00 0.  1.
          2   -1    0    0  501    0  0.00000000000E+00 -0.00000000000E+00 -0.10641681835E+04  0.10641681835E+04  0.00000000000E+00 0. -1.
         24    2    1    2    0    0  0.17752627520E+03 -0.21157713765E+03 -0.20604975544E+02  0.28828635851E+03  0.80024970594E+02 0.  0.
        254    2    1    2    0    0 -0.17752627520E+03  0.21157713765E+03 -0.66529403705E+03  0.11541509960E+04  0.90175822824E+03 0.  0.
         23    2    4    4    0    0 -0.26456215944E+03  0.29411021814E+02  0.14327021853E+03  0.31574070783E+03  0.91146555918E+02 0.  0.
         23    2    4    4    0    0  0.87035884237E+02  0.18216611584E+03 -0.80856425558E+03  0.83841028814E+03  0.91629236291E+02 0.  0.
          2    1    3    3  502    0  0.76840202057E+02 -0.14279073444E+03  0.10337344391E+02  0.16248221805E+03  0.00000000000E+00 0. -1.
         -1    1    3    3    0  502  0.10068607314E+03 -0.68786403214E+02 -0.30942319935E+02  0.12580414045E+03  0.00000000000E+00 0.  1.
         13    1    5    5    0    0 -0.23390766361E+03 -0.55569388963E+01  0.12856189606E+03  0.26696785534E+03  0.00000000000E+00 0. -1.
        -13    1    5    5    0    0 -0.30654495826E+02  0.34967960710E+02  0.14708322470E+02  0.48772852494E+02  0.00000000000E+00 0.  1.
          4    1    6    6  503    0  0.27902358672E+02  0.54642206195E+02 -0.11103675245E+03  0.12686005168E+03  0.00000000000E+00 0. -1.
         -4    1    6    6    0  503  0.59133525565E+02  0.12752390965E+03 -0.69752750314E+03  0.71155023646E+03  0.00000000000E+00 0.  1.
<mgrwt>
<rscale>  0 0.12689240E+04</rscale>
<asrwt>0</asrwt>
<pdfrwt beam="1">  1        2 0.16371818E+00 0.12689240E+04</pdfrwt>
<pdfrwt beam="2">  1       -1 0.58195257E-01 0.12689240E+04</pdfrwt>
<totfact> 0.76860159E+01</totfact>
</mgrwt>
</event>
<event>
12    7  0.2466188E-007  0.1288417E+04  0.7818608E-02  0.9038801E-01
         -1   -1    0    0    0  501 -0.00000000000E+00  0.00000000000E+00  0.52268912558E+03  0.52268912558E+03  0.00000000000E+00 0.  1.
          2   -1    0    0  501    0  0.00000000000E+00 -0.00000000000E+00 -0.79397982149E+03  0.79397982149E+03  0.00000000000E+00 0. -1.
         24    2    1    2    0    0  0.30338006766E+03  0.28044512298E+02  0.27623201258E+02  0.31830986006E+03  0.87932733604E+02 0.  0.
        254    2    1    2    0    0 -0.30338006766E+03 -0.28044512298E+02 -0.29891389717E+03  0.99835908701E+03  0.90252168315E+03 0.  0.
         23    2    4    4    0    0 -0.54016701866E+03 -0.20812605259E+03 -0.35001693547E+03  0.68259541394E+03  0.91256683035E+02 0.  0.
         23    2    4    4    0    0  0.23678695100E+03  0.18008154029E+03  0.51103038303E+02  0.31576367307E+03  0.92724082019E+02 0.  0.
          2    1    3    3  502    0  0.14966892691E+03  0.34242587835E+02 -0.25337369152E+02  0.15561273977E+03  0.00000000000E+00 0. -1.
         -1    1    3    3    0  502  0.15371114075E+03 -0.61980755379E+01  0.52960570410E+02  0.16269712029E+03  0.00000000000E+00 0.  1.
         13    1    5    5    0    0 -0.25837529876E+02 -0.32784627592E+02 -0.15724557651E+02  0.44605733598E+02  0.00000000000E+00 0.  1.
        -13    1    5    5    0    0 -0.51432948879E+03 -0.17534142500E+03 -0.33429237782E+03  0.63798968034E+03  0.00000000000E+00 0. -1.
          2    1    6    6  503    0  0.23291146052E+03  0.18408988574E+03  0.62218576486E+02  0.30332818157E+03  0.00000000000E+00 0. -1.
         -2    1    6    6    0  503  0.38754904741E+01 -0.40083454458E+01 -0.11115538182E+02  0.12435491495E+02  0.00000000000E+00 0.  1.
<mgrwt>
<rscale>  0 0.12884170E+04</rscale>
<asrwt>0</asrwt>
<pdfrwt beam="1">  1        2 0.12215074E+00 0.12884170E+04</pdfrwt>
<pdfrwt beam="2">  1       -1 0.80413712E-01 0.12884170E+04</pdfrwt>
<totfact> 0.60146487E+01</totfact>
</mgrwt>
</event>
<event>
12    7  0.2466188E-007  0.2265003E+04  0.7818608E-02  0.8491849E-01
         -1   -1    0    0    0  501 -0.00000000000E+00  0.00000000000E+00  0.45945155662E+03  0.45945155662E+03  0.00000000000E+00 0.  1.
          2   -1    0    0  501    0  0.00000000000E+00 -0.00000000000E+00 -0.27915008262E+04  0.27915008262E+04  0.00000000000E+00 0. -1.
         24    2    1    2    0    0 -0.74915662483E+03  0.38509391215E+03 -0.34933090776E+03  0.91549276213E+03  0.81005831279E+02 0.  0.
        254    2    1    2    0    0  0.74915662483E+03 -0.38509391215E+03 -0.19827183618E+04  0.23354596206E+04  0.90203468214E+03 0.  0.
         23    2    4    4    0    0  0.17741703727E+03 -0.91000274945E+01 -0.14474716004E+04  0.14616144278E+04  0.97893238185E+02 0.  0.
         23    2    4    4    0    0  0.57173958756E+03 -0.37599388465E+03 -0.53524676137E+03  0.87384519279E+03  0.94121029126E+02 0.  0.
          2    1    3    3  502    0 -0.46485433585E+03  0.19666171889E+03 -0.19457870758E+03  0.54094940491E+03  0.00000000000E+00 0. -1.
         -1    1    3    3    0  502 -0.28430228899E+03  0.18843219326E+03 -0.15475220018E+03  0.37454335722E+03  0.00000000000E+00 0.  1.
         13    1    5    5    0    0 -0.32286791565E+01  0.19588532338E+02 -0.13039094313E+03  0.13189364283E+03  0.00000000000E+00 0. -1.
        -13    1    5    5    0    0  0.18064571643E+03 -0.28688559833E+02 -0.13170806573E+04  0.13297207850E+04  0.00000000000E+00 0.  1.
          3    1    6    6  503    0  0.35271957393E+03 -0.19149866736E+03 -0.35218069793E+03  0.53396074896E+03  0.00000000000E+00 0. -1.
         -3    1    6    6    0  503  0.21902001364E+03 -0.18449521730E+03 -0.18306606345E+03  0.33988444384E+03  0.00000000000E+00 0.  1.
<mgrwt>
<rscale>  0 0.22650028E+04</rscale>
<asrwt>0</asrwt>
<pdfrwt beam="1">  1        2 0.42946166E+00 0.22650028E+04</pdfrwt>
<pdfrwt beam="2">  1       -1 0.70684856E-01 0.22650028E+04</pdfrwt>
<totfact> 0.48972417E+00</totfact>
</mgrwt>
</event>
<event>
12    7  0.2466188E-007  0.2773831E+04  0.7818608E-02  0.8311439E-01
         -1   -1    0    0    0  501 -0.00000000000E+00  0.00000000000E+00  0.22982895748E+04  0.22982895748E+04  0.00000000000E+00 0.  1.
          2   -1    0    0  501    0  0.00000000000E+00 -0.00000000000E+00 -0.83694164522E+03  0.83694164522E+03  0.00000000000E+00 0. -1.
         24    2    1    2    0    0 -0.87042908549E+03 -0.61208390739E+03 -0.63510030711E+02  0.10690192730E+04  0.80468500465E+02 0.  0.
        254    2    1    2    0    0  0.87042908549E+03  0.61208390739E+03  0.15248579603E+04  0.20662119470E+04  0.90096975989E+03 0.  0.
         23    2    4    4    0    0 -0.69121791690E+02  0.20913596494E+03  0.72949032648E+03  0.76744097982E+03  0.91070561458E+02 0.  0.
         23    2    4    4    0    0  0.93955087718E+03  0.40294794246E+03  0.79536763383E+03  0.12987709672E+04  0.95254695914E+02 0.  0.
          2    1    3    3  502    0 -0.42172997474E+03 -0.27238523414E+03 -0.64977702759E+02  0.50623313723E+03  0.00000000000E+00 0. -1.
         -1    1    3    3    0  502 -0.44869911075E+03 -0.33969867325E+03  0.14676720479E+01  0.56278613581E+03  0.00000000000E+00 0.  1.
         13    1    5    5    0    0 -0.63635639626E+02  0.54997063757E+02  0.25562486925E+03  0.26910638311E+03  0.00000000000E+00 0. -1.
        -13    1    5    5    0    0 -0.54861520638E+01  0.15413890118E+03  0.47386545723E+03  0.49833459671E+03  0.00000000000E+00 0.  1.
          2    1    6    6  503    0  0.50249368274E+03  0.21916523530E+03  0.48619340377E+03  0.73274642778E+03  0.00000000000E+00 0. -1.
         -2    1    6    6    0  503  0.43705719444E+03  0.18378270716E+03  0.30917423006E+03  0.56602453940E+03  0.00000000000E+00 0.  1.
<mgrwt>
<rscale>  0 0.27738308E+04</rscale>
<asrwt>0</asrwt>
<pdfrwt beam="1">  1        2 0.12876025E+00 0.27738308E+04</pdfrwt>
<pdfrwt beam="2">  1       -1 0.35358301E+00 0.27738308E+04</pdfrwt>
<totfact> 0.47401914E-01</totfact>
</mgrwt>
</event>
<event>
12    7  0.2466188E-007  0.1132640E+04  0.7818608E-02  0.9173950E-01
         -1   -1    0    0    0  501 -0.00000000000E+00  0.00000000000E+00  0.45154688105E+03  0.45154688105E+03  0.00000000000E+00 0.  1.
          2   -1    0    0  501    0  0.00000000000E+00 -0.00000000000E+00 -0.71026577244E+03  0.71026577244E+03  0.00000000000E+00 0. -1.
         24    2    1    2    0    0 -0.97369752222E+02 -0.12125408570E+03  0.69893769992E+02  0.19033883703E+03  0.84618625905E+02 0.  0.
        254    2    1    2    0    0  0.97369752222E+02  0.12125408570E+03 -0.32861266139E+03  0.97147381646E+03  0.90088382875E+03 0.  0.
         23    2    4    4    0    0  0.28238918137E+03 -0.30892383565E+03 -0.22238080900E+03  0.48277661124E+03  0.91882784904E+02 0.  0.
         23    2    4    4    0    0 -0.18501942915E+03  0.43017792135E+03 -0.10623185238E+03  0.48869720522E+03  0.90854382111E+02 0.  0.
          4    1    3    3  502    0 -0.72545710036E+02 -0.30853732822E+02  0.10924309716E+02  0.79587520482E+02  0.00000000000E+00 0. -1.
         -3    1    3    3    0  502 -0.24824042186E+02 -0.90400352881E+02  0.58969460276E+02  0.11075131655E+03  0.00000000000E+00 0.  1.
         13    1    5    5    0    0  0.15458359470E+03 -0.12898559738E+03 -0.64485507684E+02  0.21140424022E+03  0.00000000000E+00 0. -1.
        -13    1    5    5    0    0  0.12780558667E+03 -0.17993823827E+03 -0.15789530132E+03  0.27137237102E+03  0.00000000000E+00 0.  1.
          1    1    6    6  503    0 -0.99845546149E+01  0.56590240543E+02 -0.41979510100E+02  0.71164780080E+02  0.00000000000E+00 0. -1.
         -1    1    6    6    0  503 -0.17503487453E+03  0.37358768081E+03 -0.64252342284E+02  0.41753242514E+03  0.00000000000E+00 0.  1.
<mgrwt>
<rscale>  0 0.11326399E+04</rscale>
<asrwt>0</asrwt>
<pdfrwt beam="1">  1        2 0.10927166E+00 0.11326399E+04</pdfrwt>
<pdfrwt beam="2">  1       -1 0.69468751E-01 0.11326399E+04</pdfrwt>
<totfact> 0.95431976E+01</totfact>
</mgrwt>
</event>
<event>
12    7  0.2466188E-007  0.3131981E+04  0.7818608E-02  0.8207015E-01
          2   -1    0    0  501    0  0.00000000000E+00  0.00000000000E+00  0.10134838239E+04  0.10134838239E+04  0.00000000000E+00 0. -1.
         -1   -1    0    0    0  501 -0.00000000000E+00 -0.00000000000E+00 -0.24196999019E+04  0.24196999019E+04  0.00000000000E+00 0.  1.
         24    2    1    2    0    0  0.11803416258E+04  0.81282658255E+03 -0.73857020157E+03  0.16142506257E+04  0.80160670307E+02 0.  0.
        254    2    1    2    0    0 -0.11803416258E+04 -0.81282658255E+03 -0.66764587640E+03  0.18189331001E+04  0.89937378169E+03 0.  0.
         23    2    4    4    0    0 -0.35801820478E+03 -0.77831047247E+03 -0.38430802277E+03  0.94338191469E+03  0.91282824720E+02 0.  0.
         23    2    4    4    0    0 -0.82232342107E+03 -0.34516110077E+02 -0.28333785364E+03  0.87555118536E+03  0.94352361904E+02 0.  0.
          4    1    3    3  502    0  0.88714934806E+02  0.71510027093E+02 -0.37061365405E+02  0.11982307139E+03  0.00000000000E+00 0. -1.
         -3    1    3    3    0  502  0.10916266910E+04  0.74131655546E+03 -0.70150883616E+03  0.14944275543E+04  0.00000000000E+00 0.  1.
         13    1    5    5    0    0 -0.19308537708E+03 -0.52397988305E+03 -0.25024058214E+03  0.61192910508E+03  0.00000000000E+00 0. -1.
        -13    1    5    5    0    0 -0.16493282769E+03 -0.25433058942E+03 -0.13406744063E+03  0.33145280961E+03  0.00000000000E+00 0.  1.
          3    1    6    6  503    0 -0.44948434809E+03 -0.29630922368E+02 -0.10653447924E+03  0.46288634242E+03  0.00000000000E+00 0. -1.
         -3    1    6    6    0  503 -0.37283907298E+03 -0.48851877086E+01 -0.17680337440E+03  0.41266484294E+03  0.00000000000E+00 0.  1.
<mgrwt>
<rscale>  0 0.31319813E+04</rscale>
<asrwt>0</asrwt>
<pdfrwt beam="1">  1        2 0.15592059E+00 0.31319813E+04</pdfrwt>
<pdfrwt beam="2">  1       -1 0.37226152E+00 0.31319813E+04</pdfrwt>
<totfact> 0.26273827E-01</totfact>
</mgrwt>
</event>
<event>
12    7  0.2466188E-007  0.2698916E+04  0.7818608E-02  0.8335357E-01
         -1   -1    0    0    0  501 -0.00000000000E+00  0.00000000000E+00  0.63525001529E+03  0.63525001529E+03  0.00000000000E+00 0.  1.
          2   -1    0    0  501    0  0.00000000000E+00 -0.00000000000E+00 -0.28666449555E+04  0.28666449555E+04  0.00000000000E+00 0. -1.
         24    2    1    2    0    0  0.92418790047E+03  0.67863125146E+03 -0.54543826939E+03  0.12721792720E+04  0.79205704566E+02 0.  0.
        254    2    1    2    0    0 -0.92418790047E+03 -0.67863125146E+03 -0.16859566708E+04  0.22297156988E+04  0.90250681470E+03 0.  0.
         23    2    4    4    0    0 -0.11937508984E+02 -0.32911829140E+03 -0.93128728627E+03  0.99197364821E+03  0.90853482750E+02 0.  0.
         23    2    4    4    0    0 -0.91225039149E+03 -0.34951296007E+03 -0.75466938455E+03  0.12377420506E+04  0.90107811512E+02 0.  0.
          4    1    3    3  502    0  0.74579846944E+03  0.53725571791E+03 -0.47021275259E+03  0.10324529511E+04  0.00000000000E+00 0. -1.
         -3    1    3    3    0  502  0.17838943104E+03  0.14137553355E+03 -0.75225516796E+02  0.23972632098E+03  0.00000000000E+00 0.  1.
         13    1    5    5    0    0 -0.16460654746E+02 -0.15042242980E+03 -0.30198288993E+03  0.33777437195E+03  0.00000000000E+00 0.  1.
        -13    1    5    5    0    0  0.45231457626E+01 -0.17869586160E+03 -0.62930439634E+03  0.65419927626E+03  0.00000000000E+00 0. -1.
          2    1    6    6  503    0 -0.81928035173E+03 -0.32203641597E+03 -0.71028261289E+03  0.11311185341E+04  0.00000000000E+00 0.  1.
         -2    1    6    6    0  503 -0.92970039755E+02 -0.27476544091E+02 -0.44386771660E+02  0.10662351648E+03  0.00000000000E+00 0. -1.
<mgrwt>
<rscale>  0 0.26989155E+04</rscale>
<asrwt>0</asrwt>
<pdfrwt beam="1">  1        2 0.44102230E+00 0.26989155E+04</pdfrwt>
<pdfrwt beam="2">  1       -1 0.97730771E-01 0.26989155E+04</pdfrwt>
<totfact> 0.21090842E+00</totfact>
</mgrwt>
</event>
<event>
12    7  0.2466188E-007  0.3491875E+04  0.7818608E-02  0.8115718E-01
          2   -1    0    0  501    0  0.00000000000E+00  0.00000000000E+00  0.11498536422E+04  0.11498536422E+04  0.00000000000E+00 0. -1.
         -1   -1    0    0    0  501 -0.00000000000E+00 -0.00000000000E+00 -0.26510305407E+04  0.26510305407E+04  0.00000000000E+00 0.  1.
         24    2    1    2    0    0 -0.10524919677E+04 -0.11035173107E+04 -0.79827343014E+02  0.15293239049E+04  0.83482958907E+02 0.  0.
        254    2    1    2    0    0  0.10524919677E+04  0.11035173107E+04 -0.14213495555E+04  0.22715602780E+04  0.90236452758E+03 0.  0.
         23    2    4    4    0    0  0.39365705968E+03  0.17397432873E+03  0.11229886969E+02  0.43918319789E+03  0.86734210418E+02 0.  0.
         23    2    4    4    0    0  0.65883490802E+03  0.92954298194E+03 -0.14325794424E+04  0.18323770801E+04  0.84901786910E+02 0.  0.
          4    1    3    3  502    0 -0.63744724312E+03 -0.67219976457E+03 -0.77304931408E+01  0.92641851869E+03  0.00000000000E+00 0. -1.
         -3    1    3    3    0  502 -0.41504472458E+03 -0.43131754610E+03 -0.72096849873E+02  0.60290538622E+03  0.00000000000E+00 0.  1.
         13    1    5    5    0    0  0.11509500105E+03  0.12704664812E+02 -0.12310686058E+02  0.11644664343E+03  0.00000000000E+00 0.  1.
        -13    1    5    5    0    0  0.27856205863E+03  0.16126966392E+03  0.23540573027E+02  0.32273655446E+03  0.00000000000E+00 0. -1.
          4    1    6    6  503    0  0.27833875728E+03  0.39599881130E+03 -0.67644175887E+03  0.83178180763E+03  0.00000000000E+00 0. -1.
         -4    1    6    6    0  503  0.38049615074E+03  0.53354417065E+03 -0.75613768357E+03  0.10005952725E+04  0.00000000000E+00 0.  1.
<mgrwt>
<rscale>  0 0.34918746E+04</rscale>
<asrwt>0</asrwt>
<pdfrwt beam="1">  1        2 0.17690056E+00 0.34918746E+04</pdfrwt>
<pdfrwt beam="2">  1       -1 0.40785085E+00 0.34918746E+04</pdfrwt>
<totfact> 0.12012425E-01</totfact>
</mgrwt>
</event>
<event>
12    7  0.2466188E-007  0.1675019E+04  0.7818608E-02  0.8775741E-01
         -1   -1    0    0    0  501 -0.00000000000E+00  0.00000000000E+00  0.24061142548E+03  0.24061142548E+03  0.00000000000E+00 0.  1.
          2   -1    0    0  501    0  0.00000000000E+00 -0.00000000000E+00 -0.29151670363E+04  0.29151670363E+04  0.00000000000E+00 0. -1.
         24    2    1    2    0    0  0.38747312392E+01 -0.58707860222E+03 -0.10912825930E+04  0.12418803081E+04  0.81808942779E+02 0.  0.
        254    2    1    2    0    0 -0.38747312392E+01  0.58707860222E+03 -0.15832730178E+04  0.19138981537E+04  0.90087534931E+03 0.  0.
         23    2    4    4    0    0 -0.18111271426E+03  0.76066270794E+03 -0.13421515650E+04  0.15560735842E+04  0.92653146174E+02 0.  0.
         23    2    4    4    0    0  0.17723798302E+03 -0.17358410572E+03 -0.24112145284E+03  0.35782456950E+03  0.91400892436E+02 0.  0.
          2    1    3    3  502    0  0.12135373462E+02 -0.30031207876E+03 -0.64110533033E+03  0.70806119546E+03  0.00000000000E+00 0. -1.
         -3    1    3    3    0  502 -0.82606422227E+01 -0.28676652346E+03 -0.45017726266E+03  0.53381911263E+03  0.00000000000E+00 0.  1.
         13    1    5    5    0    0 -0.12376825758E+03  0.45899625977E+03 -0.72864368297E+03  0.87001020959E+03  0.00000000000E+00 0.  1.
        -13    1    5    5    0    0 -0.57344456678E+02  0.30166644817E+03 -0.61350788199E+03  0.68606337457E+03  0.00000000000E+00 0. -1.
          4    1    6    6  503    0  0.16541637384E+03 -0.18259546870E+03 -0.21160879016E+03  0.32477986698E+03  0.00000000000E+00 0. -1.
         -4    1    6    6    0  503  0.11821609172E+02  0.90113629784E+01 -0.29512662679E+02  0.33044702519E+02  0.00000000000E+00 0.  1.
<mgrwt>
<rscale>  0 0.16750194E+04</rscale>
<asrwt>0</asrwt>
<pdfrwt beam="1">  1        2 0.44848725E+00 0.16750194E+04</pdfrwt>
<pdfrwt beam="2">  1       -1 0.37017141E-01 0.16750194E+04</pdfrwt>
<totfact> 0.15038290E+01</totfact>
</mgrwt>
</event>
<event>
12    7  0.2466188E-007  0.1523275E+04  0.7818608E-02  0.8869121E-01
          2   -1    0    0  501    0  0.00000000000E+00  0.00000000000E+00  0.28771694032E+04  0.28771694032E+04  0.00000000000E+00 0. -1.
         -1   -1    0    0    0  501 -0.00000000000E+00 -0.00000000000E+00 -0.20161896217E+03  0.20161896217E+03  0.00000000000E+00 0.  1.
         24    2    1    2    0    0 -0.15058968660E+03  0.46419862251E+03  0.98772206469E+03  0.11047797779E+04  0.82376366459E+02 0.  0.
        254    2    1    2    0    0  0.15058968660E+03 -0.46419862251E+03  0.16878283763E+04  0.19740085874E+04  0.89988202590E+03 0.  0.
         23    2    4    4    0    0 -0.12073781982E+03  0.22398501584E+03  0.56406777019E+03  0.62559586833E+03  0.91928410465E+02 0.  0.
         23    2    4    4    0    0  0.27132750641E+03 -0.68818363835E+03  0.11237606061E+04  0.13484127191E+04  0.90352782739E+02 0.  0.
          4    1    3    3  502    0 -0.64816800357E+02  0.30502752346E+03  0.67495898412E+03  0.74351371065E+03  0.00000000000E+00 0. -1.
         -1    1    3    3    0  502 -0.85772886238E+02  0.15917109905E+03  0.31276308057E+03  0.36126606726E+03  0.00000000000E+00 0.  1.
         13    1    5    5    0    0 -0.91929424900E+02  0.15115914958E+03  0.47561584457E+03  0.50745496280E+03  0.00000000000E+00 0.  1.
        -13    1    5    5    0    0 -0.28808394917E+02  0.72825866254E+02  0.88451925620E+02  0.11814090553E+03  0.00000000000E+00 0. -1.
          3    1    6    6  503    0  0.13534034467E+03 -0.42862133660E+03  0.73576856870E+03  0.86219988736E+03  0.00000000000E+00 0. -1.
         -3    1    6    6    0  503  0.13598716174E+03 -0.25956230175E+03  0.38799203741E+03  0.48621283173E+03  0.00000000000E+00 0.  1.
<mgrwt>
<rscale>  0 0.15232753E+04</rscale>
<asrwt>0</asrwt>
<pdfrwt beam="1">  1        2 0.44264142E+00 0.15232753E+04</pdfrwt>
<pdfrwt beam="2">  1       -1 0.31018304E-01 0.15232753E+04</pdfrwt>
<totfact> 0.22052892E+01</totfact>
</mgrwt>
</event>
<event>
12    7  0.2466188E-007  0.2747858E+04  0.7818608E-02  0.8319642E-01
         -1   -1    0    0    0  501 -0.00000000000E+00  0.00000000000E+00  0.97521092944E+03  0.97521092944E+03  0.00000000000E+00 0.  1.
          2   -1    0    0  501    0  0.00000000000E+00 -0.00000000000E+00 -0.19356648205E+04  0.19356648205E+04  0.00000000000E+00 0. -1.
         24    2    1    2    0    0 -0.55654908340E+03  0.57451810680E+03  0.55469437680E+03  0.97662989278E+03  0.79386135705E+02 0.  0.
        254    2    1    2    0    0  0.55654908340E+03 -0.57451810680E+03 -0.15151482678E+04  0.19342458571E+04  0.89767189162E+03 0.  0.
         23    2    4    4    0    0  0.64404050392E+03 -0.70242532864E+03 -0.14606696128E+04  0.17464316937E+04  0.90985877040E+02 0.  0.
         23    2    4    4    0    0 -0.87491420520E+02  0.12790722183E+03 -0.54478655026E+02  0.18781416347E+03  0.91056191916E+02 0.  0.
          2    1    3    3  502    0 -0.92378453554E+01  0.12780180811E+01  0.14855436428E+00  0.93270137464E+01  0.00000000000E+00 0. -1.
         -1    1    3    3    0  502 -0.54731123804E+03  0.57324008872E+03  0.55454582244E+03  0.96730287903E+03  0.00000000000E+00 0.  1.
         13    1    5    5    0    0  0.12709490763E+03 -0.13077749651E+03 -0.21871894327E+03  0.28476981105E+03  0.00000000000E+00 0.  1.
        -13    1    5    5    0    0  0.51694559628E+03 -0.57164783213E+03 -0.12419506696E+04  0.14616618826E+04  0.00000000000E+00 0. -1.
          1    1    6    6  503    0 -0.14155849624E+02  0.57444484718E+02  0.19231803945E+02  0.62210281996E+02  0.00000000000E+00 0. -1.
         -1    1    6    6    0  503 -0.73335570896E+02  0.70462737114E+02 -0.73710458971E+02  0.12560388148E+03  0.00000000000E+00 0.  1.
<mgrwt>
<rscale>  0 0.27478584E+04</rscale>
<asrwt>0</asrwt>
<pdfrwt beam="1">  1        2 0.29779459E+00 0.27478584E+04</pdfrwt>
<pdfrwt beam="2">  1       -1 0.15003245E+00 0.27478584E+04</pdfrwt>
<totfact> 0.25153181E+00</totfact>
</mgrwt>
</event>
<event>
12    7  0.2466188E-007  0.1668457E+04  0.7818608E-02  0.8779562E-01
         -1   -1    0    0    0  501 -0.00000000000E+00  0.00000000000E+00  0.46343030453E+03  0.46343030453E+03  0.00000000000E+00 0.  1.
          2   -1    0    0  501    0  0.00000000000E+00 -0.00000000000E+00 -0.15017092543E+04  0.15017092543E+04  0.00000000000E+00 0. -1.
         24    2    1    2    0    0  0.27167903551E+03 -0.26529060198E+03 -0.89232234960E+03  0.97295855177E+03  0.78870565016E+02 0.  0.
        254    2    1    2    0    0 -0.27167903551E+03  0.26529060198E+03 -0.14595660012E+03  0.99218100702E+03  0.90494818622E+03 0.  0.
         23    2    4    4    0    0 -0.33300370037E+03 -0.79328301273E+02  0.26653503175E+03  0.44343026368E+03  0.91678960272E+02 0.  0.
         23    2    4    4    0    0  0.61324664861E+02  0.34461890325E+03 -0.41249163187E+03  0.54875074334E+03  0.91951775129E+02 0.  0.
          4    1    3    3  502    0  0.25026329076E+03 -0.21309924775E+03 -0.79811408190E+03  0.86315067735E+03  0.00000000000E+00 0. -1.
         -3    1    3    3    0  502  0.21415744750E+02 -0.52191354231E+02 -0.94208267707E+02  0.10980787442E+03  0.00000000000E+00 0.  1.
         13    1    5    5    0    0 -0.87943429663E+02 -0.18627324384E+02  0.23320754129E+02  0.92870240701E+02  0.00000000000E+00 0. -1.
        -13    1    5    5    0    0 -0.24506027071E+03 -0.60700976889E+02  0.24321427762E+03  0.35056002298E+03  0.00000000000E+00 0.  1.
          3    1    6    6  503    0 -0.17380293416E+02  0.77998423049E+02 -0.60551235438E+02  0.10026106278E+03  0.00000000000E+00 0. -1.
         -3    1    6    6    0  503  0.78704958277E+02  0.26662048021E+03 -0.35194039644E+03  0.44848968056E+03  0.00000000000E+00 0.  1.
<mgrwt>
<rscale>  0 0.16684575E+04</rscale>
<asrwt>0</asrwt>
<pdfrwt beam="1">  1        2 0.23103219E+00 0.16684575E+04</pdfrwt>
<pdfrwt beam="2">  1       -1 0.71296971E-01 0.16684575E+04</pdfrwt>
<totfact> 0.27348905E+01</totfact>
</mgrwt>
</event>
<event>
12    7  0.2466188E-007  0.1411398E+04  0.7818608E-02  0.8945609E-01
         -1   -1    0    0    0  501 -0.00000000000E+00  0.00000000000E+00  0.26795987363E+03  0.26795987363E+03  0.00000000000E+00 0.  1.
          2   -1    0    0  501    0  0.00000000000E+00 -0.00000000000E+00 -0.18585291490E+04  0.18585291490E+04  0.00000000000E+00 0. -1.
         24    2    1    2    0    0  0.28069020034E+03  0.14371278891E+03 -0.88501274487E+03  0.94284367299E+03  0.79159831014E+02 0.  0.
        254    2    1    2    0    0 -0.28069020034E+03 -0.14371278891E+03 -0.70555653054E+03  0.11836453497E+04  0.89652994472E+03 0.  0.
         23    2    4    4    0    0 -0.58519116681E+03 -0.12338528966E+03 -0.58686687474E+03  0.84308366170E+03  0.93298984657E+02 0.  0.
         23    2    4    4    0    0  0.30450096647E+03 -0.20327499257E+02 -0.11868965580E+03  0.34056168799E+03  0.93600123524E+02 0.  0.
          4    1    3    3  502    0  0.95463561197E+02  0.13452274369E+02 -0.31778742037E+03  0.33208899371E+03  0.00000000000E+00 0. -1.
         -3    1    3    3    0  502  0.18522663914E+03  0.13026051455E+03 -0.56722532450E+03  0.61075467928E+03  0.00000000000E+00 0.  1.
         13    1    5    5    0    0 -0.51352861757E+03 -0.13876489056E+03 -0.51222238515E+03  0.73847079005E+03  0.00000000000E+00 0.  1.
        -13    1    5    5    0    0 -0.71662549244E+02  0.15379600898E+02 -0.74644489588E+02  0.10461287164E+03  0.00000000000E+00 0. -1.
          4    1    6    6  503    0  0.23740123542E+03 -0.37446141882E+02 -0.12522782160E+03  0.27100473690E+03  0.00000000000E+00 0. -1.
         -4    1    6    6    0  503  0.67099731051E+02  0.17118642625E+02  0.65381657979E+01  0.69556951086E+02  0.00000000000E+00 0.  1.
<mgrwt>
<rscale>  0 0.14113982E+04</rscale>
<asrwt>0</asrwt>
<pdfrwt beam="1">  1        2 0.28592756E+00 0.14113982E+04</pdfrwt>
<pdfrwt beam="2">  1       -1 0.41224596E-01 0.14113982E+04</pdfrwt>
<totfact> 0.51125589E+01</totfact>
</mgrwt>
</event>
<event>
12    7  0.2466188E-007  0.1287216E+04  0.7818608E-02  0.9039765E-01
         -1   -1    0    0    0  501 -0.00000000000E+00  0.00000000000E+00  0.68362701633E+03  0.68362701633E+03  0.00000000000E+00 0.  1.
          2   -1    0    0  501    0  0.00000000000E+00 -0.00000000000E+00 -0.60593156355E+03  0.60593156355E+03  0.00000000000E+00 0. -1.
         24    2    1    2    0    0  0.33514738041E+02  0.16320521783E+03  0.29529288100E+03  0.34911413794E+03  0.83208262482E+02 0.  0.
        254    2    1    2    0    0 -0.33514738041E+02 -0.16320521783E+03 -0.21759742822E+03  0.94044444194E+03  0.89962654853E+03 0.  0.
         23    2    4    4    0    0 -0.92949295342E+02 -0.32413514059E+03  0.25304716090E+03  0.43149111059E+03  0.91916005145E+02 0.  0.
         23    2    4    4    0    0  0.59434557301E+02  0.16092992276E+03 -0.47064458913E+03  0.50895333136E+03  0.89979206391E+02 0.  0.
          2    1    3    3  502    0  0.32857901880E+02  0.12726748928E+02  0.46326662317E+02  0.58204565935E+02  0.00000000000E+00 0. -1.
         -1    1    3    3    0  502  0.65683616067E+00  0.15047846890E+03  0.24896621868E+03  0.29090957200E+03  0.00000000000E+00 0.  1.
         13    1    5    5    0    0 -0.93882739701E+02 -0.20618691162E+03  0.19982439823E+03  0.30208740700E+03  0.00000000000E+00 0.  1.
        -13    1    5    5    0    0  0.93344435867E+00 -0.11794822897E+03  0.53222762669E+02  0.12940370359E+03  0.00000000000E+00 0. -1.
          3    1    6    6  503    0  0.30156486050E+02  0.11707076006E+03 -0.20388782462E+03  0.23703422018E+03  0.00000000000E+00 0. -1.
         -3    1    6    6    0  503  0.29278071251E+02  0.43859162706E+02 -0.26675676451E+03  0.27191911117E+03  0.00000000000E+00 0.  1.
<mgrwt>
<rscale>  0 0.12872159E+04</rscale>
<asrwt>0</asrwt>
<pdfrwt beam="1">  1        2 0.93220240E-01 0.12872159E+04</pdfrwt>
<pdfrwt beam="2">  1       -1 0.10517339E+00 0.12872159E+04</pdfrwt>
<totfact> 0.46620163E+01</totfact>
</mgrwt>
</event>
<event>
12    7  0.2466188E-007  0.2316859E+04  0.7818608E-02  0.8471303E-01
          2   -1    0    0  501    0  0.00000000000E+00  0.00000000000E+00  0.17899733326E+04  0.17899733326E+04  0.00000000000E+00 0. -1.
         -1   -1    0    0    0  501 -0.00000000000E+00 -0.00000000000E+00 -0.74970915410E+03  0.74970915410E+03  0.00000000000E+00 0.  1.
         24    2    1    2    0    0 -0.68791326493E+03  0.68570947795E+03  0.58064250004E+03  0.11343841794E+04  0.79117668271E+02 0.  0.
        254    2    1    2    0    0  0.68791326493E+03 -0.68570947795E+03  0.45962167849E+03  0.14052983073E+04  0.90564291913E+03 0.  0.
         23    2    4    4    0    0  0.57524453722E+03 -0.86526375313E+03  0.51986820794E+03  0.11654031949E+04  0.91181209179E+02 0.  0.
         23    2    4    4    0    0  0.11266872772E+03  0.17955427517E+03 -0.60246529455E+02  0.23989511244E+03  0.94794729408E+02 0.  0.
          4    1    3    3  502    0 -0.20721406928E+03  0.19473037685E+03  0.21148906497E+03  0.35438004286E+03  0.00000000000E+00 0. -1.
         -3    1    3    3    0  502 -0.48069919565E+03  0.49097910110E+03  0.36915343507E+03  0.78000413656E+03  0.00000000000E+00 0.  1.
         13    1    5    5    0    0  0.53603971724E+02 -0.64588925698E+02  0.17306683732E+02  0.85700854192E+02  0.00000000000E+00 0.  1.
        -13    1    5    5    0    0  0.52164056549E+03 -0.80067482743E+03  0.50256152421E+03  0.10797023407E+04  0.00000000000E+00 0. -1.
          1    1    6    6  503    0  0.66467597965E+02  0.16005825438E+03 -0.17848104121E+02  0.17422726881E+03  0.00000000000E+00 0. -1.
         -1    1    6    6    0  503  0.46201129753E+02  0.19496020794E+02 -0.42398425334E+02  0.65667843638E+02  0.00000000000E+00 0.  1.
<mgrwt>
<rscale>  0 0.23168594E+04</rscale>
<asrwt>0</asrwt>
<pdfrwt beam="1">  1        2 0.27538051E+00 0.23168594E+04</pdfrwt>
<pdfrwt beam="2">  1       -1 0.11533987E+00 0.23168594E+04</pdfrwt>
<totfact> 0.61397552E+00</totfact>
</mgrwt>
</event>
<event>
12    7  0.2466188E-007  0.3879272E+04  0.7818608E-02  0.8029354E-01
          4   -1    0    0  501    0  0.00000000000E+00  0.00000000000E+00  0.97088280088E+03  0.97088280088E+03  0.00000000000E+00 0. -1.
         -3   -1    0    0    0  501 -0.00000000000E+00 -0.00000000000E+00 -0.38750180736E+04  0.38750180736E+04  0.00000000000E+00 0.  1.
         24    2    1    2    0    0  0.12679090429E+04  0.66058896905E+03  0.60899522247E+02  0.14332476072E+04  0.80739239211E+02 0.  0.
        254    2    1    2    0    0 -0.12679090429E+04 -0.66058896905E+03 -0.29650347949E+04  0.34126532672E+04  0.90044425701E+03 0.  0.
         23    2    4    4    0    0 -0.91712563879E+03  0.83474515067E+01 -0.17808013175E+04  0.20050925097E+04  0.89182524427E+02 0.  0.
         23    2    4    4    0    0 -0.35078340410E+03 -0.66893642055E+03 -0.11842334774E+04  0.14075607575E+04  0.91068247773E+02 0.  0.
          2    1    3    3  502    0  0.28393201318E+03  0.17595676818E+03 -0.92038202205E+01  0.33415996571E+03  0.00000000000E+00 0. -1.
         -1    1    3    3    0  502  0.98397702971E+03  0.48463220087E+03  0.70103342467E+02  0.10990876415E+04  0.00000000000E+00 0.  1.
         13    1    5    5    0    0 -0.56011835320E+03 -0.35115455202E+02 -0.10489274296E+04  0.11896278483E+04  0.00000000000E+00 0.  1.
        -13    1    5    5    0    0 -0.35700728558E+03  0.43462906709E+02 -0.73187388795E+03  0.81546466145E+03  0.00000000000E+00 0. -1.
          1    1    6    6  503    0 -0.12953154793E+03 -0.23077138666E+03 -0.49649393507E+03  0.56261894953E+03  0.00000000000E+00 0. -1.
         -1    1    6    6    0  503 -0.22125185618E+03 -0.43816503389E+03 -0.68773954231E+03  0.84494180796E+03  0.00000000000E+00 0.  1.
<mgrwt>
<rscale>  0 0.38792723E+04</rscale>
<asrwt>0</asrwt>
<pdfrwt beam="1">  1        4 0.14936658E+00 0.38792723E+04</pdfrwt>
<pdfrwt beam="2">  1       -3 0.59615663E+00 0.38792723E+04</pdfrwt>
<totfact> 0.51605395E-04</totfact>
</mgrwt>
</event>
<event>
12    7  0.2643317E-007  0.1893916E+04  0.7818608E-02  0.8657891E-01
         -1   -1    0    0    0  501 -0.00000000000E+00  0.00000000000E+00  0.59503687280E+03  0.59503687280E+03  0.00000000000E+00 0.  1.
          2   -1    0    0  501    0  0.00000000000E+00 -0.00000000000E+00 -0.15070145566E+04  0.15070145566E+04  0.00000000000E+00 0. -1.
         24    2    1    2    0    0  0.14075050429E+03  0.65520672468E+03 -0.67911493706E+03  0.95690041755E+03  0.73176190342E+02 0.  0.
        254    2    1    2    0    0 -0.14075050429E+03 -0.65520672468E+03 -0.23286274677E+03  0.11451510119E+04  0.89891002033E+03 0.  0.
         23    2    4    4    0    0 -0.29209247792E+03 -0.74614400186E+03  0.40541113225E+02  0.80735467428E+03  0.90161527536E+02 0.  0.
         23    2    4    4    0    0  0.15134197363E+03  0.90937277182E+02 -0.27340386000E+03  0.33779633760E+03  0.90458353246E+02 0.  0.
          2    1    3    3  502    0  0.10923306640E+03  0.46577431807E+03 -0.52826644043E+03  0.71270120685E+03  0.00000000000E+00 0. -1.
         -1    1    3    3    0  502  0.31517437893E+02  0.18943240662E+03 -0.15084849664E+03  0.24419921070E+03  0.00000000000E+00 0.  1.
         13    1    5    5    0    0 -0.81757879455E+02 -0.22295515706E+03 -0.28835265571E+02  0.23921710945E+03  0.00000000000E+00 0. -1.
        -13    1    5    5    0    0 -0.21033459846E+03 -0.52318884480E+03  0.69376378796E+02  0.56813756483E+03  0.00000000000E+00 0.  1.
          1    1    6    6  503    0  0.23435127023E+02  0.26184954965E+02 -0.78371570487E+01  0.36003861955E+02  0.00000000000E+00 0. -1.
         -1    1    6    6    0  503  0.12790684661E+03  0.64752322217E+02 -0.26556670295E+03  0.30179247565E+03  0.00000000000E+00 0.  1.
<mgrwt>
<rscale>  0 0.18939158E+04</rscale>
<asrwt>0</asrwt>
<pdfrwt beam="1">  1        2 0.23184839E+00 0.18939158E+04</pdfrwt>
<pdfrwt beam="2">  1       -1 0.91544134E-01 0.18939158E+04</pdfrwt>
<totfact> 0.15621862E+01</totfact>
</mgrwt>
</event>
<event>
12    7  0.2466188E-007  0.1795511E+04  0.7818608E-02  0.8708691E-01
         -1   -1    0    0    0  501 -0.00000000000E+00  0.00000000000E+00  0.90374797397E+03  0.90374797397E+03  0.00000000000E+00 0.  1.
          2   -1    0    0  501    0  0.00000000000E+00 -0.00000000000E+00 -0.89180232338E+03  0.89180232338E+03  0.00000000000E+00 0. -1.
         24    2    1    2    0    0 -0.38391914341E+03 -0.48412168401E+03 -0.25140567164E+03  0.67189878809E+03  0.80470218774E+02 0.  0.
        254    2    1    2    0    0  0.38391914341E+03  0.48412168401E+03  0.26335132223E+03  0.11236515093E+04  0.90081689690E+03 0.  0.
         23    2    4    4    0    0  0.47538656089E+02  0.68324697236E+03  0.17739882125E+03  0.71329808338E+03  0.90760480965E+02 0.  0.
         23    2    4    4    0    0  0.33638048732E+03 -0.19912528835E+03  0.85952500979E+02  0.41035342588E+03  0.90550477637E+02 0.  0.
          2    1    3    3  502    0 -0.36690563760E+03 -0.42605932686E+03 -0.22050415346E+03  0.60396057703E+03  0.00000000000E+00 0. -1.
         -1    1    3    3    0  502 -0.17013505803E+02 -0.58062357148E+02 -0.30901518179E+02  0.67938211067E+02  0.00000000000E+00 0.  1.
         13    1    5    5    0    0  0.52956242657E+02  0.18048886431E+03  0.48993510609E+02  0.19437324367E+03  0.00000000000E+00 0. -1.
        -13    1    5    5    0    0 -0.54175865678E+01  0.50275810805E+03  0.12840531064E+03  0.51892483970E+03  0.00000000000E+00 0.  1.
          4    1    6    6  503    0  0.13301224045E+03 -0.38234769742E+02  0.42208293360E+01  0.13846287996E+03  0.00000000000E+00 0. -1.
         -4    1    6    6    0  503  0.20336824687E+03 -0.16089051861E+03  0.81731671643E+02  0.27189054592E+03  0.00000000000E+00 0.  1.
<mgrwt>
<rscale>  0 0.17955106E+04</rscale>
<asrwt>0</asrwt>
<pdfrwt beam="1">  1        2 0.13720036E+00 0.17955106E+04</pdfrwt>
<pdfrwt beam="2">  1       -1 0.13903815E+00 0.17955106E+04</pdfrwt>
<totfact> 0.13662600E+01</totfact>
</mgrwt>
</event>
<event>
12    7  0.2466188E-007  0.2184271E+04  0.7818608E-02  0.8525004E-01
          2   -1    0    0  501    0  0.00000000000E+00  0.00000000000E+00  0.10647492136E+04  0.10647492136E+04  0.00000000000E+00 0. -1.
         -1   -1    0    0    0  501 -0.00000000000E+00 -0.00000000000E+00 -0.11202261665E+04  0.11202261665E+04  0.00000000000E+00 0.  1.
         24    2    1    2    0    0 -0.14286338412E+03  0.89268132014E+03 -0.54520758727E+02  0.90904730984E+03  0.78132020005E+02 0.  0.
        254    2    1    2    0    0  0.14286338412E+03 -0.89268132014E+03 -0.95619416817E+00  0.12759280703E+04  0.90038971589E+03 0.  0.
         23    2    4    4    0    0  0.23086099609E+03 -0.34727320472E+03  0.40102126750E+03  0.58569170590E+03  0.91220826213E+02 0.  0.
         23    2    4    4    0    0 -0.87997611973E+02 -0.54540811542E+03 -0.40197746167E+03  0.69023636442E+03  0.98116089405E+02 0.  0.
          2    1    3    3  502    0 -0.65986313273E+02  0.60602171003E+03 -0.56853236923E+02  0.61224896661E+03  0.00000000000E+00 0. -1.
         -1    1    3    3    0  502 -0.76877070848E+02  0.28665961011E+03  0.23324781961E+01  0.29679834323E+03  0.00000000000E+00 0.  1.
         13    1    5    5    0    0  0.23362342214E+03 -0.30602374734E+03  0.37031008064E+03  0.53419097066E+03  0.00000000000E+00 0.  1.
        -13    1    5    5    0    0 -0.27624260480E+01 -0.41249457377E+02  0.30711186862E+02  0.51500735238E+02  0.00000000000E+00 0. -1.
          4    1    6    6  503    0 -0.22749095595E+02 -0.18583972380E+02 -0.12964525411E+02  0.32108632779E+02  0.00000000000E+00 0. -1.
         -4    1    6    6    0  503 -0.65248516378E+02 -0.52682414304E+03 -0.38901293626E+03  0.65812773164E+03  0.00000000000E+00 0.  1.
<mgrwt>
<rscale>  0 0.21842710E+04</rscale>
<asrwt>0</asrwt>
<pdfrwt beam="1">  1        2 0.16380757E+00 0.21842710E+04</pdfrwt>
<pdfrwt beam="2">  1       -1 0.17234249E+00 0.21842710E+04</pdfrwt>
<totfact> 0.56563592E+00</totfact>
</mgrwt>
</event>
<event>
12    7  0.2466188E-007  0.1716208E+04  0.7818608E-02  0.8752174E-01
          2   -1    0    0  501    0  0.00000000000E+00  0.00000000000E+00  0.21532775548E+04  0.21532775548E+04  0.00000000000E+00 0. -1.
         -1   -1    0    0    0  501 -0.00000000000E+00 -0.00000000000E+00 -0.34196360683E+03  0.34196360683E+03  0.00000000000E+00 0.  1.
         24    2    1    2    0    0 -0.60272412815E+03 -0.14449673411E+03  0.67621491651E+03  0.91985109972E+03  0.68583901407E+02 0.  0.
        254    2    1    2    0    0  0.60272412815E+03  0.14449673411E+03  0.11350990315E+04  0.15753900619E+04  0.89958232258E+03 0.  0.
         23    2    4    4    0    0  0.50985842833E+03 -0.15840284700E+03  0.18954840595E+03  0.57394210126E+03  0.91836041565E+02 0.  0.
         23    2    4    4    0    0  0.92865699819E+02  0.30289958111E+03  0.94555062552E+03  0.10014479606E+04  0.91977377774E+02 0.  0.
          4    1    3    3  502    0 -0.46819957259E+03 -0.12074396149E+03  0.56537594316E+03  0.74393541461E+03  0.00000000000E+00 0. -1.
         -3    1    3    3    0  502 -0.13452455556E+03 -0.23752772614E+02  0.11083897335E+03  0.17591568511E+03  0.00000000000E+00 0.  1.
         13    1    5    5    0    0  0.43825912308E+03 -0.16828571309E+03  0.16368877685E+03  0.49717718759E+03  0.00000000000E+00 0.  1.
        -13    1    5    5    0    0  0.71599305242E+02  0.98828660916E+01  0.25859629095E+02  0.76764913667E+02  0.00000000000E+00 0. -1.
          1    1    6    6  503    0 -0.78122166829E+01  0.31157004342E+01  0.70638614632E+02  0.71137558265E+02  0.00000000000E+00 0. -1.
         -1    1    6    6    0  503  0.10067791650E+03  0.29978388067E+03  0.87491201089E+03  0.93031040238E+03  0.00000000000E+00 0.  1.
<mgrwt>
<rscale>  0 0.17162081E+04</rscale>
<asrwt>0</asrwt>
<pdfrwt beam="1">  1        2 0.33127346E+00 0.17162081E+04</pdfrwt>
<pdfrwt beam="2">  1       -1 0.52609787E-01 0.17162081E+04</pdfrwt>
<totfact> 0.21624832E+01</totfact>
</mgrwt>
</event>
<event>
12    7  0.2466188E-007  0.1044288E+04  0.7818608E-02  0.9261261E-01
         -1   -1    0    0    0  501 -0.00000000000E+00  0.00000000000E+00  0.18518480210E+03  0.18518480210E+03  0.00000000000E+00 0.  1.
          2   -1    0    0  501    0  0.00000000000E+00 -0.00000000000E+00 -0.14722296938E+04  0.14722296938E+04  0.00000000000E+00 0. -1.
         24    2    1    2    0    0 -0.17676078353E+02 -0.10879437135E+03 -0.18579771886E+03  0.23082517598E+03  0.81306891159E+02 0.  0.
        254    2    1    2    0    0  0.17676078353E+02  0.10879437135E+03 -0.11012471729E+04  0.14265893200E+04  0.90014615095E+03 0.  0.
         23    2    4    4    0    0  0.69337160757E+02  0.33163192245E+03 -0.59692605622E+02  0.35541192156E+03  0.89258349575E+02 0.  0.
         23    2    4    4    0    0 -0.51661082404E+02 -0.22283755111E+03 -0.10415545672E+04  0.10711773984E+04  0.10128998305E+03 0.  0.
          2    1    3    3  502    0 -0.14832017202E+01 -0.42758847720E+02 -0.14578473270E+03  0.15193323282E+03  0.00000000000E+00 0. -1.
         -1    1    3    3    0  502 -0.16192876633E+02 -0.66035523625E+02 -0.40012986153E+02  0.78891943156E+02  0.00000000000E+00 0.  1.
         13    1    5    5    0    0  0.10314326290E+02  0.23985143515E+03 -0.54419778820E+02  0.24616378409E+03  0.00000000000E+00 0.  1.
        -13    1    5    5    0    0  0.59022834468E+02  0.91780487300E+02 -0.52728268018E+01  0.10924813747E+03  0.00000000000E+00 0. -1.
          3    1    6    6  503    0 -0.81101852070E+02 -0.17364623609E+03 -0.75505593183E+03  0.77899934911E+03  0.00000000000E+00 0. -1.
         -3    1    6    6    0  503  0.29440769665E+02 -0.49191315013E+02 -0.28649863541E+03  0.29217804929E+03  0.00000000000E+00 0.  1.
<mgrwt>
<rscale>  0 0.10442884E+04</rscale>
<asrwt>0</asrwt>
<pdfrwt beam="1">  1        2 0.22649687E+00 0.10442884E+04</pdfrwt>
<pdfrwt beam="2">  1       -1 0.28489970E-01 0.10442884E+04</pdfrwt>
<totfact> 0.16670011E+02</totfact>
</mgrwt>
</event>
<event>
12    7  0.2466188E-007  0.1459679E+04  0.7818608E-02  0.8911717E-01
          2   -1    0    0  501    0  0.00000000000E+00  0.00000000000E+00  0.40959827556E+04  0.40959827556E+04  0.00000000000E+00 0. -1.
         -1   -1    0    0    0  501 -0.00000000000E+00 -0.00000000000E+00 -0.13004596250E+03  0.13004596250E+03  0.00000000000E+00 0.  1.
         24    2    1    2    0    0  0.29688943609E+03  0.24051335952E+03  0.55072427779E+03  0.67441369207E+03  0.74475395465E+02 0.  0.
        254    2    1    2    0    0 -0.29688943609E+03 -0.24051335952E+03  0.34152125153E+04  0.35516150261E+04  0.89682927867E+03 0.  0.
         23    2    4    4    0    0  0.20449322018E+03 -0.36314364456E+03  0.11615106411E+04  0.12377389279E+04  0.95916111307E+02 0.  0.
         23    2    4    4    0    0 -0.50138265627E+03  0.12263028504E+03  0.22537018742E+04  0.23138760982E+04  0.91802533753E+02 0.  0.
          4    1    3    3  502    0  0.45851616394E+02  0.77193400736E+02  0.12568683732E+03  0.15446155806E+03  0.00000000000E+00 0. -1.
         -3    1    3    3    0  502  0.25103781970E+03  0.16331995878E+03  0.42503744047E+03  0.51995213401E+03  0.00000000000E+00 0.  1.
         13    1    5    5    0    0  0.14121975808E+03 -0.15392838161E+03  0.54924108211E+03  0.58762465317E+03  0.00000000000E+00 0. -1.
        -13    1    5    5    0    0  0.63273462098E+02 -0.20921526294E+03  0.61226955902E+03  0.65011427469E+03  0.00000000000E+00 0.  1.
          1    1    6    6  503    0 -0.28115734382E+03  0.21845708149E+02  0.11941708947E+04  0.12270170385E+04  0.00000000000E+00 0. -1.
         -1    1    6    6    0  503 -0.22022531246E+03  0.10078457689E+03  0.10595309795E+04  0.10868590597E+04  0.00000000000E+00 0.  1.
<mgrwt>
<rscale>  0 0.14596794E+04</rscale>
<asrwt>0</asrwt>
<pdfrwt beam="1">  1        2 0.63015109E+00 0.14596794E+04</pdfrwt>
<pdfrwt beam="2">  1       -1 0.20007074E-01 0.14596794E+04</pdfrwt>
<totfact> 0.66146406E+00</totfact>
</mgrwt>
</event>
<event>
12    7  0.2466188E-007  0.1389010E+04  0.7818608E-02  0.8961812E-01
         -1   -1    0    0    0  501 -0.00000000000E+00  0.00000000000E+00  0.25535685565E+03  0.25535685565E+03  0.00000000000E+00 0.  1.
          2   -1    0    0  501    0  0.00000000000E+00 -0.00000000000E+00 -0.18888757348E+04  0.18888757348E+04  0.00000000000E+00 0. -1.
         24    2    1    2    0    0  0.19875367546E+03  0.24678947213E+03 -0.10499181710E+03  0.34264497188E+03  0.77293130549E+02 0.  0.
        254    2    1    2    0    0 -0.19875367546E+03 -0.24678947213E+03 -0.15285270621E+04  0.18015876186E+04  0.89939696514E+03 0.  0.
         23    2    4    4    0    0 -0.19050359264E+03  0.23994077096E+03 -0.11032474573E+04  0.11487465475E+04  0.92738804827E+02 0.  0.
         23    2    4    4    0    0 -0.82500828209E+01 -0.48673024309E+03 -0.42527960475E+03  0.65284107110E+03  0.91456702785E+02 0.  0.
          4    1    3    3  502    0  0.12224574368E+03  0.10780598600E+03 -0.24759461693E+02  0.16486110338E+03  0.00000000000E+00 0. -1.
         -3    1    3    3    0  502  0.76507931787E+02  0.13898348613E+03 -0.80232355412E+02  0.17778386850E+03  0.00000000000E+00 0.  1.
         13    1    5    5    0    0 -0.95823708182E+01  0.16314408737E+02 -0.18326922509E+02  0.26341181667E+02  0.00000000000E+00 0. -1.
        -13    1    5    5    0    0 -0.18092122182E+03  0.22362636222E+03 -0.10849205348E+04  0.11224053658E+04  0.00000000000E+00 0.  1.
          3    1    6    6  503    0 -0.41110022577E+02 -0.16767412942E+03 -0.12181663369E+03  0.21129112589E+03  0.00000000000E+00 0. -1.
         -3    1    6    6    0  503  0.32859939756E+02 -0.31905611367E+03 -0.30346297106E+03  0.44154994521E+03  0.00000000000E+00 0.  1.
<mgrwt>
<rscale>  0 0.13890102E+04</rscale>
<asrwt>0</asrwt>
<pdfrwt beam="1">  1        2 0.29059627E+00 0.13890102E+04</pdfrwt>
<pdfrwt beam="2">  1       -1 0.39285670E-01 0.13890102E+04</pdfrwt>
<totfact> 0.53818264E+01</totfact>
</mgrwt>
</event>
<event>
12    7  0.2466188E-007  0.1426074E+04  0.7818608E-02  0.8935158E-01
          2   -1    0    0  501    0  0.00000000000E+00  0.00000000000E+00  0.18206711387E+04  0.18206711387E+04  0.00000000000E+00 0. -1.
         -1   -1    0    0    0  501 -0.00000000000E+00 -0.00000000000E+00 -0.27924975886E+03  0.27924975886E+03  0.00000000000E+00 0.  1.
         24    2    1    2    0    0  0.73230019179E+02 -0.36219844847E+03  0.78846306294E+03  0.87418693354E+03  0.77320381360E+02 0.  0.
        254    2    1    2    0    0 -0.73230019179E+02  0.36219844847E+03  0.75295831691E+03  0.12257339640E+04  0.89382726060E+03 0.  0.
         23    2    4    4    0    0  0.26614115508E+03  0.51158044938E+03  0.48234949994E+03  0.75741729193E+03  0.92055653836E+02 0.  0.
         23    2    4    4    0    0 -0.33937117426E+03 -0.14938200092E+03  0.27060881697E+03  0.46831667210E+03  0.92755578982E+02 0.  0.
          4    1    3    3  502    0  0.35105047741E+02 -0.31350611367E+03  0.67002616072E+03  0.74057646718E+03  0.00000000000E+00 0. -1.
         -3    1    3    3    0  502  0.38124971438E+02 -0.48692334799E+02  0.11843690222E+03  0.13361046637E+03  0.00000000000E+00 0.  1.
         13    1    5    5    0    0  0.20157123246E+03  0.42389430152E+03  0.34709470049E+03  0.58377399027E+03  0.00000000000E+00 0.  1.
        -13    1    5    5    0    0  0.64569922617E+02  0.87686147867E+02  0.13525479946E+03  0.17364330166E+03  0.00000000000E+00 0. -1.
          3    1    6    6  503    0 -0.17008705528E+03 -0.65647156443E+02  0.77186773240E+02  0.19798220497E+03  0.00000000000E+00 0. -1.
         -3    1    6    6    0  503 -0.16928411897E+03 -0.83734844473E+02  0.19342204373E+03  0.27033446712E+03  0.00000000000E+00 0.  1.
<mgrwt>
<rscale>  0 0.14260743E+04</rscale>
<asrwt>0</asrwt>
<pdfrwt beam="1">  1        2 0.28010324E+00 0.14260743E+04</pdfrwt>
<pdfrwt beam="2">  1       -1 0.42961502E-01 0.14260743E+04</pdfrwt>
<totfact> 0.49661514E+01</totfact>
</mgrwt>
</event>
<event>
12    7  0.2466188E-007  0.1369247E+04  0.7818608E-02  0.8976385E-01
         -3   -1    0    0    0  501 -0.00000000000E+00  0.00000000000E+00  0.87650964661E+03  0.87650964661E+03  0.00000000000E+00 0.  1.
          4   -1    0    0  501    0  0.00000000000E+00 -0.00000000000E+00 -0.53474527353E+03  0.53474527353E+03  0.00000000000E+00 0. -1.
         24    2    1    2    0    0  0.28519487494E+03 -0.23816791187E+03  0.19114025210E+03  0.42509273109E+03  0.78161135607E+02 0.  0.
        254    2    1    2    0    0 -0.28519487494E+03  0.23816791187E+03  0.15062412098E+03  0.98616218905E+03  0.90098177915E+03 0.  0.
         23    2    4    4    0    0  0.26028186203E+03  0.39652346508E+02  0.26862274311E+03  0.38689854135E+03  0.90627517315E+02 0.  0.
         23    2    4    4    0    0 -0.54547673697E+03  0.19851556536E+03 -0.11799862213E+03  0.59926364770E+03  0.90774139329E+02 0.  0.
          4    1    3    3  502    0  0.15110107384E+03 -0.13193363542E+03  0.59502961763E+02  0.20923341304E+03  0.00000000000E+00 0. -1.
         -3    1    3    3    0  502  0.13409380110E+03 -0.10623427644E+03  0.13163729033E+03  0.21585931806E+03  0.00000000000E+00 0.  1.
         13    1    5    5    0    0  0.36475046985E+02  0.27918654081E+02  0.87191628588E+02  0.98550801083E+02  0.00000000000E+00 0.  1.
        -13    1    5    5    0    0  0.22380681504E+03  0.11733692427E+02  0.18143111452E+03  0.28834774026E+03  0.00000000000E+00 0. -1.
          1    1    6    6  503    0 -0.36920663000E+03  0.17846261085E+03 -0.85888432011E+02  0.41897405869E+03  0.00000000000E+00 0. -1.
         -1    1    6    6    0  503 -0.17627010697E+03  0.20052954513E+02 -0.32110190116E+02  0.18028958901E+03  0.00000000000E+00 0.  1.
<mgrwt>
<rscale>  0 0.13692471E+04</rscale>
<asrwt>0</asrwt>
<pdfrwt beam="1">  1        4 0.82268504E-01 0.13692471E+04</pdfrwt>
<pdfrwt beam="2">  1       -3 0.13484764E+00 0.13692471E+04</pdfrwt>
<totfact> 0.12304547E+00</totfact>
</mgrwt>
</event>
<event>
12    7  0.2466188E-007  0.1828864E+04  0.7818608E-02  0.8691099E-01
         -3   -1    0    0    0  501 -0.00000000000E+00  0.00000000000E+00  0.50826752293E+03  0.50826752293E+03  0.00000000000E+00 0.  1.
          2   -1    0    0  501    0  0.00000000000E+00 -0.00000000000E+00 -0.16451685457E+04  0.16451685457E+04  0.00000000000E+00 0. -1.
         24    2    1    2    0    0  0.44586622331E+03 -0.45389314013E+03 -0.74657638244E+03  0.98396375901E+03  0.77412611856E+02 0.  0.
        254    2    1    2    0    0 -0.44586622331E+03  0.45389314013E+03 -0.39032464031E+03  0.11694723096E+04  0.90027578350E+03 0.  0.
         23    2    4    4    0    0  0.24238624815E+02  0.34588303143E+03 -0.54652301967E+03  0.65441162492E+03  0.96667375232E+02 0.  0.
         23    2    4    4    0    0 -0.47010484813E+03  0.10801010870E+03  0.15619837936E+03  0.51506068469E+03  0.90690812001E+02 0.  0.
          2    1    3    3  502    0  0.34071632089E+03 -0.37418750503E+03 -0.62834306616E+03  0.80679545675E+03  0.00000000000E+00 0. -1.
         -1    1    3    3    0  502  0.10514990242E+03 -0.79705635093E+02 -0.11823331628E+03  0.17716830226E+03  0.00000000000E+00 0.  1.
         13    1    5    5    0    0  0.22798506383E+02  0.43067559592E+02 -0.13466697909E+03  0.14321236623E+03  0.00000000000E+00 0.  1.
        -13    1    5    5    0    0  0.14401184318E+01  0.30281547184E+03 -0.41185604058E+03  0.51119925869E+03  0.00000000000E+00 0. -1.
          1    1    6    6  503    0 -0.15158976625E+03  0.30536527737E+02  0.67058121994E+01  0.15478018179E+03  0.00000000000E+00 0. -1.
         -1    1    6    6    0  503 -0.31851508188E+03  0.77473580960E+02  0.14949256716E+03  0.36028050289E+03  0.00000000000E+00 0.  1.
<mgrwt>
<rscale>  0 0.18288638E+04</rscale>
<asrwt>0</asrwt>
<pdfrwt beam="1">  1        2 0.25310285E+00 0.18288638E+04</pdfrwt>
<pdfrwt beam="2">  1       -3 0.78195004E-01 0.18288638E+04</pdfrwt>
<totfact> 0.96777752E+00</totfact>
</mgrwt>
</event>
<event>
12    7  0.2466188E-007  0.1475074E+04  0.7818608E-02  0.8901200E-01
         -1   -1    0    0    0  501 -0.00000000000E+00  0.00000000000E+00  0.39916894914E+03  0.39916894914E+03  0.00000000000E+00 0.  1.
          2   -1    0    0  501    0  0.00000000000E+00 -0.00000000000E+00 -0.13627332598E+04  0.13627332598E+04  0.00000000000E+00 0. -1.
         24    2    1    2    0    0 -0.36513116838E+02 -0.45388096650E+03 -0.16380401775E+03  0.49048728751E+03  0.80030516194E+02 0.  0.
        254    2    1    2    0    0  0.36513116838E+02  0.45388096650E+03 -0.79976029294E+03  0.12714149215E+04  0.87723328534E+03 0.  0.
         23    2    4    4    0    0  0.60070430508E+02 -0.20408920562E+03 -0.11070603814E+01  0.23228990163E+03  0.93255092866E+02 0.  0.
         23    2    4    4    0    0 -0.23557313670E+02  0.65797017212E+03 -0.79865323256E+03  0.10391250198E+04  0.91946324148E+02 0.  0.
          2    1    3    3  502    0 -0.35152626761E+02 -0.43216938017E+03 -0.17304483647E+03  0.46685179207E+03  0.00000000000E+00 0. -1.
         -1    1    3    3    0  502 -0.13604900770E+01 -0.21711586330E+02  0.92408187193E+01  0.23635495442E+02  0.00000000000E+00 0.  1.
         13    1    5    5    0    0  0.35161435614E+02 -0.79234932960E+02  0.44008889840E+02  0.97217712072E+02  0.00000000000E+00 0. -1.
        -13    1    5    5    0    0  0.24908994895E+02 -0.12485427266E+03 -0.45115950221E+02  0.13507218956E+03  0.00000000000E+00 0.  1.
          4    1    6    6  503    0 -0.51817165767E+02  0.39846527603E+03 -0.52222821370E+03  0.65892480759E+03  0.00000000000E+00 0. -1.
         -4    1    6    6    0  503  0.28259852097E+02  0.25950489609E+03 -0.27642501886E+03  0.38020021224E+03  0.00000000000E+00 0.  1.
<mgrwt>
<rscale>  0 0.14750740E+04</rscale>
<asrwt>0</asrwt>
<pdfrwt beam="1">  1        2 0.20965128E+00 0.14750740E+04</pdfrwt>
<pdfrwt beam="2">  1       -1 0.61410606E-01 0.14750740E+04</pdfrwt>
<totfact> 0.45106985E+01</totfact>
</mgrwt>
</event>
<event>
12    7  0.2466188E-007  0.2826093E+04  0.7818608E-02  0.8295213E-01
          2   -1    0    0  501    0  0.00000000000E+00  0.00000000000E+00  0.23960290884E+04  0.23960290884E+04  0.00000000000E+00 0. -1.
         -1   -1    0    0    0  501 -0.00000000000E+00 -0.00000000000E+00 -0.83333725219E+03  0.83333725219E+03  0.00000000000E+00 0.  1.
         24    2    1    2    0    0 -0.38013046380E+03 -0.89413310917E+03  0.16347281820E+04  0.19033092648E+04  0.79225891641E+02 0.  0.
        254    2    1    2    0    0  0.38013046380E+03  0.89413310917E+03 -0.72036345852E+02  0.13260570758E+04  0.89959154433E+03 0.  0.
         23    2    4    4    0    0  0.48683709243E+02  0.66987488234E+03 -0.41260840348E+03  0.79300590184E+03  0.86661434273E+02 0.  0.
         23    2    4    4    0    0  0.33144675455E+03  0.22425822684E+03  0.34057205763E+03  0.53305117392E+03  0.89473594842E+02 0.  0.
          4    1    3    3  502    0 -0.12108632236E+03 -0.21050580978E+03  0.44376385268E+03  0.50586653414E+03  0.00000000000E+00 0. -1.
         -1    1    3    3    0  502 -0.25904414144E+03 -0.68362729939E+03  0.11909643294E+04  0.13974427307E+04  0.00000000000E+00 0.  1.
         13    1    5    5    0    0  0.17372129309E+01  0.35240308057E+03 -0.17351418247E+03  0.39280799460E+03  0.00000000000E+00 0. -1.
        -13    1    5    5    0    0  0.46946496312E+02  0.31747180177E+03 -0.23909422102E+03  0.40019790724E+03  0.00000000000E+00 0.  1.
          3    1    6    6  503    0  0.40653973474E+02  0.53807426578E+01  0.12028211091E+02  0.42736118364E+02  0.00000000000E+00 0. -1.
         -3    1    6    6    0  503  0.29079278108E+03  0.21887748418E+03  0.32854384654E+03  0.49031505556E+03  0.00000000000E+00 0.  1.
<mgrwt>
<rscale>  0 0.28260929E+04</rscale>
<asrwt>0</asrwt>
<pdfrwt beam="1">  1        2 0.36861986E+00 0.28260929E+04</pdfrwt>
<pdfrwt beam="2">  1       -1 0.12820573E+00 0.28260929E+04</pdfrwt>
<totfact> 0.20718242E+00</totfact>
</mgrwt>
</event>
<event>
12    7  0.2466188E-007  0.2775047E+04  0.7818608E-02  0.8311057E-01
          2   -1    0    0  501    0  0.00000000000E+00  0.00000000000E+00  0.17597402903E+04  0.17597402903E+04  0.00000000000E+00 0. -1.
         -1   -1    0    0    0  501 -0.00000000000E+00 -0.00000000000E+00 -0.10940373641E+04  0.10940373641E+04  0.00000000000E+00 0.  1.
         24    2    1    2    0    0  0.78121214597E+03 -0.93135820727E+03  0.55099562675E+03  0.13371889008E+04  0.82203701276E+02 0.  0.
        254    2    1    2    0    0 -0.78121214597E+03  0.93135820727E+03  0.11470729946E+03  0.15165887536E+04  0.89953496630E+03 0.  0.
         23    2    4    4    0    0  0.10415949745E+03 -0.72469985521E+02  0.77096262643E+02  0.17438732970E+03  0.91465880718E+02 0.  0.
         23    2    4    4    0    0 -0.88537164341E+03  0.10038281928E+04  0.37611036815E+02  0.13422014239E+04  0.92390933060E+02 0.  0.
          2    1    3    3  502    0  0.38442024416E+03 -0.52074180768E+03  0.28338251253E+03  0.70658092445E+03  0.00000000000E+00 0. -1.
         -1    1    3    3    0  502  0.39679190181E+03 -0.41061639959E+03  0.26761311422E+03  0.63060797637E+03  0.00000000000E+00 0.  1.
         13    1    5    5    0    0 -0.14750942248E+02 -0.75936600144E+01 -0.32327345854E+01  0.16902796884E+02  0.00000000000E+00 0. -1.
        -13    1    5    5    0    0  0.11891043969E+03 -0.64876325507E+02  0.80328997229E+02  0.15748453281E+03  0.00000000000E+00 0.  1.
          3    1    6    6  503    0 -0.34769451763E+03  0.37424715535E+03  0.57286620372E+02  0.51403712682E+03  0.00000000000E+00 0. -1.
         -3    1    6    6    0  503 -0.53767712579E+03  0.62958103745E+03 -0.19675583557E+02  0.82816429704E+03  0.00000000000E+00 0.  1.
<mgrwt>
<rscale>  0 0.27750471E+04</rscale>
<asrwt>0</asrwt>
<pdfrwt beam="1">  1        2 0.27072928E+00 0.27750471E+04</pdfrwt>
<pdfrwt beam="2">  1       -1 0.16831344E+00 0.27750471E+04</pdfrwt>
<totfact> 0.22830283E+00</totfact>
</mgrwt>
</event>
<event>
12    7  0.2466188E-007  0.2455389E+04  0.7818608E-02  0.8419053E-01
         -1   -1    0    0    0  501 -0.00000000000E+00  0.00000000000E+00  0.45280954420E+03  0.45280954420E+03  0.00000000000E+00 0.  1.
          2   -1    0    0  501    0  0.00000000000E+00 -0.00000000000E+00 -0.33286253935E+04  0.33286253935E+04  0.00000000000E+00 0. -1.
         24    2    1    2    0    0  0.70736812480E+02  0.89162684907E+03 -0.36774071372E+03  0.97031812215E+03  0.79258381460E+02 0.  0.
        254    2    1    2    0    0 -0.70736812480E+02 -0.89162684907E+03 -0.25080751356E+04  0.28111168156E+04  0.90107420915E+03 0.  0.
         23    2    4    4    0    0 -0.18164861319E+03 -0.94129838887E+03 -0.24745788046E+04  0.26553707332E+04  0.91731101544E+02 0.  0.
         23    2    4    4    0    0  0.11091180071E+03  0.49671539807E+02 -0.33496331004E+02  0.15574608238E+03  0.91466652848E+02 0.  0.
          2    1    3    3  502    0 -0.15429340312E+02  0.18076066080E+03 -0.86725462356E+02  0.20108154280E+03  0.00000000000E+00 0. -1.
         -1    1    3    3    0  502  0.86166152792E+02  0.71086618827E+03 -0.28101525136E+03  0.76923657935E+03  0.00000000000E+00 0.  1.
         13    1    5    5    0    0  0.25906201464E+01 -0.17094986555E+03 -0.43824017632E+03  0.47040941740E+03  0.00000000000E+00 0.  1.
        -13    1    5    5    0    0 -0.18423923333E+03 -0.77034852333E+03 -0.20363386283E+04  0.21849613158E+04  0.00000000000E+00 0. -1.
          4    1    6    6  503    0  0.80259108832E+02  0.39539283963E+02  0.21460980432E+02  0.92007897530E+02  0.00000000000E+00 0. -1.
         -4    1    6    6    0  503  0.30652691876E+02  0.10132255844E+02 -0.54957311437E+02  0.63738184851E+02  0.00000000000E+00 0.  1.
<mgrwt>
<rscale>  0 0.24553886E+04</rscale>
<asrwt>0</asrwt>
<pdfrwt beam="1">  1        2 0.51209622E+00 0.24553886E+04</pdfrwt>
<pdfrwt beam="2">  1       -1 0.69663007E-01 0.24553886E+04</pdfrwt>
<totfact> 0.22632987E+00</totfact>
</mgrwt>
</event>
<event>
12    7  0.2466188E-007  0.1945072E+04  0.7818608E-02  0.8632741E-01
          2   -1    0    0  501    0  0.00000000000E+00  0.00000000000E+00  0.22246984401E+04  0.22246984401E+04  0.00000000000E+00 0. -1.
         -1   -1    0    0    0  501 -0.00000000000E+00 -0.00000000000E+00 -0.42514809258E+03  0.42514809258E+03  0.00000000000E+00 0.  1.
         24    2    1    2    0    0 -0.14141886789E+02  0.55207337002E+02  0.17426012770E+04  0.17453906207E+04  0.80506925661E+02 0.  0.
        254    2    1    2    0    0  0.14141886789E+02 -0.55207337002E+02  0.56949070529E+02  0.90445591203E+03  0.90086039826E+03 0.  0.
         23    2    4    4    0    0  0.50182681214E+02 -0.14930994637E+03 -0.39364228318E+03  0.43378511078E+03  0.91670680435E+02 0.  0.
         23    2    4    4    0    0 -0.36040794424E+02  0.94102609372E+02  0.45059135371E+03  0.47067080124E+03  0.91346566181E+02 0.  0.
          2    1    3    3  502    0 -0.33693261941E+02  0.37972889604E+02  0.51140781737E+03  0.51392132853E+03  0.00000000000E+00 0. -1.
         -1    1    3    3    0  502  0.19551375152E+02  0.17234447398E+02  0.12311934597E+04  0.12314692922E+04  0.00000000000E+00 0.  1.
         13    1    5    5    0    0  0.55126533714E+02 -0.16063592696E+03 -0.36400730980E+03  0.40167668259E+03  0.00000000000E+00 0. -1.
        -13    1    5    5    0    0 -0.49438525002E+01  0.11325980587E+02 -0.29634973379E+02  0.32108428192E+02  0.00000000000E+00 0.  1.
          3    1    6    6  503    0 -0.51405010815E+02  0.10225884839E+03  0.42162012930E+03  0.43687856509E+03  0.00000000000E+00 0. -1.
         -3    1    6    6    0  503  0.15364216390E+02 -0.81562390126E+01  0.28971224412E+02  0.33792236151E+02  0.00000000000E+00 0.  1.
<mgrwt>
<rscale>  0 0.19450720E+04</rscale>
<asrwt>0</asrwt>
<pdfrwt beam="1">  1        2 0.34226129E+00 0.19450720E+04</pdfrwt>
<pdfrwt beam="2">  1       -1 0.65407400E-01 0.19450720E+04</pdfrwt>
<totfact> 0.12591713E+01</totfact>
</mgrwt>
</event>
<event>
12    7  0.2466188E-007  0.3832624E+04  0.7818608E-02  0.8039190E-01
          2   -1    0    0  501    0  0.00000000000E+00  0.00000000000E+00  0.27937044889E+04  0.27937044889E+04  0.00000000000E+00 0. -1.
         -1   -1    0    0    0  501 -0.00000000000E+00 -0.00000000000E+00 -0.13144740304E+04  0.13144740304E+04  0.00000000000E+00 0.  1.
         24    2    1    2    0    0 -0.13799401199E+04 -0.34053984629E+03 -0.50142592799E+03  0.15093194575E+04  0.80094582596E+02 0.  0.
        254    2    1    2    0    0  0.13799401199E+04  0.34053984629E+03  0.19806563864E+04  0.25988590618E+04  0.90048130512E+03 0.  0.
         23    2    4    4    0    0  0.77960626165E+03  0.60405647757E+03  0.14186434788E+04  0.17303417801E+04  0.94144594787E+02 0.  0.
         23    2    4    4    0    0  0.60033385821E+03 -0.26351663128E+03  0.56201290765E+03  0.86851728175E+03  0.92854747108E+02 0.  0.
          2    1    3    3  502    0 -0.49342278011E+03 -0.15161658913E+03 -0.15514727483E+03  0.53900306763E+03  0.00000000000E+00 0. -1.
         -1    1    3    3    0  502 -0.88651733975E+03 -0.18892325716E+03 -0.34627865316E+03  0.97031638985E+03  0.00000000000E+00 0.  1.
         13    1    5    5    0    0  0.75798033847E+03  0.58122775220E+03  0.13963717001E+04  0.16918078550E+04  0.00000000000E+00 0.  1.
        -13    1    5    5    0    0  0.21625923186E+02  0.22828725373E+02  0.22271778645E+02  0.38533925051E+02  0.00000000000E+00 0. -1.
          1    1    6    6  503    0  0.23797068068E+02 -0.32576437900E+02  0.24891258285E+02  0.47403581024E+02  0.00000000000E+00 0. -1.
         -1    1    6    6    0  503  0.57653679014E+03 -0.23094019338E+03  0.53712164936E+03  0.82111370073E+03  0.00000000000E+00 0.  1.
<mgrwt>
<rscale>  0 0.38326242E+04</rscale>
<asrwt>0</asrwt>
<pdfrwt beam="1">  1        2 0.42980069E+00 0.38326242E+04</pdfrwt>
<pdfrwt beam="2">  1       -1 0.20222677E+00 0.38326242E+04</pdfrwt>
<totfact> 0.30775928E-01</totfact>
</mgrwt>
</event>
<event>
12    7  0.2466188E-007  0.2949879E+04  0.7818608E-02  0.8258190E-01
          2   -1    0    0  501    0  0.00000000000E+00  0.00000000000E+00  0.17463139345E+04  0.17463139345E+04  0.00000000000E+00 0. -1.
         -1   -1    0    0    0  501 -0.00000000000E+00 -0.00000000000E+00 -0.12457360307E+04  0.12457360307E+04  0.00000000000E+00 0.  1.
         24    2    1    2    0    0 -0.13027845961E+04  0.38162956404E+02  0.52448641197E+03  0.14074556803E+04  0.84506689821E+02 0.  0.
        254    2    1    2    0    0  0.13027845961E+04 -0.38162956404E+02 -0.23908508096E+02  0.15845942849E+04  0.90092359047E+03 0.  0.
         23    2    4    4    0    0  0.10168673792E+04  0.36061029688E+03  0.14648439093E+02  0.10837098778E+04  0.10076442484E+03 0.  0.
         23    2    4    4    0    0  0.28591721685E+03 -0.39877325329E+03 -0.38556947189E+02  0.50088440707E+03  0.92896655705E+02 0.  0.
          2    1    3    3  502    0 -0.28631567023E+03  0.26957414442E+02  0.84060788032E+02  0.29961572272E+03  0.00000000000E+00 0. -1.
         -1    1    3    3    0  502 -0.10164689259E+04  0.11205541963E+02  0.44042562394E+03  0.11078399576E+04  0.00000000000E+00 0.  1.
         13    1    5    5    0    0  0.58222974971E+03  0.21045991760E+03  0.58093945166E+02  0.62181972052E+03  0.00000000000E+00 0. -1.
        -13    1    5    5    0    0  0.43463762953E+03  0.15015037928E+03 -0.43445506073E+02  0.46189015729E+03  0.00000000000E+00 0.  1.
          2    1    6    6  503    0  0.10105010444E+02 -0.10579395881E+02 -0.19401010694E+02  0.24298849134E+02  0.00000000000E+00 0. -1.
         -2    1    6    6    0  503  0.27581220641E+03 -0.38819385741E+03 -0.19155936494E+02  0.47658555794E+03  0.00000000000E+00 0.  1.
<mgrwt>
<rscale>  0 0.29498788E+04</rscale>
<asrwt>0</asrwt>
<pdfrwt beam="1">  1        2 0.26866368E+00 0.29498788E+04</pdfrwt>
<pdfrwt beam="2">  1       -1 0.19165170E+00 0.29498788E+04</pdfrwt>
<totfact> 0.15555891E+00</totfact>
</mgrwt>
</event>
<event>
12    7  0.2466188E-007  0.2818017E+04  0.7818608E-02  0.8297697E-01
         -1   -1    0    0    0  501 -0.00000000000E+00  0.00000000000E+00  0.86727461612E+03  0.86727461612E+03  0.00000000000E+00 0.  1.
          2   -1    0    0  501    0  0.00000000000E+00 -0.00000000000E+00 -0.22891305821E+04  0.22891305821E+04  0.00000000000E+00 0. -1.
         24    2    1    2    0    0  0.85644185807E+03 -0.22340019774E+03  0.37104806999E+03  0.96293813149E+03  0.78567615558E+02 0.  0.
        254    2    1    2    0    0 -0.85644185807E+03  0.22340019774E+03 -0.17929040359E+04  0.21934670667E+04  0.90188280058E+03 0.  0.
         23    2    4    4    0    0 -0.28522187226E+03  0.30115996751E+03 -0.15017516768E+03  0.45018656814E+03  0.89813822452E+02 0.  0.
         23    2    4    4    0    0 -0.57121998581E+03 -0.77759769769E+02 -0.16427288683E+04  0.17432804986E+04  0.90166002657E+02 0.  0.
          4    1    3    3  502    0  0.12395748585E+03 -0.13446848187E+02  0.30739156788E+02  0.12841795740E+03  0.00000000000E+00 0. -1.
         -3    1    3    3    0  502  0.73248437223E+03 -0.20995334955E+03  0.34030891320E+03  0.83452017408E+03  0.00000000000E+00 0.  1.
         13    1    5    5    0    0 -0.16451760402E+03  0.11045430488E+03 -0.81634243403E+02  0.21431366077E+03  0.00000000000E+00 0.  1.
        -13    1    5    5    0    0 -0.12070426824E+03  0.19070566263E+03 -0.68540924279E+02  0.23587290737E+03  0.00000000000E+00 0. -1.
          1    1    6    6  503    0 -0.24023943590E+03 -0.40729383498E+02 -0.56604996247E+03  0.61626814720E+03  0.00000000000E+00 0. -1.
         -1    1    6    6    0  503 -0.33098054991E+03 -0.37030386271E+02 -0.10766789058E+04  0.11270123513E+04  0.00000000000E+00 0.  1.
<mgrwt>
<rscale>  0 0.28180169E+04</rscale>
<asrwt>0</asrwt>
<pdfrwt beam="1">  1        2 0.35217393E+00 0.28180169E+04</pdfrwt>
<pdfrwt beam="2">  1       -1 0.13342686E+00 0.28180169E+04</pdfrwt>
<totfact> 0.21562987E+00</totfact>
</mgrwt>
</event>
<event>
12    7  0.2466188E-007  0.1738471E+04  0.7818608E-02  0.8739722E-01
          4   -1    0    0  501    0  0.00000000000E+00  0.00000000000E+00  0.22716159882E+03  0.22716159882E+03  0.00000000000E+00 0. -1.
         -3   -1    0    0    0  501 -0.00000000000E+00 -0.00000000000E+00 -0.33261355449E+04  0.33261355449E+04  0.00000000000E+00 0.  1.
         24    2    1    2    0    0 -0.61782635337E+02 -0.37246567937E+03 -0.98820654163E+02  0.39841427430E+03  0.80128870811E+02 0.  0.
        254    2    1    2    0    0  0.61782635337E+02  0.37246567937E+03 -0.30001532919E+04  0.31548828694E+04  0.89989908791E+03 0.  0.
         23    2    4    4    0    0  0.16731850555E+03  0.45375209426E+03 -0.73846617484E+03  0.88745552590E+03  0.91425235643E+02 0.  0.
         23    2    4    4    0    0 -0.10553587021E+03 -0.81286414892E+02 -0.22616871171E+04  0.22674273435E+04  0.90845151083E+02 0.  0.
          2    1    3    3  502    0 -0.23301512425E+02 -0.25626294914E+03 -0.32988820971E+02  0.25942613957E+03  0.00000000000E+00 0. -1.
         -1    1    3    3    0  502 -0.38481122912E+02 -0.11620273023E+03 -0.65831833193E+02  0.13898813472E+03  0.00000000000E+00 0.  1.
         13    1    5    5    0    0 -0.10800612577E+02  0.45426999872E+02 -0.71437262257E+02  0.85343705030E+02  0.00000000000E+00 0.  1.
        -13    1    5    5    0    0  0.17811911812E+03  0.40832509439E+03 -0.66702891259E+03  0.80211182087E+03  0.00000000000E+00 0. -1.
          3    1    6    6  503    0 -0.77195057964E+02 -0.81718786272E+01 -0.83995400877E+03  0.84353339793E+03  0.00000000000E+00 0. -1.
         -3    1    6    6    0  503 -0.28340812245E+02 -0.73114536265E+02 -0.14217331083E+04  0.14238939456E+04  0.00000000000E+00 0.  1.
<mgrwt>
<rscale>  0 0.17384709E+04</rscale>
<asrwt>0</asrwt>
<pdfrwt beam="1">  1        4 0.34947939E-01 0.17384709E+04</pdfrwt>
<pdfrwt beam="2">  1       -3 0.51171315E+00 0.17384709E+04</pdfrwt>
<totfact> 0.46215692E-02</totfact>
</mgrwt>
</event>
<event>
12    7  0.2466188E-007  0.2502940E+04  0.7818608E-02  0.8401939E-01
          2   -1    0    0  501    0  0.00000000000E+00  0.00000000000E+00  0.55995619125E+03  0.55995619125E+03  0.00000000000E+00 0. -1.
         -1   -1    0    0    0  501 -0.00000000000E+00 -0.00000000000E+00 -0.27969632837E+04  0.27969632837E+04  0.00000000000E+00 0.  1.
         24    2    1    2    0    0 -0.89939084702E+03 -0.17334827261E+03 -0.17629775246E+04  0.19883248463E+04  0.79952629338E+02 0.  0.
        254    2    1    2    0    0  0.89939084702E+03  0.17334827261E+03 -0.47402956787E+03  0.13685946286E+04  0.89966310750E+03 0.  0.
         23    2    4    4    0    0 -0.40354716188E+02  0.10416972439E+03 -0.39256406470E+03  0.41822317219E+03  0.91237285524E+02 0.  0.
         23    2    4    4    0    0  0.93974556321E+03  0.69178548225E+02 -0.81465503173E+02  0.95037145644E+03  0.93069231786E+02 0.  0.
          2    1    3    3  502    0 -0.73323019967E+03 -0.14787921785E+03 -0.13698187430E+04  0.15607364215E+04  0.00000000000E+00 0. -1.
         -1    1    3    3    0  502 -0.16616064736E+03 -0.25469054766E+02 -0.39315878158E+03  0.42758842479E+03  0.00000000000E+00 0.  1.
         13    1    5    5    0    0 -0.12021209059E+01 -0.12178335892E+02 -0.10283099109E+03  0.10355660138E+03  0.00000000000E+00 0. -1.
        -13    1    5    5    0    0 -0.39152595282E+02  0.11634806028E+03 -0.28973307360E+03  0.31466657081E+03  0.00000000000E+00 0.  1.
          4    1    6    6  503    0  0.57889421708E+03  0.81284895551E+02 -0.26655352092E+02  0.58518053334E+03  0.00000000000E+00 0. -1.
         -4    1    6    6    0  503  0.36085134614E+03 -0.12106347325E+02 -0.54810151081E+02  0.36519092310E+03  0.00000000000E+00 0.  1.
<mgrwt>
<rscale>  0 0.25029398E+04</rscale>
<asrwt>0</asrwt>
<pdfrwt beam="1">  1        2 0.86147107E-01 0.25029398E+04</pdfrwt>
<pdfrwt beam="2">  1       -1 0.43030204E+00 0.25029398E+04</pdfrwt>
<totfact> 0.24262684E-01</totfact>
</mgrwt>
</event>
<event>
12    7  0.2466188E-007  0.2217097E+04  0.7818608E-02  0.8511346E-01
          2   -1    0    0  501    0  0.00000000000E+00  0.00000000000E+00  0.23137135077E+04  0.23137135077E+04  0.00000000000E+00 0. -1.
         -1   -1    0    0    0  501 -0.00000000000E+00 -0.00000000000E+00 -0.53112855581E+03  0.53112855581E+03  0.00000000000E+00 0.  1.
         24    2    1    2    0    0 -0.13610831433E+03 -0.31807475808E+03  0.18448830573E+04  0.18787194944E+04  0.79349974409E+02 0.  0.
        254    2    1    2    0    0  0.13610831433E+03  0.31807475808E+03 -0.62298105458E+02  0.96612256910E+03  0.89989707168E+03 0.  0.
         23    2    4    4    0    0  0.49389030205E+03  0.30858199526E+03  0.11207394991E+02  0.58936865760E+03  0.89885096645E+02 0.  0.
         23    2    4    4    0    0 -0.35778198771E+03  0.94927628206E+01 -0.73505500449E+02  0.37675391150E+03  0.91882468183E+02 0.  0.
          2    1    3    3  502    0 -0.10330220978E+03 -0.29671899380E+03  0.15772063986E+04  0.16081957380E+04  0.00000000000E+00 0. -1.
         -1    1    3    3    0  502 -0.32806104558E+02 -0.21355764288E+02  0.26767665874E+03  0.27052375644E+03  0.00000000000E+00 0.  1.
         13    1    5    5    0    0  0.41009994553E+03  0.21646511060E+03 -0.53100019727E+01  0.46375349654E+03  0.00000000000E+00 0.  1.
        -13    1    5    5    0    0  0.83790356516E+02  0.92116884663E+02  0.16517396964E+02  0.12561516106E+03  0.00000000000E+00 0. -1.
          3    1    6    6  503    0 -0.11578922016E+03 -0.35113615903E+02 -0.44764703576E+02  0.12901158170E+03  0.00000000000E+00 0. -1.
         -3    1    6    6    0  503 -0.24199276755E+03  0.44606378723E+02 -0.28740796874E+02  0.24774232980E+03  0.00000000000E+00 0.  1.
<mgrwt>
<rscale>  0 0.22170966E+04</rscale>
<asrwt>0</asrwt>
<pdfrwt beam="1">  1        2 0.35595592E+00 0.22170966E+04</pdfrwt>
<pdfrwt beam="2">  1       -1 0.81712087E-01 0.22170966E+04</pdfrwt>
<totfact> 0.68950489E+00</totfact>
</mgrwt>
</event>
<event>
12    7  0.2466188E-007  0.1534460E+04  0.7818608E-02  0.8861856E-01
          2   -1    0    0  501    0  0.00000000000E+00  0.00000000000E+00  0.23226863382E+03  0.23226863382E+03  0.00000000000E+00 0. -1.
         -1   -1    0    0    0  501 -0.00000000000E+00 -0.00000000000E+00 -0.25343141416E+04  0.25343141416E+04  0.00000000000E+00 0.  1.
         24    2    1    2    0    0 -0.29885335526E+03 -0.31621465431E+03 -0.31755503147E+03  0.54456794621E+03  0.80050074838E+02 0.  0.
        254    2    1    2    0    0  0.29885335526E+03  0.31621465431E+03 -0.19844904763E+04  0.22220148292E+04  0.89991244858E+03 0.  0.
         23    2    4    4    0    0  0.18500988890E+03 -0.10414821766E+03 -0.16459798884E+04  0.16621866124E+04  0.92406878409E+02 0.  0.
         23    2    4    4    0    0  0.11384346637E+03  0.42036287197E+03 -0.33851058793E+03  0.55982821683E+03  0.95670973937E+02 0.  0.
          2    1    3    3  502    0 -0.12069774157E+03 -0.90275052209E+02 -0.75558607119E+02  0.16860199578E+03  0.00000000000E+00 0. -1.
         -1    1    3    3    0  502 -0.17815561369E+03 -0.22593960210E+03 -0.24199642435E+03  0.37596595043E+03  0.00000000000E+00 0.  1.
         13    1    5    5    0    0  0.83044462234E+02 -0.17049023750E+02 -0.92219461624E+03  0.92608312917E+03  0.00000000000E+00 0. -1.
        -13    1    5    5    0    0  0.10196542666E+03 -0.87099193914E+02 -0.72378527214E+03  0.73610348320E+03  0.00000000000E+00 0.  1.
          4    1    6    6  503    0  0.11945603848E+03  0.34663843763E+03 -0.24655495701E+03  0.44183401680E+03  0.00000000000E+00 0. -1.
         -4    1    6    6    0  503 -0.56125721099E+01  0.73724434339E+02 -0.91955630913E+02  0.11799420003E+03  0.00000000000E+00 0.  1.
<mgrwt>
<rscale>  0 0.15344598E+04</rscale>
<asrwt>0</asrwt>
<pdfrwt beam="1">  1        2 0.35733636E-01 0.15344598E+04</pdfrwt>
<pdfrwt beam="2">  1       -1 0.38989448E+00 0.15344598E+04</pdfrwt>
<totfact> 0.13613758E+00</totfact>
</mgrwt>
</event>
<event>
12    7  0.2466188E-007  0.2600268E+04  0.7818608E-02  0.8368110E-01
          2   -1    0    0  501    0  0.00000000000E+00  0.00000000000E+00  0.29245379745E+04  0.29245379745E+04  0.00000000000E+00 0. -1.
         -3   -1    0    0    0  501 -0.00000000000E+00 -0.00000000000E+00 -0.57798798253E+03  0.57798798253E+03  0.00000000000E+00 0.  1.
         24    2    1    2    0    0 -0.73605807000E+03  0.71113602209E+03  0.16906292137E+04  0.19780593409E+04  0.83640263977E+02 0.  0.
        254    2    1    2    0    0  0.73605807000E+03 -0.71113602209E+03  0.65592077827E+03  0.15244666161E+04  0.91992960160E+03 0.  0.
         23    2    4    4    0    0  0.32881869738E+03  0.49739444284E+02  0.55151394652E+03  0.65046621554E+03  0.91339565839E+02 0.  0.
         23    2    4    4    0    0  0.40723937262E+03 -0.76087546637E+03  0.10440683175E+03  0.87400040055E+03  0.90556787211E+02 0.  0.
          4    1    3    3  502    0 -0.45839541048E+03  0.43056573729E+03  0.11140213283E+04  0.12792797686E+04  0.00000000000E+00 0. -1.
         -3    1    3    3    0  502 -0.27766265952E+03  0.28057028479E+03  0.57660788543E+03  0.69877957235E+03  0.00000000000E+00 0.  1.
         13    1    5    5    0    0  0.19728792622E+03  0.58608245680E+02  0.39840021445E+03  0.44841965074E+03  0.00000000000E+00 0. -1.
        -13    1    5    5    0    0  0.13153077115E+03 -0.88688013961E+01  0.15311373207E+03  0.20204656480E+03  0.00000000000E+00 0.  1.
          1    1    6    6  503    0  0.20436651500E+03 -0.30742050801E+03  0.16548131044E+02  0.36952250519E+03  0.00000000000E+00 0. -1.
         -1    1    6    6    0  503  0.20287285761E+03 -0.45345495836E+03  0.87858700704E+02  0.50447789536E+03  0.00000000000E+00 0.  1.
<mgrwt>
<rscale>  0 0.26002675E+04</rscale>
<asrwt>0</asrwt>
<pdfrwt beam="1">  1        2 0.44992891E+00 0.26002675E+04</pdfrwt>
<pdfrwt beam="2">  1       -3 0.88921230E-01 0.26002675E+04</pdfrwt>
<totfact> 0.12600087E+00</totfact>
</mgrwt>
</event>
<event>
12    7  0.2466188E-007  0.3187905E+04  0.7818608E-02  0.8192019E-01
         -1   -1    0    0    0  501 -0.00000000000E+00  0.00000000000E+00  0.96493757349E+03  0.96493757349E+03  0.00000000000E+00 0.  1.
          2   -1    0    0  501    0  0.00000000000E+00 -0.00000000000E+00 -0.26330044272E+04  0.26330044272E+04  0.00000000000E+00 0. -1.
         24    2    1    2    0    0  0.13229847286E+03  0.12785056190E+04 -0.15637007636E+04  0.20257632142E+04  0.80479923347E+02 0.  0.
        254    2    1    2    0    0 -0.13229847286E+03 -0.12785056190E+04 -0.10436609010E+03  0.15721787865E+04  0.89931882677E+03 0.  0.
         23    2    4    4    0    0 -0.47230857075E+03 -0.44621602851E+03  0.39993076034E+02  0.65721819838E+03  0.90289445955E+02 0.  0.
         23    2    4    4    0    0  0.34001009790E+03 -0.83228959051E+03 -0.14435916613E+03  0.91496058812E+03  0.89445401315E+02 0.  0.
          2    1    3    3  502    0  0.10033613568E+02  0.20311782308E+03 -0.29208020607E+03  0.35590500170E+03  0.00000000000E+00 0. -1.
         -1    1    3    3    0  502  0.12226485929E+03  0.10753877959E+04 -0.12716205575E+04  0.16698582125E+04  0.00000000000E+00 0.  1.
         13    1    5    5    0    0 -0.44376724353E+03 -0.43150491063E+03  0.55700192074E+02  0.62147273932E+03  0.00000000000E+00 0.  1.
        -13    1    5    5    0    0 -0.28541327228E+02 -0.14711117878E+02 -0.15707116040E+02  0.35745459061E+02  0.00000000000E+00 0. -1.
          2    1    6    6  503    0  0.22643166104E+02 -0.12945749522E+03 -0.66019298674E+01  0.13158853111E+03  0.00000000000E+00 0. -1.
         -2    1    6    6    0  503  0.31736693179E+03 -0.70283209529E+03 -0.13775723627E+03  0.78337205701E+03  0.00000000000E+00 0.  1.
<mgrwt>
<rscale>  0 0.31879052E+04</rscale>
<asrwt>0</asrwt>
<pdfrwt beam="1">  1        2 0.40507760E+00 0.31879052E+04</pdfrwt>
<pdfrwt beam="2">  1       -1 0.14845194E+00 0.31879052E+04</pdfrwt>
<totfact> 0.99966419E-01</totfact>
</mgrwt>
</event>
<event>
12    7  0.2466188E-007  0.1651029E+04  0.7818608E-02  0.8789798E-01
         -1   -1    0    0    0  501 -0.00000000000E+00  0.00000000000E+00  0.58497254771E+03  0.58497254771E+03  0.00000000000E+00 0.  1.
          2   -1    0    0  501    0  0.00000000000E+00 -0.00000000000E+00 -0.11649672421E+04  0.11649672421E+04  0.00000000000E+00 0. -1.
         24    2    1    2    0    0  0.56255099920E+03  0.53847093881E+02 -0.30661485705E+03  0.64796973046E+03  0.80554111099E+02 0.  0.
        254    2    1    2    0    0 -0.56255099920E+03 -0.53847093881E+02 -0.27337983738E+03  0.11019700594E+04  0.90567010555E+03 0.  0.
         23    2    4    4    0    0  0.12469887275E+03  0.80080640602E+02  0.19058144859E+03  0.25740184781E+03  0.89284404256E+02 0.  0.
         23    2    4    4    0    0 -0.68724987194E+03 -0.13392773448E+03 -0.46396128597E+03  0.84456821158E+03  0.88240379489E+02 0.  0.
          4    1    3    3  502    0  0.61188355534E+02  0.52857544395E+01 -0.64605975512E+02  0.89139700048E+02  0.00000000000E+00 0. -1.
         -3    1    3    3    0  502  0.50136264366E+03  0.48561339442E+02 -0.24200888154E+03  0.55883003042E+03  0.00000000000E+00 0.  1.
         13    1    5    5    0    0  0.72546908222E+02  0.87151506137E+01  0.41349050465E+02  0.83956844374E+02  0.00000000000E+00 0.  1.
        -13    1    5    5    0    0  0.52151964524E+02  0.71365489988E+02  0.14923239813E+03  0.17344500343E+03  0.00000000000E+00 0. -1.
          3    1    6    6  503    0 -0.30226126435E+03 -0.84592354638E+02 -0.25066659073E+03  0.40168579524E+03  0.00000000000E+00 0. -1.
         -3    1    6    6    0  503 -0.38498860759E+03 -0.49335379846E+02 -0.21329469525E+03  0.44288241634E+03  0.00000000000E+00 0.  1.
<mgrwt>
<rscale>  0 0.16510286E+04</rscale>
<asrwt>0</asrwt>
<pdfrwt beam="1">  1        2 0.17922573E+00 0.16510286E+04</pdfrwt>
<pdfrwt beam="2">  1       -1 0.89995776E-01 0.16510286E+04</pdfrwt>
<totfact> 0.26167551E+01</totfact>
</mgrwt>
</event>
<event>
12    7  0.2466188E-007  0.2704114E+04  0.7818608E-02  0.8333671E-01
         -1   -1    0    0    0  501 -0.00000000000E+00  0.00000000000E+00  0.14361382972E+04  0.14361382972E+04  0.00000000000E+00 0.  1.
          2   -1    0    0  501    0  0.00000000000E+00 -0.00000000000E+00 -0.12728984707E+04  0.12728984707E+04  0.00000000000E+00 0. -1.
         24    2    1    2    0    0  0.40052516697E+03  0.91642893086E+03 -0.59288626389E+03  0.11654264054E+04  0.80263253312E+02 0.  0.
        254    2    1    2    0    0 -0.40052516697E+03 -0.91642893086E+03  0.75612609039E+03  0.15436103625E+04  0.90041317854E+03 0.  0.
         23    2    4    4    0    0 -0.62135303639E+03 -0.37378274169E+03  0.27669152354E+03  0.78196932624E+03  0.95523265024E+02 0.  0.
         23    2    4    4    0    0  0.22082786942E+03 -0.54264618917E+03  0.47943456685E+03  0.76164103631E+03  0.83724128910E+02 0.  0.
          2    1    3    3  502    0  0.74358556121E+02  0.16742223509E+03 -0.73681737547E+02  0.19745480019E+03  0.00000000000E+00 0. -1.
         -3    1    3    3    0  502  0.32616661085E+03  0.74900669578E+03 -0.51920452634E+03  0.96797160523E+03  0.00000000000E+00 0.  1.
         13    1    5    5    0    0 -0.46008415275E+03 -0.26316321541E+03  0.15745207983E+03  0.55292265553E+03  0.00000000000E+00 0. -1.
        -13    1    5    5    0    0 -0.16126888364E+03 -0.11061952628E+03  0.11923944371E+03  0.22904667071E+03  0.00000000000E+00 0.  1.
          4    1    6    6  503    0  0.74007756380E+02 -0.97152846523E+02  0.85255250612E+02  0.14894388658E+03  0.00000000000E+00 0.  1.
         -4    1    6    6    0  503  0.14682011304E+03 -0.44549334265E+03  0.39417931624E+03  0.61269714973E+03  0.00000000000E+00 0. -1.
<mgrwt>
<rscale>  0 0.27041141E+04</rscale>
<asrwt>0</asrwt>
<pdfrwt beam="1">  1        2 0.19583053E+00 0.27041141E+04</pdfrwt>
<pdfrwt beam="2">  1       -1 0.22094435E+00 0.27041141E+04</pdfrwt>
<totfact> 0.18582317E+00</totfact>
</mgrwt>
</event>
<event>
12    7  0.2466188E-007  0.1965143E+04  0.7818608E-02  0.8623093E-01
          2   -1    0    0  501    0  0.00000000000E+00  0.00000000000E+00  0.23124192538E+04  0.23124192538E+04  0.00000000000E+00 0. -1.
         -1   -1    0    0    0  501 -0.00000000000E+00 -0.00000000000E+00 -0.41750527383E+03  0.41750527383E+03  0.00000000000E+00 0.  1.
         24    2    1    2    0    0 -0.23279823052E+03  0.40953243183E+03 -0.10312337408E+03  0.48904453639E+03  0.81352931372E+02 0.  0.
        254    2    1    2    0    0  0.23279823052E+03 -0.40953243183E+03  0.19980373541E+04  0.22408799913E+04  0.89859781775E+03 0.  0.
         23    2    4    4    0    0  0.36710535665E+02  0.18455308260E+03  0.84973722056E+02  0.22603868255E+03  0.92007873816E+02 0.  0.
         23    2    4    4    0    0  0.19608769486E+03 -0.59408551442E+03  0.19130636320E+04  0.20148413087E+04  0.91569954539E+02 0.  0.
          2    1    3    3  502    0 -0.63684304817E+02  0.17210216137E+03 -0.13164980898E+02  0.18397869809E+03  0.00000000000E+00 0. -1.
         -1    1    3    3    0  502 -0.16911392571E+03  0.23743027045E+03 -0.89958393185E+02  0.30506583830E+03  0.00000000000E+00 0.  1.
         13    1    5    5    0    0  0.21488321359E+02  0.13329479204E+03  0.10277569599E+03  0.16968233033E+03  0.00000000000E+00 0. -1.
        -13    1    5    5    0    0  0.15222214306E+02  0.51258290560E+02 -0.17801973938E+02  0.56356352220E+02  0.00000000000E+00 0.  1.
          4    1    6    6  503    0  0.41136780814E+02 -0.24287067576E+03  0.66964203331E+03  0.71351163456E+03  0.00000000000E+00 0. -1.
         -4    1    6    6    0  503  0.15495091404E+03 -0.35121483867E+03  0.12434215987E+04  0.13013296742E+04  0.00000000000E+00 0.  1.
<mgrwt>
<rscale>  0 0.19651435E+04</rscale>
<asrwt>0</asrwt>
<pdfrwt beam="1">  1        2 0.35575680E+00 0.19651435E+04</pdfrwt>
<pdfrwt beam="2">  1       -1 0.64231582E-01 0.19651435E+04</pdfrwt>
<totfact> 0.11631644E+01</totfact>
</mgrwt>
</event>
<event>
12    7  0.2466188E-007  0.3542718E+04  0.7818608E-02  0.8103740E-01
          2   -1    0    0  501    0  0.00000000000E+00  0.00000000000E+00  0.26673657901E+04  0.26673657901E+04  0.00000000000E+00 0. -1.
         -1   -1    0    0    0  501 -0.00000000000E+00 -0.00000000000E+00 -0.11763338176E+04  0.11763338176E+04  0.00000000000E+00 0.  1.
         24    2    1    2    0    0 -0.52943705269E+03  0.11915409357E+04  0.18046552935E+04  0.22278768081E+04  0.81123050001E+02 0.  0.
        254    2    1    2    0    0  0.52943705269E+03 -0.11915409357E+04 -0.31362332101E+03  0.16158227995E+04  0.90136027078E+03 0.  0.
         23    2    4    4    0    0 -0.22073711000E+03 -0.48763189063E+03 -0.26323310792E+02  0.54382210584E+03  0.92411220203E+02 0.  0.
         23    2    4    4    0    0  0.75017416269E+03 -0.70390904512E+03 -0.28730001022E+03  0.10720006937E+04  0.91624086785E+02 0.  0.
          2    1    3    3  502    0 -0.32766345186E+03  0.77175251654E+03  0.12211882981E+04  0.14813055539E+04  0.00000000000E+00 0. -1.
         -1    1    3    3    0  502 -0.20177360083E+03  0.41978841921E+03  0.58346699542E+03  0.74657125423E+03  0.00000000000E+00 0.  1.
         13    1    5    5    0    0 -0.29338399269E+02 -0.16132315476E+02 -0.89593343874E+01  0.34659240427E+02  0.00000000000E+00 0. -1.
        -13    1    5    5    0    0 -0.19139871073E+03 -0.47149957515E+03 -0.17363976404E+02  0.50916286541E+03  0.00000000000E+00 0.  1.
          1    1    6    6  503    0  0.52101421452E+03 -0.54455143884E+03 -0.21175900310E+03  0.78283712014E+03  0.00000000000E+00 0. -1.
         -1    1    6    6    0  503  0.22915994817E+03 -0.15935760627E+03 -0.75541007114E+02  0.28916357357E+03  0.00000000000E+00 0.  1.
<mgrwt>
<rscale>  0 0.35427179E+04</rscale>
<asrwt>0</asrwt>
<pdfrwt beam="1">  1        2 0.41036397E+00 0.35427179E+04</pdfrwt>
<pdfrwt beam="2">  1       -1 0.18097443E+00 0.35427179E+04</pdfrwt>
<totfact> 0.52889145E-01</totfact>
</mgrwt>
</event>
<event>
12    7  0.2466188E-007  0.2822045E+04  0.7818608E-02  0.8296457E-01
          2   -1    0    0  501    0  0.00000000000E+00  0.00000000000E+00  0.20803939853E+04  0.20803939853E+04  0.00000000000E+00 0. -1.
         -1   -1    0    0    0  501 -0.00000000000E+00 -0.00000000000E+00 -0.95702303841E+03  0.95702303841E+03  0.00000000000E+00 0.  1.
         24    2    1    2    0    0  0.48643749200E+03  0.97924343281E+03  0.11866141155E+04  0.16158211550E+04  0.85356966236E+02 0.  0.
        254    2    1    2    0    0 -0.48643749200E+03 -0.97924343281E+03 -0.63243168621E+02  0.14215958686E+04  0.90630898763E+03 0.  0.
         23    2    4    4    0    0 -0.68525097841E+03 -0.87545730459E+03 -0.21525685562E+03  0.11359135246E+04  0.89272760896E+02 0.  0.
         23    2    4    4    0    0  0.19881348641E+03 -0.10378612822E+03  0.15201368700E+03  0.28568234408E+03  0.90597339331E+02 0.  0.
          2    1    3    3  502    0  0.23374927577E+03  0.39228029917E+03  0.52953207409E+03  0.69923299016E+03  0.00000000000E+00 0. -1.
         -1    1    3    3    0  502  0.25268821623E+03  0.58696313364E+03  0.65708204140E+03  0.91658816489E+03  0.00000000000E+00 0.  1.
         13    1    5    5    0    0 -0.10129626091E+03 -0.96433876213E+02 -0.49211569564E+02  0.14826396573E+03  0.00000000000E+00 0. -1.
        -13    1    5    5    0    0 -0.58395471750E+03 -0.77902342837E+03 -0.16604528606E+03  0.98764955884E+03  0.00000000000E+00 0.  1.
          4    1    6    6  503    0  0.72948208044E+02 -0.90691163852E+01  0.11126445211E+02  0.74347076014E+02  0.00000000000E+00 0. -1.
         -4    1    6    6    0  503  0.12586527837E+03 -0.94717011837E+02  0.14088724179E+03  0.21133526807E+03  0.00000000000E+00 0.  1.
<mgrwt>
<rscale>  0 0.28220453E+04</rscale>
<asrwt>0</asrwt>
<pdfrwt beam="1">  1        2 0.32006061E+00 0.28220453E+04</pdfrwt>
<pdfrwt beam="2">  1       -1 0.14723431E+00 0.28220453E+04</pdfrwt>
<totfact> 0.21836969E+00</totfact>
</mgrwt>
</event>
<event>
12    7  0.2466188E-007  0.2520277E+04  0.7818608E-02  0.8395797E-01
          2   -1    0    0  501    0  0.00000000000E+00  0.00000000000E+00  0.22616170100E+04  0.22616170100E+04  0.00000000000E+00 0. -1.
         -1   -1    0    0    0  501 -0.00000000000E+00 -0.00000000000E+00 -0.70212968965E+03  0.70212968965E+03  0.00000000000E+00 0.  1.
         24    2    1    2    0    0 -0.36130197809E+02  0.99182234989E+03  0.12316159877E+04  0.15837501655E+04  0.79810278737E+02 0.  0.
        254    2    1    2    0    0  0.36130197809E+02 -0.99182234989E+03  0.32787133264E+03  0.13799965342E+04  0.90104043117E+03 0.  0.
         23    2    4    4    0    0 -0.28515380497E+03 -0.92546710961E+03  0.36468260656E+03  0.10388800386E+04  0.92066647779E+02 0.  0.
         23    2    4    4    0    0  0.32128400278E+03 -0.66355240284E+02 -0.36811273920E+02  0.34111649556E+03  0.85900903964E+02 0.  0.
          4    1    3    3  502    0 -0.44797848318E+01  0.67966668941E+03  0.89105685261E+03  0.11206913901E+04  0.00000000000E+00 0. -1.
         -3    1    3    3    0  502 -0.31650412977E+02  0.31215566048E+03  0.34055913511E+03  0.46305877545E+03  0.00000000000E+00 0.  1.
         13    1    5    5    0    0 -0.31889099111E+02 -0.83077912712E+02  0.68707382572E+01  0.89252794169E+02  0.00000000000E+00 0. -1.
        -13    1    5    5    0    0 -0.25326470586E+03 -0.84238919689E+03  0.35781186830E+03  0.94962724444E+03  0.00000000000E+00 0.  1.
          2    1    6    6  503    0  0.23701470992E+03 -0.23937100313E+02  0.41702454257E+01  0.23825689589E+03  0.00000000000E+00 0. -1.
         -2    1    6    6    0  503  0.84269292853E+02 -0.42418139971E+02 -0.40981519346E+02  0.10285959967E+03  0.00000000000E+00 0.  1.
<mgrwt>
<rscale>  0 0.25202765E+04</rscale>
<asrwt>0</asrwt>
<pdfrwt beam="1">  1        2 0.34794108E+00 0.25202765E+04</pdfrwt>
<pdfrwt beam="2">  1       -1 0.10801995E+00 0.25202765E+04</pdfrwt>
<totfact> 0.38451909E+00</totfact>
</mgrwt>
</event>
<event>
12    7  0.2466188E-007  0.1396986E+04  0.7818608E-02  0.8956003E-01
         -1   -1    0    0    0  501 -0.00000000000E+00  0.00000000000E+00  0.22945208521E+03  0.22945208521E+03  0.00000000000E+00 0.  1.
          2   -1    0    0  501    0  0.00000000000E+00 -0.00000000000E+00 -0.21263371844E+04  0.21263371844E+04  0.00000000000E+00 0. -1.
         24    2    1    2    0    0 -0.35193770880E+03 -0.64920468395E+02 -0.23700667844E+03  0.43623535887E+03  0.77809412121E+02 0.  0.
        254    2    1    2    0    0  0.35193770880E+03  0.64920468395E+02 -0.16598784208E+04  0.19195539108E+04  0.89521842389E+03 0.  0.
         23    2    4    4    0    0  0.90819265406E+02 -0.54714963157E+02 -0.16030449039E+04  0.16091185341E+04  0.90926491875E+02 0.  0.
         23    2    4    4    0    0  0.26111844339E+03  0.11963543155E+03 -0.56833516915E+02  0.31043537663E+03  0.10317265362E+03 0.  0.
          2    1    3    3  502    0 -0.55260801632E+02 -0.74326968732E+00 -0.71938412071E+02  0.90716281769E+02  0.00000000000E+00 0. -1.
         -1    1    3    3    0  502 -0.29667690717E+03 -0.64177198708E+02 -0.16506826637E+03  0.34551907710E+03  0.00000000000E+00 0.  1.
         13    1    5    5    0    0  0.55588763457E+02 -0.38371563508E+01 -0.33810758814E+03  0.34266831711E+03  0.00000000000E+00 0.  1.
        -13    1    5    5    0    0  0.35230501949E+02 -0.50877806806E+02 -0.12649373157E+04  0.12664502170E+04  0.00000000000E+00 0. -1.
          3    1    6    6  503    0  0.35363431018E+02  0.60727687457E+02  0.10537886137E+00  0.70274002177E+02  0.00000000000E+00 0.  1.
         -3    1    6    6    0  503  0.22575501237E+03  0.58907744095E+02 -0.56938895776E+02  0.24016137445E+03  0.00000000000E+00 0. -1.
<mgrwt>
<rscale>  0 0.13969860E+04</rscale>
<asrwt>0</asrwt>
<pdfrwt beam="1">  1        2 0.32712880E+00 0.13969860E+04</pdfrwt>
<pdfrwt beam="2">  1       -1 0.35300320E-01 0.13969860E+04</pdfrwt>
<totfact> 0.48184922E+01</totfact>
</mgrwt>
</event>
<event>
12    7  0.2466188E-007  0.1516715E+04  0.7818608E-02  0.8873413E-01
          2   -1    0    0  501    0  0.00000000000E+00  0.00000000000E+00  0.45447107889E+03  0.45447107889E+03  0.00000000000E+00 0. -1.
         -1   -1    0    0    0  501 -0.00000000000E+00 -0.00000000000E+00 -0.12654400754E+04  0.12654400754E+04  0.00000000000E+00 0.  1.
         24    2    1    2    0    0  0.40942955130E+03  0.25668802488E+03 -0.20179923461E+03  0.52981004920E+03  0.80339638742E+02 0.  0.
        254    2    1    2    0    0 -0.40942955130E+03 -0.25668802488E+03 -0.60916976195E+03  0.11901011051E+04  0.90096145421E+03 0.  0.
         23    2    4    4    0    0  0.27246983070E+02  0.27713301691E+03 -0.56352815036E+02  0.30161851772E+03  0.10125701614E+03 0.  0.
         23    2    4    4    0    0 -0.43667653437E+03 -0.53382104179E+03 -0.55281694691E+03  0.88848258741E+03  0.90240960840E+02 0.  0.
          2    1    3    3  502    0  0.14462612995E+03  0.67248684156E+02 -0.32265699373E+02  0.16272731283E+03  0.00000000000E+00 0. -1.
         -1    1    3    3    0  502  0.26480342135E+03  0.18943934073E+03 -0.16953353524E+03  0.36708273637E+03  0.00000000000E+00 0.  1.
         13    1    5    5    0    0  0.54037371876E+02  0.24018052333E+03 -0.66192379775E+02  0.25492773973E+03  0.00000000000E+00 0. -1.
        -13    1    5    5    0    0 -0.26790388806E+02  0.36952493586E+02  0.98395647387E+01  0.46690777985E+02  0.00000000000E+00 0.  1.
          1    1    6    6  503    0 -0.14953138895E+03 -0.17679823180E+03 -0.13283454661E+03  0.26694993505E+03  0.00000000000E+00 0. -1.
         -1    1    6    6    0  503 -0.28714514542E+03 -0.35702280999E+03 -0.41998240030E+03  0.62153265236E+03  0.00000000000E+00 0.  1.
<mgrwt>
<rscale>  0 0.15167148E+04</rscale>
<asrwt>0</asrwt>
<pdfrwt beam="1">  1        2 0.69918628E-01 0.15167148E+04</pdfrwt>
<pdfrwt beam="2">  1       -1 0.19468309E+00 0.15167148E+04</pdfrwt>
<totfact> 0.12431320E+01</totfact>
</mgrwt>
</event>
<event>
12    7  0.2466188E-007  0.1844429E+04  0.7818608E-02  0.8683023E-01
          2   -1    0    0  501    0  0.00000000000E+00  0.00000000000E+00  0.69500050602E+03  0.69500050602E+03  0.00000000000E+00 0. -1.
         -1   -1    0    0    0  501 -0.00000000000E+00 -0.00000000000E+00 -0.12237107892E+04  0.12237107892E+04  0.00000000000E+00 0.  1.
         24    2    1    2    0    0  0.56685008571E+03 -0.39439487303E+03 -0.88029726130E+02  0.70068197114E+03  0.79621959681E+02 0.  0.
        254    2    1    2    0    0 -0.56685008571E+03  0.39439487303E+03 -0.44068055705E+03  0.12180293241E+04  0.90140431850E+03 0.  0.
         23    2    4    4    0    0 -0.28157282412E+03  0.22947609103E+03 -0.69705934360E+03  0.79125654709E+03  0.90844169770E+02 0.  0.
         23    2    4    4    0    0 -0.28527726159E+03  0.16491878200E+03  0.25637878655E+03  0.42677277698E+03  0.88451118366E+02 0.  0.
          4    1    3    3  502    0  0.27102724636E+03 -0.19585174196E+03 -0.82291986730E+02  0.34436266374E+03  0.00000000000E+00 0. -1.
         -3    1    3    3    0  502  0.29582283934E+03 -0.19854313108E+03 -0.57377393993E+01  0.35631930740E+03  0.00000000000E+00 0.  1.
         13    1    5    5    0    0 -0.13040370602E+03  0.58036011269E+02 -0.21967006845E+03  0.26196992980E+03  0.00000000000E+00 0. -1.
        -13    1    5    5    0    0 -0.15116911810E+03  0.17144007976E+03 -0.47738927515E+03  0.52928661729E+03  0.00000000000E+00 0.  1.
          4    1    6    6  503    0 -0.11009071435E+03  0.11436595198E+03  0.11408758553E+03  0.19548788589E+03  0.00000000000E+00 0. -1.
         -4    1    6    6    0  503 -0.17518654724E+03  0.50552830022E+02  0.14229120103E+03  0.23128489109E+03  0.00000000000E+00 0.  1.
<mgrwt>
<rscale>  0 0.18444290E+04</rscale>
<asrwt>0</asrwt>
<pdfrwt beam="1">  1        2 0.10692316E+00 0.18444290E+04</pdfrwt>
<pdfrwt beam="2">  1       -1 0.18826320E+00 0.18444290E+04</pdfrwt>
<totfact> 0.80705346E+00</totfact>
</mgrwt>
</event>
<event>
12    7  0.2466188E-007  0.3391634E+04  0.7818608E-02  0.8139963E-01
         -1   -1    0    0    0  501 -0.00000000000E+00  0.00000000000E+00  0.14244043290E+04  0.14244043290E+04  0.00000000000E+00 0.  1.
          2   -1    0    0  501    0  0.00000000000E+00 -0.00000000000E+00 -0.20189465029E+04  0.20189465029E+04  0.00000000000E+00 0. -1.
         24    2    1    2    0    0  0.39484379739E+03 -0.11308916134E+04 -0.13159408688E+04  0.17813488486E+04  0.81767258174E+02 0.  0.
        254    2    1    2    0    0 -0.39484379739E+03  0.11308916134E+04  0.72139869494E+03  0.16620019833E+04  0.89834127697E+03 0.  0.
         23    2    4    4    0    0  0.38657113416E+02  0.78580514896E+03  0.59283001668E+02  0.79339669717E+03  0.83544839750E+02 0.  0.
         23    2    4    4    0    0 -0.43350091081E+03  0.34508646443E+03  0.66211569327E+03  0.86860528614E+03  0.95237829824E+02 0.  0.
          2    1    3    3  502    0  0.92405507543E+02 -0.36921007958E+03 -0.39362091887E+03  0.54753291084E+03  0.00000000000E+00 0. -1.
         -3    1    3    3    0  502  0.30243828985E+03 -0.76168153381E+03 -0.92231994998E+03  0.12338159378E+04  0.00000000000E+00 0.  1.
         13    1    5    5    0    0 -0.25014377557E+02  0.26165201966E+03  0.30465037517E+02  0.26460464279E+03  0.00000000000E+00 0. -1.
        -13    1    5    5    0    0  0.63671490973E+02  0.52415312930E+03  0.28817964150E+02  0.52879205438E+03  0.00000000000E+00 0.  1.
          2    1    6    6  503    0 -0.35926881967E+03  0.31856063390E+03  0.53353809271E+03  0.71778677796E+03  0.00000000000E+00 0.  1.
         -2    1    6    6    0  503 -0.74232091141E+02  0.26525830530E+02  0.12857760056E+03  0.15081850817E+03  0.00000000000E+00 0. -1.
<mgrwt>
<rscale>  0 0.33916345E+04</rscale>
<asrwt>0</asrwt>
<pdfrwt beam="1">  1        2 0.31060715E+00 0.33916345E+04</pdfrwt>
<pdfrwt beam="2">  1       -1 0.21913913E+00 0.33916345E+04</pdfrwt>
<totfact> 0.68573629E-01</totfact>
</mgrwt>
</event>
<event>
12    7  0.2466188E-007  0.2190462E+04  0.7818608E-02  0.8522408E-01
          2   -1    0    0  501    0  0.00000000000E+00  0.00000000000E+00  0.14205909582E+04  0.14205909582E+04  0.00000000000E+00 0. -1.
         -1   -1    0    0    0  501 -0.00000000000E+00 -0.00000000000E+00 -0.84438879238E+03  0.84438879238E+03  0.00000000000E+00 0.  1.
         24    2    1    2    0    0 -0.86375763803E+03 -0.17384553381E+03  0.13188816578E+02  0.88524903609E+03  0.84807925022E+02 0.  0.
        254    2    1    2    0    0  0.86375763803E+03  0.17384553381E+03  0.56301334919E+03  0.13797307144E+04  0.90020735730E+03 0.  0.
         23    2    4    4    0    0  0.55262991792E+03  0.52520797278E+03  0.24668482173E+03  0.80651103261E+03  0.91451646275E+02 0.  0.
         23    2    4    4    0    0  0.31112772011E+03 -0.35136243897E+03  0.31632852746E+03  0.57321968183E+03  0.90890288866E+02 0.  0.
          4    1    3    3  502    0 -0.58350693395E+03 -0.13046664900E+03  0.46454726087E+02  0.59971654141E+03  0.00000000000E+00 0. -1.
         -3    1    3    3    0  502 -0.28025070408E+03 -0.43378884810E+02 -0.33265909509E+02  0.28553249468E+03  0.00000000000E+00 0.  1.
         13    1    5    5    0    0  0.15989834331E+03  0.99045991822E+02  0.69188106907E+02  0.20041103469E+03  0.00000000000E+00 0. -1.
        -13    1    5    5    0    0  0.39273157461E+03  0.42616198096E+03  0.17749671482E+03  0.60609999792E+03  0.00000000000E+00 0.  1.
          4    1    6    6  503    0  0.12979937150E+03 -0.20560988745E+03  0.13393894829E+03  0.27760213351E+03  0.00000000000E+00 0. -1.
         -4    1    6    6    0  503  0.18132834861E+03 -0.14575255152E+03  0.18238957917E+03  0.29561754832E+03  0.00000000000E+00 0.  1.
<mgrwt>
<rscale>  0 0.21904621E+04</rscale>
<asrwt>0</asrwt>
<pdfrwt beam="1">  1        2 0.21855245E+00 0.21904621E+04</pdfrwt>
<pdfrwt beam="2">  1       -1 0.12990597E+00 0.21904621E+04</pdfrwt>
<totfact> 0.74584302E+00</totfact>
</mgrwt>
</event>
<event>
12    7  0.2466188E-007  0.1037230E+04  0.7818608E-02  0.9268629E-01
         -1   -1    0    0    0  501 -0.00000000000E+00  0.00000000000E+00  0.28818340138E+03  0.28818340138E+03  0.00000000000E+00 0.  1.
          2   -1    0    0  501    0  0.00000000000E+00 -0.00000000000E+00 -0.93329949109E+03  0.93329949109E+03  0.00000000000E+00 0. -1.
         24    2    1    2    0    0 -0.16235549015E+02 -0.99871770720E+02 -0.12084738869E+03  0.17595509289E+03  0.78218538226E+02 0.  0.
        254    2    1    2    0    0  0.16235549015E+02  0.99871770720E+02 -0.52426870101E+03  0.10455277996E+04  0.89890641626E+03 0.  0.
         23    2    4    4    0    0 -0.23074282002E+03  0.21934732854E+03 -0.65059095716E+03  0.72992909642E+03  0.90401287205E+02 0.  0.
         23    2    4    4    0    0  0.24697836904E+03 -0.11947555782E+03  0.12632225615E+03  0.31559870316E+03  0.91501395334E+02 0.  0.
          2    1    3    3  502    0 -0.17448176278E+02  0.48385375170E-01 -0.51358424270E+02  0.54241395078E+02  0.00000000000E+00 0. -1.
         -1    1    3    3    0  502  0.12126272628E+01 -0.99920156095E+02 -0.69488964424E+02  0.12171369781E+03  0.00000000000E+00 0.  1.
         13    1    5    5    0    0 -0.49893002155E+02  0.37034184309E+02 -0.62092851085E+02  0.87842840501E+02  0.00000000000E+00 0. -1.
        -13    1    5    5    0    0 -0.18084981787E+03  0.18231314423E+03 -0.58849810608E+03  0.64208625592E+03  0.00000000000E+00 0.  1.
          1    1    6    6  503    0  0.63884911980E+02 -0.53692758601E+02 -0.33204197116E+00  0.83452408933E+02  0.00000000000E+00 0. -1.
         -1    1    6    6    0  503  0.18309345706E+03 -0.65782799221E+02  0.12665429812E+03  0.23214629423E+03  0.00000000000E+00 0.  1.
<mgrwt>
<rscale>  0 0.10372298E+04</rscale>
<asrwt>0</asrwt>
<pdfrwt beam="1">  1        2 0.14358453E+00 0.10372298E+04</pdfrwt>
<pdfrwt beam="2">  1       -1 0.44335909E-01 0.10372298E+04</pdfrwt>
<totfact> 0.15927547E+02</totfact>
</mgrwt>
</event>
<event>
12    7  0.2466188E-007  0.2025383E+04  0.7818608E-02  0.8594844E-01
          2   -1    0    0  501    0  0.00000000000E+00  0.00000000000E+00  0.13896583769E+04  0.13896583769E+04  0.00000000000E+00 0. -1.
         -1   -1    0    0    0  501 -0.00000000000E+00 -0.00000000000E+00 -0.73798313113E+03  0.73798313113E+03  0.00000000000E+00 0.  1.
         24    2    1    2    0    0  0.62360616985E+03 -0.36267545423E+03  0.64693361063E+03  0.97227869871E+03  0.79903887362E+02 0.  0.
        254    2    1    2    0    0 -0.62360616985E+03  0.36267545423E+03  0.47416351067E+01  0.11553628093E+04  0.90245365410E+03 0.  0.
         23    2    4    4    0    0 -0.29677102291E+03 -0.26031518664E+03  0.14794185208E+03  0.43126175676E+03  0.90900356521E+02 0.  0.
         23    2    4    4    0    0 -0.32683514694E+03  0.62299064087E+03 -0.14320021697E+03  0.72410105252E+03  0.94220381241E+02 0.  0.
          2    1    3    3  502    0  0.16757899735E+03 -0.13730639189E+03  0.20973268127E+03  0.30153534321E+03  0.00000000000E+00 0. -1.
         -1    1    3    3    0  502  0.45602717250E+03 -0.22536906234E+03  0.43720092936E+03  0.67074335550E+03  0.00000000000E+00 0.  1.
         13    1    5    5    0    0 -0.13513911454E+03 -0.12840815386E+03  0.22352987390E+02  0.18775220452E+03  0.00000000000E+00 0. -1.
        -13    1    5    5    0    0 -0.16163190836E+03 -0.13190703277E+03  0.12558886469E+03  0.24350955224E+03  0.00000000000E+00 0.  1.
          3    1    6    6  503    0 -0.58533230900E+02  0.19585965341E+03 -0.24200624475E+02  0.20584657680E+03  0.00000000000E+00 0. -1.
         -3    1    6    6    0  503 -0.26830191604E+03  0.42713098745E+03 -0.11899959250E+03  0.51825447573E+03  0.00000000000E+00 0.  1.
<mgrwt>
<rscale>  0 0.20253834E+04</rscale>
<asrwt>0</asrwt>
<pdfrwt beam="1">  1        2 0.21379360E+00 0.20253834E+04</pdfrwt>
<pdfrwt beam="2">  1       -1 0.11353587E+00 0.20253834E+04</pdfrwt>
<totfact> 0.10971851E+01</totfact>
</mgrwt>
</event>
<event>
12    7  0.2466188E-007  0.2105693E+04  0.7818608E-02  0.8558739E-01
         -1   -1    0    0    0  501 -0.00000000000E+00  0.00000000000E+00  0.58077149066E+03  0.58077149066E+03  0.00000000000E+00 0.  1.
          2   -1    0    0  501    0  0.00000000000E+00 -0.00000000000E+00 -0.19086443883E+04  0.19086443883E+04  0.00000000000E+00 0. -1.
         24    2    1    2    0    0  0.11386989510E+03  0.82589632291E+03 -0.78341474906E+03  0.11468255694E+04  0.79994552681E+02 0.  0.
        254    2    1    2    0    0 -0.11386989510E+03 -0.82589632291E+03 -0.54445814862E+03  0.13425903096E+04  0.90057924390E+03 0.  0.
         23    2    4    4    0    0  0.38116599085E+03 -0.42457437167E+03 -0.19621878270E+03  0.61082627920E+03  0.95163138946E+02 0.  0.
         23    2    4    4    0    0 -0.49503588595E+03 -0.40132195124E+03 -0.34823936591E+03  0.73176403037E+03  0.89933882634E+02 0.  0.
          2    1    3    3  502    0  0.96818926462E+02  0.65486271197E+03 -0.66343073944E+03  0.93720831307E+03  0.00000000000E+00 0. -1.
         -1    1    3    3    0  502  0.17050968638E+02  0.17103361094E+03 -0.11998400963E+03  0.20961725637E+03  0.00000000000E+00 0.  1.
         13    1    5    5    0    0  0.20484389443E+03 -0.15795632211E+03 -0.94268387761E+02  0.27531391122E+03  0.00000000000E+00 0. -1.
        -13    1    5    5    0    0  0.17632209642E+03 -0.26661804956E+03 -0.10195039494E+03  0.33551236798E+03  0.00000000000E+00 0.  1.
          2    1    6    6  503    0 -0.36346865810E+03 -0.32889888204E+03 -0.29667719071E+03  0.57297582455E+03  0.00000000000E+00 0. -1.
         -2    1    6    6    0  503 -0.13156722785E+03 -0.72423069202E+02 -0.51562175201E+02  0.15878820582E+03  0.00000000000E+00 0.  1.
<mgrwt>
<rscale>  0 0.21056935E+04</rscale>
<asrwt>0</asrwt>
<pdfrwt beam="1">  1        2 0.29363759E+00 0.21056935E+04</pdfrwt>
<pdfrwt beam="2">  1       -1 0.89349462E-01 0.21056935E+04</pdfrwt>
<totfact> 0.96664656E+00</totfact>
</mgrwt>
</event>
<event>
12    7  0.2466188E-007  0.1111668E+04  0.7818608E-02  0.9193894E-01
         -1   -1    0    0    0  501 -0.00000000000E+00  0.00000000000E+00  0.29337086213E+03  0.29337086213E+03  0.00000000000E+00 0.  1.
          2   -1    0    0  501    0  0.00000000000E+00 -0.00000000000E+00 -0.10531083983E+04  0.10531083983E+04  0.00000000000E+00 0. -1.
         24    2    1    2    0    0  0.75314959256E+02 -0.15521230339E+03 -0.72702187961E+02  0.20312764613E+03  0.78816434047E+02 0.  0.
        254    2    1    2    0    0 -0.75314959256E+02  0.15521230339E+03 -0.68703534816E+03  0.11433516143E+04  0.89748099813E+03 0.  0.
         23    2    4    4    0    0 -0.44754935287E+03 -0.26508043614E+02 -0.50400085389E+03  0.68073032856E+03  0.91508578106E+02 0.  0.
         23    2    4    4    0    0  0.37223439361E+03  0.18172034701E+03 -0.18303449427E+03  0.46262128570E+03  0.94530945132E+02 0.  0.
          4    1    3    3  502    0  0.47086086948E+02 -0.35578752238E+02 -0.51635252164E+02  0.78416493552E+02  0.00000000000E+00 0. -1.
         -3    1    3    3    0  502  0.28228872308E+02 -0.11963355115E+03 -0.21066935797E+02  0.12471115258E+03  0.00000000000E+00 0.  1.
         13    1    5    5    0    0 -0.26218457184E+03 -0.56137717441E+02 -0.26698962162E+03  0.37838558519E+03  0.00000000000E+00 0.  1.
        -13    1    5    5    0    0 -0.18536478103E+03  0.29629673827E+02 -0.23701123227E+03  0.30234474337E+03  0.00000000000E+00 0. -1.
          1    1    6    6  503    0  0.18758148885E+03  0.45672646405E+02 -0.59020675176E+02  0.20188176165E+03  0.00000000000E+00 0. -1.
         -1    1    6    6    0  503  0.18465290476E+03  0.13604770060E+03 -0.12401381909E+03  0.26073952405E+03  0.00000000000E+00 0.  1.
<mgrwt>
<rscale>  0 0.11116678E+04</rscale>
<asrwt>0</asrwt>
<pdfrwt beam="1">  1        2 0.16201668E+00 0.11116678E+04</pdfrwt>
<pdfrwt beam="2">  1       -1 0.45133979E-01 0.11116678E+04</pdfrwt>
<totfact> 0.12833330E+02</totfact>
</mgrwt>
</event>
<event>
12    7  0.2466188E-007  0.1720745E+04  0.7818608E-02  0.8749620E-01
         -1   -1    0    0    0  501 -0.00000000000E+00  0.00000000000E+00  0.58878923472E+03  0.58878923472E+03  0.00000000000E+00 0.  1.
          2   -1    0    0  501    0  0.00000000000E+00 -0.00000000000E+00 -0.12572255090E+04  0.12572255090E+04  0.00000000000E+00 0. -1.
         24    2    1    2    0    0 -0.14701632278E+03  0.14793715964E+03  0.39405750654E+03  0.45368049261E+03  0.83937289337E+02 0.  0.
        254    2    1    2    0    0  0.14701632278E+03 -0.14793715964E+03 -0.10624937808E+04  0.13923342511E+04  0.87532989791E+03 0.  0.
         23    2    4    4    0    0 -0.20406628048E+03 -0.34864404308E+03 -0.80418429977E+03  0.90411312518E+03  0.86674330278E+02 0.  0.
         23    2    4    4    0    0  0.35108260326E+03  0.20070688344E+03 -0.25830948104E+03  0.48822112593E+03  0.89965729187E+02 0.  0.
          4    1    3    3  502    0 -0.12960268110E+03  0.84948426821E+02  0.23253203765E+03  0.27943557165E+03  0.00000000000E+00 0. -1.
         -3    1    3    3    0  502 -0.17413641680E+02  0.62988732814E+02  0.16152546889E+03  0.17424492096E+03  0.00000000000E+00 0.  1.
         13    1    5    5    0    0  0.45056207396E+01 -0.31254384066E+02 -0.87407180964E+02  0.92936281535E+02  0.00000000000E+00 0.  1.
        -13    1    5    5    0    0 -0.20857190122E+03 -0.31738965901E+03 -0.71677711880E+03  0.81117684365E+03  0.00000000000E+00 0. -1.
          4    1    6    6  503    0  0.21677971485E+03  0.17150047292E+03 -0.16193749995E+03  0.32035856610E+03  0.00000000000E+00 0. -1.
         -4    1    6    6    0  503  0.13430288842E+03  0.29206410521E+02 -0.96371981092E+02  0.16786255983E+03  0.00000000000E+00 0.  1.
<mgrwt>
<rscale>  0 0.17207450E+04</rscale>
<asrwt>0</asrwt>
<pdfrwt beam="1">  1        2 0.19341931E+00 0.17207450E+04</pdfrwt>
<pdfrwt beam="2">  1       -1 0.90582961E-01 0.17207450E+04</pdfrwt>
<totfact> 0.22592331E+01</totfact>
</mgrwt>
</event>
<event>
12    7  0.2466188E-007  0.1837767E+04  0.7818608E-02  0.8686470E-01
         -1   -1    0    0    0  501 -0.00000000000E+00  0.00000000000E+00  0.44213964972E+03  0.44213964972E+03  0.00000000000E+00 0.  1.
          2   -1    0    0  501    0  0.00000000000E+00 -0.00000000000E+00 -0.19096826932E+04  0.19096826932E+04  0.00000000000E+00 0. -1.
         24    2    1    2    0    0 -0.46210027006E+03  0.51736418765E+03 -0.51428797077E+03  0.86726934678E+03  0.80384331388E+02 0.  0.
        254    2    1    2    0    0  0.46210027006E+03 -0.51736418765E+03 -0.95325507267E+03  0.14845529961E+04  0.90221948682E+03 0.  0.
         23    2    4    4    0    0 -0.11377628289E+03 -0.19799088684E+03 -0.75094304554E+03  0.78982399783E+03  0.88096856281E+02 0.  0.
         23    2    4    4    0    0  0.57587655295E+03 -0.31937330082E+03 -0.20231202713E+03  0.69472899826E+03  0.89917268603E+02 0.  0.
          4    1    3    3  502    0 -0.42627427992E+03  0.50393670230E+03 -0.48769314934E+03  0.82067446016E+03  0.00000000000E+00 0. -1.
         -3    1    3    3    0  502 -0.35825990136E+02  0.13427485352E+02 -0.26594821432E+02  0.46594886620E+02  0.00000000000E+00 0.  1.
         13    1    5    5    0    0 -0.15060130106E+01  0.45878302804E+01 -0.77809382892E+02  0.77959068285E+02  0.00000000000E+00 0.  1.
        -13    1    5    5    0    0 -0.11227026988E+03 -0.20257871712E+03 -0.67313366265E+03  0.71186492955E+03  0.00000000000E+00 0. -1.
          4    1    6    6  503    0  0.46423741253E+03 -0.29574824609E+03 -0.16380950638E+03  0.57429692202E+03  0.00000000000E+00 0. -1.
         -4    1    6    6    0  503  0.11163914042E+03 -0.23625054726E+02 -0.38502520744E+02  0.12043207624E+03  0.00000000000E+00 0.  1.
<mgrwt>
<rscale>  0 0.18377665E+04</rscale>
<asrwt>0</asrwt>
<pdfrwt beam="1">  1        2 0.29379734E+00 0.18377665E+04</pdfrwt>
<pdfrwt beam="2">  1       -1 0.68021483E-01 0.18377665E+04</pdfrwt>
<totfact> 0.17590243E+01</totfact>
</mgrwt>
</event>
<event>
12    7  0.2466188E-007  0.2170113E+04  0.7818608E-02  0.8530972E-01
          2   -1    0    0  501    0  0.00000000000E+00  0.00000000000E+00  0.14744862903E+04  0.14744862903E+04  0.00000000000E+00 0. -1.
         -1   -1    0    0    0  501 -0.00000000000E+00 -0.00000000000E+00 -0.79848015465E+03  0.79848015465E+03  0.00000000000E+00 0.  1.
         24    2    1    2    0    0 -0.50001732024E+03  0.52326826605E+03 -0.27346941719E+03  0.77744393829E+03  0.76200762826E+02 0.  0.
        254    2    1    2    0    0  0.50001732024E+03 -0.52326826605E+03  0.94947555280E+03  0.14955225066E+04  0.90069792028E+03 0.  0.
         23    2    4    4    0    0  0.47517476124E+03 -0.49826135298E+03  0.17700724770E+03  0.71612891088E+03  0.86334359746E+02 0.  0.
         23    2    4    4    0    0  0.24842559005E+02 -0.25006913069E+02  0.77246830511E+03  0.77939359572E+03  0.97491518724E+02 0.  0.
          4    1    3    3  502    0 -0.33000338318E+03  0.35326796404E+03 -0.14422827201E+03  0.50448219173E+03  0.00000000000E+00 0. -1.
         -3    1    3    3    0  502 -0.17001393706E+03  0.17000030201E+03 -0.12924114519E+03  0.27296174657E+03  0.00000000000E+00 0.  1.
         13    1    5    5    0    0  0.12666479849E+03 -0.19125474964E+03  0.63123319312E+02  0.23792205421E+03  0.00000000000E+00 0. -1.
        -13    1    5    5    0    0  0.34850996275E+03 -0.30700660334E+03  0.11388392838E+03  0.47820685668E+03  0.00000000000E+00 0.  1.
          4    1    6    6  503    0  0.50703442044E+01 -0.53963309793E+01  0.10568992505E+01  0.74796934706E+01  0.00000000000E+00 0. -1.
         -4    1    6    6    0  503  0.19772214800E+02 -0.19610582089E+02  0.77141140585E+03  0.77191390225E+03  0.00000000000E+00 0.  1.
<mgrwt>
<rscale>  0 0.21701134E+04</rscale>
<asrwt>0</asrwt>
<pdfrwt beam="1">  1        2 0.22684404E+00 0.21701134E+04</pdfrwt>
<pdfrwt beam="2">  1       -1 0.12284310E+00 0.21701134E+04</pdfrwt>
<totfact> 0.80057888E+00</totfact>
</mgrwt>
</event>
<event>
12    7  0.2466188E-007  0.1691654E+04  0.7818608E-02  0.8766139E-01
          2   -1    0    0  501    0  0.00000000000E+00  0.00000000000E+00  0.10712300879E+04  0.10712300879E+04  0.00000000000E+00 0. -1.
         -1   -1    0    0    0  501 -0.00000000000E+00 -0.00000000000E+00 -0.66785185581E+03  0.66785185581E+03  0.00000000000E+00 0.  1.
         24    2    1    2    0    0 -0.79639249110E+02  0.43252030262E+03 -0.28293770628E+03  0.52891572799E+03  0.79258308715E+02 0.  0.
        254    2    1    2    0    0  0.79639249110E+02 -0.43252030262E+03  0.68631593835E+03  0.12101662157E+04  0.89445876383E+03 0.  0.
         23    2    4    4    0    0  0.22929253593E+03 -0.12882553598E+03 -0.14040742473E+03  0.31213132919E+03  0.92415561421E+02 0.  0.
         23    2    4    4    0    0 -0.14965328682E+03 -0.30369476664E+03  0.82672336307E+03  0.89803488649E+03  0.91479619401E+02 0.  0.
          4    1    3    3  502    0 -0.11049523177E+02  0.14418712578E+03 -0.53814141206E+02  0.15429835060E+03  0.00000000000E+00 0. -1.
         -3    1    3    3    0  502 -0.68589725933E+02  0.28833317684E+03 -0.22912356508E+03  0.37461737739E+03  0.00000000000E+00 0.  1.
         13    1    5    5    0    0  0.17910083466E+03 -0.53159379631E+02 -0.81020511313E+02  0.20363534043E+03  0.00000000000E+00 0.  1.
        -13    1    5    5    0    0  0.50191701266E+02 -0.75666156347E+02 -0.59386913414E+02  0.10849598876E+03  0.00000000000E+00 0. -1.
          4    1    6    6  503    0 -0.73037385483E+02 -0.19858302535E+03  0.60551963581E+03  0.64142318869E+03  0.00000000000E+00 0. -1.
         -4    1    6    6    0  503 -0.76615901337E+02 -0.10511174130E+03  0.22120372726E+03  0.25661169781E+03  0.00000000000E+00 0.  1.
<mgrwt>
<rscale>  0 0.16916536E+04</rscale>
<asrwt>0</asrwt>
<pdfrwt beam="1">  1        2 0.16480463E+00 0.16916536E+04</pdfrwt>
<pdfrwt beam="2">  1       -1 0.10274644E+00 0.16916536E+04</pdfrwt>
<totfact> 0.22081241E+01</totfact>
</mgrwt>
</event>
<event>
12    7  0.2466188E-007  0.1393126E+04  0.7818608E-02  0.8958809E-01
          2   -1    0    0  501    0  0.00000000000E+00  0.00000000000E+00  0.84655784941E+03  0.84655784941E+03  0.00000000000E+00 0. -1.
         -1   -1    0    0    0  501 -0.00000000000E+00 -0.00000000000E+00 -0.57314472126E+03  0.57314472126E+03  0.00000000000E+00 0.  1.
         24    2    1    2    0    0 -0.73513434392E+02 -0.18499142614E+03 -0.26823396698E+03  0.34327820871E+03  0.79148055880E+02 0.  0.
        254    2    1    2    0    0  0.73513434392E+02  0.18499142614E+03  0.54164709513E+03  0.10764243620E+04  0.90867033548E+03 0.  0.
         23    2    4    4    0    0 -0.30883630949E+03  0.17894545414E+03 -0.44798347776E+02  0.37105329410E+03  0.90952259368E+02 0.  0.
         23    2    4    4    0    0  0.38234974388E+03  0.60459719950E+01  0.58644544290E+03  0.70537106786E+03  0.86036070658E+02 0.  0.
          4    1    3    3  502    0 -0.14173472382E+02 -0.78472698956E+02 -0.52507641338E+02  0.95477244408E+02  0.00000000000E+00 0. -1.
         -3    1    3    3    0  502 -0.59339962010E+02 -0.10651872718E+03 -0.21572632565E+03  0.24780096430E+03  0.00000000000E+00 0.  1.
         13    1    5    5    0    0 -0.13035435301E+03  0.39007158456E+02  0.13917749408E+02  0.13677543459E+03  0.00000000000E+00 0.  1.
        -13    1    5    5    0    0 -0.17848195648E+03  0.13993829569E+03 -0.58716097184E+02  0.23427785951E+03  0.00000000000E+00 0. -1.
          3    1    6    6  503    0  0.45166364816E+02  0.13738437251E+02  0.12647454608E+03  0.13499835545E+03  0.00000000000E+00 0. -1.
         -3    1    6    6    0  503  0.33718337906E+03 -0.76924652558E+01  0.45997089683E+03  0.57037271241E+03  0.00000000000E+00 0.  1.
<mgrwt>
<rscale>  0 0.13931262E+04</rscale>
<asrwt>0</asrwt>
<pdfrwt beam="1">  1        2 0.13023967E+00 0.13931262E+04</pdfrwt>
<pdfrwt beam="2">  1       -1 0.88176111E-01 0.13931262E+04</pdfrwt>
<totfact> 0.44848348E+01</totfact>
</mgrwt>
</event>
<event>
12    7  0.2466188E-007  0.1464082E+04  0.7818608E-02  0.8908696E-01
         -1   -1    0    0    0  501 -0.00000000000E+00  0.00000000000E+00  0.15406683688E+04  0.15406683688E+04  0.00000000000E+00 0.  1.
          2   -1    0    0  501    0  0.00000000000E+00 -0.00000000000E+00 -0.34782545863E+03  0.34782545863E+03  0.00000000000E+00 0. -1.
         24    2    1    2    0    0  0.16449653010E+01 -0.39188427484E+03  0.66042431808E+03  0.77196384049E+03  0.78688629091E+02 0.  0.
        254    2    1    2    0    0 -0.16449653010E+01  0.39188427484E+03  0.53241859204E+03  0.11165299869E+04  0.89977422929E+03 0.  0.
         23    2    4    4    0    0 -0.17914605594E+02  0.46975592879E+03  0.73683718862E+03  0.87863697592E+03  0.89901764118E+02 0.  0.
         23    2    4    4    0    0  0.16269640293E+02 -0.77871653949E+02 -0.20441859658E+03  0.23789301097E+03  0.92072940419E+02 0.  0.
          4    1    3    3  502    0 -0.17780110506E+02 -0.31957685695E+03  0.48342359586E+03  0.57977915870E+03  0.00000000000E+00 0. -1.
         -3    1    3    3    0  502  0.19425075807E+02 -0.72307417888E+02  0.17700072221E+03  0.19218468179E+03  0.00000000000E+00 0.  1.
         13    1    5    5    0    0 -0.12055984299E+02  0.27835184763E+03  0.35318829277E+03  0.44985227351E+03  0.00000000000E+00 0.  1.
        -13    1    5    5    0    0 -0.58586212950E+01  0.19140408116E+03  0.38364889585E+03  0.42878470241E+03  0.00000000000E+00 0. -1.
          3    1    6    6  503    0 -0.54913285389E+01 -0.44738970840E+02 -0.19068731804E+03  0.19594229626E+03  0.00000000000E+00 0. -1.
         -3    1    6    6    0  503  0.21760968832E+02 -0.33132683109E+02 -0.13731278534E+02  0.41950714710E+02  0.00000000000E+00 0.  1.
<mgrwt>
<rscale>  0 0.14640815E+04</rscale>
<asrwt>0</asrwt>
<pdfrwt beam="1">  1        2 0.53511610E-01 0.14640815E+04</pdfrwt>
<pdfrwt beam="2">  1       -1 0.23702590E+00 0.14640815E+04</pdfrwt>
<totfact> 0.87553795E+00</totfact>
</mgrwt>
</event>
<event>
12    7  0.2466188E-007  0.1679751E+04  0.7818608E-02  0.8772998E-01
         -1   -1    0    0    0  501 -0.00000000000E+00  0.00000000000E+00  0.34994640231E+03  0.34994640231E+03  0.00000000000E+00 0.  1.
          2   -1    0    0  501    0  0.00000000000E+00 -0.00000000000E+00 -0.20157114689E+04  0.20157114689E+04  0.00000000000E+00 0. -1.
         24    2    1    2    0    0  0.27144230037E+03  0.51876735016E+03 -0.74866444588E+03  0.95381106808E+03  0.80353064978E+02 0.  0.
        254    2    1    2    0    0 -0.27144230037E+03 -0.51876735016E+03 -0.91710062071E+03  0.14118468031E+04  0.89968736845E+03 0.  0.
         23    2    4    4    0    0 -0.35832481544E+02 -0.40052747477E+03 -0.10308799293E+04  0.11099964739E+04  0.87592913601E+02 0.  0.
         23    2    4    4    0    0 -0.23560981883E+03 -0.11823987539E+03  0.11377930864E+03  0.30185032924E+03  0.93140943348E+02 0.  0.
          2    1    3    3  502    0  0.20947421538E+03  0.32260508846E+03 -0.50828191608E+03  0.63741979591E+03  0.00000000000E+00 0. -1.
         -1    1    3    3    0  502  0.61968084994E+02  0.19616226169E+03 -0.24038252980E+03  0.31639127217E+03  0.00000000000E+00 0.  1.
         13    1    5    5    0    0 -0.58081046927E+01 -0.20360820940E+03 -0.40763740057E+03  0.45569538879E+03  0.00000000000E+00 0. -1.
        -13    1    5    5    0    0 -0.30024376852E+02 -0.19691926536E+03 -0.62324252877E+03  0.65430108509E+03  0.00000000000E+00 0.  1.
          3    1    6    6  503    0 -0.70517871971E+02 -0.25458413678E+02  0.79718068326E+02  0.10943432511E+03  0.00000000000E+00 0. -1.
         -3    1    6    6    0  503 -0.16509194686E+03 -0.92781461714E+02  0.34061240313E+02  0.19241600413E+03  0.00000000000E+00 0.  1.
<mgrwt>
<rscale>  0 0.16797511E+04</rscale>
<asrwt>0</asrwt>
<pdfrwt beam="1">  1        2 0.31010945E+00 0.16797511E+04</pdfrwt>
<pdfrwt beam="2">  1       -1 0.53837909E-01 0.16797511E+04</pdfrwt>
<totfact> 0.24755699E+01</totfact>
</mgrwt>
</event>
<event>
12    7  0.2466188E-007  0.2619336E+04  0.7818608E-02  0.8361663E-01
         -1   -1    0    0    0  501 -0.00000000000E+00  0.00000000000E+00  0.14475279107E+04  0.14475279107E+04  0.00000000000E+00 0.  1.
          2   -1    0    0  501    0  0.00000000000E+00 -0.00000000000E+00 -0.11849379535E+04  0.11849379535E+04  0.00000000000E+00 0. -1.
         24    2    1    2    0    0 -0.97971964522E+03  0.54422454252E+03  0.39285499321E+03  0.11902796589E+04  0.79998030369E+02 0.  0.
        254    2    1    2    0    0  0.97971964522E+03 -0.54422454252E+03 -0.13026503606E+03  0.14421862053E+04  0.89827675862E+03 0.  0.
         23    2    4    4    0    0  0.25669893460E+01  0.10872925692E+03  0.17718013964E+03  0.22342375891E+03  0.81833571470E+02 0.  0.
         23    2    4    4    0    0  0.97715265588E+03 -0.65295379944E+03 -0.30744517570E+03  0.12187624463E+04  0.98404204431E+02 0.  0.
          2    1    3    3  502    0 -0.68438569235E+03  0.33787791049E+03  0.26144117030E+03  0.80678172006E+03  0.00000000000E+00 0. -1.
         -1    1    3    3    0  502 -0.29533395287E+03  0.20634663204E+03  0.13141382291E+03  0.38349793888E+03  0.00000000000E+00 0.  1.
         13    1    5    5    0    0  0.13944285725E+02  0.49154049846E+02  0.19861459483E+02  0.54818256935E+02  0.00000000000E+00 0. -1.
        -13    1    5    5    0    0 -0.11377296379E+02  0.59575207071E+02  0.15731868016E+03  0.16860550198E+03  0.00000000000E+00 0.  1.
          2    1    6    6  503    0  0.29992979274E+03 -0.25471984283E+03 -0.91630699751E+02  0.40402507848E+03  0.00000000000E+00 0. -1.
         -2    1    6    6    0  503  0.67722286314E+03 -0.39823395661E+03 -0.21581447595E+03  0.81473736786E+03  0.00000000000E+00 0.  1.
<mgrwt>
<rscale>  0 0.26193364E+04</rscale>
<asrwt>0</asrwt>
<pdfrwt beam="1">  1        2 0.18229815E+00 0.26193364E+04</pdfrwt>
<pdfrwt beam="2">  1       -1 0.22269660E+00 0.26193364E+04</pdfrwt>
<totfact> 0.20547443E+00</totfact>
</mgrwt>
</event>
<event>
12    7  0.2466188E-007  0.1523625E+04  0.7818608E-02  0.8868893E-01
         -1   -1    0    0    0  501 -0.00000000000E+00  0.00000000000E+00  0.61319540096E+03  0.61319540096E+03  0.00000000000E+00 0.  1.
          2   -1    0    0  501    0  0.00000000000E+00 -0.00000000000E+00 -0.94644896107E+03  0.94644896107E+03  0.00000000000E+00 0. -1.
         24    2    1    2    0    0  0.44578217080E+03 -0.19251370610E+03 -0.19303351252E+03  0.52859374046E+03  0.79788060876E+02 0.  0.
        254    2    1    2    0    0 -0.44578217080E+03  0.19251370610E+03 -0.14022004758E+03  0.10310506216E+04  0.89867705639E+03 0.  0.
         23    2    4    4    0    0 -0.54028512473E+03 -0.35569653200E+02  0.21431364162E+03  0.58949458730E+03  0.91653233626E+02 0.  0.
         23    2    4    4    0    0  0.94502953933E+02  0.22808335930E+03 -0.35453368920E+03  0.44155603428E+03  0.91240164088E+02 0.  0.
          4    1    3    3  502    0  0.37777070176E+03 -0.14774179213E+03 -0.18780682939E+03  0.44700083380E+03  0.00000000000E+00 0. -1.
         -3    1    3    3    0  502  0.68011469041E+02 -0.44771913961E+02 -0.52266831317E+01  0.81592906661E+02  0.00000000000E+00 0.  1.
         13    1    5    5    0    0 -0.38597767399E+03 -0.81192764970E+01  0.11073375480E+03  0.40162999380E+03  0.00000000000E+00 0.  1.
        -13    1    5    5    0    0 -0.15430745074E+03 -0.27450376703E+02  0.10357988682E+03  0.18786459350E+03  0.00000000000E+00 0. -1.
          1    1    6    6  503    0 -0.30865031644E+01  0.10143887073E+03 -0.16360608324E+03  0.19252615788E+03  0.00000000000E+00 0. -1.
         -1    1    6    6    0  503  0.97589457098E+02  0.12664448857E+03 -0.19092760597E+03  0.24902987640E+03  0.00000000000E+00 0.  1.
<mgrwt>
<rscale>  0 0.15236248E+04</rscale>
<asrwt>0</asrwt>
<pdfrwt beam="1">  1        2 0.14560753E+00 0.15236248E+04</pdfrwt>
<pdfrwt beam="2">  1       -1 0.94337755E-01 0.15236248E+04</pdfrwt>
<totfact> 0.32687038E+01</totfact>
</mgrwt>
</event>
<event>
12    7  0.2466188E-007  0.2032060E+04  0.7818608E-02  0.8591776E-01
         -1   -1    0    0    0  501 -0.00000000000E+00  0.00000000000E+00  0.98365363270E+03  0.98365363270E+03  0.00000000000E+00 0.  1.
          2   -1    0    0  501    0  0.00000000000E+00 -0.00000000000E+00 -0.10494724022E+04  0.10494724022E+04  0.00000000000E+00 0. -1.
         24    2    1    2    0    0 -0.70657301573E+03  0.38813489741E+03  0.88633823424E+02  0.81487018081E+03  0.79141214187E+02 0.  0.
        254    2    1    2    0    0  0.70657301573E+03 -0.38813489741E+03 -0.15445259296E+03  0.12182558541E+04  0.90022086039E+03 0.  0.
         23    2    4    4    0    0 -0.30017968135E+02  0.21820672612E+03 -0.10153813225E+03  0.25851849593E+03  0.89479420561E+02 0.  0.
         23    2    4    4    0    0  0.73659098386E+03 -0.60634162352E+03 -0.52914460710E+02  0.95973735818E+03  0.89885563999E+02 0.  0.
          4    1    3    3  502    0 -0.43116163937E+03  0.21708677330E+03  0.18024194038E+02  0.48306510739E+03  0.00000000000E+00 0. -1.
         -3    1    3    3    0  502 -0.27541137636E+03  0.17104812410E+03  0.70609629386E+02  0.33180507342E+03  0.00000000000E+00 0.  1.
         13    1    5    5    0    0 -0.32962298329E+02  0.17795103154E+03 -0.40683280696E+02  0.18549450684E+03  0.00000000000E+00 0.  1.
        -13    1    5    5    0    0  0.29443301940E+01  0.40255694578E+02 -0.60854851552E+02  0.73023989097E+02  0.00000000000E+00 0. -1.
          2    1    6    6  503    0  0.13749519612E+03 -0.14712925637E+03  0.14443695741E+02  0.20189246489E+03  0.00000000000E+00 0. -1.
         -2    1    6    6    0  503  0.59909578774E+03 -0.45921236716E+03 -0.67358156451E+02  0.75784489329E+03  0.00000000000E+00 0.  1.
<mgrwt>
<rscale>  0 0.20320604E+04</rscale>
<asrwt>0</asrwt>
<pdfrwt beam="1">  1        2 0.16145729E+00 0.20320604E+04</pdfrwt>
<pdfrwt beam="2">  1       -1 0.15133133E+00 0.20320604E+04</pdfrwt>
<totfact> 0.84348012E+00</totfact>
</mgrwt>
</event>
<event>
12    7  0.2466188E-007  0.2894249E+04  0.7818608E-02  0.8274591E-01
          2   -1    0    0  501    0  0.00000000000E+00  0.00000000000E+00  0.33816516022E+04  0.33816516022E+04  0.00000000000E+00 0. -1.
         -1   -1    0    0    0  501 -0.00000000000E+00 -0.00000000000E+00 -0.61927397057E+03  0.61927397057E+03  0.00000000000E+00 0.  1.
         24    2    1    2    0    0 -0.24538444024E+03 -0.92606023263E+03  0.24744009325E+04  0.26543418372E+04  0.71200674736E+02 0.  0.
        254    2    1    2    0    0  0.24538444024E+03  0.92606023263E+03  0.28797669911E+03  0.13465837355E+04  0.90141893679E+03 0.  0.
         23    2    4    4    0    0 -0.61147100949E+02  0.83249304256E+03  0.47486793249E+03  0.96449233936E+03  0.89231639625E+02 0.  0.
         23    2    4    4    0    0  0.30653154119E+03  0.93567190073E+02 -0.18689123339E+03  0.38209139618E+03  0.91373393904E+02 0.  0.
          2    1    3    3  502    0 -0.12621790386E+03 -0.52927137846E+03  0.14939681249E+04  0.15899685247E+04  0.00000000000E+00 0. -1.
         -1    1    3    3    0  502 -0.11916653638E+03 -0.39678885417E+03  0.98043280753E+03  0.10643733125E+04  0.00000000000E+00 0.  1.
         13    1    5    5    0    0  0.10179992327E+02  0.68384888084E+02  0.62941587722E+02  0.93497425778E+02  0.00000000000E+00 0. -1.
        -13    1    5    5    0    0 -0.71327093276E+02  0.76410815448E+03  0.41192634477E+03  0.87099491358E+03  0.00000000000E+00 0.  1.
          3    1    6    6  503    0  0.29381582579E+03  0.79555027116E+02 -0.14719680267E+03  0.33811779092E+03  0.00000000000E+00 0.  1.
         -3    1    6    6    0  503  0.12715715400E+02  0.14012162957E+02 -0.39694430718E+02  0.43973605252E+02  0.00000000000E+00 0. -1.
<mgrwt>
<rscale>  0 0.28942487E+04</rscale>
<asrwt>0</asrwt>
<pdfrwt beam="1">  1        2 0.52025408E+00 0.28942487E+04</pdfrwt>
<pdfrwt beam="2">  1       -1 0.95272921E-01 0.28942487E+04</pdfrwt>
<totfact> 0.10237256E+00</totfact>
</mgrwt>
</event>
<event>
12    7  0.2466188E-007  0.2048322E+04  0.7818608E-02  0.8584356E-01
         -1   -1    0    0    0  501 -0.00000000000E+00  0.00000000000E+00  0.61390273064E+03  0.61390273064E+03  0.00000000000E+00 0.  1.
          2   -1    0    0  501    0  0.00000000000E+00 -0.00000000000E+00 -0.17085869555E+04  0.17085869555E+04  0.00000000000E+00 0. -1.
         24    2    1    2    0    0 -0.46412291371E+03  0.46652752366E+01  0.32939304487E+03  0.57465069138E+03  0.79320837560E+02 0.  0.
        254    2    1    2    0    0  0.46412291371E+03 -0.46652752366E+01 -0.14240772697E+04  0.17478389947E+04  0.90084029526E+03 0.  0.
         23    2    4    4    0    0  0.19161665124E+03 -0.41709020877E+03 -0.93751124873E+03  0.10483630624E+04  0.97244978564E+02 0.  0.
         23    2    4    4    0    0  0.27250626248E+03  0.41242493354E+03 -0.48656602095E+03  0.69947593229E+03  0.90366466226E+02 0.  0.
          4    1    3    3  502    0 -0.54350175553E+02  0.16748695281E+02  0.17377983616E+02  0.59468098093E+02  0.00000000000E+00 0. -1.
         -3    1    3    3    0  502 -0.40977273816E+03 -0.12083420044E+02  0.31201506125E+03  0.51518259329E+03  0.00000000000E+00 0.  1.
         13    1    5    5    0    0  0.19512816787E+03 -0.41985981759E+03 -0.91562523567E+03  0.10260247758E+04  0.00000000000E+00 0.  1.
        -13    1    5    5    0    0 -0.35115166320E+01  0.27696088157E+01 -0.21886013067E+02  0.22338286640E+02  0.00000000000E+00 0. -1.
          4    1    6    6  503    0  0.17514340683E+02  0.25369610204E+01 -0.31142978300E+02  0.35820013933E+02  0.00000000000E+00 0. -1.
         -4    1    6    6    0  503  0.25499192179E+03  0.40988797252E+03 -0.45542304265E+03  0.66365591836E+03  0.00000000000E+00 0.  1.
<mgrwt>
<rscale>  0 0.20483224E+04</rscale>
<asrwt>0</asrwt>
<pdfrwt beam="1">  1        2 0.26285953E+00 0.20483224E+04</pdfrwt>
<pdfrwt beam="2">  1       -1 0.94446575E-01 0.20483224E+04</pdfrwt>
<totfact> 0.11090715E+01</totfact>
</mgrwt>
</event>
<event>
12    7  0.2466188E-007  0.2466613E+04  0.7818608E-02  0.8414977E-01
         -1   -1    0    0    0  501 -0.00000000000E+00  0.00000000000E+00  0.12313883192E+04  0.12313883192E+04  0.00000000000E+00 0.  1.
          2   -1    0    0  501    0  0.00000000000E+00 -0.00000000000E+00 -0.12352280600E+04  0.12352280600E+04  0.00000000000E+00 0. -1.
         24    2    1    2    0    0 -0.12660766101E+03  0.10051489200E+04 -0.33806051041E+03  0.10710385406E+04  0.80528228291E+02 0.  0.
        254    2    1    2    0    0  0.12660766101E+03 -0.10051489200E+04  0.33422076958E+03  0.13955778386E+04  0.89976670844E+03 0.  0.
         23    2    4    4    0    0 -0.13897542520E+03 -0.86919154866E+03 -0.67057352068E+02  0.88741498441E+03  0.90556882822E+02 0.  0.
         23    2    4    4    0    0  0.26558308621E+03 -0.13595737136E+03  0.40127812165E+03  0.50816285422E+03  0.90479682710E+02 0.  0.
          4    1    3    3  502    0 -0.27195887722E+02  0.51505571463E+03 -0.18738486081E+03  0.54875777128E+03  0.00000000000E+00 0. -1.
         -1    1    3    3    0  502 -0.99411773291E+02  0.49009320538E+03 -0.15067564960E+03  0.52228076933E+03  0.00000000000E+00 0.  1.
         13    1    5    5    0    0 -0.39111271549E+02 -0.39084287188E+03  0.88395527042E+01  0.39289436207E+03  0.00000000000E+00 0. -1.
        -13    1    5    5    0    0 -0.99864153648E+02 -0.47834867678E+03 -0.75896904773E+02  0.49452062234E+03  0.00000000000E+00 0.  1.
          4    1    6    6  503    0  0.16977302992E+03 -0.36499209952E+02  0.22677593879E+03  0.28562633007E+03  0.00000000000E+00 0. -1.
         -4    1    6    6    0  503  0.95810056291E+02 -0.99458161403E+02  0.17450218286E+03  0.22253652415E+03  0.00000000000E+00 0.  1.
<mgrwt>
<rscale>  0 0.24666134E+04</rscale>
<asrwt>0</asrwt>
<pdfrwt beam="1">  1        2 0.19003508E+00 0.24666134E+04</pdfrwt>
<pdfrwt beam="2">  1       -1 0.18944436E+00 0.24666134E+04</pdfrwt>
<totfact> 0.32796729E+00</totfact>
</mgrwt>
</event>
<event>
12    7  0.2466188E-007  0.1326518E+04  0.7818608E-02  0.9008796E-01
         -1   -1    0    0    0  501 -0.00000000000E+00  0.00000000000E+00  0.17229777111E+04  0.17229777111E+04  0.00000000000E+00 0.  1.
          2   -1    0    0  501    0  0.00000000000E+00 -0.00000000000E+00 -0.25532122211E+03  0.25532122211E+03  0.00000000000E+00 0. -1.
         24    2    1    2    0    0 -0.27516172124E+03 -0.21807215147E+03  0.42926428938E+03  0.56046729907E+03  0.81156189585E+02 0.  0.
        254    2    1    2    0    0  0.27516172124E+03  0.21807215147E+03  0.10383921996E+04  0.14178316341E+04  0.89928791076E+03 0.  0.
         23    2    4    4    0    0  0.56825217016E+03  0.11487881768E+03  0.88184472321E+03  0.10591774717E+04  0.89995160831E+02 0.  0.
         23    2    4    4    0    0 -0.29309044892E+03  0.10319333379E+03  0.15654747639E+03  0.35865416246E+03  0.87033444731E+02 0.  0.
          2    1    3    3  502    0 -0.24781983886E+02 -0.22961473775E+02  0.11283700901E+02  0.35618785904E+02  0.00000000000E+00 0. -1.
         -1    1    3    3    0  502 -0.25037973736E+03 -0.19511067770E+03  0.41798058848E+03  0.52484851317E+03  0.00000000000E+00 0.  1.
         13    1    5    5    0    0  0.58759457187E+02  0.38773188949E+02  0.85745831706E+02  0.11094314600E+03  0.00000000000E+00 0.  1.
        -13    1    5    5    0    0  0.50949271297E+03  0.76105628735E+02  0.79609889151E+03  0.94823432566E+03  0.00000000000E+00 0. -1.
          2    1    6    6  503    0 -0.24096075600E+03  0.95871741449E+02  0.91560342547E+02  0.27502140475E+03  0.00000000000E+00 0. -1.
         -2    1    6    6    0  503 -0.52129692913E+02  0.73215923405E+01  0.64987133841E+02  0.83632757712E+02  0.00000000000E+00 0.  1.
<mgrwt>
<rscale>  0 0.13265184E+04</rscale>
<asrwt>0</asrwt>
<pdfrwt beam="1">  1        2 0.39280189E-01 0.13265184E+04</pdfrwt>
<pdfrwt beam="2">  1       -1 0.26507349E+00 0.13265184E+04</pdfrwt>
<totfact> 0.82159673E+00</totfact>
</mgrwt>
</event>
<event>
12    7  0.2466188E-007  0.1450283E+04  0.7818608E-02  0.8918204E-01
          2   -1    0    0  501    0  0.00000000000E+00  0.00000000000E+00  0.45282644036E+03  0.45282644036E+03  0.00000000000E+00 0. -1.
         -1   -1    0    0    0  501 -0.00000000000E+00 -0.00000000000E+00 -0.11612183501E+04  0.11612183501E+04  0.00000000000E+00 0.  1.
         24    2    1    2    0    0 -0.17787557869E+03 -0.12288993571E+03  0.20859855338E+03  0.31087522581E+03  0.79927415531E+02 0.  0.
        254    2    1    2    0    0  0.17787557869E+03  0.12288993571E+03 -0.91699046312E+03  0.13031695647E+04  0.90035423418E+03 0.  0.
         23    2    4    4    0    0 -0.66570504785E+02  0.47323749543E+03 -0.43789610826E+03  0.65470132446E+03  0.92170838257E+02 0.  0.
         23    2    4    4    0    0  0.24444608347E+03 -0.35034755971E+03 -0.47909435486E+03  0.64846824020E+03  0.92099714283E+02 0.  0.
          2    1    3    3  502    0 -0.13677939633E+01 -0.24571931462E+02  0.43402096593E+02  0.49893813893E+02  0.00000000000E+00 0. -1.
         -1    1    3    3    0  502 -0.17650778473E+03 -0.98318004253E+02  0.16519645679E+03  0.26098141191E+03  0.00000000000E+00 0.  1.
         13    1    5    5    0    0 -0.64089046154E+01  0.24351855728E+03 -0.17201233545E+03  0.29821234942E+03  0.00000000000E+00 0.  1.
        -13    1    5    5    0    0 -0.60161600169E+02  0.22971893815E+03 -0.26588377281E+03  0.35648897504E+03  0.00000000000E+00 0. -1.
          1    1    6    6  503    0  0.98467011429E+02 -0.75540131851E+02 -0.16348692759E+03  0.20525603366E+03  0.00000000000E+00 0. -1.
         -1    1    6    6    0  503  0.14597907204E+03 -0.27480742786E+03 -0.31560742727E+03  0.44321220654E+03  0.00000000000E+00 0.  1.
<mgrwt>
<rscale>  0 0.14502832E+04</rscale>
<asrwt>0</asrwt>
<pdfrwt beam="1">  1        2 0.69665607E-01 0.14502832E+04</pdfrwt>
<pdfrwt beam="2">  1       -1 0.17864897E+00 0.14502832E+04</pdfrwt>
<totfact> 0.16297291E+01</totfact>
</mgrwt>
</event>
<event>
12    7  0.2466188E-007  0.2444836E+04  0.7818608E-02  0.8422906E-01
          2   -1    0    0  501    0  0.00000000000E+00  0.00000000000E+00  0.15492963166E+04  0.15492963166E+04  0.00000000000E+00 0. -1.
         -1   -1    0    0    0  501 -0.00000000000E+00 -0.00000000000E+00 -0.96450625356E+03  0.96450625356E+03  0.00000000000E+00 0.  1.
         24    2    1    2    0    0 -0.28221970376E+03  0.78959220679E+03  0.89606531517E+03  0.12304175452E+04  0.88828331008E+02 0.  0.
        254    2    1    2    0    0  0.28221970376E+03 -0.78959220679E+03 -0.31127525215E+03  0.12833850249E+04  0.92037004804E+03 0.  0.
         23    2    4    4    0    0  0.36584270647E+03 -0.60926563922E+03 -0.59055686545E+03  0.92877011118E+03  0.93866943469E+02 0.  0.
         23    2    4    4    0    0 -0.83623002709E+02 -0.18032656756E+03  0.27928161331E+03  0.35461491372E+03  0.90791188719E+02 0.  0.
          4    1    3    3  502    0 -0.10264420880E+03  0.36781449130E+03  0.45846311603E+03  0.59666721242E+03  0.00000000000E+00 0. -1.
         -3    1    3    3    0  502 -0.17957549496E+03  0.42177771549E+03  0.43760219913E+03  0.63375033283E+03  0.00000000000E+00 0.  1.
         13    1    5    5    0    0  0.34585176745E+03 -0.58247630193E+03 -0.53200401692E+03  0.86134799087E+03  0.00000000000E+00 0.  1.
        -13    1    5    5    0    0  0.19990939018E+02 -0.26789337287E+02 -0.58552848538E+02  0.67422120310E+02  0.00000000000E+00 0. -1.
          3    1    6    6  503    0 -0.30380503294E+02 -0.14480064386E+03  0.15184541091E+03  0.21200761839E+03  0.00000000000E+00 0. -1.
         -3    1    6    6    0  503 -0.53242499415E+02 -0.35525923709E+02  0.12743620240E+03  0.14260729533E+03  0.00000000000E+00 0.  1.
<mgrwt>
<rscale>  0 0.24448362E+04</rscale>
<asrwt>0</asrwt>
<pdfrwt beam="1">  1        2 0.23835328E+00 0.24448362E+04</pdfrwt>
<pdfrwt beam="2">  1       -1 0.14838558E+00 0.24448362E+04</pdfrwt>
<totfact> 0.43645873E+00</totfact>
</mgrwt>
</event>
<event>
12    7  0.2466188E-007  0.2091790E+04  0.7818608E-02  0.8564869E-01
         -1   -1    0    0    0  501 -0.00000000000E+00  0.00000000000E+00  0.13461330584E+04  0.13461330584E+04  0.00000000000E+00 0.  1.
          2   -1    0    0  501    0  0.00000000000E+00 -0.00000000000E+00 -0.81262140783E+03  0.81262140783E+03  0.00000000000E+00 0. -1.
         24    2    1    2    0    0 -0.34228949236E+02 -0.64463614304E+03 -0.35330855500E+03  0.74031828480E+03  0.80727008468E+02 0.  0.
        254    2    1    2    0    0  0.34228949236E+02  0.64463614304E+03  0.88682020553E+03  0.14184361814E+04  0.89932404942E+03 0.  0.
         23    2    4    4    0    0  0.25812377650E+03  0.17055468285E+03 -0.64004947867E+02  0.32866602299E+03  0.90597668180E+02 0.  0.
         23    2    4    4    0    0 -0.22389482727E+03  0.47408146019E+03  0.95082515340E+03  0.10897701584E+04  0.92996780741E+02 0.  0.
          2    1    3    3  502    0 -0.15271736672E+02 -0.66605288051E+02 -0.64113586353E+02  0.93701879877E+02  0.00000000000E+00 0. -1.
         -1    1    3    3    0  502 -0.18957212564E+02 -0.57803085499E+03 -0.28919496864E+03  0.64661640492E+03  0.00000000000E+00 0.  1.
         13    1    5    5    0    0  0.72722697490E+02  0.24900970653E+02  0.18165691185E+02  0.78985070778E+02  0.00000000000E+00 0.  1.
        -13    1    5    5    0    0  0.18540107901E+03  0.14565371220E+03 -0.82170639052E+02  0.24968095221E+03  0.00000000000E+00 0. -1.
          4    1    6    6  503    0 -0.20829108559E+03  0.35258065102E+03  0.75066597171E+03  0.85510098403E+03  0.00000000000E+00 0. -1.
         -4    1    6    6    0  503 -0.15603741677E+02  0.12150080917E+03  0.20015918169E+03  0.23466917437E+03  0.00000000000E+00 0.  1.
<mgrwt>
<rscale>  0 0.20917902E+04</rscale>
<asrwt>0</asrwt>
<pdfrwt beam="1">  1        2 0.12501868E+00 0.20917902E+04</pdfrwt>
<pdfrwt beam="2">  1       -1 0.20709739E+00 0.20917902E+04</pdfrwt>
<totfact> 0.47751645E+00</totfact>
</mgrwt>
</event>
<event>
12    7  0.2466188E-007  0.3007580E+04  0.7818608E-02  0.8241570E-01
          2   -1    0    0  501    0  0.00000000000E+00  0.00000000000E+00  0.20421682136E+04  0.20421682136E+04  0.00000000000E+00 0. -1.
         -1   -1    0    0    0  501 -0.00000000000E+00 -0.00000000000E+00 -0.11073449326E+04  0.11073449326E+04  0.00000000000E+00 0.  1.
         24    2    1    2    0    0 -0.12516781471E+04  0.55007683819E+03  0.48642647409E+03  0.14533676654E+04  0.79900840713E+02 0.  0.
        254    2    1    2    0    0  0.12516781471E+04 -0.55007683819E+03  0.44839680686E+03  0.16961454808E+04  0.89809079934E+03 0.  0.
         23    2    4    4    0    0  0.12168512957E+04 -0.32274555787E+03  0.97191572151E+02  0.12661945599E+04  0.94396455998E+02 0.  0.
         23    2    4    4    0    0  0.34826851400E+02 -0.22733128031E+03  0.35120523471E+03  0.42995092090E+03  0.92845338647E+02 0.  0.
          2    1    3    3  502    0 -0.82613564238E+03  0.32182353307E+03  0.32085897041E+03  0.94287908289E+03  0.00000000000E+00 0. -1.
         -1    1    3    3    0  502 -0.42554250469E+03  0.22825330512E+03  0.16556750369E+03  0.51048858251E+03  0.00000000000E+00 0.  1.
         13    1    5    5    0    0  0.10736732898E+04 -0.30128008099E+03  0.11153849519E+03  0.11207073018E+04  0.00000000000E+00 0.  1.
        -13    1    5    5    0    0  0.14317800589E+03 -0.21465476886E+02 -0.14346923034E+02  0.14548725810E+03  0.00000000000E+00 0. -1.
          2    1    6    6  503    0  0.12523850245E+02 -0.10811235727E+03  0.87346586239E+02  0.13955126208E+03  0.00000000000E+00 0. -1.
         -2    1    6    6    0  503  0.22303001155E+02 -0.11921892304E+03  0.26385864847E+03  0.29039965882E+03  0.00000000000E+00 0.  1.
<mgrwt>
<rscale>  0 0.30075802E+04</rscale>
<asrwt>0</asrwt>
<pdfrwt beam="1">  1        2 0.31417972E+00 0.30075802E+04</pdfrwt>
<pdfrwt beam="2">  1       -1 0.17036076E+00 0.30075802E+04</pdfrwt>
<totfact> 0.15062355E+00</totfact>
</mgrwt>
</event>
<event>
12    7  0.2593584E-007  0.2399312E+04  0.7818608E-02  0.8439761E-01
          2   -1    0    0  501    0  0.00000000000E+00  0.00000000000E+00  0.12053231604E+04  0.12053231604E+04  0.00000000000E+00 0. -1.
         -1   -1    0    0    0  501 -0.00000000000E+00 -0.00000000000E+00 -0.11940154933E+04  0.11940154933E+04  0.00000000000E+00 0.  1.
         24    2    1    2    0    0  0.93526777200E+02 -0.10235071197E+04  0.98121241983E+02  0.10353586301E+04  0.77624947628E+02 0.  0.
        254    2    1    2    0    0 -0.93526777200E+02  0.10235071197E+04 -0.86813574878E+02  0.13639800237E+04  0.89251937017E+03 0.  0.
         23    2    4    4    0    0 -0.16222518057E+03  0.31685227064E+03  0.36421052853E+03  0.51792066027E+03  0.94234444987E+02 0.  0.
         23    2    4    4    0    0  0.68698403373E+02  0.70665484911E+03 -0.45102410341E+03  0.84605936345E+03  0.91176522393E+02 0.  0.
          2    1    3    3  502    0  0.77506909635E+02 -0.43442476163E+03  0.49628735310E+02  0.44406666834E+03  0.00000000000E+00 0. -1.
         -1    1    3    3    0  502  0.16019867566E+02 -0.58908235811E+03  0.48492506672E+02  0.59129196172E+03  0.00000000000E+00 0.  1.
         13    1    5    5    0    0  0.68515162639E+01 -0.59820362189E+00  0.15515974643E+02  0.16971935417E+02  0.00000000000E+00 0.  1.
        -13    1    5    5    0    0 -0.16907669684E+03  0.31745047426E+03  0.34869455389E+03  0.50094872485E+03  0.00000000000E+00 0. -1.
          3    1    6    6  503    0  0.78848876548E+02  0.60985955056E+03 -0.35868448095E+03  0.71189913163E+03  0.00000000000E+00 0. -1.
         -3    1    6    6    0  503 -0.10150473175E+02  0.96795298550E+02 -0.92339622459E+02  0.13416023182E+03  0.00000000000E+00 0.  1.
<mgrwt>
<rscale>  0 0.23993120E+04</rscale>
<asrwt>0</asrwt>
<pdfrwt beam="1">  1        2 0.18543433E+00 0.23993120E+04</pdfrwt>
<pdfrwt beam="2">  1       -1 0.18369469E+00 0.23993120E+04</pdfrwt>
<totfact> 0.37738825E+00</totfact>
</mgrwt>
</event>
<event>
12    7  0.2466188E-007  0.6474173E+04  0.7818608E-02  0.7634238E-01
          2   -1    0    0  501    0  0.00000000000E+00  0.00000000000E+00  0.27228768234E+04  0.27228768234E+04  0.00000000000E+00 0. -1.
         -1   -1    0    0    0  501 -0.00000000000E+00 -0.00000000000E+00 -0.38484038355E+04  0.38484038355E+04  0.00000000000E+00 0.  1.
         24    2    1    2    0    0 -0.26303628525E+04  0.11802004750E+04  0.79482135393E+03  0.29916503830E+04  0.80926711787E+02 0.  0.
        254    2    1    2    0    0  0.26303628525E+04 -0.11802004750E+04 -0.19203483660E+04  0.35796302758E+04  0.90240410444E+03 0.  0.
         23    2    4    4    0    0  0.14452746499E+04 -0.66554470900E+03 -0.15717844993E+04  0.22384107094E+04  0.90594804523E+02 0.  0.
         23    2    4    4    0    0  0.11850882026E+04 -0.51465576598E+03 -0.34856386675E+03  0.13412195664E+04  0.89825111528E+02 0.  0.
          2    1    3    3  502    0 -0.13267862406E+04  0.60236764500E+03  0.44314475483E+03  0.15230186413E+04  0.00000000000E+00 0. -1.
         -1    1    3    3    0  502 -0.13035766119E+04  0.57783282997E+03  0.35167659910E+03  0.14686317417E+04  0.00000000000E+00 0.  1.
         13    1    5    5    0    0  0.13467838424E+04 -0.63139035857E+03 -0.14389399093E+04  0.20695479134E+04  0.00000000000E+00 0.  1.
        -13    1    5    5    0    0  0.98490807444E+02 -0.34154350428E+02 -0.13284458998E+03  0.16886279605E+03  0.00000000000E+00 0. -1.
          2    1    6    6  503    0  0.44496720918E+03 -0.23435710957E+03 -0.11245989961E+03  0.51533125373E+03  0.00000000000E+00 0. -1.
         -2    1    6    6    0  503  0.74012099340E+03 -0.28029865641E+03 -0.23610396714E+03  0.82588831264E+03  0.00000000000E+00 0.  1.
<mgrwt>
<rscale>  0 0.64741732E+04</rscale>
<asrwt>0</asrwt>
<pdfrwt beam="1">  1        2 0.41890413E+00 0.64741732E+04</pdfrwt>
<pdfrwt beam="2">  1       -1 0.59206213E+00 0.64741732E+04</pdfrwt>
<totfact> 0.92696637E-04</totfact>
</mgrwt>
</event>
<event>
12    7  0.2466188E-007  0.2309831E+04  0.7818608E-02  0.8474055E-01
         -1   -1    0    0    0  501 -0.00000000000E+00  0.00000000000E+00  0.38229803677E+03  0.38229803677E+03  0.00000000000E+00 0.  1.
          2   -1    0    0  501    0  0.00000000000E+00 -0.00000000000E+00 -0.34889781993E+04  0.34889781993E+04  0.00000000000E+00 0. -1.
         24    2    1    2    0    0  0.76797493388E+03  0.59267764144E+03 -0.10937666131E+04  0.14634771163E+04  0.66238813070E+02 0.  0.
        254    2    1    2    0    0 -0.76797493388E+03 -0.59267764144E+03 -0.20129135494E+04  0.24077991197E+04  0.89700800317E+03 0.  0.
         23    2    4    4    0    0 -0.44152604086E+03 -0.29735244531E+03 -0.18539234009E+04  0.19309182265E+04  0.89719003687E+02 0.  0.
         23    2    4    4    0    0 -0.32644889302E+03 -0.29532519613E+03 -0.15899014849E+03  0.47688089317E+03  0.91387459374E+02 0.  0.
          2    1    3    3  502    0  0.45498458091E+03  0.33666823512E+03 -0.68364857310E+03  0.88754258541E+03  0.00000000000E+00 0. -1.
         -1    1    3    3    0  502  0.31299035297E+03  0.25600940632E+03 -0.41011803996E+03  0.57593453090E+03  0.00000000000E+00 0.  1.
         13    1    5    5    0    0 -0.42392345947E+03 -0.26091659027E+03 -0.16707496659E+04  0.17433281426E+04  0.00000000000E+00 0. -1.
        -13    1    5    5    0    0 -0.17602581391E+02 -0.36435855039E+02 -0.18317373499E+03  0.18759008395E+03  0.00000000000E+00 0.  1.
          1    1    6    6  503    0 -0.30140332776E+03 -0.27414437835E+03 -0.11758601788E+03  0.42405846032E+03  0.00000000000E+00 0. -1.
         -1    1    6    6    0  503 -0.25045565262E+02 -0.21180817783E+02 -0.41404130611E+02  0.52822432857E+02  0.00000000000E+00 0.  1.
<mgrwt>
<rscale>  0 0.23098307E+04</rscale>
<asrwt>0</asrwt>
<pdfrwt beam="1">  1        2 0.53676585E+00 0.23098307E+04</pdfrwt>
<pdfrwt beam="2">  1       -1 0.58815086E-01 0.23098307E+04</pdfrwt>
<totfact> 0.25051356E+00</totfact>
</mgrwt>
</event>
<event>
12    7  0.2466188E-007  0.2070060E+04  0.7818608E-02  0.8574548E-01
         -1   -1    0    0    0  501 -0.00000000000E+00  0.00000000000E+00  0.88723174382E+03  0.88723174382E+03  0.00000000000E+00 0.  1.
          2   -1    0    0  501    0  0.00000000000E+00 -0.00000000000E+00 -0.12074495199E+04  0.12074495199E+04  0.00000000000E+00 0. -1.
         24    2    1    2    0    0 -0.79893809062E+03 -0.20121483572E+03 -0.27617408682E+03  0.87275468450E+03  0.81480858664E+02 0.  0.
        254    2    1    2    0    0  0.79893809062E+03  0.20121483572E+03 -0.44043689280E+02  0.12219265792E+04  0.90131860943E+03 0.  0.
         23    2    4    4    0    0 -0.96837711153E+02  0.75805941801E+02  0.22591149951E+03  0.27355010859E+03  0.93110542820E+02 0.  0.
         23    2    4    4    0    0  0.89577580178E+03  0.12540889392E+03 -0.26995518879E+03  0.94837647064E+03  0.91653960048E+02 0.  0.
          2    1    3    3  502    0 -0.23110616578E+03 -0.89175060073E+02 -0.10631525908E+03  0.26956480763E+03  0.00000000000E+00 0. -1.
         -1    1    3    3    0  502 -0.56783192485E+03 -0.11203977564E+03 -0.16985882775E+03  0.60318987688E+03  0.00000000000E+00 0.  1.
         13    1    5    5    0    0 -0.97335936515E+02  0.53956711624E+02  0.11321972941E+03  0.15875867975E+03  0.00000000000E+00 0. -1.
        -13    1    5    5    0    0  0.49822536171E+00  0.21849230176E+02  0.11269177010E+03  0.11479142884E+03  0.00000000000E+00 0.  1.
          1    1    6    6  503    0  0.88433116275E+03  0.12066840606E+03 -0.27648986430E+03  0.93437097274E+03  0.00000000000E+00 0. -1.
         -1    1    6    6    0  503  0.11444639024E+02  0.47404878571E+01  0.65346755103E+01  0.14005497904E+02  0.00000000000E+00 0.  1.
<mgrwt>
<rscale>  0 0.20700604E+04</rscale>
<asrwt>0</asrwt>
<pdfrwt beam="1">  1        2 0.18576146E+00 0.20700604E+04</pdfrwt>
<pdfrwt beam="2">  1       -1 0.13649719E+00 0.20700604E+04</pdfrwt>
<totfact> 0.88415722E+00</totfact>
</mgrwt>
</event>
<event>
12    7  0.2466188E-007  0.1586288E+04  0.7818608E-02  0.8829016E-01
         -1   -1    0    0    0  501 -0.00000000000E+00  0.00000000000E+00  0.37487626852E+03  0.37487626852E+03  0.00000000000E+00 0.  1.
          2   -1    0    0  501    0  0.00000000000E+00 -0.00000000000E+00 -0.16780940693E+04  0.16780940693E+04  0.00000000000E+00 0. -1.
         24    2    1    2    0    0  0.48180354243E+03 -0.20783886119E+03 -0.57069780280E+03  0.77935649266E+03  0.79805481141E+02 0.  0.
        254    2    1    2    0    0 -0.48180354243E+03  0.20783886119E+03 -0.73251999795E+03  0.12736138451E+04  0.90009723552E+03 0.  0.
         23    2    4    4    0    0  0.16982951486E+03 -0.18921642432E+03 -0.15404000703E+03  0.31148146455E+03  0.92991718126E+02 0.  0.
         23    2    4    4    0    0 -0.65163305729E+03  0.39705528551E+03 -0.57847999092E+03  0.96213238058E+03  0.93707399711E+02 0.  0.
          4    1    3    3  502    0  0.34650244347E+03 -0.18066993662E+03 -0.45028922074E+03  0.59620965410E+03  0.00000000000E+00 0. -1.
         -3    1    3    3    0  502  0.13530109896E+03 -0.27168924569E+02 -0.12040858205E+03  0.18314683856E+03  0.00000000000E+00 0.  1.
         13    1    5    5    0    0  0.13680698447E+03 -0.15012745555E+03 -0.16185930042E+03  0.25971684013E+03  0.00000000000E+00 0. -1.
        -13    1    5    5    0    0  0.33022530385E+02 -0.39088968772E+02  0.78192933895E+01  0.51764624424E+02  0.00000000000E+00 0.  1.
          2    1    6    6  503    0 -0.65464372124E+03  0.39708804959E+03 -0.57724051314E+03  0.95887638979E+03  0.00000000000E+00 0. -1.
         -2    1    6    6    0  503  0.30106639459E+01 -0.32764076778E-01 -0.12394777772E+01  0.32559907924E+01  0.00000000000E+00 0.  1.
<mgrwt>
<rscale>  0 0.15862883E+04</rscale>
<asrwt>0</asrwt>
<pdfrwt beam="1">  1        2 0.25816833E+00 0.15862883E+04</pdfrwt>
<pdfrwt beam="2">  1       -1 0.57673271E-01 0.15862883E+04</pdfrwt>
<totfact> 0.33588543E+01</totfact>
</mgrwt>
</event>
<event>
12    7  0.2466188E-007  0.4229055E+04  0.7818608E-02  0.7959868E-01
         -1   -1    0    0    0  501 -0.00000000000E+00  0.00000000000E+00  0.23426561149E+04  0.23426561149E+04  0.00000000000E+00 0.  1.
          2   -1    0    0  501    0  0.00000000000E+00 -0.00000000000E+00 -0.19086141514E+04  0.19086141514E+04  0.00000000000E+00 0. -1.
         24    2    1    2    0    0 -0.69192853655E+03  0.18360103054E+04  0.68116424990E+03  0.20784879240E+04  0.80177138559E+02 0.  0.
        254    2    1    2    0    0  0.69192853655E+03 -0.18360103054E+04 -0.24712228641E+03  0.21727823422E+04  0.90011929273E+03 0.  0.
         23    2    4    4    0    0  0.88536125182E+03 -0.12489308702E+04 -0.19483504005E+03  0.15459093039E+04  0.90454509851E+02 0.  0.
         23    2    4    4    0    0 -0.19343271527E+03 -0.58707943523E+03 -0.52287246364E+02  0.62687303836E+03  0.90318168078E+02 0.  0.
          2    1    3    3  502    0 -0.50962235006E+03  0.13470959878E+04  0.46229393517E+03  0.15126460995E+04  0.00000000000E+00 0. -1.
         -1    1    3    3    0  502 -0.18230618649E+03  0.48891431762E+03  0.21887031473E+03  0.56584182443E+03  0.00000000000E+00 0.  1.
         13    1    5    5    0    0  0.78251673048E+03 -0.10781316350E+04 -0.19608832549E+03  0.13465329135E+04  0.00000000000E+00 0.  1.
        -13    1    5    5    0    0  0.10284452134E+03 -0.17079923518E+03  0.12532854397E+01  0.19937639036E+03  0.00000000000E+00 0. -1.
          4    1    6    6  503    0 -0.96102990203E+02 -0.34850739281E+03 -0.71417399799E+02  0.36850187593E+03  0.00000000000E+00 0. -1.
         -4    1    6    6    0  503 -0.97329725063E+02 -0.23857204242E+03  0.19130153435E+02  0.25837116243E+03  0.00000000000E+00 0.  1.
<mgrwt>
<rscale>  0 0.42290550E+04</rscale>
<asrwt>0</asrwt>
<pdfrwt beam="1">  1        2 0.29363294E+00 0.42290550E+04</pdfrwt>
<pdfrwt beam="2">  1       -1 0.36040864E+00 0.42290550E+04</pdfrwt>
<totfact> 0.87674286E-02</totfact>
</mgrwt>
</event>
<event>
12    7  0.2466188E-007  0.3133641E+04  0.7818608E-02  0.8206566E-01
         -1   -1    0    0    0  501 -0.00000000000E+00  0.00000000000E+00  0.19168021384E+04  0.19168021384E+04  0.00000000000E+00 0.  1.
          2   -1    0    0  501    0  0.00000000000E+00 -0.00000000000E+00 -0.12807407574E+04  0.12807407574E+04  0.00000000000E+00 0. -1.
         24    2    1    2    0    0 -0.12460708884E+04 -0.32752143280E+03 -0.35470542886E+03  0.13386933321E+04  0.79504391469E+02 0.  0.
        254    2    1    2    0    0  0.12460708884E+04  0.32752143280E+03  0.99076680986E+03  0.18588495636E+04  0.90207531863E+03 0.  0.
         23    2    4    4    0    0  0.68918524528E+03 -0.15547568949E+03  0.83995678732E+03  0.11006903105E+04  0.82720993795E+02 0.  0.
         23    2    4    4    0    0  0.55688564317E+03  0.48299712230E+03  0.15081002254E+03  0.75815925303E+03  0.93026610932E+02 0.  0.
          2    1    3    3  502    0 -0.32119414595E+03 -0.10326835747E+03 -0.12400636497E+03  0.35945460298E+03  0.00000000000E+00 0. -1.
         -1    1    3    3    0  502 -0.92487674250E+03 -0.22425307533E+03 -0.23069906389E+03  0.97923872916E+03  0.00000000000E+00 0.  1.
         13    1    5    5    0    0  0.65775295955E+03 -0.16331802755E+03  0.81383700767E+03  0.10590762055E+04  0.00000000000E+00 0.  1.
        -13    1    5    5    0    0  0.31432285732E+02  0.78423380574E+01  0.26119779645E+02  0.41614105076E+02  0.00000000000E+00 0. -1.
          1    1    6    6  503    0  0.16530175079E+03  0.17422201533E+03  0.86907086034E+02  0.25540325182E+03  0.00000000000E+00 0. -1.
         -1    1    6    6    0  503  0.39158389238E+03  0.30877510697E+03  0.63902936503E+02  0.50275600121E+03  0.00000000000E+00 0.  1.
<mgrwt>
<rscale>  0 0.31336411E+04</rscale>
<asrwt>0</asrwt>
<pdfrwt beam="1">  1        2 0.19703704E+00 0.31336411E+04</pdfrwt>
<pdfrwt beam="2">  1       -1 0.29489264E+00 0.31336411E+04</pdfrwt>
<totfact> 0.58308577E-01</totfact>
</mgrwt>
</event>
<event>
12    7  0.2466188E-007  0.1367431E+04  0.7818608E-02  0.8977737E-01
         -1   -1    0    0    0  501 -0.00000000000E+00  0.00000000000E+00  0.19146321451E+03  0.19146321451E+03  0.00000000000E+00 0.  1.
          2   -1    0    0  501    0  0.00000000000E+00 -0.00000000000E+00 -0.24415501745E+04  0.24415501745E+04  0.00000000000E+00 0. -1.
         24    2    1    2    0    0 -0.18270722064E+03 -0.29143915941E+03 -0.96631112864E+03  0.10292438356E+04  0.85246487360E+02 0.  0.
        254    2    1    2    0    0  0.18270722064E+03  0.29143915941E+03 -0.12837758314E+04  0.16037695535E+04  0.89759550093E+03 0.  0.
         23    2    4    4    0    0  0.17981625394E+02  0.59589142309E+03 -0.81516161163E+03  0.10142149587E+04  0.93453745036E+02 0.  0.
         23    2    4    4    0    0  0.16472559525E+03 -0.30445226368E+03 -0.46861421974E+03  0.58955459474E+03  0.90275304763E+02 0.  0.
          2    1    3    3  502    0 -0.29437601870E+02 -0.62670620439E+02 -0.30751666166E+03  0.31521528558E+03  0.00000000000E+00 0. -1.
         -1    1    3    3    0  502 -0.15326961877E+03 -0.22876853898E+03 -0.65879446699E+03  0.71402854999E+03  0.00000000000E+00 0.  1.
         13    1    5    5    0    0 -0.10375923024E+01  0.39714153984E+03 -0.46859674482E+03  0.61425189338E+03  0.00000000000E+00 0.  1.
        -13    1    5    5    0    0  0.19019217696E+02  0.19874988325E+03 -0.34656486681E+03  0.39996306535E+03  0.00000000000E+00 0. -1.
          1    1    6    6  503    0  0.25019822705E+02 -0.13864918346E+03 -0.18853740412E+03  0.23536342187E+03  0.00000000000E+00 0. -1.
         -1    1    6    6    0  503  0.13970577255E+03 -0.16580308022E+03 -0.28007681562E+03  0.35419117287E+03  0.00000000000E+00 0.  1.
<mgrwt>
<rscale>  0 0.13674312E+04</rscale>
<asrwt>0</asrwt>
<pdfrwt beam="1">  1        2 0.37562307E+00 0.13674312E+04</pdfrwt>
<pdfrwt beam="2">  1       -1 0.29455882E-01 0.13674312E+04</pdfrwt>
<totfact> 0.44208711E+01</totfact>
</mgrwt>
</event>
<event>
12    7  0.2466188E-007  0.1811344E+04  0.7818608E-02  0.8700290E-01
         -3   -1    0    0    0  501 -0.00000000000E+00  0.00000000000E+00  0.12021989763E+04  0.12021989763E+04  0.00000000000E+00 0.  1.
          2   -1    0    0  501    0  0.00000000000E+00 -0.00000000000E+00 -0.68228445994E+03  0.68228445994E+03  0.00000000000E+00 0. -1.
         24    2    1    2    0    0 -0.60912008377E+03  0.25449858448E+03  0.36470281178E+03  0.75844273222E+03  0.80189969367E+02 0.  0.
        254    2    1    2    0    0  0.60912008377E+03 -0.25449858448E+03  0.15521170458E+03  0.11260407040E+04  0.89893280500E+03 0.  0.
         23    2    4    4    0    0  0.79774970626E+03 -0.34345506476E+03  0.19469897185E+03  0.89476074551E+03  0.91231171830E+02 0.  0.
         23    2    4    4    0    0 -0.18862962249E+03  0.88956480274E+02 -0.39487267277E+02  0.23127995851E+03  0.91851973678E+02 0.  0.
          4    1    3    3  502    0 -0.11951343586E+03  0.17670901905E+02  0.75359270511E+02  0.14238940191E+03  0.00000000000E+00 0. -1.
         -3    1    3    3    0  502 -0.48960664791E+03  0.23682768258E+03  0.28934354127E+03  0.61605333031E+03  0.00000000000E+00 0.  1.
         13    1    5    5    0    0  0.31200535544E+03 -0.17316860274E+03  0.10764778619E+03  0.37272342651E+03  0.00000000000E+00 0.  1.
        -13    1    5    5    0    0  0.48574435082E+03 -0.17028646202E+03  0.87051185666E+02  0.52203731900E+03  0.00000000000E+00 0. -1.
          4    1    6    6  503    0 -0.36898103398E+02 -0.12227964000E+02  0.13850016035E+02  0.41265192137E+02  0.00000000000E+00 0. -1.
         -4    1    6    6    0  503 -0.15173151909E+03  0.10118444427E+03 -0.53337283313E+02  0.19001476637E+03  0.00000000000E+00 0.  1.
<mgrwt>
<rscale>  0 0.18113439E+04</rscale>
<asrwt>0</asrwt>
<pdfrwt beam="1">  1        2 0.10496684E+00 0.18113439E+04</pdfrwt>
<pdfrwt beam="2">  1       -3 0.18495369E+00 0.18113439E+04</pdfrwt>
<totfact> 0.45918041E+00</totfact>
</mgrwt>
</event>
<event>
12    7  0.2466188E-007  0.1302532E+04  0.7818608E-02  0.9027560E-01
         -1   -1    0    0    0  501 -0.00000000000E+00  0.00000000000E+00  0.27746901870E+03  0.27746901870E+03  0.00000000000E+00 0.  1.
          2   -1    0    0  501    0  0.00000000000E+00 -0.00000000000E+00 -0.15286296017E+04  0.15286296017E+04  0.00000000000E+00 0. -1.
         24    2    1    2    0    0  0.16752767747E+03  0.11030367975E+03 -0.69874930002E+03  0.73128202755E+03  0.79312010738E+02 0.  0.
        254    2    1    2    0    0 -0.16752767747E+03 -0.11030367975E+03 -0.55241128293E+03  0.10748165928E+04  0.89991113905E+03 0.  0.
         23    2    4    4    0    0  0.34571332656E+03  0.36783541566E+02 -0.10558256371E+03  0.37405920553E+03  0.88892510334E+02 0.  0.
         23    2    4    4    0    0 -0.51324100402E+03 -0.14708722132E+03 -0.44682871922E+03  0.70075738728E+03  0.79712186179E+02 0.  0.
          4    1    3    3  502    0  0.74135201740E+02  0.24570542926E+02 -0.38585680783E+03  0.39368161738E+03  0.00000000000E+00 0. -1.
         -3    1    3    3    0  502  0.93392475729E+02  0.85733136825E+02 -0.31289249219E+03  0.33760041016E+03  0.00000000000E+00 0.  1.
         13    1    5    5    0    0  0.11275070391E+03 -0.11007883555E+02  0.13858106545E+01  0.11329525675E+03  0.00000000000E+00 0.  1.
        -13    1    5    5    0    0  0.23296262265E+03  0.47791425121E+02 -0.10696837437E+03  0.26076394878E+03  0.00000000000E+00 0. -1.
          4    1    6    6  503    0 -0.21949265424E+03 -0.22922835817E+02 -0.17292093925E+03  0.28036428606E+03  0.00000000000E+00 0.  1.
         -4    1    6    6    0  503 -0.29374834979E+03 -0.12416438550E+03 -0.27390777998E+03  0.42039310123E+03  0.00000000000E+00 0. -1.
<mgrwt>
<rscale>  0 0.13025319E+04</rscale>
<asrwt>0</asrwt>
<pdfrwt beam="1">  1        2 0.23517379E+00 0.13025319E+04</pdfrwt>
<pdfrwt beam="2">  1       -1 0.42687541E-01 0.13025319E+04</pdfrwt>
<totfact> 0.73765892E+01</totfact>
</mgrwt>
</event>
<event>
12    7  0.2466188E-007  0.2504461E+04  0.7818608E-02  0.8401398E-01
          2   -1    0    0  501    0  0.00000000000E+00  0.00000000000E+00  0.23277035613E+04  0.23277035613E+04  0.00000000000E+00 0. -1.
         -1   -1    0    0    0  501 -0.00000000000E+00 -0.00000000000E+00 -0.67366010401E+03  0.67366010401E+03  0.00000000000E+00 0.  1.
         24    2    1    2    0    0  0.76383253298E+03  0.13716174117E+03  0.16362460222E+04  0.18127612794E+04  0.80925455998E+02 0.  0.
        254    2    1    2    0    0 -0.76383253298E+03 -0.13716174117E+03  0.17797435076E+02  0.11886023858E+04  0.90011410457E+03 0.  0.
         23    2    4    4    0    0 -0.70267170823E+03 -0.37561847954E+03  0.24831227583E+03  0.83945243639E+03  0.90468972112E+02 0.  0.
         23    2    4    4    0    0 -0.61160824745E+02  0.23845673837E+03 -0.23051484076E+03  0.34914994944E+03  0.90367764325E+02 0.  0.
          4    1    3    3  502    0  0.34118915280E+03  0.20520475873E+02  0.72107552518E+03  0.79798561449E+03  0.00000000000E+00 0. -1.
         -3    1    3    3    0  502  0.42264338018E+03  0.11664126530E+03  0.91517049701E+03  0.10147756649E+04  0.00000000000E+00 0.  1.
         13    1    5    5    0    0 -0.38351579134E+03 -0.19859021311E+03  0.18126642249E+03  0.46838013501E+03  0.00000000000E+00 0.  1.
        -13    1    5    5    0    0 -0.31915591689E+03 -0.17702826644E+03  0.67045853343E+02  0.37107230138E+03  0.00000000000E+00 0. -1.
          1    1    6    6  503    0  0.16776476043E+02  0.87582466758E+02 -0.54191713351E+02  0.10434979841E+03  0.00000000000E+00 0. -1.
         -1    1    6    6    0  503 -0.77937300788E+02  0.15087427161E+03 -0.17632312741E+03  0.24480015104E+03  0.00000000000E+00 0.  1.
<mgrwt>
<rscale>  0 0.25044608E+04</rscale>
<asrwt>0</asrwt>
<pdfrwt beam="1">  1        2 0.35810824E+00 0.25044608E+04</pdfrwt>
<pdfrwt beam="2">  1       -1 0.10364002E+00 0.25044608E+04</pdfrwt>
<totfact> 0.38904680E+00</totfact>
</mgrwt>
</event>
<event>
12    7  0.2466188E-007  0.1516555E+04  0.7818608E-02  0.8873518E-01
          2   -1    0    0  501    0  0.00000000000E+00  0.00000000000E+00  0.31985405847E+04  0.31985405847E+04  0.00000000000E+00 0. -1.
         -1   -1    0    0    0  501 -0.00000000000E+00 -0.00000000000E+00 -0.17976478102E+03  0.17976478102E+03  0.00000000000E+00 0.  1.
         24    2    1    2    0    0  0.34378465732E+02  0.37103003188E+03  0.28532367541E+03  0.47684098740E+03  0.84395284511E+02 0.  0.
        254    2    1    2    0    0 -0.34378465732E+02 -0.37103003188E+03  0.27334521282E+04  0.29014643783E+04  0.89882692307E+03 0.  0.
         23    2    4    4    0    0  0.25900260260E+02 -0.64114165100E+03  0.15045210262E+04  0.16382655979E+04  0.92721146544E+02 0.  0.
         23    2    4    4    0    0 -0.60278725993E+02  0.27011161912E+03  0.12289311020E+04  0.12631987803E+04  0.93838656753E+02 0.  0.
          2    1    3    3  502    0 -0.23826320857E+02  0.53151628942E+02  0.53897320986E+02  0.79358115112E+02  0.00000000000E+00 0. -1.
         -1    1    3    3    0  502  0.58204786589E+02  0.31787840294E+03  0.23142635443E+03  0.39748287228E+03  0.00000000000E+00 0.  1.
         13    1    5    5    0    0  0.72401573737E+00 -0.29788314847E+03  0.58575490042E+03  0.65714815507E+03  0.00000000000E+00 0.  1.
        -13    1    5    5    0    0  0.25176244523E+02 -0.34325850252E+03  0.91876612576E+03  0.98111744286E+03  0.00000000000E+00 0. -1.
          4    1    6    6  503    0 -0.69892503067E+02  0.15061357932E+03  0.58054464119E+03  0.60382240160E+03  0.00000000000E+00 0. -1.
         -4    1    6    6    0  503  0.96137770741E+01  0.11949803980E+03  0.64838646086E+03  0.65937637875E+03  0.00000000000E+00 0.  1.
<mgrwt>
<rscale>  0 0.15165552E+04</rscale>
<asrwt>0</asrwt>
<pdfrwt beam="1">  1        2 0.49208312E+00 0.15165552E+04</pdfrwt>
<pdfrwt beam="2">  1       -1 0.27656123E-01 0.15165552E+04</pdfrwt>
<totfact> 0.16959428E+01</totfact>
</mgrwt>
</event>
<event>
12    7  0.2466188E-007  0.2071555E+04  0.7818608E-02  0.8573878E-01
         -1   -1    0    0    0  501 -0.00000000000E+00  0.00000000000E+00  0.31413972726E+03  0.31413972726E+03  0.00000000000E+00 0.  1.
          2   -1    0    0  501    0  0.00000000000E+00 -0.00000000000E+00 -0.34151523407E+04  0.34151523407E+04  0.00000000000E+00 0. -1.
         24    2    1    2    0    0  0.56204348612E+03 -0.58573434634E+03 -0.88475974753E+03  0.12034491819E+04  0.80700171910E+02 0.  0.
        254    2    1    2    0    0 -0.56204348612E+03  0.58573434634E+03 -0.22162528659E+04  0.25258428860E+04  0.89951537768E+03 0.  0.
         23    2    4    4    0    0  0.27221523160E+02  0.60657853085E+03 -0.11818595215E+04  0.13318540865E+04  0.91459573265E+02 0.  0.
         23    2    4    4    0    0 -0.58926500928E+03 -0.20844184518E+02 -0.10343933443E+04  0.11939887996E+04  0.89285673707E+02 0.  0.
          4    1    3    3  502    0  0.20647750155E+03 -0.17278048813E+03 -0.25765836540E+03  0.37265787123E+03  0.00000000000E+00 0. -1.
         -3    1    3    3    0  502  0.35556598458E+03 -0.41295385820E+03 -0.62710138212E+03  0.83079131065E+03  0.00000000000E+00 0.  1.
         13    1    5    5    0    0  0.52980095869E+02  0.40503658975E+03 -0.73265404928E+03  0.83883459963E+03  0.00000000000E+00 0.  1.
        -13    1    5    5    0    0 -0.25758572709E+02  0.20154194110E+03 -0.44920547226E+03  0.49301948684E+03  0.00000000000E+00 0. -1.
          4    1    6    6  503    0 -0.19516894799E+03 -0.34789148031E+02 -0.28493094856E+03  0.34711215555E+03  0.00000000000E+00 0. -1.
         -4    1    6    6    0  503 -0.39409606129E+03  0.13944963514E+02 -0.74946239578E+03  0.84687664404E+03  0.00000000000E+00 0.  1.
<mgrwt>
<rscale>  0 0.20715550E+04</rscale>
<asrwt>0</asrwt>
<pdfrwt beam="1">  1        2 0.52540803E+00 0.20715550E+04</pdfrwt>
<pdfrwt beam="2">  1       -1 0.48329191E-01 0.20715550E+04</pdfrwt>
<totfact> 0.42078693E+00</totfact>
</mgrwt>
</event>
<event>
12    7  0.2466188E-007  0.2337555E+04  0.7818608E-02  0.8463259E-01
         -1   -1    0    0    0  501 -0.00000000000E+00  0.00000000000E+00  0.41083606197E+03  0.41083606197E+03  0.00000000000E+00 0.  1.
          2   -1    0    0  501    0  0.00000000000E+00 -0.00000000000E+00 -0.33250274724E+04  0.33250274724E+04  0.00000000000E+00 0. -1.
         24    2    1    2    0    0 -0.32225367623E+03  0.89113389742E+03 -0.17193570867E+04  0.19648392624E+04  0.80233911542E+02 0.  0.
        254    2    1    2    0    0  0.32225367623E+03 -0.89113389742E+03 -0.11948343237E+04  0.17710242719E+04  0.90051699356E+03 0.  0.
         23    2    4    4    0    0  0.54036586509E+03 -0.68934269415E+03 -0.11627164409E+04  0.14584616007E+04  0.89510338885E+02 0.  0.
         23    2    4    4    0    0 -0.21811218886E+03 -0.20179120327E+03 -0.32117882808E+02  0.31256267119E+03  0.91494526495E+02 0.  0.
          2    1    3    3  502    0 -0.16360406798E+03  0.51610656704E+03 -0.91192223477E+03  0.10605349791E+04  0.00000000000E+00 0. -1.
         -3    1    3    3    0  502 -0.15864960824E+03  0.37502733038E+03 -0.80743485195E+03  0.90430428334E+03  0.00000000000E+00 0.  1.
         13    1    5    5    0    0  0.35338062580E+03 -0.50574844542E+03 -0.77733150575E+03  0.99242310864E+03  0.00000000000E+00 0. -1.
        -13    1    5    5    0    0  0.18698523928E+03 -0.18359424873E+03 -0.38538493514E+03  0.46603849209E+03  0.00000000000E+00 0.  1.
          2    1    6    6  503    0 -0.21827306171E+03 -0.16433224277E+03 -0.24304287546E+02  0.27429712699E+03  0.00000000000E+00 0. -1.
         -2    1    6    6    0  503  0.16087285123E+00 -0.37458960500E+02 -0.78135952619E+01  0.38265544198E+02  0.00000000000E+00 0.  1.
<mgrwt>
<rscale>  0 0.23375553E+04</rscale>
<asrwt>0</asrwt>
<pdfrwt beam="1">  1        2 0.51154269E+00 0.23375553E+04</pdfrwt>
<pdfrwt beam="2">  1       -1 0.63205547E-01 0.23375553E+04</pdfrwt>
<totfact> 0.28022089E+00</totfact>
</mgrwt>
</event>
<event>
12    7  0.2466188E-007  0.1574744E+04  0.7818608E-02  0.8836215E-01
         -1   -1    0    0    0  501 -0.00000000000E+00  0.00000000000E+00  0.32966028541E+03  0.32966028541E+03  0.00000000000E+00 0.  1.
          2   -1    0    0  501    0  0.00000000000E+00 -0.00000000000E+00 -0.18805873038E+04  0.18805873038E+04  0.00000000000E+00 0. -1.
         24    2    1    2    0    0  0.14053638717E+03 -0.39989767967E+03 -0.87567809733E+02  0.44036959646E+03  0.81170375457E+02 0.  0.
        254    2    1    2    0    0 -0.14053638717E+03  0.39989767967E+03 -0.14633592087E+04  0.17698779928E+04  0.90076595483E+03 0.  0.
         23    2    4    4    0    0  0.21219538191E+03  0.41291733394E+03 -0.12730566437E+04  0.13581781959E+04  0.91908590681E+02 0.  0.
         23    2    4    4    0    0 -0.35273176908E+03 -0.13019654263E+02 -0.19030256494E+03  0.41169979683E+03  0.93233278217E+02 0.  0.
          2    1    3    3  502    0 -0.31233490540E+01 -0.16163196276E+02  0.98767352317E+01  0.19197763464E+02  0.00000000000E+00 0. -1.
         -1    1    3    3    0  502  0.14365973623E+03 -0.38373448340E+03 -0.97444544964E+02  0.42117183299E+03  0.00000000000E+00 0.  1.
         13    1    5    5    0    0  0.47348956495E+02  0.19110436721E+03 -0.52410279878E+03  0.55986297122E+03  0.00000000000E+00 0. -1.
        -13    1    5    5    0    0  0.16484642541E+03  0.22181296672E+03 -0.74895384494E+03  0.79831522473E+03  0.00000000000E+00 0.  1.
          3    1    6    6  503    0 -0.24736183657E+03 -0.48228241199E+02 -0.11202514337E+03  0.27579607356E+03  0.00000000000E+00 0. -1.
         -3    1    6    6    0  503 -0.10536993251E+03  0.35208586936E+02 -0.78277421571E+02  0.13590372327E+03  0.00000000000E+00 0.  1.
<mgrwt>
<rscale>  0 0.15747444E+04</rscale>
<asrwt>0</asrwt>
<pdfrwt beam="1">  1        2 0.28932112E+00 0.15747444E+04</pdfrwt>
<pdfrwt beam="2">  1       -1 0.50716967E-01 0.15747444E+04</pdfrwt>
<totfact> 0.33280649E+01</totfact>
</mgrwt>
</event>
<event>
12    7  0.2466188E-007  0.2508701E+04  0.7818608E-02  0.8399892E-01
         -1   -1    0    0    0  501 -0.00000000000E+00  0.00000000000E+00  0.14626293878E+04  0.14626293878E+04  0.00000000000E+00 0.  1.
          2   -1    0    0  501    0  0.00000000000E+00 -0.00000000000E+00 -0.10757301809E+04  0.10757301809E+04  0.00000000000E+00 0. -1.
         24    2    1    2    0    0 -0.40226842171E+03  0.44554081535E+03  0.10908505900E+04  0.12478115424E+04  0.82171372388E+02 0.  0.
        254    2    1    2    0    0  0.40226842171E+03 -0.44554081535E+03 -0.70395138307E+03  0.12905480262E+04  0.89980006504E+03 0.  0.
         23    2    4    4    0    0 -0.24650045597E+01  0.23355099911E+03 -0.31749602786E+03  0.40486671602E+03  0.92526669664E+02 0.  0.
         23    2    4    4    0    0  0.40473342627E+03 -0.67909181446E+03 -0.38645535521E+03  0.88568131022E+03  0.10054254265E+03 0.  0.
          4    1    3    3  502    0 -0.57181085197E+02  0.63225846254E+02  0.10245783822E+03  0.13328463059E+03  0.00000000000E+00 0. -1.
         -3    1    3    3    0  502 -0.34508733651E+03  0.38231496910E+03  0.98839275176E+03  0.11145269118E+04  0.00000000000E+00 0.  1.
         13    1    5    5    0    0  0.53621834958E+01  0.61248253571E+00  0.47354230280E+01  0.71799984647E+01  0.00000000000E+00 0.  1.
        -13    1    5    5    0    0 -0.78271880555E+01  0.23293851658E+03 -0.32223145088E+03  0.39768671755E+03  0.00000000000E+00 0. -1.
          4    1    6    6  503    0  0.27487158734E+03 -0.52681995274E+03 -0.25754069628E+03  0.64762710132E+03  0.00000000000E+00 0. -1.
         -4    1    6    6    0  503  0.12986183893E+03 -0.15227186173E+03 -0.12891465893E+03  0.23805420889E+03  0.00000000000E+00 0.  1.
<mgrwt>
<rscale>  0 0.25087005E+04</rscale>
<asrwt>0</asrwt>
<pdfrwt beam="1">  1        2 0.16549695E+00 0.25087005E+04</pdfrwt>
<pdfrwt beam="2">  1       -1 0.22501991E+00 0.25087005E+04</pdfrwt>
<totfact> 0.23342628E+00</totfact>
</mgrwt>
</event>
<event>
12    7  0.2466188E-007  0.1490444E+04  0.7818608E-02  0.8890833E-01
         -1   -1    0    0    0  501 -0.00000000000E+00  0.00000000000E+00  0.14591854229E+04  0.14591854229E+04  0.00000000000E+00 0.  1.
          2   -1    0    0  501    0  0.00000000000E+00 -0.00000000000E+00 -0.38059294644E+03  0.38059294644E+03  0.00000000000E+00 0. -1.
         24    2    1    2    0    0  0.32032998191E+03 -0.30732727927E+03  0.51262037143E+03  0.68275981551E+03  0.79498217463E+02 0.  0.
        254    2    1    2    0    0 -0.32032998191E+03  0.30732727927E+03  0.56597210504E+03  0.11570185538E+04  0.90625943104E+03 0.  0.
         23    2    4    4    0    0  0.17671939117E+03  0.43977061738E+03  0.32645426150E+03  0.58274346494E+03  0.91594879495E+02 0.  0.
         23    2    4    4    0    0 -0.49704937309E+03 -0.13244333811E+03  0.23951784354E+03  0.57427508890E+03  0.88452039336E+02 0.  0.
          2    1    3    3  502    0  0.69548695966E+02 -0.11401497206E+03  0.17083548746E+03  0.21684371962E+03  0.00000000000E+00 0. -1.
         -1    1    3    3    0  502  0.25078128595E+03 -0.19331230721E+03  0.34178488398E+03  0.46591609590E+03  0.00000000000E+00 0.  1.
         13    1    5    5    0    0  0.16802358069E+03  0.42141662228E+03  0.28281703145E+03  0.53461141634E+03  0.00000000000E+00 0. -1.
        -13    1    5    5    0    0  0.86958104880E+01  0.18353995098E+02  0.43637230046E+02  0.48132048598E+02  0.00000000000E+00 0.  1.
          2    1    6    6  503    0 -0.40084434084E+03 -0.69417473082E+02  0.19178679918E+03  0.44975231794E+03  0.00000000000E+00 0. -1.
         -2    1    6    6    0  503 -0.96205032250E+02 -0.63025865031E+02  0.47731044363E+02  0.12452277097E+03  0.00000000000E+00 0.  1.
<mgrwt>
<rscale>  0 0.14904438E+04</rscale>
<asrwt>0</asrwt>
<pdfrwt beam="1">  1        2 0.58552762E-01 0.14904438E+04</pdfrwt>
<pdfrwt beam="2">  1       -1 0.22449006E+00 0.14904438E+04</pdfrwt>
<totfact> 0.95573357E+00</totfact>
</mgrwt>
</event>
<event>
12    7  0.2466188E-007  0.2386067E+04  0.7818608E-02  0.8444738E-01
          2   -1    0    0  501    0  0.00000000000E+00  0.00000000000E+00  0.68141718420E+03  0.68141718420E+03  0.00000000000E+00 0. -1.
         -1   -1    0    0    0  501 -0.00000000000E+00 -0.00000000000E+00 -0.20887773832E+04  0.20887773832E+04  0.00000000000E+00 0.  1.
         24    2    1    2    0    0 -0.91584085571E+03  0.37676721693E+02 -0.11282742084E+04  0.14558592459E+04  0.79620639438E+02 0.  0.
        254    2    1    2    0    0  0.91584085571E+03 -0.37676721693E+02 -0.27908599063E+03  0.13143353215E+04  0.89966901627E+03 0.  0.
         23    2    4    4    0    0  0.20296065060E+03  0.34411604855E+03 -0.28835940234E+03  0.50093620966E+03  0.90427101400E+02 0.  0.
         23    2    4    4    0    0  0.71288020510E+03 -0.38179277024E+03  0.92734117075E+01  0.81339911184E+03  0.86995475426E+02 0.  0.
          4    1    3    3  502    0 -0.60312953139E+03  0.17222106172E+02 -0.79987215801E+03  0.10019267946E+04  0.00000000000E+00 0. -1.
         -3    1    3    3    0  502 -0.31271132432E+03  0.20454615521E+02 -0.32840205035E+03  0.45393245128E+03  0.00000000000E+00 0.  1.
         13    1    5    5    0    0  0.11516766146E+03  0.15956141646E+03 -0.19220210659E+03  0.27507287333E+03  0.00000000000E+00 0.  1.
        -13    1    5    5    0    0  0.87792989142E+02  0.18455463209E+03 -0.96157295750E+02  0.22586333632E+03  0.00000000000E+00 0. -1.
          4    1    6    6  503    0  0.59140129167E+03 -0.32992591888E+03 -0.22366683329E+02  0.67757425295E+03  0.00000000000E+00 0. -1.
         -4    1    6    6    0  503  0.12147891343E+03 -0.51866851357E+02  0.31640095036E+02  0.13582485889E+03  0.00000000000E+00 0.  1.
<mgrwt>
<rscale>  0 0.23860669E+04</rscale>
<asrwt>0</asrwt>
<pdfrwt beam="1">  1        2 0.10483341E+00 0.23860669E+04</pdfrwt>
<pdfrwt beam="2">  1       -1 0.32135037E+00 0.23860669E+04</pdfrwt>
<totfact> 0.10446432E+00</totfact>
</mgrwt>
</event>
<event>
12    7  0.2466188E-007  0.3394572E+04  0.7818608E-02  0.8139240E-01
         -3   -1    0    0    0  501 -0.00000000000E+00  0.00000000000E+00  0.40166302191E+04  0.40166302191E+04  0.00000000000E+00 0.  1.
          4   -1    0    0  501    0  0.00000000000E+00 -0.00000000000E+00 -0.71721315863E+03  0.71721315863E+03  0.00000000000E+00 0. -1.
         24    2    1    2    0    0  0.56700402775E+03  0.12397238725E+04  0.42921623119E+03  0.14314309349E+04  0.79743970757E+02 0.  0.
        254    2    1    2    0    0 -0.56700402775E+03 -0.12397238725E+04  0.28702008292E+04  0.33024124428E+04  0.89970344812E+03 0.  0.
         23    2    4    4    0    0  0.87925043832E+02 -0.83888207079E+03  0.13121845424E+04  0.15630004484E+04  0.98428584892E+02 0.  0.
         23    2    4    4    0    0 -0.65492907158E+03 -0.40084180168E+03  0.15580162868E+04  0.17394119944E+04  0.92374765851E+02 0.  0.
          2    1    3    3  502    0  0.49578775498E+03  0.10414971029E+04  0.33876395889E+03  0.12021991238E+04  0.00000000000E+00 0. -1.
         -1    1    3    3    0  502  0.71216272771E+02  0.19822676958E+03  0.90452272301E+02  0.22923181116E+03  0.00000000000E+00 0.  1.
         13    1    5    5    0    0  0.79852303629E+02 -0.56041394152E+03  0.80106991108E+03  0.98089407108E+03  0.00000000000E+00 0. -1.
        -13    1    5    5    0    0  0.80727402033E+01 -0.27846812928E+03  0.51111463131E+03  0.58210637730E+03  0.00000000000E+00 0.  1.
          1    1    6    6  503    0 -0.22527536630E+03 -0.18805633593E+03  0.56189247645E+03  0.63390640574E+03  0.00000000000E+00 0. -1.
         -1    1    6    6    0  503 -0.42965370528E+03 -0.21278546575E+03  0.99612381040E+03  0.11055055887E+04  0.00000000000E+00 0.  1.
<mgrwt>
<rscale>  0 0.33945722E+04</rscale>
<asrwt>0</asrwt>
<pdfrwt beam="1">  1        4 0.11034049E+00 0.33945722E+04</pdfrwt>
<pdfrwt beam="2">  1       -3 0.61794309E+00 0.33945722E+04</pdfrwt>
<totfact> 0.88847464E-04</totfact>
</mgrwt>
</event>
<event>
12    7  0.2466188E-007  0.1861888E+04  0.7818608E-02  0.8674063E-01
         -1   -1    0    0    0  501 -0.00000000000E+00  0.00000000000E+00  0.48023563922E+03  0.48023563922E+03  0.00000000000E+00 0.  1.
          2   -1    0    0  501    0  0.00000000000E+00 -0.00000000000E+00 -0.18046496377E+04  0.18046496377E+04  0.00000000000E+00 0. -1.
         24    2    1    2    0    0 -0.50740872413E+03  0.49222234263E+03 -0.42350026142E+03  0.82804920865E+03  0.81034391577E+02 0.  0.
        254    2    1    2    0    0  0.50740872413E+03 -0.49222234263E+03 -0.90091373703E+03  0.14568360682E+04  0.90054390245E+03 0.  0.
         23    2    4    4    0    0  0.60007732193E+03 -0.46766018906E+03 -0.10223276158E+04  0.12773402075E+04  0.87438017302E+02 0.  0.
         23    2    4    4    0    0 -0.92668597800E+02 -0.24562153567E+02  0.12141387878E+03  0.17949586076E+03  0.91031124697E+02 0.  0.
          2    1    3    3  502    0 -0.23803376534E+03  0.28504693197E+03 -0.23431813363E+03  0.43910911471E+03  0.00000000000E+00 0. -1.
         -1    1    3    3    0  502 -0.26937495879E+03  0.20717541065E+03 -0.18918212779E+03  0.38894009394E+03  0.00000000000E+00 0.  1.
         13    1    5    5    0    0  0.32172251551E+03 -0.22941709220E+03 -0.46298835068E+03  0.60868365515E+03  0.00000000000E+00 0. -1.
        -13    1    5    5    0    0  0.27835480642E+03 -0.23824309686E+03 -0.55933926513E+03  0.66865655233E+03  0.00000000000E+00 0.  1.
          1    1    6    6  503    0 -0.10472669409E+03 -0.55727434503E+01  0.78347083873E+02  0.13090837054E+03  0.00000000000E+00 0. -1.
         -1    1    6    6    0  503  0.12058096292E+02 -0.18989410116E+02  0.43066794906E+02  0.48587490224E+02  0.00000000000E+00 0.  1.
<mgrwt>
<rscale>  0 0.18618884E+04</rscale>
<asrwt>0</asrwt>
<pdfrwt beam="1">  1        2 0.27763840E+00 0.18618884E+04</pdfrwt>
<pdfrwt beam="2">  1       -1 0.73882407E-01 0.18618884E+04</pdfrwt>
<totfact> 0.16930511E+01</totfact>
</mgrwt>
</event>
<event>
12    7  0.2466188E-007  0.2636842E+04  0.7818608E-02  0.8355793E-01
         -1   -1    0    0    0  501 -0.00000000000E+00  0.00000000000E+00  0.68350804995E+03  0.68350804995E+03  0.00000000000E+00 0.  1.
          2   -1    0    0  501    0  0.00000000000E+00 -0.00000000000E+00 -0.25431073770E+04  0.25431073770E+04  0.00000000000E+00 0. -1.
         24    2    1    2    0    0  0.10956804152E+04  0.38015294742E+03 -0.71733439823E+03  0.13661517777E+04  0.82281257445E+02 0.  0.
        254    2    1    2    0    0 -0.10956804152E+04 -0.38015294742E+03 -0.11422649288E+04  0.18604636492E+04  0.90084626147E+03 0.  0.
         23    2    4    4    0    0 -0.46308162829E+03 -0.62385937040E+03 -0.55412771533E+03  0.95849175096E+03  0.89463977575E+02 0.  0.
         23    2    4    4    0    0 -0.63259878688E+03  0.24370642298E+03 -0.58813721349E+03  0.90197189824E+03  0.89854758197E+02 0.  0.
          4    1    3    3  502    0  0.46728663684E+03  0.15660126918E+03 -0.35247856746E+03  0.60590584994E+03  0.00000000000E+00 0. -1.
         -3    1    3    3    0  502  0.62839377833E+03  0.22355167824E+03 -0.36485583077E+03  0.76024592780E+03  0.00000000000E+00 0.  1.
         13    1    5    5    0    0 -0.28162096920E+03 -0.39205400673E+03 -0.39575824603E+03  0.62421254697E+03  0.00000000000E+00 0.  1.
        -13    1    5    5    0    0 -0.18146065909E+03 -0.23180536367E+03 -0.15836946929E+03  0.33427920400E+03  0.00000000000E+00 0. -1.
          4    1    6    6  503    0 -0.56631868785E+03  0.22379268669E+03 -0.55992995277E+03  0.82723731470E+03  0.00000000000E+00 0. -1.
         -4    1    6    6    0  503 -0.66280099027E+02  0.19913736289E+02 -0.28207260719E+02  0.74734583542E+02  0.00000000000E+00 0.  1.
<mgrwt>
<rscale>  0 0.26368423E+04</rscale>
<asrwt>0</asrwt>
<pdfrwt beam="1">  1        2 0.39124729E+00 0.26368423E+04</pdfrwt>
<pdfrwt beam="2">  1       -1 0.10515508E+00 0.26368423E+04</pdfrwt>
<totfact> 0.27948045E+00</totfact>
</mgrwt>
</event>
<event>
12    7  0.2466188E-007  0.2094086E+04  0.7818608E-02  0.8563853E-01
         -1   -1    0    0    0  501 -0.00000000000E+00  0.00000000000E+00  0.59563347094E+03  0.59563347094E+03  0.00000000000E+00 0.  1.
          2   -1    0    0  501    0  0.00000000000E+00 -0.00000000000E+00 -0.18405596395E+04  0.18405596395E+04  0.00000000000E+00 0. -1.
         24    2    1    2    0    0 -0.22052045146E+03  0.63566868195E+03 -0.11156287171E+04  0.13052376893E+04  0.79460985900E+02 0.  0.
        254    2    1    2    0    0  0.22052045146E+03 -0.63566868195E+03 -0.12929745138E+03  0.11309554211E+04  0.89979908365E+03 0.  0.
         23    2    4    4    0    0  0.26969923250E+03 -0.83983400175E+03 -0.50194522876E+02  0.88815459132E+03  0.90775885805E+02 0.  0.
         23    2    4    4    0    0 -0.49178781043E+02  0.20416531980E+03 -0.79102928507E+02  0.24280082981E+03  0.92698108634E+02 0.  0.
          4    1    3    3  502    0 -0.48578872935E+02  0.25011761453E+03 -0.44592581497E+03  0.51358403446E+03  0.00000000000E+00 0. -1.
         -3    1    3    3    0  502 -0.17194157852E+03  0.38555106742E+03 -0.66970290217E+03  0.79165365482E+03  0.00000000000E+00 0.  1.
         13    1    5    5    0    0  0.22903453839E+03 -0.59366763260E+03 -0.17870111236E+02  0.63656690037E+03  0.00000000000E+00 0. -1.
        -13    1    5    5    0    0  0.40664694112E+02 -0.24616636915E+03 -0.32324411639E+02  0.25158769095E+03  0.00000000000E+00 0.  1.
          2    1    6    6  503    0 -0.63136607909E+02  0.70998866517E+02 -0.23893835458E+02  0.97969309877E+02  0.00000000000E+00 0. -1.
         -2    1    6    6    0  503  0.13957826866E+02  0.13316645329E+03 -0.55209093049E+02  0.14483151994E+03  0.00000000000E+00 0.  1.
<mgrwt>
<rscale>  0 0.20940859E+04</rscale>
<asrwt>0</asrwt>
<pdfrwt beam="1">  1        2 0.28316302E+00 0.20940859E+04</pdfrwt>
<pdfrwt beam="2">  1       -1 0.91635919E-01 0.20940859E+04</pdfrwt>
<totfact> 0.99821116E+00</totfact>
</mgrwt>
</event>
<event>
12    7  0.2466188E-007  0.1567838E+04  0.7818608E-02  0.8840554E-01
         -1   -1    0    0    0  501 -0.00000000000E+00  0.00000000000E+00  0.99689955837E+03  0.99689955837E+03  0.00000000000E+00 0.  1.
          2   -1    0    0  501    0  0.00000000000E+00 -0.00000000000E+00 -0.61644017766E+03  0.61644017766E+03  0.00000000000E+00 0. -1.
         24    2    1    2    0    0 -0.17059456663E+03 -0.17535868564E+03 -0.34905335630E+03  0.43327557308E+03  0.77693641223E+02 0.  0.
        254    2    1    2    0    0  0.17059456663E+03  0.17535868564E+03  0.72951273701E+03  0.11800641630E+04  0.89471192036E+03 0.  0.
         23    2    4    4    0    0 -0.35026777049E+03  0.15807636128E+03  0.36620436964E+03  0.53859103547E+03  0.91098935785E+02 0.  0.
         23    2    4    4    0    0  0.52086233712E+03  0.17282324357E+02  0.36330836737E+03  0.64147312749E+03  0.88873789834E+02 0.  0.
          2    1    3    3  502    0 -0.11434472175E+03 -0.16177402470E+03 -0.25605184619E+03  0.32374078890E+03  0.00000000000E+00 0. -1.
         -1    1    3    3    0  502 -0.56249844885E+02 -0.13584660942E+02 -0.93001510108E+02  0.10953478418E+03  0.00000000000E+00 0.  1.
         13    1    5    5    0    0 -0.19104493149E+03  0.48005052077E+02  0.14464426234E+03  0.24438619745E+03  0.00000000000E+00 0.  1.
        -13    1    5    5    0    0 -0.15922283900E+03  0.11007130920E+03  0.22156010730E+03  0.29420483802E+03  0.00000000000E+00 0. -1.
          4    1    6    6  503    0  0.65015863773E+02 -0.56275823533E+01  0.84001886438E+02  0.10637221982E+03  0.00000000000E+00 0. -1.
         -4    1    6    6    0  503  0.45584647335E+03  0.22909906710E+02  0.27930648093E+03  0.53510090766E+03  0.00000000000E+00 0.  1.
<mgrwt>
<rscale>  0 0.15678379E+04</rscale>
<asrwt>0</asrwt>
<pdfrwt beam="1">  1        2 0.94836950E-01 0.15678379E+04</pdfrwt>
<pdfrwt beam="2">  1       -1 0.15336916E+00 0.15678379E+04</pdfrwt>
<totfact> 0.17314854E+01</totfact>
</mgrwt>
</event>
<event>
12    7  0.2466188E-007  0.1422799E+04  0.7818608E-02  0.8937479E-01
          2   -1    0    0  501    0  0.00000000000E+00  0.00000000000E+00  0.37341552155E+03  0.37341552155E+03  0.00000000000E+00 0. -1.
         -1   -1    0    0    0  501 -0.00000000000E+00 -0.00000000000E+00 -0.13552973549E+04  0.13552973549E+04  0.00000000000E+00 0.  1.
         24    2    1    2    0    0  0.40662685049E+03  0.10484439561E+03 -0.26104868327E+03  0.50079958838E+03  0.79473705448E+02 0.  0.
        254    2    1    2    0    0 -0.40662685049E+03 -0.10484439561E+03 -0.72083315008E+03  0.12279132881E+04  0.90101768570E+03 0.  0.
         23    2    4    4    0    0 -0.62854236829E+03 -0.55048951494E+02 -0.74700791941E+03  0.98195687077E+03  0.90125293895E+02 0.  0.
         23    2    4    4    0    0  0.22191551780E+03 -0.49795444114E+02  0.26174769322E+02  0.24595641730E+03  0.89907493388E+02 0.  0.
          4    1    3    3  502    0  0.61266816676E+02  0.46693824794E+02 -0.51804205398E+02  0.92831092832E+02  0.00000000000E+00 0. -1.
         -1    1    3    3    0  502  0.34536003381E+03  0.58150570814E+02 -0.20924447788E+03  0.40796849555E+03  0.00000000000E+00 0.  1.
         13    1    5    5    0    0 -0.14078495441E+03 -0.34834271835E+02 -0.12660415730E+03  0.19251608381E+03  0.00000000000E+00 0. -1.
        -13    1    5    5    0    0 -0.48775741388E+03 -0.20214679658E+02 -0.62040376211E+03  0.78944078696E+03  0.00000000000E+00 0.  1.
          1    1    6    6  503    0  0.27607576948E+02  0.22310074719E+02 -0.66644178149E+01  0.36115539643E+02  0.00000000000E+00 0. -1.
         -1    1    6    6    0  503  0.19430794086E+03 -0.72105518833E+02  0.32839187137E+02  0.20984087766E+03  0.00000000000E+00 0.  1.
<mgrwt>
<rscale>  0 0.14227987E+04</rscale>
<asrwt>0</asrwt>
<pdfrwt beam="1">  1        2 0.57448541E-01 0.14227987E+04</pdfrwt>
<pdfrwt beam="2">  1       -1 0.20850729E+00 0.14227987E+04</pdfrwt>
<totfact> 0.12574955E+01</totfact>
</mgrwt>
</event>
<event>
12    7  0.2466188E-007  0.2489289E+04  0.7818608E-02  0.8406811E-01
         -1   -1    0    0    0  501 -0.00000000000E+00  0.00000000000E+00  0.19499523017E+04  0.19499523017E+04  0.00000000000E+00 0.  1.
          2   -1    0    0  501    0  0.00000000000E+00 -0.00000000000E+00 -0.79445047698E+03  0.79445047698E+03  0.00000000000E+00 0. -1.
         24    2    1    2    0    0 -0.77588760592E+02  0.74925347943E+03  0.13424605178E+04  0.15414016103E+04  0.79485156302E+02 0.  0.
        254    2    1    2    0    0  0.77588760592E+02 -0.74925347943E+03 -0.18695869311E+03  0.12030011684E+04  0.91916128399E+03 0.  0.
         23    2    4    4    0    0  0.33709168474E+03 -0.14981109037E+03 -0.35676252480E+03  0.52162712954E+03  0.93494365888E+02 0.  0.
         23    2    4    4    0    0 -0.25950292415E+03 -0.59944238906E+03  0.16980383168E+03  0.68137403884E+03  0.93617808712E+02 0.  0.
          2    1    3    3  502    0  0.51584830487E+01  0.92966940009E+02  0.12529565452E+03  0.15610401316E+03  0.00000000000E+00 0. -1.
         -1    1    3    3    0  502 -0.82747243641E+02  0.65628653942E+03  0.12171648633E+04  0.13852975971E+04  0.00000000000E+00 0.  1.
         13    1    5    5    0    0  0.16570001157E+03 -0.78448613712E+02 -0.11353250845E+03  0.21563930370E+03  0.00000000000E+00 0.  1.
        -13    1    5    5    0    0  0.17139167317E+03 -0.71362476655E+02 -0.24323001634E+03  0.30598782583E+03  0.00000000000E+00 0. -1.
          1    1    6    6  503    0 -0.11113873163E+03 -0.32911441527E+03  0.51861207509E+02  0.35122314965E+03  0.00000000000E+00 0. -1.
         -1    1    6    6    0  503 -0.14836419252E+03 -0.27032797379E+03  0.11794262417E+03  0.33015088919E+03  0.00000000000E+00 0.  1.
<mgrwt>
<rscale>  0 0.24892895E+04</rscale>
<asrwt>0</asrwt>
<pdfrwt beam="1">  1        2 0.12222315E+00 0.24892895E+04</pdfrwt>
<pdfrwt beam="2">  1       -1 0.29999266E+00 0.24892895E+04</pdfrwt>
<totfact> 0.11692784E+00</totfact>
</mgrwt>
</event>
<event>
12    7  0.2466188E-007  0.1165643E+04  0.7818608E-02  0.9143472E-01
         -1   -1    0    0    0  501 -0.00000000000E+00  0.00000000000E+00  0.20583083654E+03  0.20583083654E+03  0.00000000000E+00 0.  1.
          2   -1    0    0  501    0  0.00000000000E+00 -0.00000000000E+00 -0.16502925127E+04  0.16502925127E+04  0.00000000000E+00 0. -1.
         24    2    1    2    0    0 -0.43824970755E+02 -0.99404589096E+02  0.15879309231E+02  0.13617021146E+03  0.80549820806E+02 0.  0.
        254    2    1    2    0    0  0.43824970755E+02  0.99404589096E+02 -0.14603409854E+04  0.17199531378E+04  0.90213142179E+03 0.  0.
         23    2    4    4    0    0  0.23024858105E+03  0.14828854686E+03 -0.14776793522E+04  0.15056406124E+04  0.91725043554E+02 0.  0.
         23    2    4    4    0    0 -0.18642361029E+03 -0.48883957767E+02  0.17338366881E+02  0.21431252531E+03  0.92118596050E+02 0.  0.
          4    1    3    3  502    0 -0.62053678589E+01  0.45045713641E+01 -0.18835427003E+02  0.20336446686E+02  0.00000000000E+00 0. -1.
         -1    1    3    3    0  502 -0.37619602896E+02 -0.10390916046E+03  0.34714736233E+02  0.11583376477E+03  0.00000000000E+00 0.  1.
         13    1    5    5    0    0  0.16949494495E+03  0.11303925751E+03 -0.12740814597E+04  0.12902674049E+04  0.00000000000E+00 0. -1.
        -13    1    5    5    0    0  0.60753636093E+02  0.35249289356E+02 -0.20359789253E+03  0.21537320757E+03  0.00000000000E+00 0.  1.
          2    1    6    6  503    0 -0.16547185693E+03 -0.57677141603E+01  0.16182432879E+02  0.16636127282E+03  0.00000000000E+00 0. -1.
         -2    1    6    6    0  503 -0.20951753365E+02 -0.43116243607E+02  0.11559340015E+01  0.47951252489E+02  0.00000000000E+00 0.  1.
<mgrwt>
<rscale>  0 0.11656433E+04</rscale>
<asrwt>0</asrwt>
<pdfrwt beam="1">  1        2 0.25389116E+00 0.11656433E+04</pdfrwt>
<pdfrwt beam="2">  1       -1 0.31666282E-01 0.11656433E+04</pdfrwt>
<totfact> 0.10921106E+02</totfact>
</mgrwt>
</event>
<event>
12    7  0.2466188E-007  0.1428549E+04  0.7818608E-02  0.8933408E-01
         -1   -1    0    0    0  501 -0.00000000000E+00  0.00000000000E+00  0.27711394667E+03  0.27711394667E+03  0.00000000000E+00 0.  1.
          2   -1    0    0  501    0  0.00000000000E+00 -0.00000000000E+00 -0.18410779534E+04  0.18410779534E+04  0.00000000000E+00 0. -1.
         24    2    1    2    0    0 -0.27193822115E+03 -0.11934406539E+03 -0.20343985388E+02  0.30841743189E+03  0.80709556359E+02 0.  0.
        254    2    1    2    0    0  0.27193822115E+03  0.11934406539E+03 -0.15436200213E+04  0.18097744681E+04  0.89684304830E+03 0.  0.
         23    2    4    4    0    0  0.24290829659E+03 -0.26713912288E+03 -0.12773024806E+04  0.13306586315E+04  0.93717742612E+02 0.  0.
         23    2    4    4    0    0  0.29029924554E+02  0.38648318827E+03 -0.26631754075E+03  0.47911583661E+03  0.91733096777E+02 0.  0.
          2    1    3    3  502    0 -0.25434594476E+03 -0.98410740972E+02 -0.38744194821E+02  0.27545897369E+03  0.00000000000E+00 0. -1.
         -1    1    3    3    0  502 -0.17592276387E+02 -0.20933324420E+02  0.18400209433E+02  0.32958458200E+02  0.00000000000E+00 0.  1.
         13    1    5    5    0    0  0.11446145990E+03 -0.18442744020E+03 -0.66216732443E+03  0.69683604388E+03  0.00000000000E+00 0. -1.
        -13    1    5    5    0    0  0.12844683670E+03 -0.82711682685E+02 -0.61513515614E+03  0.63382258766E+03  0.00000000000E+00 0.  1.
          1    1    6    6  503    0 -0.27412384657E+02  0.19729281067E+03 -0.15560323296E+03  0.25276126697E+03  0.00000000000E+00 0. -1.
         -1    1    6    6    0  503  0.56442309211E+02  0.18919037761E+03 -0.11071430779E+03  0.22635456964E+03  0.00000000000E+00 0.  1.
<mgrwt>
<rscale>  0 0.14285494E+04</rscale>
<asrwt>0</asrwt>
<pdfrwt beam="1">  1        2 0.28324277E+00 0.14285494E+04</pdfrwt>
<pdfrwt beam="2">  1       -1 0.42632914E-01 0.14285494E+04</pdfrwt>
<totfact> 0.49069025E+01</totfact>
</mgrwt>
</event>
<event>
12    7  0.2466188E-007  0.1659615E+04  0.7818608E-02  0.8784738E-01
          2   -1    0    0  501    0  0.00000000000E+00  0.00000000000E+00  0.81773656596E+03  0.81773656596E+03  0.00000000000E+00 0. -1.
         -1   -1    0    0    0  501 -0.00000000000E+00 -0.00000000000E+00 -0.84205688315E+03  0.84205688315E+03  0.00000000000E+00 0.  1.
         24    2    1    2    0    0 -0.47485757263E+03 -0.40459942163E+02  0.35039875484E+03  0.59690607552E+03  0.79942819575E+02 0.  0.
        254    2    1    2    0    0  0.47485757263E+03  0.40459942163E+02 -0.37471907203E+03  0.10628873736E+04  0.87303405706E+03 0.  0.
         23    2    4    4    0    0 -0.12201213860E+02  0.90920867542E+02  0.23955099050E+03  0.27206738357E+03  0.90667030273E+02 0.  0.
         23    2    4    4    0    0  0.48705878649E+03 -0.50460925379E+02 -0.61427006253E+03  0.79081999002E+03  0.91082272748E+02 0.  0.
          2    1    3    3  502    0 -0.24688105079E+03  0.15487726980E+02  0.15938375609E+03  0.29426740327E+03  0.00000000000E+00 0. -1.
         -1    1    3    3    0  502 -0.22797652184E+03 -0.55947669143E+02  0.19101499875E+03  0.30263867225E+03  0.00000000000E+00 0.  1.
         13    1    5    5    0    0 -0.40564963695E+02  0.42477614538E+02  0.60074615204E+02  0.84016804321E+02  0.00000000000E+00 0.  1.
        -13    1    5    5    0    0  0.28363749835E+02  0.48443253004E+02  0.17947637530E+03  0.18805057925E+03  0.00000000000E+00 0. -1.
          1    1    6    6  503    0  0.40747268041E+03 -0.72765509000E+02 -0.53364870499E+03  0.67535897485E+03  0.00000000000E+00 0. -1.
         -1    1    6    6    0  503  0.79586106083E+02  0.22304583621E+02 -0.80621357546E+02  0.11546101517E+03  0.00000000000E+00 0.  1.
<mgrwt>
<rscale>  0 0.16596153E+04</rscale>
<asrwt>0</asrwt>
<pdfrwt beam="1">  1        2 0.12580563E+00 0.16596153E+04</pdfrwt>
<pdfrwt beam="2">  1       -1 0.12954721E+00 0.16596153E+04</pdfrwt>
<totfact> 0.18651931E+01</totfact>
</mgrwt>
</event>
<event>
12    7  0.2466188E-007  0.1098199E+04  0.7818608E-02  0.9206949E-01
          2   -1    0    0  501    0  0.00000000000E+00  0.00000000000E+00  0.71252125632E+03  0.71252125632E+03  0.00000000000E+00 0. -1.
         -1   -1    0    0    0  501 -0.00000000000E+00 -0.00000000000E+00 -0.42315958628E+03  0.42315958628E+03  0.00000000000E+00 0.  1.
         24    2    1    2    0    0  0.96109082657E+02  0.82153656051E+02  0.15821807103E+03  0.21812110721E+03  0.80979506274E+02 0.  0.
        254    2    1    2    0    0 -0.96109082657E+02 -0.82153656051E+02  0.13114359901E+03  0.91755973539E+03  0.89929474894E+03 0.  0.
         23    2    4    4    0    0 -0.49077235840E+03 -0.53288722300E+02  0.62299662958E+02  0.50575009683E+03  0.90579891517E+02 0.  0.
         23    2    4    4    0    0  0.39466327574E+03 -0.28864933751E+02  0.68843936048E+02  0.41180963855E+03  0.90859260694E+02 0.  0.
          2    1    3    3  502    0  0.81965770087E+01  0.40136215625E+02  0.90860482932E+02  0.99668084350E+02  0.00000000000E+00 0. -1.
         -1    1    3    3    0  502  0.87912505649E+02  0.42017440426E+02  0.67357588101E+02  0.11845302286E+03  0.00000000000E+00 0.  1.
         13    1    5    5    0    0 -0.43166753757E+03 -0.66272312907E+02  0.31528362571E+02  0.43786175911E+03  0.00000000000E+00 0.  1.
        -13    1    5    5    0    0 -0.59104820833E+02  0.12983590607E+02  0.30771300387E+02  0.67888337719E+02  0.00000000000E+00 0. -1.
          3    1    6    6  503    0  0.16296698589E+03 -0.26325595336E+02 -0.14148831389E+02  0.16568483603E+03  0.00000000000E+00 0. -1.
         -3    1    6    6    0  503  0.23169628985E+03 -0.25393384152E+01  0.82992767437E+02  0.24612480252E+03  0.00000000000E+00 0.  1.
<mgrwt>
<rscale>  0 0.10981989E+04</rscale>
<asrwt>0</asrwt>
<pdfrwt beam="1">  1        2 0.10961865E+00 0.10981989E+04</pdfrwt>
<pdfrwt beam="2">  1       -1 0.65101475E-01 0.10981989E+04</pdfrwt>
<totfact> 0.10869441E+02</totfact>
</mgrwt>
</event>
<event>
12    7  0.2466188E-007  0.1819827E+04  0.7818608E-02  0.8695826E-01
          2   -1    0    0  501    0  0.00000000000E+00  0.00000000000E+00  0.34547359819E+04  0.34547359819E+04  0.00000000000E+00 0. -1.
         -1   -1    0    0    0  501 -0.00000000000E+00 -0.00000000000E+00 -0.23965432942E+03  0.23965432942E+03  0.00000000000E+00 0.  1.
         24    2    1    2    0    0  0.58104633861E+03  0.36236429064E+03  0.12289062939E+04  0.14089884795E+04  0.78199293260E+02 0.  0.
        254    2    1    2    0    0 -0.58104633861E+03 -0.36236429064E+03  0.19861753586E+04  0.22854018318E+04  0.89958115310E+03 0.  0.
         23    2    4    4    0    0 -0.63568928298E+03 -0.74304750566E+01  0.71393871060E+03  0.96037997835E+03  0.92006216419E+02 0.  0.
         23    2    4    4    0    0  0.54642944369E+02 -0.35493381558E+03  0.12722366480E+04  0.13250218534E+04  0.90182918874E+02 0.  0.
          2    1    3    3  502    0  0.29731302227E+03  0.21833341342E+03  0.71510982682E+03  0.80464065088E+03  0.00000000000E+00 0. -1.
         -1    1    3    3    0  502  0.28373331634E+03  0.14403087722E+03  0.51379646711E+03  0.60434782866E+03  0.00000000000E+00 0.  1.
         13    1    5    5    0    0 -0.56863117609E+03 -0.23346383068E+02  0.59816072549E+03  0.82564079450E+03  0.00000000000E+00 0.  1.
        -13    1    5    5    0    0 -0.67058106891E+02  0.15915908011E+02  0.11577798511E+03  0.13473918385E+03  0.00000000000E+00 0. -1.
          2    1    6    6  503    0  0.54785482033E+02 -0.24677825465E+03  0.10143400466E+04  0.10453643796E+04  0.00000000000E+00 0.  1.
         -2    1    6    6    0  503 -0.14253766406E+00 -0.10815556093E+03  0.25789660140E+03  0.27965747387E+03  0.00000000000E+00 0. -1.
<mgrwt>
<rscale>  0 0.18198268E+04</rscale>
<asrwt>0</asrwt>
<pdfrwt beam="1">  1        2 0.53149781E+00 0.18198268E+04</pdfrwt>
<pdfrwt beam="2">  1       -1 0.36869899E-01 0.18198268E+04</pdfrwt>
<totfact> 0.66771683E+00</totfact>
</mgrwt>
</event>
<event>
12    7  0.2466188E-007  0.1872327E+04  0.7818608E-02  0.8668755E-01
         -1   -1    0    0    0  501 -0.00000000000E+00  0.00000000000E+00  0.48269904057E+03  0.48269904057E+03  0.00000000000E+00 0.  1.
          4   -1    0    0  501    0  0.00000000000E+00 -0.00000000000E+00 -0.18156276705E+04  0.18156276705E+04  0.00000000000E+00 0. -1.
         24    2    1    2    0    0  0.61001728563E+03  0.30251810321E+03 -0.25140197341E+03  0.73022144819E+03  0.79888169477E+02 0.  0.
        254    2    1    2    0    0 -0.61001728563E+03 -0.30251810321E+03 -0.10815266565E+04  0.15681052629E+04  0.90863409313E+03 0.  0.
         23    2    4    4    0    0 -0.32565884553E+03 -0.47232240165E+03 -0.18787737722E+03  0.61063305556E+03  0.91829651495E+02 0.  0.
         23    2    4    4    0    0 -0.28435844011E+03  0.16980429844E+03 -0.89364927932E+03  0.95747220735E+03  0.91928076194E+02 0.  0.
          2    1    3    3  502    0  0.39922578710E+03  0.17711692137E+03 -0.19629128871E+03  0.47883389911E+03  0.00000000000E+00 0. -1.
         -3    1    3    3    0  502  0.21079149854E+03  0.12540118184E+03 -0.55110684703E+02  0.25138754908E+03  0.00000000000E+00 0.  1.
         13    1    5    5    0    0 -0.19185418456E+03 -0.19797413239E+03 -0.94497499916E+02  0.29143020214E+03  0.00000000000E+00 0.  1.
        -13    1    5    5    0    0 -0.13380466097E+03 -0.27434826926E+03 -0.93379877307E+02  0.31920285342E+03  0.00000000000E+00 0. -1.
          2    1    6    6  503    0 -0.15190453620E+03  0.60320316743E+02 -0.33080735001E+03  0.36898107208E+03  0.00000000000E+00 0. -1.
         -2    1    6    6    0  503 -0.13245390391E+03  0.10948398170E+03 -0.56284192930E+03  0.58849113527E+03  0.00000000000E+00 0.  1.
<mgrwt>
<rscale>  0 0.18723266E+04</rscale>
<asrwt>0</asrwt>
<pdfrwt beam="1">  1        4 0.27932734E+00 0.18723266E+04</pdfrwt>
<pdfrwt beam="2">  1       -1 0.74261389E-01 0.18723266E+04</pdfrwt>
<totfact> 0.28985196E-01</totfact>
</mgrwt>
</event>
<event>
12    7  0.2466188E-007  0.2123287E+04  0.7818608E-02  0.8551054E-01
          2   -1    0    0  501    0  0.00000000000E+00  0.00000000000E+00  0.13825355339E+04  0.13825355339E+04  0.00000000000E+00 0. -1.
         -1   -1    0    0    0  501 -0.00000000000E+00 -0.00000000000E+00 -0.81523216486E+03  0.81523216486E+03  0.00000000000E+00 0.  1.
         24    2    1    2    0    0  0.41533921224E+03 -0.52564889899E+03  0.80770992198E+03  0.10522270006E+04  0.77284646071E+02 0.  0.
        254    2    1    2    0    0 -0.41533921224E+03  0.52564889899E+03 -0.24040655295E+03  0.11455406981E+04  0.89758272830E+03 0.  0.
         23    2    4    4    0    0 -0.50130543362E+03 -0.64575352175E+02 -0.71561102163E+02  0.51878172862E+03  0.92392514382E+02 0.  0.
         23    2    4    4    0    0  0.85966221386E+02  0.59022425117E+03 -0.16884545078E+03  0.62675896952E+03  0.92537353201E+02 0.  0.
          4    1    3    3  502    0  0.32502054798E+03 -0.40607608291E+03  0.67428552464E+03  0.85158505768E+03  0.00000000000E+00 0. -1.
         -3    1    3    3    0  502  0.90318664256E+02 -0.11957281609E+03  0.13342439735E+03  0.20064194294E+03  0.00000000000E+00 0.  1.
         13    1    5    5    0    0 -0.62765662264E+02 -0.25455674137E+02  0.16657359432E+02  0.69749461133E+02  0.00000000000E+00 0. -1.
        -13    1    5    5    0    0 -0.43853977136E+03 -0.39119678038E+02 -0.88218461595E+02  0.44903226748E+03  0.00000000000E+00 0.  1.
          3    1    6    6  503    0 -0.18069264892E+02  0.13968502940E+03 -0.48425956459E+02  0.14894119320E+03  0.00000000000E+00 0. -1.
         -3    1    6    6    0  503  0.10403548628E+03  0.45053922176E+03 -0.12041949432E+03  0.47781777632E+03  0.00000000000E+00 0.  1.
<mgrwt>
<rscale>  0 0.21232875E+04</rscale>
<asrwt>0</asrwt>
<pdfrwt beam="1">  1        2 0.21269777E+00 0.21232875E+04</pdfrwt>
<pdfrwt beam="2">  1       -1 0.12542033E+00 0.21232875E+04</pdfrwt>
<totfact> 0.86146459E+00</totfact>
</mgrwt>
</event>
<event>
12    7  0.2466188E-007  0.1925378E+04  0.7818608E-02  0.8642326E-01
          2   -1    0    0  501    0  0.00000000000E+00  0.00000000000E+00  0.46265789221E+03  0.46265789221E+03  0.00000000000E+00 0. -1.
         -1   -1    0    0    0  501 -0.00000000000E+00 -0.00000000000E+00 -0.20031423784E+04  0.20031423784E+04  0.00000000000E+00 0.  1.
         24    2    1    2    0    0  0.50837642286E+03 -0.24553054117E+03  0.27795667982E+02  0.57079893137E+03  0.79416540673E+02 0.  0.
        254    2    1    2    0    0 -0.50837642286E+03  0.24553054117E+03 -0.15682801542E+04  0.18950013392E+04  0.90155177319E+03 0.  0.
         23    2    4    4    0    0 -0.56172859683E+03  0.25674674573E+03 -0.44497387499E+03  0.76667755182E+03  0.91295186651E+02 0.  0.
         23    2    4    4    0    0  0.53352173971E+02 -0.11216204560E+02 -0.11233062792E+04  0.11283237874E+04  0.91243162307E+02 0.  0.
          2    1    3    3  502    0  0.41325891443E+03 -0.18381424899E+03  0.50686248896E+02  0.45512603124E+03  0.00000000000E+00 0. -1.
         -1    1    3    3    0  502  0.95117508428E+02 -0.61716292176E+02 -0.22890580914E+02  0.11567290013E+03  0.00000000000E+00 0.  1.
         13    1    5    5    0    0 -0.31956545887E+03  0.16403286818E+03 -0.30931763828E+03  0.47403192476E+03  0.00000000000E+00 0.  1.
        -13    1    5    5    0    0 -0.24216313796E+03  0.92713877546E+02 -0.13565623671E+03  0.29264562706E+03  0.00000000000E+00 0. -1.
          1    1    6    6  503    0 -0.20467964456E+02 -0.20143838668E+02 -0.45212620892E+03  0.45303732804E+03  0.00000000000E+00 0. -1.
         -1    1    6    6    0  503  0.73820138428E+02  0.89276341089E+01 -0.67118007027E+03  0.67528645937E+03  0.00000000000E+00 0.  1.
<mgrwt>
<rscale>  0 0.19253775E+04</rscale>
<asrwt>0</asrwt>
<pdfrwt beam="1">  1        2 0.71178138E-01 0.19253775E+04</pdfrwt>
<pdfrwt beam="2">  1       -1 0.30817575E+00 0.19253775E+04</pdfrwt>
<totfact> 0.21048944E+00</totfact>
</mgrwt>
</event>
<event>
12    7  0.2466188E-007  0.2058772E+04  0.7818608E-02  0.8579625E-01
          2   -1    0    0  501    0  0.00000000000E+00  0.00000000000E+00  0.14925273094E+04  0.14925273094E+04  0.00000000000E+00 0. -1.
         -1   -1    0    0    0  501 -0.00000000000E+00 -0.00000000000E+00 -0.70996062546E+03  0.70996062546E+03  0.00000000000E+00 0.  1.
         24    2    1    2    0    0  0.79695124878E+03 -0.68114930750E+01  0.67883947191E+02  0.80391032739E+03  0.80535053449E+02 0.  0.
        254    2    1    2    0    0 -0.79695124878E+03  0.68114930750E+01  0.71468273678E+03  0.13985776075E+04  0.90003901058E+03 0.  0.
         23    2    4    4    0    0 -0.78413387433E+02  0.20816495688E+03  0.58772294667E+03  0.63473239546E+03  0.89362426111E+02 0.  0.
         23    2    4    4    0    0 -0.71853786135E+03 -0.20135346381E+03  0.12695979012E+03  0.76384521204E+03  0.10247362622E+03 0.  0.
          4    1    3    3  502    0  0.41647980631E+03  0.36662837571E+02  0.36203517527E+02  0.41965496233E+03  0.00000000000E+00 0. -1.
         -3    1    3    3    0  502  0.38047144246E+03 -0.43474330646E+02  0.31680429663E+02  0.38425536506E+03  0.00000000000E+00 0.  1.
         13    1    5    5    0    0 -0.97472010407E+02  0.18441523534E+03  0.49560871596E+03  0.53771532540E+03  0.00000000000E+00 0.  1.
        -13    1    5    5    0    0  0.19058622974E+02  0.23749721546E+02  0.92114230706E+02  0.97017070053E+02  0.00000000000E+00 0. -1.
          4    1    6    6  503    0 -0.15027777824E+03 -0.25432239131E+02  0.65218076789E+02  0.16578180527E+03  0.00000000000E+00 0. -1.
         -4    1    6    6    0  503 -0.56826008311E+03 -0.17592122468E+03  0.61741713326E+02  0.59806340677E+03  0.00000000000E+00 0.  1.
<mgrwt>
<rscale>  0 0.20587721E+04</rscale>
<asrwt>0</asrwt>
<pdfrwt beam="1">  1        2 0.22961958E+00 0.20587721E+04</pdfrwt>
<pdfrwt beam="2">  1       -1 0.10922471E+00 0.20587721E+04</pdfrwt>
<totfact> 0.10479835E+01</totfact>
</mgrwt>
</event>
<event>
12    7  0.2466188E-007  0.1244596E+04  0.7818608E-02  0.9074693E-01
         -1   -1    0    0    0  501 -0.00000000000E+00  0.00000000000E+00  0.27712071453E+03  0.27712071453E+03  0.00000000000E+00 0.  1.
          2   -1    0    0  501    0  0.00000000000E+00 -0.00000000000E+00 -0.13974233022E+04  0.13974233022E+04  0.00000000000E+00 0. -1.
         24    2    1    2    0    0 -0.70934157415E+01 -0.25044996852E+03 -0.46599775960E+03  0.53512204473E+03  0.80163504951E+02 0.  0.
        254    2    1    2    0    0  0.70934157415E+01  0.25044996852E+03 -0.65430482811E+03  0.11394219720E+04  0.89855000919E+03 0.  0.
         23    2    4    4    0    0 -0.27022460045E+01  0.58276569410E+03 -0.43140442287E+03  0.73048176164E+03  0.88716805983E+02 0.  0.
         23    2    4    4    0    0  0.97956617460E+01 -0.33231572558E+03 -0.22290040524E+03  0.40894021041E+03  0.83772361647E+02 0.  0.
          2    1    3    3  502    0  0.21445561131E+02 -0.19018397640E+03 -0.38703198309E+03  0.43176800820E+03  0.00000000000E+00 0. -1.
         -1    1    3    3    0  502 -0.28538976872E+02 -0.60265992118E+02 -0.78965776508E+02  0.10335403653E+03  0.00000000000E+00 0.  1.
         13    1    5    5    0    0 -0.21003098194E+02  0.52999798326E+02 -0.23679701026E+02  0.61731977102E+02  0.00000000000E+00 0. -1.
        -13    1    5    5    0    0  0.18300852189E+02  0.52976589577E+03 -0.40772472184E+03  0.66874978453E+03  0.00000000000E+00 0.  1.
          4    1    6    6  503    0  0.42800411045E+02 -0.13850294224E+03 -0.11220359467E+03  0.18331553903E+03  0.00000000000E+00 0. -1.
         -4    1    6    6    0  503 -0.33004749299E+02 -0.19381278334E+03 -0.11069681058E+03  0.22562467138E+03  0.00000000000E+00 0.  1.
<mgrwt>
<rscale>  0 0.12445962E+04</rscale>
<asrwt>0</asrwt>
<pdfrwt beam="1">  1        2 0.21498821E+00 0.12445962E+04</pdfrwt>
<pdfrwt beam="2">  1       -1 0.42633955E-01 0.12445962E+04</pdfrwt>
<totfact> 0.88125173E+01</totfact>
</mgrwt>
</event>
<event>
12    7  0.2466188E-007  0.1903692E+04  0.7818608E-02  0.8653021E-01
         -1   -1    0    0    0  501 -0.00000000000E+00  0.00000000000E+00  0.36320430020E+03  0.36320430020E+03  0.00000000000E+00 0.  1.
          2   -1    0    0  501    0  0.00000000000E+00 -0.00000000000E+00 -0.24944942753E+04  0.24944942753E+04  0.00000000000E+00 0. -1.
         24    2    1    2    0    0 -0.45278032092E+03  0.31721272410E+03 -0.15606048068E+04  0.16576587135E+04  0.81921400585E+02 0.  0.
        254    2    1    2    0    0  0.45278032092E+03 -0.31721272410E+03 -0.57068516825E+03  0.12000398620E+04  0.89932206570E+03 0.  0.
         23    2    4    4    0    0  0.79907253094E+02 -0.17538454823E+03  0.22282327098E+03  0.30818396505E+03  0.90455720471E+02 0.  0.
         23    2    4    4    0    0  0.37287306783E+03 -0.14182817586E+03 -0.79350843923E+03  0.89185589697E+03  0.81251102495E+02 0.  0.
          2    1    3    3  502    0 -0.11395800842E+03  0.41700656646E+02 -0.37793282287E+03  0.39693650758E+03  0.00000000000E+00 0. -1.
         -1    1    3    3    0  502 -0.33882231251E+03  0.27551206745E+03 -0.11826719840E+04  0.12607222059E+04  0.00000000000E+00 0.  1.
         13    1    5    5    0    0 -0.29378964066E+01 -0.10244899956E+03  0.11005320601E+03  0.15038662473E+03  0.00000000000E+00 0. -1.
        -13    1    5    5    0    0  0.82845149500E+02 -0.72935548671E+02  0.11277006498E+03  0.15779734032E+03  0.00000000000E+00 0.  1.
          1    1    6    6  503    0  0.24182911518E+03 -0.88037983478E+02 -0.42231993190E+03  0.49455650068E+03  0.00000000000E+00 0. -1.
         -1    1    6    6    0  503  0.13104395265E+03 -0.53790192385E+02 -0.37118850733E+03  0.39729939630E+03  0.00000000000E+00 0.  1.
<mgrwt>
<rscale>  0 0.19036923E+04</rscale>
<asrwt>0</asrwt>
<pdfrwt beam="1">  1        2 0.38376835E+00 0.19036923E+04</pdfrwt>
<pdfrwt beam="2">  1       -1 0.55877584E-01 0.19036923E+04</pdfrwt>
<totfact> 0.12119742E+01</totfact>
</mgrwt>
</event>
<event>
12    7  0.2466188E-007  0.3085569E+04  0.7818608E-02  0.8219710E-01
          2   -1    0    0  501    0  0.00000000000E+00  0.00000000000E+00  0.17904132742E+04  0.17904132742E+04  0.00000000000E+00 0. -1.
         -1   -1    0    0    0  501 -0.00000000000E+00 -0.00000000000E+00 -0.13294048513E+04  0.13294048513E+04  0.00000000000E+00 0.  1.
         24    2    1    2    0    0  0.98582721055E+03 -0.43699224149E+03 -0.70801599931E+03  0.12924794721E+04  0.79993889365E+02 0.  0.
        254    2    1    2    0    0 -0.98582721055E+03  0.43699224149E+03  0.11690244222E+04  0.18273386534E+04  0.89985051336E+03 0.  0.
         23    2    4    4    0    0 -0.81101118586E+03  0.60308380158E+03  0.11948214531E+04  0.15674787816E+04  0.89119081553E+02 0.  0.
         23    2    4    4    0    0 -0.17481602469E+03 -0.16609156009E+03 -0.25797030937E+02  0.25985987178E+03  0.93352114765E+02 0.  0.
          4    1    3    3  502    0  0.78646545021E+03 -0.31323951345E+03 -0.54690069050E+03  0.10078428759E+04  0.00000000000E+00 0. -1.
         -3    1    3    3    0  502  0.19936176034E+03 -0.12375272804E+03 -0.16111530881E+03  0.28463659624E+03  0.00000000000E+00 0.  1.
         13    1    5    5    0    0 -0.11517828722E+03  0.61714923129E+02  0.12081896197E+03  0.17796626410E+03  0.00000000000E+00 0. -1.
        -13    1    5    5    0    0 -0.69583289863E+03  0.54136887845E+03  0.10740024912E+04  0.13895125175E+04  0.00000000000E+00 0.  1.
          3    1    6    6  503    0 -0.77410234939E+02 -0.13016550899E+03 -0.35618029547E+02  0.15557650283E+03  0.00000000000E+00 0. -1.
         -3    1    6    6    0  503 -0.97405789754E+02 -0.35926051105E+02  0.98209986102E+01  0.10428336895E+03  0.00000000000E+00 0.  1.
<mgrwt>
<rscale>  0 0.30855691E+04</rscale>
<asrwt>0</asrwt>
<pdfrwt beam="1">  1        2 0.27544820E+00 0.30855691E+04</pdfrwt>
<pdfrwt beam="2">  1       -1 0.20452382E+00 0.30855691E+04</pdfrwt>
<totfact> 0.11838287E+00</totfact>
</mgrwt>
</event>
<event>
12    7  0.2466188E-007  0.1361919E+04  0.7818608E-02  0.8981854E-01
         -1   -1    0    0    0  501 -0.00000000000E+00  0.00000000000E+00  0.20088050930E+03  0.20088050930E+03  0.00000000000E+00 0.  1.
          2   -1    0    0  501    0  0.00000000000E+00 -0.00000000000E+00 -0.23083665014E+04  0.23083665014E+04  0.00000000000E+00 0. -1.
         24    2    1    2    0    0 -0.34948808139E+03  0.13541536806E+03 -0.50212872882E+03  0.63154061632E+03  0.78936992686E+02 0.  0.
        254    2    1    2    0    0  0.34948808139E+03 -0.13541536806E+03 -0.16053572632E+04  0.18777063943E+04  0.89896057743E+03 0.  0.
         23    2    4    4    0    0  0.21672282394E+03 -0.47880073807E+03 -0.12458244718E+04  0.13552594153E+04  0.91817966703E+02 0.  0.
         23    2    4    4    0    0  0.13276525745E+03  0.34338537001E+03 -0.35953279145E+03  0.52244697906E+03  0.90260134459E+02 0.  0.
          2    1    3    3  502    0 -0.31894908231E+03  0.98492900354E+02 -0.42051256399E+03  0.53689867294E+03  0.00000000000E+00 0. -1.
         -1    1    3    3    0  502 -0.30538999088E+02  0.36922467707E+02 -0.81616164826E+02  0.94641943385E+02  0.00000000000E+00 0.  1.
         13    1    5    5    0    0  0.89994881484E+02 -0.13188428750E+03 -0.46114844661E+03  0.48800659196E+03  0.00000000000E+00 0.  1.
        -13    1    5    5    0    0  0.12672794246E+03 -0.34691645057E+03 -0.78467602518E+03  0.86725282333E+03  0.00000000000E+00 0. -1.
          2    1    6    6  503    0  0.53696928076E+02  0.24982704662E+03 -0.26073572145E+03  0.36507537543E+03  0.00000000000E+00 0.  1.
         -2    1    6    6    0  503  0.79068329378E+02  0.93558323397E+02 -0.98797070000E+02  0.15737160363E+03  0.00000000000E+00 0. -1.
<mgrwt>
<rscale>  0 0.13619190E+04</rscale>
<asrwt>0</asrwt>
<pdfrwt beam="1">  1        2 0.35513330E+00 0.13619190E+04</pdfrwt>
<pdfrwt beam="2">  1       -1 0.30904694E-01 0.13619190E+04</pdfrwt>
<totfact> 0.48389607E+01</totfact>
</mgrwt>
</event>
<event>
12    7  0.2466188E-007  0.3091754E+04  0.7818608E-02  0.8218005E-01
          2   -1    0    0  501    0  0.00000000000E+00  0.00000000000E+00  0.19509658511E+04  0.19509658511E+04  0.00000000000E+00 0. -1.
         -1   -1    0    0    0  501 -0.00000000000E+00 -0.00000000000E+00 -0.12248989125E+04  0.12248989125E+04  0.00000000000E+00 0.  1.
         24    2    1    2    0    0 -0.78398662081E+03  0.54677387026E+03  0.14023778757E+04  0.16989554771E+04  0.78672232682E+02 0.  0.
        254    2    1    2    0    0  0.78398662081E+03 -0.54677387026E+03 -0.67631093711E+03  0.14769092864E+04  0.90014880421E+03 0.  0.
         23    2    4    4    0    0  0.52358226872E+03 -0.65124932936E+03 -0.12291107109E+03  0.84956907530E+03  0.91631878675E+02 0.  0.
         23    2    4    4    0    0  0.26040435209E+03  0.10447545910E+03 -0.55339986602E+03  0.62734021108E+03  0.92621706880E+02 0.  0.
          2    1    3    3  502    0 -0.60199339883E+03  0.45209500007E+03  0.11338888276E+04  0.13610620172E+04  0.00000000000E+00 0. -1.
         -3    1    3    3    0  502 -0.18199322198E+03  0.94678870194E+02  0.26848904808E+03  0.33789345991E+03  0.00000000000E+00 0.  1.
         13    1    5    5    0    0  0.34200338559E+03 -0.48589850428E+03 -0.10434222856E+03  0.60328349296E+03  0.00000000000E+00 0.  1.
        -13    1    5    5    0    0  0.18157888313E+03 -0.16535082508E+03 -0.18568842530E+02  0.24628558233E+03  0.00000000000E+00 0. -1.
          1    1    6    6  503    0  0.21469288407E+03  0.43658838071E+02 -0.39799722976E+03  0.45431368404E+03  0.00000000000E+00 0. -1.
         -1    1    6    6    0  503  0.45711468024E+02  0.60816621033E+02 -0.15540263626E+03  0.17302652704E+03  0.00000000000E+00 0.  1.
<mgrwt>
<rscale>  0 0.30917542E+04</rscale>
<asrwt>0</asrwt>
<pdfrwt beam="1">  1        2 0.30014859E+00 0.30917542E+04</pdfrwt>
<pdfrwt beam="2">  1       -1 0.18844599E+00 0.30917542E+04</pdfrwt>
<totfact> 0.12459731E+00</totfact>
</mgrwt>
</event>
<event>
12    7  0.2466188E-007  0.1948176E+04  0.7818608E-02  0.8631241E-01
         -1   -1    0    0    0  501 -0.00000000000E+00  0.00000000000E+00  0.86089850115E+03  0.86089850115E+03  0.00000000000E+00 0.  1.
          2   -1    0    0  501    0  0.00000000000E+00 -0.00000000000E+00 -0.11021599459E+04  0.11021599459E+04  0.00000000000E+00 0. -1.
         24    2    1    2    0    0 -0.31345916144E+03  0.55454478941E+03  0.32947295522E+03  0.72194770516E+03  0.82942699586E+02 0.  0.
        254    2    1    2    0    0  0.31345916144E+03 -0.55454478941E+03 -0.57073439993E+03  0.12411107418E+04  0.89935618578E+03 0.  0.
         23    2    4    4    0    0 -0.10376911361E+03 -0.62626919036E+03 -0.20144658071E+03  0.67222608755E+03  0.91247247494E+02 0.  0.
         23    2    4    4    0    0  0.41722827505E+03  0.71724400946E+02 -0.36928781922E+03  0.56888465429E+03  0.89623843227E+02 0.  0.
          4    1    3    3  502    0 -0.18129867156E+03  0.35665259123E+03  0.16554740364E+03  0.43298524455E+03  0.00000000000E+00 0. -1.
         -3    1    3    3    0  502 -0.13216048987E+03  0.19789219818E+03  0.16392555158E+03  0.28896246061E+03  0.00000000000E+00 0.  1.
         13    1    5    5    0    0  0.55149927383E+01 -0.23537255029E+03 -0.75718268627E+02  0.24731338172E+03  0.00000000000E+00 0. -1.
        -13    1    5    5    0    0 -0.10928410635E+03 -0.39089664007E+03 -0.12572831209E+03  0.42491270583E+03  0.00000000000E+00 0.  1.
          4    1    6    6  503    0  0.14333826735E+03 -0.18074406958E+02 -0.12604508954E+03  0.19172873460E+03  0.00000000000E+00 0.  1.
         -4    1    6    6    0  503  0.27389000769E+03  0.89798807904E+02 -0.24324272968E+03  0.37715591969E+03  0.00000000000E+00 0. -1.
<mgrwt>
<rscale>  0 0.19481764E+04</rscale>
<asrwt>0</asrwt>
<pdfrwt beam="1">  1        2 0.16956307E+00 0.19481764E+04</pdfrwt>
<pdfrwt beam="2">  1       -1 0.13244592E+00 0.19481764E+04</pdfrwt>
<totfact> 0.11179105E+01</totfact>
</mgrwt>
</event>
<event>
12    7  0.2466188E-007  0.2099864E+04  0.7818608E-02  0.8561303E-01
         -1   -1    0    0    0  501 -0.00000000000E+00  0.00000000000E+00  0.10045448671E+04  0.10045448671E+04  0.00000000000E+00 0.  1.
          2   -1    0    0  501    0  0.00000000000E+00 -0.00000000000E+00 -0.10973695996E+04  0.10973695996E+04  0.00000000000E+00 0. -1.
         24    2    1    2    0    0 -0.64171773723E+02  0.69970485563E+03 -0.52523299736E+03  0.88094938099E+03  0.80605265449E+02 0.  0.
        254    2    1    2    0    0  0.64171773723E+02 -0.69970485563E+03  0.43240826487E+03  0.12209650857E+04  0.90004107202E+03 0.  0.
         23    2    4    4    0    0 -0.62546551238E+02  0.20093079080E+03  0.86239911624E+02  0.24359232804E+03  0.87261939925E+02 0.  0.
         23    2    4    4    0    0  0.12671832496E+03 -0.90063564643E+03  0.34616835325E+03  0.97737275761E+03  0.90680080718E+02 0.  0.
          4    1    3    3  502    0 -0.15042832750E+02  0.46282818623E+03 -0.37788904962E+03  0.59769252180E+03  0.00000000000E+00 0. -1.
         -3    1    3    3    0  502 -0.49128940973E+02  0.23687666939E+03 -0.14734394775E+03  0.28325685919E+03  0.00000000000E+00 0.  1.
         13    1    5    5    0    0 -0.83517235349E+02  0.16215745174E+03  0.58692398204E+02  0.19161149590E+03  0.00000000000E+00 0. -1.
        -13    1    5    5    0    0  0.20970684111E+02  0.38773339059E+02  0.27547513421E+02  0.51980832136E+02  0.00000000000E+00 0.  1.
          2    1    6    6  503    0 -0.69611511061E+01 -0.28629256133E+02 -0.60946389780E+00  0.29469702708E+02  0.00000000000E+00 0.  1.
         -2    1    6    6    0  503  0.13367947607E+03 -0.87200639029E+03  0.34677781715E+03  0.94790305491E+03  0.00000000000E+00 0. -1.
<mgrwt>
<rscale>  0 0.20998638E+04</rscale>
<asrwt>0</asrwt>
<pdfrwt beam="1">  1        2 0.16882609E+00 0.20998638E+04</pdfrwt>
<pdfrwt beam="2">  1       -1 0.15454536E+00 0.20998638E+04</pdfrwt>
<totfact> 0.73934509E+00</totfact>
</mgrwt>
</event>
<event>
12    7  0.2466188E-007  0.2406824E+04  0.7818608E-02  0.8436953E-01
          2   -1    0    0  501    0  0.00000000000E+00  0.00000000000E+00  0.10016904798E+04  0.10016904798E+04  0.00000000000E+00 0. -1.
         -1   -1    0    0    0  501 -0.00000000000E+00 -0.00000000000E+00 -0.14457567680E+04  0.14457567680E+04  0.00000000000E+00 0.  1.
         24    2    1    2    0    0  0.51080334742E+03 -0.65632229651E+03 -0.81425626505E+03  0.11668355791E+04  0.82540819878E+02 0.  0.
        254    2    1    2    0    0 -0.51080334742E+03  0.65632229651E+03  0.37018997690E+03  0.12806116687E+04  0.90069229500E+03 0.  0.
         23    2    4    4    0    0 -0.18647055681E+03  0.65661035074E+03 -0.10723017927E+03  0.69633871799E+03  0.86492066579E+02 0.  0.
         23    2    4    4    0    0 -0.32433279061E+03 -0.28805422511E+00  0.47742015617E+03  0.58427295066E+03  0.90846206957E+02 0.  0.
          2    1    3    3  502    0  0.20387720155E+03 -0.27578525778E+03 -0.28089361425E+03  0.44331100172E+03  0.00000000000E+00 0. -1.
         -3    1    3    3    0  502  0.30692614588E+03 -0.38053703873E+03 -0.53336265080E+03  0.72352457742E+03  0.00000000000E+00 0.  1.
         13    1    5    5    0    0 -0.12941425929E+02  0.50505720458E+02  0.14764738464E+02  0.54187690539E+02  0.00000000000E+00 0. -1.
        -13    1    5    5    0    0 -0.17352913089E+03  0.60610463028E+03 -0.12199491773E+03  0.64215102746E+03  0.00000000000E+00 0.  1.
          2    1    6    6  503    0 -0.53012274854E+02  0.23669276590E+02  0.13336214945E+03  0.14545101871E+03  0.00000000000E+00 0. -1.
         -2    1    6    6    0  503 -0.27132051575E+03 -0.23957330815E+02  0.34405800672E+03  0.43882193195E+03  0.00000000000E+00 0.  1.
<mgrwt>
<rscale>  0 0.24068243E+04</rscale>
<asrwt>0</asrwt>
<pdfrwt beam="1">  1        2 0.15410623E+00 0.24068243E+04</pdfrwt>
<pdfrwt beam="2">  1       -1 0.22242412E+00 0.24068243E+04</pdfrwt>
<totfact> 0.27294256E+00</totfact>
</mgrwt>
</event>
<event>
12    7  0.2466188E-007  0.2140560E+04  0.7818608E-02  0.8543584E-01
         -1   -1    0    0    0  501 -0.00000000000E+00  0.00000000000E+00  0.63884525630E+03  0.63884525630E+03  0.00000000000E+00 0.  1.
          2   -1    0    0  501    0  0.00000000000E+00 -0.00000000000E+00 -0.17930775479E+04  0.17930775479E+04  0.00000000000E+00 0. -1.
         24    2    1    2    0    0 -0.24927597655E+03 -0.81927325231E+03 -0.24997149660E+03  0.89542805039E+03  0.77191125513E+02 0.  0.
        254    2    1    2    0    0  0.24927597655E+03  0.81927325231E+03 -0.90426079495E+03  0.15364947538E+04  0.89987852994E+03 0.  0.
         23    2    4    4    0    0 -0.31421232963E+03  0.35219467426E+03 -0.50778779591E+03  0.69898335905E+03  0.89212184671E+02 0.  0.
         23    2    4    4    0    0  0.56348830618E+03  0.46707857806E+03 -0.39647299905E+03  0.83751139473E+03  0.92482582374E+02 0.  0.
          2    1    3    3  502    0 -0.81199394137E+02 -0.17731587651E+03 -0.37064591578E+02  0.19851459800E+03  0.00000000000E+00 0. -1.
         -1    1    3    3    0  502 -0.16807658242E+03 -0.64195737580E+03 -0.21290690502E+03  0.69691345238E+03  0.00000000000E+00 0.  1.
         13    1    5    5    0    0 -0.79218952688E+02  0.40318386919E+02 -0.11194362911E+03  0.14294261396E+03  0.00000000000E+00 0. -1.
        -13    1    5    5    0    0 -0.23499337694E+03  0.31187628734E+03 -0.39584416680E+03  0.55604074509E+03  0.00000000000E+00 0.  1.
          3    1    6    6  503    0  0.38245523995E+03  0.34331721818E+03 -0.31919646399E+03  0.60500008718E+03  0.00000000000E+00 0. -1.
         -3    1    6    6    0  503  0.18103306623E+03  0.12376135987E+03 -0.77276535062E+02  0.23251130755E+03  0.00000000000E+00 0.  1.
<mgrwt>
<rscale>  0 0.21405598E+04</rscale>
<asrwt>0</asrwt>
<pdfrwt beam="1">  1        2 0.27585808E+00 0.21405598E+04</pdfrwt>
<pdfrwt beam="2">  1       -1 0.98283886E-01 0.21405598E+04</pdfrwt>
<totfact> 0.90271369E+00</totfact>
</mgrwt>
</event>
<event>
12    7  0.2466188E-007  0.2368791E+04  0.7818608E-02  0.8451281E-01
         -1   -1    0    0    0  501 -0.00000000000E+00  0.00000000000E+00  0.78368108492E+03  0.78368108492E+03  0.00000000000E+00 0.  1.
          2   -1    0    0  501    0  0.00000000000E+00 -0.00000000000E+00 -0.17900048828E+04  0.17900048828E+04  0.00000000000E+00 0. -1.
         24    2    1    2    0    0 -0.15604892966E+03  0.75977275953E+02 -0.15141651197E+04  0.15262821703E+04  0.81959982212E+02 0.  0.
        254    2    1    2    0    0  0.15604892966E+03 -0.75977275953E+02  0.50784132184E+03  0.10474037974E+04  0.89945988892E+03 0.  0.
         23    2    4    4    0    0  0.31978672304E+03 -0.21096570583E+03 -0.92292031295E+02  0.40427911182E+03  0.90297862358E+02 0.  0.
         23    2    4    4    0    0 -0.16373779338E+03  0.13498842987E+03  0.60013335313E+03  0.64312468561E+03  0.91746272474E+02 0.  0.
          2    1    3    3  502    0 -0.12455068561E+03  0.53790009523E+02 -0.13812125797E+04  0.13878596574E+04  0.00000000000E+00 0. -1.
         -1    1    3    3    0  502 -0.31498244045E+02  0.22187266430E+02 -0.13295253999E+03  0.13842251284E+03  0.00000000000E+00 0.  1.
         13    1    5    5    0    0  0.21189630583E+03 -0.17039005243E+03 -0.30828456301E+02  0.27364796383E+03  0.00000000000E+00 0.  1.
        -13    1    5    5    0    0  0.10789041720E+03 -0.40575653402E+02 -0.61463574994E+02  0.13063114799E+03  0.00000000000E+00 0. -1.
          3    1    6    6  503    0 -0.13369932700E+03  0.14524147332E+03  0.54293223763E+03  0.57770754735E+03  0.00000000000E+00 0. -1.
         -3    1    6    6    0  503 -0.30038466379E+02 -0.10253043446E+02  0.57201115507E+02  0.65417138255E+02  0.00000000000E+00 0.  1.
<mgrwt>
<rscale>  0 0.23687912E+04</rscale>
<asrwt>0</asrwt>
<pdfrwt beam="1">  1        2 0.27538536E+00 0.23687912E+04</pdfrwt>
<pdfrwt beam="2">  1       -1 0.12056632E+00 0.23687912E+04</pdfrwt>
<totfact> 0.54891327E+00</totfact>
</mgrwt>
</event>
<event>
12    7  0.2466188E-007  0.1462538E+04  0.7818608E-02  0.8909754E-01
          2   -1    0    0  501    0  0.00000000000E+00  0.00000000000E+00  0.22735194187E+04  0.22735194187E+04  0.00000000000E+00 0. -1.
         -1   -1    0    0    0  501 -0.00000000000E+00 -0.00000000000E+00 -0.23520990788E+03  0.23520990788E+03  0.00000000000E+00 0.  1.
         24    2    1    2    0    0 -0.31886880288E+03  0.48930629190E+02  0.11949266658E+04  0.12402094971E+04  0.78729538869E+02 0.  0.
        254    2    1    2    0    0  0.31886880288E+03 -0.48930629190E+02  0.84338284503E+03  0.12685198294E+04  0.89094130809E+03 0.  0.
         23    2    4    4    0    0  0.46380340212E+03  0.26628380162E+03  0.69115201613E+03  0.87886605248E+03  0.93240388122E+02 0.  0.
         23    2    4    4    0    0 -0.14493459924E+03 -0.31521443081E+03  0.15223082891E+03  0.38965377696E+03  0.91047598457E+02 0.  0.
          2    1    3    3  502    0 -0.25390101782E+03  0.36859990584E+02  0.10506224800E+04  0.10814952525E+04  0.00000000000E+00 0. -1.
         -1    1    3    3    0  502 -0.64967785056E+02  0.12070638607E+02  0.14430418583E+03  0.15871424466E+03  0.00000000000E+00 0.  1.
         13    1    5    5    0    0  0.24238766182E+03  0.85511170357E+02  0.32478692536E+03  0.41418653496E+03  0.00000000000E+00 0.  1.
        -13    1    5    5    0    0  0.22141574030E+03  0.18077263126E+03  0.36636509077E+03  0.46467951752E+03  0.00000000000E+00 0. -1.
          1    1    6    6  503    0  0.90965785179E+01 -0.15772196046E+02  0.22133026224E+02  0.28659741079E+02  0.00000000000E+00 0. -1.
         -1    1    6    6    0  503 -0.15403117776E+03 -0.29944223476E+03  0.13009780268E+03  0.36099403588E+03  0.00000000000E+00 0.  1.
<mgrwt>
<rscale>  0 0.14625379E+04</rscale>
<asrwt>0</asrwt>
<pdfrwt beam="1">  1        2 0.34977220E+00 0.14625379E+04</pdfrwt>
<pdfrwt beam="2">  1       -1 0.36186141E-01 0.14625379E+04</pdfrwt>
<totfact> 0.37909531E+01</totfact>
</mgrwt>
</event>
<event>
12    7  0.2466188E-007  0.1616406E+04  0.7818608E-02  0.8810532E-01
         -1   -1    0    0    0  501 -0.00000000000E+00  0.00000000000E+00  0.32247428370E+03  0.32247428370E+03  0.00000000000E+00 0.  1.
          2   -1    0    0  501    0  0.00000000000E+00 -0.00000000000E+00 -0.20255632495E+04  0.20255632495E+04  0.00000000000E+00 0. -1.
         24    2    1    2    0    0  0.31530989008E+03  0.43129369017E+03 -0.80064553120E+03  0.96580595094E+03  0.79456241233E+02 0.  0.
        254    2    1    2    0    0 -0.31530989008E+03 -0.43129369017E+03 -0.90244343459E+03  0.13822315822E+04  0.90040292112E+03 0.  0.
         23    2    4    4    0    0 -0.48250192142E+03 -0.60125836862E+03 -0.76971758496E+03  0.10941760190E+04  0.10215806382E+03 0.  0.
         23    2    4    4    0    0  0.16719203134E+03  0.16996467845E+03 -0.13272584963E+03  0.28805556322E+03  0.92296744680E+02 0.  0.
          4    1    3    3  502    0  0.19686756115E+02  0.46249446075E+02 -0.11700660801E+03  0.12734647991E+03  0.00000000000E+00 0. -1.
         -3    1    3    3    0  502  0.29562313397E+03  0.38504424410E+03 -0.68363892319E+03  0.83845947102E+03  0.00000000000E+00 0.  1.
         13    1    5    5    0    0 -0.96374151640E+02 -0.12522380352E+03 -0.21976693466E+03  0.27067782260E+03  0.00000000000E+00 0.  1.
        -13    1    5    5    0    0 -0.38612776978E+03 -0.47603456510E+03 -0.54995065030E+03  0.82349819643E+03  0.00000000000E+00 0. -1.
          1    1    6    6  503    0  0.14632013659E+03  0.18040286636E+03 -0.11916997506E+03  0.26106753823E+03  0.00000000000E+00 0. -1.
         -1    1    6    6    0  503  0.20871894748E+02 -0.10438187914E+02 -0.13555874570E+02  0.26988024987E+02  0.00000000000E+00 0.  1.
<mgrwt>
<rscale>  0 0.16164060E+04</rscale>
<asrwt>0</asrwt>
<pdfrwt beam="1">  1        2 0.31162512E+00 0.16164060E+04</pdfrwt>
<pdfrwt beam="2">  1       -1 0.49611428E-01 0.16164060E+04</pdfrwt>
<totfact> 0.28742252E+01</totfact>
</mgrwt>
</event>
<event>
12    7  0.2466188E-007  0.2645710E+04  0.7818608E-02  0.8352838E-01
         -1   -1    0    0    0  501 -0.00000000000E+00  0.00000000000E+00  0.29880823447E+04  0.29880823447E+04  0.00000000000E+00 0.  1.
          2   -1    0    0  501    0  0.00000000000E+00 -0.00000000000E+00 -0.58564141706E+03  0.58564141706E+03  0.00000000000E+00 0. -1.
         24    2    1    2    0    0 -0.81610108317E+03  0.58273662818E+03  0.25343491909E+03  0.10374311037E+04  0.80194020994E+02 0.  0.
        254    2    1    2    0    0  0.81610108317E+03 -0.58273662818E+03  0.21490060086E+04  0.25362926580E+04  0.89941684805E+03 0.  0.
         23    2    4    4    0    0  0.53834606569E+03 -0.93539274710E+02  0.17626088115E+04  0.18476921162E+04  0.92791441029E+02 0.  0.
         23    2    4    4    0    0  0.27775501749E+03 -0.48919735347E+03  0.38639719710E+03  0.68860054187E+03  0.91684305904E+02 0.  0.
          2    1    3    3  502    0 -0.71526906634E+03  0.49452415569E+03  0.19447030196E+03  0.89105705551E+03  0.00000000000E+00 0. -1.
         -1    1    3    3    0  502 -0.10083201683E+03  0.88212472497E+02  0.58964617126E+02  0.14637404823E+03  0.00000000000E+00 0.  1.
         13    1    5    5    0    0  0.40766353835E+03 -0.11062753881E+03  0.13348730476E+04  0.14001121620E+04  0.00000000000E+00 0.  1.
        -13    1    5    5    0    0  0.13068252733E+03  0.17088264105E+02  0.42773576386E+03  0.44757995420E+03  0.00000000000E+00 0. -1.
          1    1    6    6  503    0  0.21969643709E+03 -0.36523192991E+03  0.33599792715E+03  0.54272966949E+03  0.00000000000E+00 0. -1.
         -1    1    6    6    0  503  0.58058580402E+02 -0.12396542356E+03  0.50399269953E+02  0.14587087238E+03  0.00000000000E+00 0.  1.
<mgrwt>
<rscale>  0 0.26457096E+04</rscale>
<asrwt>0</asrwt>
<pdfrwt beam="1">  1        2 0.90098681E-01 0.26457096E+04</pdfrwt>
<pdfrwt beam="2">  1       -1 0.45970497E+00 0.26457096E+04</pdfrwt>
<totfact> 0.14226029E-01</totfact>
</mgrwt>
</event>
<event>
12    7  0.2466188E-007  0.2299775E+04  0.7818608E-02  0.8478010E-01
         -1   -1    0    0    0  501 -0.00000000000E+00  0.00000000000E+00  0.45645132626E+03  0.45645132626E+03  0.00000000000E+00 0.  1.
          2   -1    0    0  501    0  0.00000000000E+00 -0.00000000000E+00 -0.28967835884E+04  0.28967835884E+04  0.00000000000E+00 0. -1.
         24    2    1    2    0    0 -0.12634543088E+03  0.91235814539E+03 -0.58288847888E+03  0.10928654021E+04  0.78963629963E+02 0.  0.
        254    2    1    2    0    0  0.12634543088E+03 -0.91235814539E+03 -0.18574437832E+04  0.22603695126E+04  0.90045120474E+03 0.  0.
         23    2    4    4    0    0  0.16331379211E+03 -0.99968283838E+03 -0.11250071922E+04  0.15163033803E+04  0.86588604226E+02 0.  0.
         23    2    4    4    0    0 -0.36968361230E+02  0.87324692994E+02 -0.73243659099E+03  0.74406613229E+03  0.90436650020E+02 0.  0.
          4    1    3    3  502    0 -0.10183143611E+03  0.58884520853E+03 -0.33960127741E+03  0.68734078055E+03  0.00000000000E+00 0. -1.
         -1    1    3    3    0  502 -0.24513994765E+02  0.32351293686E+03 -0.24328720147E+03  0.40552462152E+03  0.00000000000E+00 0.  1.
         13    1    5    5    0    0  0.12543263069E+03 -0.81546973316E+03 -0.86474231718E+03  0.11952001948E+04  0.00000000000E+00 0.  1.
        -13    1    5    5    0    0  0.37881161424E+02 -0.18421310522E+03 -0.26026487507E+03  0.32110318547E+03  0.00000000000E+00 0. -1.
          4    1    6    6  503    0 -0.69924828341E+01 -0.80030957487E+01 -0.94966615392E+01  0.14252401136E+02  0.00000000000E+00 0. -1.
         -4    1    6    6    0  503 -0.29975878396E+02  0.95327788742E+02 -0.72293992945E+03  0.72981373116E+03  0.00000000000E+00 0.  1.
<mgrwt>
<rscale>  0 0.22997745E+04</rscale>
<asrwt>0</asrwt>
<pdfrwt beam="1">  1        2 0.44565901E+00 0.22997745E+04</pdfrwt>
<pdfrwt beam="2">  1       -1 0.70223282E-01 0.22997745E+04</pdfrwt>
<totfact> 0.42694395E+00</totfact>
</mgrwt>
</event>
<event>
12    7  0.2466188E-007  0.2644751E+04  0.7818608E-02  0.8353157E-01
         -1   -1    0    0    0  501 -0.00000000000E+00  0.00000000000E+00  0.94811061451E+03  0.94811061451E+03  0.00000000000E+00 0.  1.
          2   -1    0    0  501    0  0.00000000000E+00 -0.00000000000E+00 -0.18443809264E+04  0.18443809264E+04  0.00000000000E+00 0. -1.
         24    2    1    2    0    0 -0.11351860479E+04 -0.15238204900E+03 -0.20071702842E+03  0.11655470825E+04  0.79655657600E+02 0.  0.
        254    2    1    2    0    0  0.11351860479E+04  0.15238204900E+03 -0.69555328344E+03  0.16269444584E+04  0.92265174826E+03 0.  0.
         23    2    4    4    0    0  0.16922698882E+03 -0.27225167619E+03  0.43127666421E+02  0.33587136416E+03  0.90503197292E+02 0.  0.
         23    2    4    4    0    0  0.96595905905E+03  0.42463372518E+03 -0.73868094986E+03  0.12910730943E+04  0.88484375626E+02 0.  0.
          2    1    3    3  502    0 -0.17695420373E+03 -0.50699722656E+02 -0.44205847872E+02  0.18930771004E+03  0.00000000000E+00 0. -1.
         -1    1    3    3    0  502 -0.95823184414E+03 -0.10168232634E+03 -0.15651118055E+03  0.97623937242E+03  0.00000000000E+00 0.  1.
         13    1    5    5    0    0  0.81694261916E+01  0.66676732227E+01  0.45660073967E+01  0.11491118921E+02  0.00000000000E+00 0. -1.
        -13    1    5    5    0    0  0.16105756263E+03 -0.27891934941E+03  0.38561659025E+02  0.32438024524E+03  0.00000000000E+00 0.  1.
          2    1    6    6  503    0  0.52900408602E+03  0.18603932956E+03 -0.37697745598E+03  0.67569812601E+03  0.00000000000E+00 0. -1.
         -2    1    6    6    0  503  0.43695497302E+03  0.23859439562E+03 -0.36170349388E+03  0.61537496825E+03  0.00000000000E+00 0.  1.
<mgrwt>
<rscale>  0 0.26447511E+04</rscale>
<asrwt>0</asrwt>
<pdfrwt beam="1">  1        2 0.28375091E+00 0.26447511E+04</pdfrwt>
<pdfrwt beam="2">  1       -1 0.14586317E+00 0.26447511E+04</pdfrwt>
<totfact> 0.30753855E+00</totfact>
</mgrwt>
</event>
<event>
12    7  0.2466188E-007  0.2909972E+04  0.7818608E-02  0.8269917E-01
          2   -1    0    0  501    0  0.00000000000E+00  0.00000000000E+00  0.91116606839E+03  0.91116606839E+03  0.00000000000E+00 0. -1.
         -1   -1    0    0    0  501 -0.00000000000E+00 -0.00000000000E+00 -0.23233798526E+04  0.23233798526E+04  0.00000000000E+00 0.  1.
         24    2    1    2    0    0 -0.75418477044E+03 -0.86178667553E+03 -0.13572826123E+04  0.17776643124E+04  0.80021095156E+02 0.  0.
        254    2    1    2    0    0  0.75418477044E+03  0.86178667553E+03 -0.54931171906E+02  0.14568816086E+04  0.89889690501E+03 0.  0.
         23    2    4    4    0    0  0.89133605248E+03  0.87350777005E+03 -0.15936688178E+03  0.12614873458E+04  0.91960523449E+02 0.  0.
         23    2    4    4    0    0 -0.13715128204E+03 -0.11721094520E+02  0.10443570987E+03  0.19539426281E+03  0.91237285237E+02 0.  0.
          4    1    3    3  502    0 -0.40985428351E+03 -0.52803127674E+03 -0.79553872004E+03  0.10390762330E+04  0.00000000000E+00 0. -1.
         -3    1    3    3    0  502 -0.34433048693E+03 -0.33375539879E+03 -0.56174389228E+03  0.73858807935E+03  0.00000000000E+00 0.  1.
         13    1    5    5    0    0  0.87551348970E+03  0.84154173207E+03 -0.16443571237E+03  0.12254613258E+04  0.00000000000E+00 0.  1.
        -13    1    5    5    0    0  0.15822562781E+02  0.31966037979E+02  0.50688305914E+01  0.36026020050E+02  0.00000000000E+00 0. -1.
          2    1    6    6  503    0 -0.69612968265E+02  0.39794312398E+02  0.52050696546E+02  0.95597215758E+02  0.00000000000E+00 0.  1.
         -2    1    6    6    0  503 -0.67538313779E+02 -0.51515406918E+02  0.52385013328E+02  0.99797047048E+02  0.00000000000E+00 0. -1.
<mgrwt>
<rscale>  0 0.29099724E+04</rscale>
<asrwt>0</asrwt>
<pdfrwt beam="1">  1        2 0.14017939E+00 0.29099724E+04</pdfrwt>
<pdfrwt beam="2">  1       -1 0.35744306E+00 0.29099724E+04</pdfrwt>
<totfact> 0.39264302E-01</totfact>
</mgrwt>
</event>
<event>
12    7  0.2466188E-007  0.2690755E+04  0.7818608E-02  0.8338011E-01
          2   -1    0    0  501    0  0.00000000000E+00  0.00000000000E+00  0.13989617122E+04  0.13989617122E+04  0.00000000000E+00 0. -1.
         -1   -1    0    0    0  501 -0.00000000000E+00 -0.00000000000E+00 -0.12938457883E+04  0.12938457883E+04  0.00000000000E+00 0.  1.
         24    2    1    2    0    0 -0.97947133644E+03  0.24031738104E+03  0.68669864414E+03  0.12215833828E+04  0.59953237629E+02 0.  0.
        254    2    1    2    0    0  0.97947133644E+03 -0.24031738104E+03 -0.58158272019E+03  0.14712241177E+04  0.89952509774E+03 0.  0.
         23    2    4    4    0    0  0.12912703744E+02 -0.85702975213E+02 -0.46461245463E+03  0.48088048097E+03  0.88710574935E+02 0.  0.
         23    2    4    4    0    0  0.96655863270E+03 -0.15461440582E+03 -0.11697026556E+03  0.99034363670E+03  0.94642859211E+02 0.  0.
          2    1    3    3  502    0 -0.72266167675E+03  0.16682566112E+03  0.47484852986E+03  0.88065420374E+03  0.00000000000E+00 0. -1.
         -1    1    3    3    0  502 -0.25680965969E+03  0.73491719917E+02  0.21185011429E+03  0.34092917905E+03  0.00000000000E+00 0.  1.
         13    1    5    5    0    0 -0.16664554920E+02 -0.88608545203E+02 -0.28794983422E+03  0.30173546145E+03  0.00000000000E+00 0. -1.
        -13    1    5    5    0    0  0.29577258664E+02  0.29055699898E+01 -0.17666262041E+03  0.17914501952E+03  0.00000000000E+00 0.  1.
          4    1    6    6  503    0  0.73796323485E+03 -0.15719631239E+03 -0.79739011728E+02  0.75872177154E+03  0.00000000000E+00 0. -1.
         -4    1    6    6    0  503  0.22859539785E+03  0.25819065648E+01 -0.37231253831E+02  0.23162186516E+03  0.00000000000E+00 0.  1.
<mgrwt>
<rscale>  0 0.26907551E+04</rscale>
<asrwt>0</asrwt>
<pdfrwt beam="1">  1        2 0.21522488E+00 0.26907551E+04</pdfrwt>
<pdfrwt beam="2">  1       -1 0.19905320E+00 0.26907551E+04</pdfrwt>
<totfact> 0.22141851E+00</totfact>
</mgrwt>
</event>
<event>
12    7  0.2466188E-007  0.1371978E+04  0.7818608E-02  0.8974356E-01
         -1   -1    0    0    0  501 -0.00000000000E+00  0.00000000000E+00  0.15339635318E+04  0.15339635318E+04  0.00000000000E+00 0.  1.
          2   -1    0    0  501    0  0.00000000000E+00 -0.00000000000E+00 -0.30677434295E+03  0.30677434295E+03  0.00000000000E+00 0. -1.
         24    2    1    2    0    0 -0.10802812445E+03 -0.25924177173E+03  0.70671530623E+03  0.76474405200E+03  0.80688097804E+02 0.  0.
        254    2    1    2    0    0  0.10802812445E+03  0.25924177173E+03  0.52047388264E+03  0.10759938228E+04  0.89888445990E+03 0.  0.
         23    2    4    4    0    0 -0.25130413674E+02  0.36199601425E+03 -0.13099079558E+03  0.39721444687E+03  0.94594271766E+02 0.  0.
         23    2    4    4    0    0  0.13315853812E+03 -0.10275424252E+03  0.65146467822E+03  0.67877937590E+03  0.89697176957E+02 0.  0.
          4    1    3    3  502    0 -0.59173047184E+02 -0.10566733064E+03  0.20860139047E+03  0.24120857029E+03  0.00000000000E+00 0. -1.
         -3    1    3    3    0  502 -0.48855077267E+02 -0.15357444110E+03  0.49811391576E+03  0.52353548171E+03  0.00000000000E+00 0.  1.
         13    1    5    5    0    0  0.30989496449E+02  0.57032805218E+02 -0.22168511750E+02  0.68589595963E+02  0.00000000000E+00 0.  1.
        -13    1    5    5    0    0 -0.56119910123E+02  0.30496320903E+03 -0.10882228383E+03  0.32862485091E+03  0.00000000000E+00 0. -1.
          1    1    6    6  503    0  0.14301861011E+03 -0.99740662517E+02  0.64015055167E+03  0.66347211803E+03  0.00000000000E+00 0. -1.
         -1    1    6    6    0  503 -0.98600719885E+01 -0.30135800020E+01  0.11314126543E+02  0.15307257869E+02  0.00000000000E+00 0.  1.
<mgrwt>
<rscale>  0 0.13719776E+04</rscale>
<asrwt>0</asrwt>
<pdfrwt beam="1">  1        2 0.47196053E-01 0.13719776E+04</pdfrwt>
<pdfrwt beam="2">  1       -1 0.23599439E+00 0.13719776E+04</pdfrwt>
<totfact> 0.10311989E+01</totfact>
</mgrwt>
</event>
<event>
12    7  0.2466188E-007  0.2219242E+04  0.7818608E-02  0.8510462E-01
         -1   -1    0    0    0  501 -0.00000000000E+00  0.00000000000E+00  0.44174409761E+03  0.44174409761E+03  0.00000000000E+00 0.  1.
          2   -1    0    0  501    0  0.00000000000E+00 -0.00000000000E+00 -0.27872667613E+04  0.27872667613E+04  0.00000000000E+00 0. -1.
         24    2    1    2    0    0  0.55404515062E+03 -0.26945668602E+03  0.23201182487E+02  0.62135489194E+03  0.77270125519E+02 0.  0.
        254    2    1    2    0    0 -0.55404515062E+03  0.26945668602E+03 -0.23687238461E+04  0.26076559669E+04  0.89969108478E+03 0.  0.
         23    2    4    4    0    0 -0.58173260224E+03 -0.78241595219E+02 -0.78995732645E+03  0.98832493896E+03  0.90658919213E+02 0.  0.
         23    2    4    4    0    0  0.27687451613E+02  0.34769828124E+03 -0.15787665197E+04  0.16193310280E+04  0.89825189660E+02 0.  0.
          2    1    3    3  502    0  0.38886739148E+02 -0.42114231538E+02  0.94451454177E+01  0.58094730842E+02  0.00000000000E+00 0. -1.
         -1    1    3    3    0  502  0.51515841147E+03 -0.22734245448E+03  0.13756037069E+02  0.56326016110E+03  0.00000000000E+00 0.  1.
         13    1    5    5    0    0 -0.53146446945E+03 -0.78504728113E+02 -0.75683330484E+03  0.92812398199E+03  0.00000000000E+00 0. -1.
        -13    1    5    5    0    0 -0.50268132788E+02  0.26313289487E+00 -0.33124021605E+02  0.60200956971E+02  0.00000000000E+00 0.  1.
          3    1    6    6  503    0  0.39972523952E+02  0.21125697261E+03 -0.78896207279E+03  0.81773373628E+03  0.00000000000E+00 0. -1.
         -3    1    6    6    0  503 -0.12285072339E+02  0.13644130863E+03 -0.78980444690E+03  0.80159729169E+03  0.00000000000E+00 0.  1.
<mgrwt>
<rscale>  0 0.22192419E+04</rscale>
<asrwt>0</asrwt>
<pdfrwt beam="1">  1        2 0.42881028E+00 0.22192419E+04</pdfrwt>
<pdfrwt beam="2">  1       -1 0.67960629E-01 0.22192419E+04</pdfrwt>
<totfact> 0.53609863E+00</totfact>
</mgrwt>
</event>
<event>
12    7  0.2466188E-007  0.3519982E+04  0.7818608E-02  0.8109071E-01
         -1   -1    0    0    0  501 -0.00000000000E+00  0.00000000000E+00  0.15567910487E+04  0.15567910487E+04  0.00000000000E+00 0.  1.
          2   -1    0    0  501    0  0.00000000000E+00 -0.00000000000E+00 -0.19897141495E+04  0.19897141495E+04  0.00000000000E+00 0. -1.
         24    2    1    2    0    0  0.16370174440E+04  0.72151589264E+02 -0.33828453750E+03  0.16748990820E+04  0.76279372690E+02 0.  0.
        254    2    1    2    0    0 -0.16370174440E+04 -0.72151589264E+02 -0.94638563347E+02  0.18716061163E+04  0.89940037413E+03 0.  0.
         23    2    4    4    0    0 -0.11884923163E+03  0.55010193493E+02  0.25987568343E+03  0.30498270240E+03  0.91256871958E+02 0.  0.
         23    2    4    4    0    0 -0.15181682124E+04 -0.12716178276E+03 -0.35451424678E+03  0.15666234139E+04  0.87313971795E+02 0.  0.
          2    1    3    3  502    0  0.97958872932E+03  0.18515257692E+02 -0.23087217967E+03  0.10065976638E+04  0.00000000000E+00 0. -1.
         -1    1    3    3    0  502  0.65742871466E+03  0.53636331571E+02 -0.10741235783E+03  0.66830141818E+03  0.00000000000E+00 0.  1.
         13    1    5    5    0    0 -0.20671533839E+02  0.22813050540E+02  0.15399754064E+03  0.15704454816E+03  0.00000000000E+00 0.  1.
        -13    1    5    5    0    0 -0.98177697792E+02  0.32197142953E+02  0.10587814279E+03  0.14793815424E+03  0.00000000000E+00 0. -1.
          2    1    6    6  503    0 -0.10864506920E+03 -0.21020901754E+02 -0.62374699586E+01  0.11083562335E+03  0.00000000000E+00 0. -1.
         -2    1    6    6    0  503 -0.14095231432E+04 -0.10614088100E+03 -0.34827677682E+03  0.14557877905E+04  0.00000000000E+00 0.  1.
<mgrwt>
<rscale>  0 0.35199825E+04</rscale>
<asrwt>0</asrwt>
<pdfrwt beam="1">  1        2 0.30610987E+00 0.35199825E+04</pdfrwt>
<pdfrwt beam="2">  1       -1 0.23950632E+00 0.35199825E+04</pdfrwt>
<totfact> 0.51603881E-01</totfact>
</mgrwt>
</event>
<event>
12    7  0.2466188E-007  0.2034373E+04  0.7818608E-02  0.8590717E-01
         -1   -1    0    0    0  501 -0.00000000000E+00  0.00000000000E+00  0.64578138328E+03  0.64578138328E+03  0.00000000000E+00 0.  1.
          2   -1    0    0  501    0  0.00000000000E+00 -0.00000000000E+00 -0.16021962309E+04  0.16021962309E+04  0.00000000000E+00 0. -1.
         24    2    1    2    0    0  0.75091619558E+03 -0.83319906807E+02 -0.44634566687E+02  0.76105426863E+03  0.79962588759E+02 0.  0.
        254    2    1    2    0    0 -0.75091619558E+03  0.83319906807E+02 -0.91178028091E+03  0.14869233455E+04  0.89932219763E+03 0.  0.
         23    2    4    4    0    0  0.55215353088E+02  0.68354139614E+02 -0.60691116438E+03  0.62002348726E+03  0.91470977258E+02 0.  0.
         23    2    4    4    0    0 -0.80613154867E+03  0.14965767193E+02 -0.30486911653E+03  0.86689985827E+03  0.92185346489E+02 0.  0.
          2    1    3    3  502    0  0.59179284287E+03 -0.92053916709E+02 -0.54514034832E+02  0.60138546079E+03  0.00000000000E+00 0. -1.
         -3    1    3    3    0  502  0.15912335271E+03  0.87340099020E+01  0.98794681450E+01  0.15966880784E+03  0.00000000000E+00 0.  1.
         13    1    5    5    0    0  0.56094505211E+02  0.64051319740E+02 -0.27048943189E+03  0.28357309082E+03  0.00000000000E+00 0. -1.
        -13    1    5    5    0    0 -0.87915212269E+00  0.43028198742E+01 -0.33642173249E+03  0.33645039644E+03  0.00000000000E+00 0.  1.
          2    1    6    6  503    0 -0.19111619630E+03 -0.10968354330E+02 -0.11220632447E+03  0.22189178565E+03  0.00000000000E+00 0. -1.
         -2    1    6    6    0  503 -0.61501535237E+03  0.25934121523E+02 -0.19266279206E+03  0.64500807263E+03  0.00000000000E+00 0.  1.
<mgrwt>
<rscale>  0 0.20343731E+04</rscale>
<asrwt>0</asrwt>
<pdfrwt beam="1">  1        2 0.24649173E+00 0.20343731E+04</pdfrwt>
<pdfrwt beam="2">  1       -1 0.99350982E-01 0.20343731E+04</pdfrwt>
<totfact> 0.11353701E+01</totfact>
</mgrwt>
</event>
<event>
12    7  0.2466188E-007  0.2025845E+04  0.7818608E-02  0.8594632E-01
         -1   -1    0    0    0  501 -0.00000000000E+00  0.00000000000E+00  0.81835352084E+03  0.81835352084E+03  0.00000000000E+00 0.  1.
          2   -1    0    0  501    0  0.00000000000E+00 -0.00000000000E+00 -0.12537518913E+04  0.12537518913E+04  0.00000000000E+00 0. -1.
         24    2    1    2    0    0  0.43413638025E+03 -0.68458467874E+03 -0.12967931025E+03  0.82491477881E+03  0.80852271225E+02 0.  0.
        254    2    1    2    0    0 -0.43413638025E+03  0.68458467874E+03 -0.30571906025E+03  0.12471906334E+04  0.89715648196E+03 0.  0.
         23    2    4    4    0    0 -0.41704690354E+03  0.25439243474E+02  0.13580933724E+03  0.44842830226E+03  0.89824781251E+02 0.  0.
         23    2    4    4    0    0 -0.17089476714E+02  0.65914543527E+03 -0.44152839749E+03  0.79876233110E+03  0.91154707737E+02 0.  0.
          2    1    3    3  502    0  0.33346935259E+02 -0.60802782453E+02 -0.34291614170E+02  0.77362208135E+02  0.00000000000E+00 0. -1.
         -1    1    3    3    0  502  0.40078944499E+03 -0.62378189629E+03 -0.95387696076E+02  0.74755257067E+03  0.00000000000E+00 0.  1.
         13    1    5    5    0    0 -0.23227004813E+02 -0.20356846630E+02  0.90420397249E+01  0.32181569877E+02  0.00000000000E+00 0. -1.
        -13    1    5    5    0    0 -0.39381989872E+03  0.45796090105E+02  0.12676729752E+03  0.41624673238E+03  0.00000000000E+00 0.  1.
          1    1    6    6  503    0 -0.12091449424E+02  0.57597653952E+02 -0.13286185318E+02  0.60334199342E+02  0.00000000000E+00 0. -1.
         -1    1    6    6    0  503 -0.49980272893E+01  0.60154778132E+03 -0.42824221217E+03  0.73842813176E+03  0.00000000000E+00 0.  1.
<mgrwt>
<rscale>  0 0.20258453E+04</rscale>
<asrwt>0</asrwt>
<pdfrwt beam="1">  1        2 0.19288491E+00 0.20258453E+04</pdfrwt>
<pdfrwt beam="2">  1       -1 0.12590054E+00 0.20258453E+04</pdfrwt>
<totfact> 0.10224645E+01</totfact>
</mgrwt>
</event>
<event>
12    7  0.2466188E-007  0.1494449E+04  0.7818608E-02  0.8888153E-01
         -1   -1    0    0    0  501 -0.00000000000E+00  0.00000000000E+00  0.74050807305E+03  0.74050807305E+03  0.00000000000E+00 0.  1.
          2   -1    0    0  501    0  0.00000000000E+00 -0.00000000000E+00 -0.75400185051E+03  0.75400185051E+03  0.00000000000E+00 0. -1.
         24    2    1    2    0    0 -0.97852702533E+02  0.44251045135E+03 -0.13555200989E+03  0.47949865869E+03  0.78447213785E+02 0.  0.
        254    2    1    2    0    0  0.97852702533E+02 -0.44251045135E+03  0.12205823243E+03  0.10150112649E+04  0.89997722457E+03 0.  0.
         23    2    4    4    0    0 -0.48224606230E+02  0.26154386686E+03  0.61200226733E+02  0.28778750828E+03  0.91353025290E+02 0.  0.
         23    2    4    4    0    0  0.14607730876E+03 -0.70405431822E+03  0.60858005699E+02  0.72722375659E+03  0.90109001495E+02 0.  0.
          2    1    3    3  502    0 -0.76301522185E+02  0.42590223027E+03 -0.12916377824E+03  0.45155056599E+03  0.00000000000E+00 0. -1.
         -1    1    3    3    0  502 -0.21551180348E+02  0.16608221082E+02 -0.63882316529E+01  0.27948092700E+02  0.00000000000E+00 0.  1.
         13    1    5    5    0    0 -0.50308235684E+02  0.56028138491E+02  0.98316026638E+01  0.75938997171E+02  0.00000000000E+00 0. -1.
        -13    1    5    5    0    0  0.20836294539E+01  0.20551572837E+03  0.51368624069E+02  0.21184851111E+03  0.00000000000E+00 0.  1.
          4    1    6    6  503    0  0.14812370268E+03 -0.69991345010E+03  0.52084958562E+02  0.71730907692E+03  0.00000000000E+00 0. -1.
         -4    1    6    6    0  503 -0.20463939136E+01 -0.41408681187E+01  0.87730471367E+01  0.99146796664E+01  0.00000000000E+00 0.  1.
<mgrwt>
<rscale>  0 0.14944490E+04</rscale>
<asrwt>0</asrwt>
<pdfrwt beam="1">  1        2 0.11600028E+00 0.14944490E+04</pdfrwt>
<pdfrwt beam="2">  1       -1 0.11392432E+00 0.14944490E+04</pdfrwt>
<totfact> 0.28868097E+01</totfact>
</mgrwt>
</event>
<event>
12    7  0.2466188E-007  0.2134167E+04  0.7818608E-02  0.8546340E-01
          2   -1    0    0  501    0  0.00000000000E+00  0.00000000000E+00  0.16579760216E+04  0.16579760216E+04  0.00000000000E+00 0. -1.
         -1   -1    0    0    0  501 -0.00000000000E+00 -0.00000000000E+00 -0.68678178193E+03  0.68678178193E+03  0.00000000000E+00 0.  1.
         24    2    1    2    0    0  0.79860828936E+03  0.31863917079E+03  0.58170575163E+03  0.10411135980E+04  0.78929218053E+02 0.  0.
        254    2    1    2    0    0 -0.79860828936E+03 -0.31863917079E+03  0.38948848804E+03  0.13036442055E+04  0.89915561018E+03 0.  0.
         23    2    4    4    0    0 -0.61969183050E+03  0.15266231086E+03  0.45196709974E+03  0.78746911325E+03  0.92247488468E+02 0.  0.
         23    2    4    4    0    0 -0.17891645885E+03 -0.47130148165E+03 -0.62478611702E+02  0.51617509229E+03  0.91634944889E+02 0.  0.
          4    1    3    3  502    0  0.13766173268E+03  0.24471658646E+02  0.86662257137E+02  0.16449912320E+03  0.00000000000E+00 0. -1.
         -3    1    3    3    0  502  0.66094655668E+03  0.29416751214E+03  0.49504349449E+03  0.87661447480E+03  0.00000000000E+00 0.  1.
         13    1    5    5    0    0 -0.26195689819E+03  0.11064034353E+03  0.18763238801E+03  0.34068844294E+03  0.00000000000E+00 0. -1.
        -13    1    5    5    0    0 -0.35773493231E+03  0.42021967331E+02  0.26433471173E+03  0.44678067031E+03  0.00000000000E+00 0.  1.
          1    1    6    6  503    0 -0.82434638366E+02 -0.14022107560E+03  0.12943649433E+02  0.16317155912E+03  0.00000000000E+00 0. -1.
         -1    1    6    6    0  503 -0.96481820488E+02 -0.33108040605E+03 -0.75422261135E+02  0.35300353317E+03  0.00000000000E+00 0.  1.
<mgrwt>
<rscale>  0 0.21341675E+04</rscale>
<asrwt>0</asrwt>
<pdfrwt beam="1">  1        2 0.25507323E+00 0.21341675E+04</pdfrwt>
<pdfrwt beam="2">  1       -1 0.10565874E+00 0.21341675E+04</pdfrwt>
<totfact> 0.90889310E+00</totfact>
</mgrwt>
</event>
<event>
12    7  0.2466188E-007  0.1561328E+04  0.7818608E-02  0.8844665E-01
          2   -1    0    0  501    0  0.00000000000E+00  0.00000000000E+00  0.76746416202E+03  0.76746416202E+03  0.00000000000E+00 0. -1.
         -1   -1    0    0    0  501 -0.00000000000E+00 -0.00000000000E+00 -0.79409057995E+03  0.79409057995E+03  0.00000000000E+00 0.  1.
         24    2    1    2    0    0  0.28490826209E+03 -0.42986367407E+03  0.15830541947E+02  0.52193782053E+03  0.78822499036E+02 0.  0.
        254    2    1    2    0    0 -0.28490826209E+03  0.42986367407E+03 -0.42456959873E+02  0.10396169214E+04  0.90169022053E+03 0.  0.
         23    2    4    4    0    0  0.12671521348E+03  0.54507330465E+03  0.10659506573E+03  0.57689100365E+03  0.90989391079E+02 0.  0.
         23    2    4    4    0    0 -0.41162347557E+03 -0.11520963058E+03 -0.14905202560E+03  0.46272591778E+03  0.95872957776E+02 0.  0.
          2    1    3    3  502    0  0.26671933900E+03 -0.35171486763E+03  0.10778074783E+02  0.44154130136E+03  0.00000000000E+00 0. -1.
         -1    1    3    3    0  502  0.18188923085E+02 -0.78148806436E+02  0.50524671642E+01  0.80396519171E+02  0.00000000000E+00 0.  1.
         13    1    5    5    0    0  0.53788848639E+02  0.37645340413E+03  0.99319318436E+02  0.39303273749E+03  0.00000000000E+00 0. -1.
        -13    1    5    5    0    0  0.72926364843E+02  0.16861990051E+03  0.72757472955E+01  0.18385826617E+03  0.00000000000E+00 0.  1.
          1    1    6    6  503    0 -0.76002646420E+02 -0.58850881941E+02 -0.16638731752E+02  0.97553451822E+02  0.00000000000E+00 0. -1.
         -1    1    6    6    0  503 -0.33562082915E+03 -0.56358748640E+02 -0.13241329385E+03  0.36517246596E+03  0.00000000000E+00 0.  1.
<mgrwt>
<rscale>  0 0.15613277E+04</rscale>
<asrwt>0</asrwt>
<pdfrwt beam="1">  1        2 0.11807141E+00 0.15613277E+04</pdfrwt>
<pdfrwt beam="2">  1       -1 0.12216778E+00 0.15613277E+04</pdfrwt>
<totfact> 0.23678654E+01</totfact>
</mgrwt>
</event>
<event>
12    7  0.2466188E-007  0.1415459E+04  0.7818608E-02  0.8942704E-01
         -1   -1    0    0    0  501 -0.00000000000E+00  0.00000000000E+00  0.19385462745E+03  0.19385462745E+03  0.00000000000E+00 0.  1.
          2   -1    0    0  501    0  0.00000000000E+00 -0.00000000000E+00 -0.25837958714E+04  0.25837958714E+04  0.00000000000E+00 0. -1.
         24    2    1    2    0    0 -0.31332294065E+03  0.21315582405E+03 -0.36112137188E+03  0.52589248887E+03  0.50473697696E+02 0.  0.
        254    2    1    2    0    0  0.31332294065E+03 -0.21315582405E+03 -0.20288198721E+04  0.22517580100E+04  0.90038735650E+03 0.  0.
         23    2    4    4    0    0  0.20181551173E+03  0.33645588154E+03 -0.97079976716E+03  0.10509926096E+04  0.90560568492E+02 0.  0.
         23    2    4    4    0    0  0.11150742892E+03 -0.54961170559E+03 -0.10580201049E+04  0.12007654004E+04  0.89017249361E+02 0.  0.
          2    1    3    3  502    0 -0.42222095184E+02  0.33438434290E+02 -0.77288925391E+02  0.94204098624E+02  0.00000000000E+00 0. -1.
         -1    1    3    3    0  502 -0.27110084546E+03  0.17971738976E+03 -0.28383244648E+03  0.43168839024E+03  0.00000000000E+00 0.  1.
         13    1    5    5    0    0  0.88580400860E+02  0.22934017363E+03 -0.62848131197E+03  0.67485714204E+03  0.00000000000E+00 0. -1.
        -13    1    5    5    0    0  0.11323511087E+03  0.10711570791E+03 -0.34231845518E+03  0.37613546758E+03  0.00000000000E+00 0.  1.
          4    1    6    6  503    0 -0.82496719402E+01 -0.16030671345E+03 -0.29738631302E+03  0.33794218238E+03  0.00000000000E+00 0.  1.
         -4    1    6    6    0  503  0.11975710086E+03 -0.38930499214E+03 -0.76063379192E+03  0.86282321800E+03  0.00000000000E+00 0. -1.
<mgrwt>
<rscale>  0 0.14154586E+04</rscale>
<asrwt>0</asrwt>
<pdfrwt beam="1">  1        2 0.39750706E+00 0.14154586E+04</pdfrwt>
<pdfrwt beam="2">  1       -1 0.29823789E-01 0.14154586E+04</pdfrwt>
<totfact> 0.35661553E+01</totfact>
</mgrwt>
</event>
<event>
12    7  0.2466188E-007  0.4009607E+04  0.7818608E-02  0.8002611E-01
         -1   -1    0    0    0  501 -0.00000000000E+00  0.00000000000E+00  0.16335781868E+04  0.16335781868E+04  0.00000000000E+00 0.  1.
          2   -1    0    0  501    0  0.00000000000E+00 -0.00000000000E+00 -0.24603890950E+04  0.24603890950E+04  0.00000000000E+00 0. -1.
         24    2    1    2    0    0 -0.18987606071E+04 -0.11823670814E+03 -0.36614374303E+03  0.19390501651E+04  0.81132854496E+02 0.  0.
        254    2    1    2    0    0  0.18987606071E+04  0.11823670814E+03 -0.46066716512E+03  0.21549171167E+04  0.90121128511E+03 0.  0.
         23    2    4    4    0    0  0.19217055224E+04  0.16201186661E+03 -0.29295602419E+03  0.19527882303E+04  0.91425819948E+02 0.  0.
         23    2    4    4    0    0 -0.22944915321E+02 -0.43775158476E+02 -0.16771114094E+03  0.20212888633E+03  0.10142152759E+03 0.  0.
          4    1    3    3  502    0 -0.13756143920E+03 -0.26910850900E+02 -0.37838122323E+02  0.14518631806E+03  0.00000000000E+00 0. -1.
         -3    1    3    3    0  502 -0.17611991679E+04 -0.91325857238E+02 -0.32830562070E+03  0.17938638471E+04  0.00000000000E+00 0.  1.
         13    1    5    5    0    0  0.10013918976E+04  0.12966124796E+03 -0.16059986533E+03  0.10224431958E+04  0.00000000000E+00 0.  1.
        -13    1    5    5    0    0  0.92031362479E+03  0.32350618654E+02 -0.13235615886E+03  0.93034503454E+03  0.00000000000E+00 0. -1.
          4    1    6    6  503    0 -0.20467266229E+01 -0.33181492140E+02 -0.17457664105E+03  0.17771382645E+03  0.00000000000E+00 0.  1.
         -4    1    6    6    0  503 -0.20898188698E+02 -0.10593666336E+02  0.68655001157E+01  0.24415059884E+02  0.00000000000E+00 0. -1.
<mgrwt>
<rscale>  0 0.40096074E+04</rscale>
<asrwt>0</asrwt>
<pdfrwt beam="1">  1        2 0.37852140E+00 0.40096074E+04</pdfrwt>
<pdfrwt beam="2">  1       -1 0.25131972E+00 0.40096074E+04</pdfrwt>
<totfact> 0.22475022E-01</totfact>
</mgrwt>
</event>
<event>
12    7  0.2466188E-007  0.1804965E+04  0.7818608E-02  0.8703663E-01
         -1   -1    0    0    0  501 -0.00000000000E+00  0.00000000000E+00  0.40214894431E+03  0.40214894431E+03  0.00000000000E+00 0.  1.
          2   -1    0    0  501    0  0.00000000000E+00 -0.00000000000E+00 -0.20253069156E+04  0.20253069156E+04  0.00000000000E+00 0. -1.
         24    2    1    2    0    0  0.17092028770E+03 -0.60048997316E+03 -0.27292020689E+03  0.68910229322E+03  0.10283276996E+03 0.  0.
        254    2    1    2    0    0 -0.17092028770E+03  0.60048997316E+03 -0.13502377644E+04  0.17383535667E+04  0.89940488647E+03 0.  0.
         23    2    4    4    0    0 -0.33731255319E+03 -0.21372069666E+02 -0.16705387372E+03  0.38836108789E+03  0.93170885785E+02 0.  0.
         23    2    4    4    0    0  0.16639226550E+03  0.62186204282E+03 -0.11831838906E+04  0.13499924788E+04  0.90314934226E+02 0.  0.
          4    1    3    3  502    0  0.67340374556E+02 -0.31401572447E+03 -0.19097976582E+03  0.37364939745E+03  0.00000000000E+00 0. -1.
         -3    1    3    3    0  502  0.10357991314E+03 -0.28647424868E+03 -0.81940441075E+02  0.31545289577E+03  0.00000000000E+00 0.  1.
         13    1    5    5    0    0 -0.26253134749E+03  0.10210559035E+02 -0.15824949585E+03  0.30670811347E+03  0.00000000000E+00 0. -1.
        -13    1    5    5    0    0 -0.74781205701E+02 -0.31582628701E+02 -0.88043778700E+01  0.81652974419E+02  0.00000000000E+00 0.  1.
          3    1    6    6  503    0  0.13900782506E+03  0.38880283271E+03 -0.69660036600E+03  0.80977953053E+03  0.00000000000E+00 0. -1.
         -3    1    6    6    0  503  0.27384440436E+02  0.23305921011E+03 -0.48658352464E+03  0.54021294824E+03  0.00000000000E+00 0.  1.
<mgrwt>
<rscale>  0 0.18049654E+04</rscale>
<asrwt>0</asrwt>
<pdfrwt beam="1">  1        2 0.31158568E+00 0.18049654E+04</pdfrwt>
<pdfrwt beam="2">  1       -1 0.61869069E-01 0.18049654E+04</pdfrwt>
<totfact> 0.18419212E+01</totfact>
</mgrwt>
</event>
<event>
12    7  0.2466188E-007  0.2329679E+04  0.7818608E-02  0.8466310E-01
          2   -1    0    0  501    0  0.00000000000E+00  0.00000000000E+00  0.27616129374E+04  0.27616129374E+04  0.00000000000E+00 0. -1.
         -1   -1    0    0    0  501 -0.00000000000E+00 -0.00000000000E+00 -0.49132554924E+03  0.49132554924E+03  0.00000000000E+00 0.  1.
         24    2    1    2    0    0 -0.59925947585E+03 -0.56167021947E+03  0.20207316409E+03  0.84961753345E+03  0.80193732066E+02 0.  0.
        254    2    1    2    0    0  0.59925947585E+03  0.56167021947E+03  0.20682142241E+04  0.24033209532E+04  0.90766523159E+03 0.  0.
         23    2    4    4    0    0  0.49429008111E+02  0.29843444088E+03  0.86005485651E+02  0.32747127898E+03  0.91291580366E+02 0.  0.
         23    2    4    4    0    0  0.54983046774E+03  0.26323577859E+03  0.19822087384E+04  0.20758496742E+04  0.91617514481E+02 0.  0.
          2    1    3    3  502    0 -0.30016009824E+03 -0.24126482774E+03  0.12266386453E+03  0.40416732345E+03  0.00000000000E+00 0. -1.
         -3    1    3    3    0  502 -0.29909937761E+03 -0.32040539172E+03  0.79409299567E+02  0.44545021000E+03  0.00000000000E+00 0.  1.
         13    1    5    5    0    0  0.55985155484E+02  0.25063621340E+03  0.10245880262E+03  0.27649711633E+03  0.00000000000E+00 0. -1.
        -13    1    5    5    0    0 -0.65561473728E+01  0.47798227475E+02 -0.16453316969E+02  0.50974162646E+02  0.00000000000E+00 0.  1.
          1    1    6    6  503    0  0.78295021324E+02  0.22634658752E+02  0.37317548291E+03  0.38197169946E+03  0.00000000000E+00 0. -1.
         -1    1    6    6    0  503  0.47153544641E+03  0.24060111983E+03  0.16090332555E+04  0.16938779748E+04  0.00000000000E+00 0.  1.
<mgrwt>
<rscale>  0 0.23296789E+04</rscale>
<asrwt>0</asrwt>
<pdfrwt beam="1">  1        2 0.42486352E+00 0.23296789E+04</pdfrwt>
<pdfrwt beam="2">  1       -1 0.75588547E-01 0.23296789E+04</pdfrwt>
<totfact> 0.44151139E+00</totfact>
</mgrwt>
</event>
<event>
12    7  0.2466188E-007  0.1593667E+04  0.7818608E-02  0.8824448E-01
         -1   -1    0    0    0  501 -0.00000000000E+00  0.00000000000E+00  0.40705323227E+03  0.40705323227E+03  0.00000000000E+00 0.  1.
          2   -1    0    0  501    0  0.00000000000E+00 -0.00000000000E+00 -0.15598531302E+04  0.15598531302E+04  0.00000000000E+00 0. -1.
         24    2    1    2    0    0 -0.39338116371E+03 -0.36810446932E+03 -0.43049745442E+03  0.69433328514E+03  0.80752785097E+02 0.  0.
        254    2    1    2    0    0  0.39338116371E+03  0.36810446932E+03 -0.72230244355E+03  0.12725730774E+04  0.89859433393E+03 0.  0.
         23    2    4    4    0    0  0.27641193827E+03  0.59040639225E+03 -0.20528590932E+03  0.68943485979E+03  0.90525431246E+02 0.  0.
         23    2    4    4    0    0  0.11696922544E+03 -0.22230192293E+03 -0.51701653423E+03  0.58313821757E+03  0.98204579778E+02 0.  0.
          2    1    3    3  502    0 -0.14054328547E+03 -0.18595553944E+03 -0.18921618446E+03  0.30022431980E+03  0.00000000000E+00 0. -1.
         -1    1    3    3    0  502 -0.25283787824E+03 -0.18214892988E+03 -0.24128126997E+03  0.39410896535E+03  0.00000000000E+00 0.  1.
         13    1    5    5    0    0  0.22313869135E+02  0.80138623920E+02 -0.55658961915E+02  0.10009009862E+03  0.00000000000E+00 0.  1.
        -13    1    5    5    0    0  0.25409806913E+03  0.51026776833E+03 -0.14962694740E+03  0.58934476117E+03  0.00000000000E+00 0. -1.
          3    1    6    6  503    0  0.12470714980E+03 -0.18627778391E+03 -0.48510213140E+03  0.53439251855E+03  0.00000000000E+00 0. -1.
         -3    1    6    6    0  503 -0.77379243585E+01 -0.36024139023E+02 -0.31914402828E+02  0.48745699027E+02  0.00000000000E+00 0.  1.
<mgrwt>
<rscale>  0 0.15936665E+04</rscale>
<asrwt>0</asrwt>
<pdfrwt beam="1">  1        2 0.23997741E+00 0.15936665E+04</pdfrwt>
<pdfrwt beam="2">  1       -1 0.62623573E-01 0.15936665E+04</pdfrwt>
<totfact> 0.33205316E+01</totfact>
</mgrwt>
</event>
<event>
12    7  0.2466188E-007  0.4333988E+04  0.7818608E-02  0.7940363E-01
         -1   -1    0    0    0  501 -0.00000000000E+00  0.00000000000E+00  0.15126201679E+04  0.15126201679E+04  0.00000000000E+00 0.  1.
          2   -1    0    0  501    0  0.00000000000E+00 -0.00000000000E+00 -0.31044564910E+04  0.31044564910E+04  0.00000000000E+00 0. -1.
         24    2    1    2    0    0 -0.19684802809E+04  0.34881924788E+03 -0.18146738375E+03  0.20101914294E+04  0.10653491345E+03 0.  0.
        254    2    1    2    0    0  0.19684802809E+04 -0.34881924788E+03 -0.14103689394E+04  0.26068852296E+04  0.90006698147E+03 0.  0.
         23    2    4    4    0    0  0.96534581266E+03 -0.37076409333E+03 -0.11839012941E+04  0.15746215380E+04  0.91935644316E+02 0.  0.
         23    2    4    4    0    0  0.10031344682E+04  0.21944845452E+02 -0.22646764523E+03  0.10322636916E+04  0.86720223026E+02 0.  0.
          2    1    3    3  502    0 -0.50560202076E+03  0.12864925646E+03 -0.74069637438E+02  0.52694434789E+03  0.00000000000E+00 0. -1.
         -1    1    3    3    0  502 -0.14628782601E+04  0.22016999142E+03 -0.10739774631E+03  0.14832470815E+04  0.00000000000E+00 0.  1.
         13    1    5    5    0    0  0.82222534753E+02 -0.52726800111E+02 -0.85714054977E+02  0.12995214462E+03  0.00000000000E+00 0. -1.
        -13    1    5    5    0    0  0.88312327791E+03 -0.31803729322E+03 -0.10981872392E+04  0.14446693934E+04  0.00000000000E+00 0.  1.
          3    1    6    6  503    0  0.74657851692E+03  0.13946223049E+02 -0.20687572998E+03  0.77483646450E+03  0.00000000000E+00 0. -1.
         -3    1    6    6    0  503  0.25655595127E+03  0.79986224026E+01 -0.19591915242E+02  0.25742722706E+03  0.00000000000E+00 0.  1.
<mgrwt>
<rscale>  0 0.43339882E+04</rscale>
<asrwt>0</asrwt>
<pdfrwt beam="1">  1        2 0.47760869E+00 0.43339882E+04</pdfrwt>
<pdfrwt beam="2">  1       -1 0.23271080E+00 0.43339882E+04</pdfrwt>
<totfact> 0.11799442E-01</totfact>
</mgrwt>
</event>
<event>
12    7  0.2466188E-007  0.1866760E+04  0.7818608E-02  0.8671581E-01
          2   -1    0    0  501    0  0.00000000000E+00  0.00000000000E+00  0.92155077101E+03  0.92155077101E+03  0.00000000000E+00 0. -1.
         -1   -1    0    0    0  501 -0.00000000000E+00 -0.00000000000E+00 -0.94536154748E+03  0.94536154748E+03  0.00000000000E+00 0.  1.
         24    2    1    2    0    0 -0.10266131913E+03  0.68328381624E+03 -0.18705653323E+03  0.72025327643E+03  0.79740300971E+02 0.  0.
        254    2    1    2    0    0  0.10266131913E+03 -0.68328381624E+03  0.16324575676E+03  0.11466590421E+04  0.90042304594E+03 0.  0.
         23    2    4    4    0    0  0.40152126963E+03 -0.56236976209E+03  0.33297645534E+03  0.77135011844E+03  0.81416252251E+02 0.  0.
         23    2    4    4    0    0 -0.29885995049E+03 -0.12091405415E+03 -0.16973069859E+03  0.37530892362E+03  0.90059977821E+02 0.  0.
          2    1    3    3  502    0  0.11759430301E+02  0.31927546092E+02 -0.56100704452E+01  0.34483696015E+02  0.00000000000E+00 0. -1.
         -1    1    3    3    0  502 -0.11442074943E+03  0.65135627015E+03 -0.18144646278E+03  0.68576958042E+03  0.00000000000E+00 0.  1.
         13    1    5    5    0    0  0.41288461529E+02 -0.10698141245E+03  0.44615062306E+02  0.12304577787E+03  0.00000000000E+00 0.  1.
        -13    1    5    5    0    0  0.36023280810E+03 -0.45538834964E+03  0.28836139304E+03  0.64830434058E+03  0.00000000000E+00 0. -1.
          1    1    6    6  503    0 -0.18600230637E+03 -0.10469666619E+03 -0.72369565989E+02  0.22537880106E+03  0.00000000000E+00 0. -1.
         -1    1    6    6    0  503 -0.11285764412E+03 -0.16217387958E+02 -0.97361132596E+02  0.14993012256E+03  0.00000000000E+00 0.  1.
<mgrwt>
<rscale>  0 0.18667605E+04</rscale>
<asrwt>0</asrwt>
<pdfrwt beam="1">  1        2 0.14177704E+00 0.18667605E+04</pdfrwt>
<pdfrwt beam="2">  1       -1 0.14544024E+00 0.18667605E+04</pdfrwt>
<totfact> 0.11517218E+01</totfact>
</mgrwt>
</event>
<event>
12    7  0.2466188E-007  0.1636607E+04  0.7818608E-02  0.8798369E-01
         -1   -1    0    0    0  501 -0.00000000000E+00  0.00000000000E+00  0.59272176375E+03  0.59272176375E+03  0.00000000000E+00 0.  1.
          2   -1    0    0  501    0  0.00000000000E+00 -0.00000000000E+00 -0.11297390687E+04  0.11297390687E+04  0.00000000000E+00 0. -1.
         24    2    1    2    0    0 -0.35712391475E+03 -0.10569624264E+03  0.26299809280E+03  0.46280924246E+03  0.79468307494E+02 0.  0.
        254    2    1    2    0    0  0.35712391475E+03  0.10569624264E+03 -0.80001539773E+03  0.12596515900E+04  0.89888169705E+03 0.  0.
         23    2    4    4    0    0 -0.17656752326E+03  0.29273063562E+03 -0.49999721869E+03  0.61273061304E+03  0.92597355059E+02 0.  0.
         23    2    4    4    0    0  0.53369143801E+03 -0.18703439299E+03 -0.30001817905E+03  0.64692097692E+03  0.93206370244E+02 0.  0.
          4    1    3    3  502    0 -0.96056042811E+02  0.50263055046E+01  0.51978630644E+02  0.10933345852E+03  0.00000000000E+00 0. -1.
         -3    1    3    3    0  502 -0.26106787194E+03 -0.11072254814E+03  0.21101946216E+03  0.35347578395E+03  0.00000000000E+00 0.  1.
         13    1    5    5    0    0 -0.24553233839E+02  0.11510230397E+03 -0.20427502346E+03  0.23575344511E+03  0.00000000000E+00 0.  1.
        -13    1    5    5    0    0 -0.15201428942E+03  0.17762833165E+03 -0.29572219522E+03  0.37697716793E+03  0.00000000000E+00 0. -1.
          3    1    6    6  503    0  0.30800919136E+03 -0.10625001520E+03 -0.12027469986E+03  0.34731071265E+03  0.00000000000E+00 0. -1.
         -3    1    6    6    0  503  0.22568224665E+03 -0.80784377784E+02 -0.17974347919E+03  0.29961026427E+03  0.00000000000E+00 0.  1.
<mgrwt>
<rscale>  0 0.16366074E+04</rscale>
<asrwt>0</asrwt>
<pdfrwt beam="1">  1        2 0.17380601E+00 0.16366074E+04</pdfrwt>
<pdfrwt beam="2">  1       -1 0.91187964E-01 0.16366074E+04</pdfrwt>
<totfact> 0.26733747E+01</totfact>
</mgrwt>
</event>
<event>
12    7  0.2466188E-007  0.2006189E+04  0.7818608E-02  0.8603733E-01
         -1   -1    0    0    0  501 -0.00000000000E+00  0.00000000000E+00  0.32901132031E+03  0.32901132031E+03  0.00000000000E+00 0.  1.
          2   -1    0    0  501    0  0.00000000000E+00 -0.00000000000E+00 -0.30582482701E+04  0.30582482701E+04  0.00000000000E+00 0. -1.
         24    2    1    2    0    0  0.38880126669E+03 -0.61337017483E+03 -0.16511980334E+04  0.18056634050E+04  0.81092479849E+02 0.  0.
        254    2    1    2    0    0 -0.38880126669E+03  0.61337017483E+03 -0.10780389164E+04  0.15815961854E+04  0.90104893988E+03 0.  0.
         23    2    4    4    0    0 -0.60363344130E+02  0.45665872488E+03 -0.11085835755E+04  0.12039585366E+04  0.91529720743E+02 0.  0.
         23    2    4    4    0    0 -0.32843792256E+03  0.15671144995E+03  0.30544659141E+02  0.37763764872E+03  0.96162726734E+02 0.  0.
          4    1    3    3  502    0  0.95654536605E+02 -0.21106764233E+03 -0.57409941668E+03  0.61910377179E+03  0.00000000000E+00 0. -1.
         -3    1    3    3    0  502  0.29314673008E+03 -0.40230253250E+03 -0.10770986167E+04  0.11865596332E+04  0.00000000000E+00 0.  1.
         13    1    5    5    0    0 -0.22540314195E+01  0.26561724744E+03 -0.55069124047E+03  0.61140693905E+03  0.00000000000E+00 0.  1.
        -13    1    5    5    0    0 -0.58109312711E+02  0.19104147745E+03 -0.55789233503E+03  0.59255159759E+03  0.00000000000E+00 0. -1.
          3    1    6    6  503    0 -0.29207696343E+03  0.12887477005E+03  0.57671767588E+02  0.32441284145E+03  0.00000000000E+00 0. -1.
         -3    1    6    6    0  503 -0.36360959126E+02  0.27836679900E+02 -0.27127108447E+02  0.53224807272E+02  0.00000000000E+00 0.  1.
<mgrwt>
<rscale>  0 0.20061887E+04</rscale>
<asrwt>0</asrwt>
<pdfrwt beam="1">  1        2 0.47049973E+00 0.20061887E+04</pdfrwt>
<pdfrwt beam="2">  1       -1 0.50617127E-01 0.20061887E+04</pdfrwt>
<totfact> 0.66478907E+00</totfact>
</mgrwt>
</event>
<event>
12    7  0.2466188E-007  0.2215384E+04  0.7818608E-02  0.8512052E-01
          2   -1    0    0  501    0  0.00000000000E+00  0.00000000000E+00  0.64617531783E+03  0.64617531783E+03  0.00000000000E+00 0. -1.
         -1   -1    0    0    0  501 -0.00000000000E+00 -0.00000000000E+00 -0.18988363096E+04  0.18988363096E+04  0.00000000000E+00 0.  1.
         24    2    1    2    0    0 -0.73665535657E+03 -0.17618201665E+03 -0.11327297136E+04  0.13648868684E+04  0.78347572678E+02 0.  0.
        254    2    1    2    0    0  0.73665535657E+03  0.17618201665E+03 -0.11993127813E+03  0.11801247590E+04  0.89700040018E+03 0.  0.
         23    2    4    4    0    0  0.61484979894E+03 -0.28718198038E+03 -0.10104991198E+03  0.69218460736E+03  0.91622490931E+02 0.  0.
         23    2    4    4    0    0  0.12180555763E+03  0.46336399704E+03 -0.18881366143E+02  0.48794015161E+03  0.90478162832E+02 0.  0.
          2    1    3    3  502    0 -0.10748320478E+03 -0.36046612814E+02 -0.12614680868E+03  0.16960252046E+03  0.00000000000E+00 0. -1.
         -1    1    3    3    0  502 -0.62917215179E+03 -0.14013540384E+03 -0.10065829049E+04  0.11952843480E+04  0.00000000000E+00 0.  1.
         13    1    5    5    0    0  0.46060006485E+03 -0.18736053234E+03 -0.10585041379E+03  0.50839030175E+03  0.00000000000E+00 0. -1.
        -13    1    5    5    0    0  0.15424973409E+03 -0.99821448044E+02  0.48005018066E+01  0.18379430561E+03  0.00000000000E+00 0.  1.
          3    1    6    6  503    0  0.46665910799E+02  0.15934793681E+03  0.36272529904E+02  0.16995637270E+03  0.00000000000E+00 0. -1.
         -3    1    6    6    0  503  0.75139646827E+02  0.30401606023E+03 -0.55153896047E+02  0.31798377891E+03  0.00000000000E+00 0.  1.
<mgrwt>
<rscale>  0 0.22153836E+04</rscale>
<asrwt>0</asrwt>
<pdfrwt beam="1">  1        2 0.99411589E-01 0.22153836E+04</pdfrwt>
<pdfrwt beam="2">  1       -1 0.29212866E+00 0.22153836E+04</pdfrwt>
<totfact> 0.17532858E+00</totfact>
</mgrwt>
</event>
<event>
12    7  0.2466188E-007  0.1089185E+04  0.7818608E-02  0.9215797E-01
         -1   -1    0    0    0  501 -0.00000000000E+00  0.00000000000E+00  0.48597527829E+03  0.48597527829E+03  0.00000000000E+00 0.  1.
          2   -1    0    0  501    0  0.00000000000E+00 -0.00000000000E+00 -0.61028024918E+03  0.61028024918E+03  0.00000000000E+00 0. -1.
         24    2    1    2    0    0  0.27790966966E+02 -0.57343252539E+02 -0.16280307923E+03  0.19236233745E+03  0.80236150235E+02 0.  0.
        254    2    1    2    0    0 -0.27790966966E+02  0.57343252539E+02  0.38498108346E+02  0.90389319003E+03  0.90082196253E+03 0.  0.
         23    2    4    4    0    0  0.61112471920E+02 -0.38354067006E+03 -0.12670855022E+03  0.41627580930E+03  0.79951941135E+02 0.  0.
         23    2    4    4    0    0 -0.88903438886E+02  0.44088392260E+03  0.16520665856E+03  0.48761738073E+03  0.90526323827E+02 0.  0.
          2    1    3    3  502    0  0.12725423494E+02  0.44682623721E+01 -0.10666628571E+03  0.10751557226E+03  0.00000000000E+00 0. -1.
         -1    1    3    3    0  502  0.15065543472E+02 -0.61811514911E+02 -0.56136793524E+02  0.84846765188E+02  0.00000000000E+00 0.  1.
         13    1    5    5    0    0  0.48517025823E+01 -0.26659016772E+03 -0.89800264935E+02  0.28135021614E+03  0.00000000000E+00 0.  1.
        -13    1    5    5    0    0  0.56260769338E+02 -0.11695050234E+03 -0.36908285283E+02  0.13492559315E+03  0.00000000000E+00 0. -1.
          1    1    6    6  503    0 -0.10384331876E+02  0.12278748336E+03  0.86784669409E+02  0.15071887494E+03  0.00000000000E+00 0.  1.
         -1    1    6    6    0  503 -0.78519107010E+02  0.31809643924E+03  0.78421989155E+02  0.33689850579E+03  0.00000000000E+00 0. -1.
<mgrwt>
<rscale>  0 0.10891852E+04</rscale>
<asrwt>0</asrwt>
<pdfrwt beam="1">  1        2 0.93889269E-01 0.10891852E+04</pdfrwt>
<pdfrwt beam="2">  1       -1 0.74765428E-01 0.10891852E+04</pdfrwt>
<totfact> 0.99309767E+01</totfact>
</mgrwt>
</event>
<event>
12    7  0.2466188E-007  0.3360826E+04  0.7818608E-02  0.8147588E-01
          2   -1    0    0  501    0  0.00000000000E+00  0.00000000000E+00  0.23589392821E+04  0.23589392821E+04  0.00000000000E+00 0. -1.
         -1   -1    0    0    0  501 -0.00000000000E+00 -0.00000000000E+00 -0.11970580852E+04  0.11970580852E+04  0.00000000000E+00 0.  1.
         24    2    1    2    0    0 -0.19276116816E+03 -0.14558309010E+04 -0.10874547989E+02  0.14706530074E+04  0.78112304591E+02 0.  0.
        254    2    1    2    0    0  0.19276116816E+03  0.14558309010E+04  0.11727557449E+04  0.20853443600E+04  0.90371709193E+03 0.  0.
         23    2    4    4    0    0 -0.33682493915E+03  0.62556715512E+03  0.34252800264E+03  0.79406312849E+03  0.91790599979E+02 0.  0.
         23    2    4    4    0    0  0.52958610731E+03  0.83026374589E+03  0.83022774222E+03  0.12912812315E+04  0.91267639377E+02 0.  0.
          4    1    3    3  502    0 -0.12318230934E+03 -0.63603363923E+03 -0.14070111285E+01  0.64785388110E+03  0.00000000000E+00 0. -1.
         -3    1    3    3    0  502 -0.69578858820E+02 -0.81979726177E+03 -0.94675368607E+01  0.82279912631E+03  0.00000000000E+00 0.  1.
         13    1    5    5    0    0 -0.27848454750E+03  0.57609922902E+03  0.30413639967E+03  0.70847929714E+03  0.00000000000E+00 0. -1.
        -13    1    5    5    0    0 -0.58340391649E+02  0.49467926097E+02  0.38391602971E+02  0.85583831352E+02  0.00000000000E+00 0.  1.
          2    1    6    6  503    0  0.50066246781E+03  0.77368278421E+03  0.74528233953E+03  0.11851977569E+04  0.00000000000E+00 0. -1.
         -2    1    6    6    0  503  0.28923639500E+02  0.56580961681E+02  0.84945402688E+02  0.10608347461E+03  0.00000000000E+00 0.  1.
<mgrwt>
<rscale>  0 0.33608257E+04</rscale>
<asrwt>0</asrwt>
<pdfrwt beam="1">  1        2 0.36291373E+00 0.33608257E+04</pdfrwt>
<pdfrwt beam="2">  1       -1 0.18416278E+00 0.33608257E+04</pdfrwt>
<totfact> 0.77028066E-01</totfact>
</mgrwt>
</event>
<event>
12    7  0.2466188E-007  0.1399835E+04  0.7818608E-02  0.8953938E-01
          2   -1    0    0  501    0  0.00000000000E+00  0.00000000000E+00  0.33006487480E+03  0.33006487480E+03  0.00000000000E+00 0. -1.
         -1   -1    0    0    0  501 -0.00000000000E+00 -0.00000000000E+00 -0.14842070852E+04  0.14842070852E+04  0.00000000000E+00 0.  1.
         24    2    1    2    0    0 -0.11988758184E+03  0.31065313913E+03 -0.64576974868E+03  0.73100764977E+03  0.80468693182E+02 0.  0.
        254    2    1    2    0    0  0.11988758184E+03 -0.31065313913E+03 -0.50837246176E+03  0.10832643103E+04  0.89673886995E+03 0.  0.
         23    2    4    4    0    0 -0.26023362685E+03 -0.30056610967E+03 -0.55632432960E+03  0.68992098497E+03  0.91829619264E+02 0.  0.
         23    2    4    4    0    0  0.38012120869E+03 -0.10087029466E+02  0.47951867836E+02  0.39334332529E+03  0.88463034469E+02 0.  0.
          2    1    3    3  502    0 -0.12254740840E+02  0.97548743568E+02 -0.13309945455E+03  0.16547326324E+03  0.00000000000E+00 0. -1.
         -1    1    3    3    0  502 -0.10763284100E+03  0.21310439556E+03 -0.51267029413E+03  0.56553438653E+03  0.00000000000E+00 0.  1.
         13    1    5    5    0    0 -0.33659950716E+02 -0.64043521911E+02 -0.54138018845E+02  0.90363101239E+02  0.00000000000E+00 0.  1.
        -13    1    5    5    0    0 -0.22657367613E+03 -0.23652258775E+03 -0.50218631075E+03  0.59955788373E+03  0.00000000000E+00 0. -1.
          4    1    6    6  503    0  0.24131489333E+03 -0.21608080984E+02 -0.99951888383E+01  0.24248647530E+03  0.00000000000E+00 0. -1.
         -4    1    6    6    0  503  0.13880631536E+03  0.11521051519E+02  0.57947056674E+02  0.15085684999E+03  0.00000000000E+00 0.  1.
<mgrwt>
<rscale>  0 0.13998352E+04</rscale>
<asrwt>0</asrwt>
<pdfrwt beam="1">  1        2 0.50779211E-01 0.13998352E+04</pdfrwt>
<pdfrwt beam="2">  1       -1 0.22833955E+00 0.13998352E+04</pdfrwt>
<totfact> 0.10651418E+01</totfact>
</mgrwt>
</event>
<event>
12    7  0.2466188E-007  0.2138807E+04  0.7818608E-02  0.8544339E-01
          2   -1    0    0  501    0  0.00000000000E+00  0.00000000000E+00  0.23953686628E+04  0.23953686628E+04  0.00000000000E+00 0. -1.
         -1   -1    0    0    0  501 -0.00000000000E+00 -0.00000000000E+00 -0.47743114037E+03  0.47743114037E+03  0.00000000000E+00 0.  1.
         24    2    1    2    0    0 -0.77126831391E+03  0.59201758606E+02  0.23303284158E+03  0.81188742592E+03  0.80605377307E+02 0.  0.
        254    2    1    2    0    0  0.77126831391E+03 -0.59201758606E+02  0.16849046809E+04  0.20609123772E+04  0.90005354444E+03 0.  0.
         23    2    4    4    0    0 -0.15913692681E+03  0.13365589012E+03  0.39211045764E+03  0.45388594128E+03  0.95254282152E+02 0.  0.
         23    2    4    4    0    0  0.93040524071E+03 -0.19285764873E+03  0.12927942232E+04  0.16070264360E+04  0.91482663293E+02 0.  0.
          2    1    3    3  502    0 -0.40423967380E+03  0.69138102100E+02  0.10911680888E+03  0.42437750767E+03  0.00000000000E+00 0. -1.
         -1    1    3    3    0  502 -0.36702864010E+03 -0.99363434939E+01  0.12391603270E+03  0.38750991824E+03  0.00000000000E+00 0.  1.
         13    1    5    5    0    0 -0.68129686462E+02  0.46785741551E+02  0.70816060860E+02  0.10883691591E+03  0.00000000000E+00 0. -1.
        -13    1    5    5    0    0 -0.91007240345E+02  0.86870148570E+02  0.32129439678E+03  0.34504902537E+03  0.00000000000E+00 0.  1.
          3    1    6    6  503    0  0.15626805940E+03 -0.45622861077E+02  0.27861269225E+03  0.32268589081E+03  0.00000000000E+00 0. -1.
         -3    1    6    6    0  503  0.77413718131E+03 -0.14723478765E+03  0.10141815310E+04  0.12843405452E+04  0.00000000000E+00 0.  1.
<mgrwt>
<rscale>  0 0.21388068E+04</rscale>
<asrwt>0</asrwt>
<pdfrwt beam="1">  1        2 0.36851825E+00 0.21388068E+04</pdfrwt>
<pdfrwt beam="2">  1       -1 0.73450946E-01 0.21388068E+04</pdfrwt>
<totfact> 0.78107488E+00</totfact>
</mgrwt>
</event>
<event>
12    7  0.2466188E-007  0.2548201E+04  0.7818608E-02  0.8386012E-01
         -1   -1    0    0    0  501 -0.00000000000E+00  0.00000000000E+00  0.14613514679E+04  0.14613514679E+04  0.00000000000E+00 0.  1.
          2   -1    0    0  501    0  0.00000000000E+00 -0.00000000000E+00 -0.11108430812E+04  0.11108430812E+04  0.00000000000E+00 0. -1.
         24    2    1    2    0    0  0.22270550530E+02 -0.11135285685E+04  0.14311584750E+03  0.11257293566E+04  0.79640368068E+02 0.  0.
        254    2    1    2    0    0 -0.22270550530E+02  0.11135285685E+04  0.20739253923E+03  0.14464651925E+04  0.89933755482E+03 0.  0.
         23    2    4    4    0    0  0.32039527513E+03  0.94251078986E+03  0.29439430213E+03  0.10421447919E+04  0.91749881635E+02 0.  0.
         23    2    4    4    0    0 -0.34266582566E+03  0.17101777866E+03 -0.87001762893E+02  0.40432040064E+03  0.96118317388E+02 0.  0.
          2    1    3    3  502    0 -0.27268844142E+01 -0.68052945472E+02 -0.98874927883E+01  0.68821521341E+02  0.00000000000E+00 0. -1.
         -1    1    3    3    0  502  0.24997434945E+02 -0.10454756230E+04  0.15300334029E+03  0.10569078353E+04  0.00000000000E+00 0.  1.
         13    1    5    5    0    0  0.19670812280E+03  0.68274513229E+03  0.18374636646E+03  0.73389217766E+03  0.00000000000E+00 0. -1.
        -13    1    5    5    0    0  0.12368715233E+03  0.25976565757E+03  0.11064793566E+03  0.30825261421E+03  0.00000000000E+00 0.  1.
          4    1    6    6  503    0 -0.36614225611E+02  0.21153380972E+01  0.15827732434E+02  0.39944878099E+02  0.00000000000E+00 0. -1.
         -4    1    6    6    0  503 -0.30605160005E+03  0.16890244056E+03 -0.10282949533E+03  0.36437552254E+03  0.00000000000E+00 0.  1.
<mgrwt>
<rscale>  0 0.25482011E+04</rscale>
<asrwt>0</asrwt>
<pdfrwt beam="1">  1        2 0.17089893E+00 0.25482011E+04</pdfrwt>
<pdfrwt beam="2">  1       -1 0.22482330E+00 0.25482011E+04</pdfrwt>
<totfact> 0.22194889E+00</totfact>
</mgrwt>
</event>
<event>
12    7  0.2466188E-007  0.1002610E+04  0.7818608E-02  0.9305687E-01
         -1   -1    0    0    0  501 -0.00000000000E+00  0.00000000000E+00  0.10466763363E+04  0.10466763363E+04  0.00000000000E+00 0.  1.
          2   -1    0    0  501    0  0.00000000000E+00 -0.00000000000E+00 -0.24009976120E+03  0.24009976120E+03  0.00000000000E+00 0. -1.
         24    2    1    2    0    0  0.75019962445E+01 -0.37385009997E+02  0.36779325826E+02  0.97806428005E+02  0.82215932950E+02 0.  0.
        254    2    1    2    0    0 -0.75019962445E+01  0.37385009997E+02  0.76979724923E+03  0.11889696694E+04  0.90532157326E+03 0.  0.
         23    2    4    4    0    0 -0.13452244167E+03  0.39214727648E+03  0.66215382722E+03  0.78649531588E+03  0.90837311899E+02 0.  0.
         23    2    4    4    0    0  0.12702044543E+03 -0.35476226648E+03  0.10764342201E+03  0.40247435356E+03  0.91695363556E+02 0.  0.
          4    1    3    3  502    0  0.15146682292E+02  0.30574915343E+01 -0.21488815030E+02  0.26467705045E+02  0.00000000000E+00 0. -1.
         -3    1    3    3    0  502 -0.76446860476E+01 -0.40442501531E+02  0.58268140856E+02  0.71338722961E+02  0.00000000000E+00 0.  1.
         13    1    5    5    0    0 -0.73134489439E+02  0.19990024509E+03  0.42325516496E+03  0.47376544428E+03  0.00000000000E+00 0. -1.
        -13    1    5    5    0    0 -0.61387952231E+02  0.19224703140E+03  0.23889866227E+03  0.31272987160E+03  0.00000000000E+00 0.  1.
          4    1    6    6  503    0  0.37715589645E+02 -0.17356441235E+03  0.91558610408E+02  0.19982504867E+03  0.00000000000E+00 0.  1.
         -4    1    6    6    0  503  0.89304855781E+02 -0.18119785414E+03  0.16084811598E+02  0.20264930489E+03  0.00000000000E+00 0. -1.
<mgrwt>
<rscale>  0 0.10026101E+04</rscale>
<asrwt>0</asrwt>
<pdfrwt beam="1">  1        2 0.36938425E-01 0.10026101E+04</pdfrwt>
<pdfrwt beam="2">  1       -1 0.16102713E+00 0.10026101E+04</pdfrwt>
<totfact> 0.46314452E+01</totfact>
</mgrwt>
</event>
<event>
12    7  0.2466188E-007  0.8312894E+04  0.7818608E-02  0.7455369E-01
         -1   -1    0    0    0  501 -0.00000000000E+00  0.00000000000E+00  0.43830948710E+04  0.43830948710E+04  0.00000000000E+00 0.  1.
          2   -1    0    0  501    0  0.00000000000E+00 -0.00000000000E+00 -0.39415193442E+04  0.39415193442E+04  0.00000000000E+00 0. -1.
         24    2    1    2    0    0  0.29836472833E+04  0.27191062069E+04 -0.54004494062E+03  0.40734751223E+04  0.76559512256E+02 0.  0.
        254    2    1    2    0    0 -0.29836472833E+04 -0.27191062069E+04  0.98162046736E+03  0.42511390928E+04  0.90161808379E+03 0.  0.
         23    2    4    4    0    0 -0.11347172394E+04 -0.66546436178E+03  0.70879487309E+01  0.13192479196E+04  0.99693551246E+02 0.  0.
         23    2    4    4    0    0 -0.18489300439E+04 -0.20536418451E+04  0.97453251863E+03  0.29318911732E+04  0.10141541536E+03 0.  0.
          4    1    3    3  502    0  0.23894190495E+04  0.21584771478E+04 -0.40313251742E+03  0.32451290911E+04  0.00000000000E+00 0. -1.
         -3    1    3    3    0  502  0.59422823384E+03  0.56062905911E+03 -0.13691242320E+03  0.82834603122E+03  0.00000000000E+00 0.  1.
         13    1    5    5    0    0 -0.40230233449E+03 -0.25064505833E+03 -0.43599474884E+02  0.47599477708E+03  0.00000000000E+00 0. -1.
        -13    1    5    5    0    0 -0.73241490493E+03 -0.41481930346E+03  0.50687423615E+02  0.84325314254E+03  0.00000000000E+00 0.  1.
          2    1    6    6  503    0 -0.29582555782E+03 -0.27877047736E+03  0.12919306601E+03  0.42651680860E+03  0.00000000000E+00 0. -1.
         -2    1    6    6    0  503 -0.15531044861E+04 -0.17748713677E+04  0.84533945262E+03  0.25053743646E+04  0.00000000000E+00 0.  1.
<mgrwt>
<rscale>  0 0.83128944E+04</rscale>
<asrwt>0</asrwt>
<pdfrwt beam="1">  1        2 0.60638759E+00 0.83128944E+04</pdfrwt>
<pdfrwt beam="2">  1       -1 0.67432229E+00 0.83128944E+04</pdfrwt>
<totfact> 0.61998393E-05</totfact>
</mgrwt>
</event>
<event>
12    7  0.2466188E-007  0.2105475E+04  0.7818608E-02  0.8558835E-01
          2   -1    0    0  501    0  0.00000000000E+00  0.00000000000E+00  0.16113055688E+04  0.16113055688E+04  0.00000000000E+00 0. -1.
         -1   -1    0    0    0  501 -0.00000000000E+00 -0.00000000000E+00 -0.68780026787E+03  0.68780026787E+03  0.00000000000E+00 0.  1.
         24    2    1    2    0    0 -0.82169156028E+03  0.18261998605E+03  0.56252571707E+03  0.10154726103E+04  0.78881939163E+02 0.  0.
        254    2    1    2    0    0  0.82169156028E+03 -0.18261998605E+03  0.36097958387E+03  0.12836332264E+04  0.89937807424E+03 0.  0.
         23    2    4    4    0    0  0.81491248987E+02  0.16846304259E+03  0.40766809772E+03  0.45811767162E+03  0.93047852038E+02 0.  0.
         23    2    4    4    0    0  0.74020031129E+03 -0.35108302864E+03 -0.46688513852E+02  0.82551555479E+03  0.90223722147E+02 0.  0.
          4    1    3    3  502    0 -0.28136195376E+03  0.30075551198E+02  0.21219756648E+03  0.35369039431E+03  0.00000000000E+00 0. -1.
         -3    1    3    3    0  502 -0.54032960652E+03  0.15254443485E+03  0.35032815058E+03  0.66178221597E+03  0.00000000000E+00 0.  1.
         13    1    5    5    0    0  0.61990042624E+02  0.11616645339E+03  0.17589618184E+03  0.21971999696E+03  0.00000000000E+00 0.  1.
        -13    1    5    5    0    0  0.19501206362E+02  0.52296589198E+02  0.23177191588E+03  0.23839767466E+03  0.00000000000E+00 0. -1.
          3    1    6    6  503    0  0.33616528242E+03 -0.11094553754E+03 -0.11442757418E+02  0.35418490383E+03  0.00000000000E+00 0. -1.
         -3    1    6    6    0  503  0.40403502887E+03 -0.24013749109E+03 -0.35245756434E+02  0.47133065096E+03  0.00000000000E+00 0.  1.
<mgrwt>
<rscale>  0 0.21054752E+04</rscale>
<asrwt>0</asrwt>
<pdfrwt beam="1">  1        2 0.24789316E+00 0.21054752E+04</pdfrwt>
<pdfrwt beam="2">  1       -1 0.10581543E+00 0.21054752E+04</pdfrwt>
<totfact> 0.96415876E+00</totfact>
</mgrwt>
</event>
<event>
12    7  0.2466188E-007  0.1803837E+04  0.7818608E-02  0.8704262E-01
         -1   -1    0    0    0  501 -0.00000000000E+00  0.00000000000E+00  0.83174605152E+03  0.83174605152E+03  0.00000000000E+00 0.  1.
          2   -1    0    0  501    0  0.00000000000E+00 -0.00000000000E+00 -0.97801072498E+03  0.97801072498E+03  0.00000000000E+00 0. -1.
         24    2    1    2    0    0  0.42014479273E+03  0.50961684521E+03  0.79892039390E+02  0.67011440252E+03  0.80247110418E+02 0.  0.
        254    2    1    2    0    0 -0.42014479273E+03 -0.50961684521E+03 -0.22615671286E+03  0.11396423740E+04  0.90078127535E+03 0.  0.
         23    2    4    4    0    0 -0.45565426115E+03 -0.35957559686E+03  0.24459452505E+03  0.63629318059E+03  0.90150509805E+02 0.  0.
         23    2    4    4    0    0  0.35509468422E+02 -0.15004124834E+03 -0.47075123791E+03  0.50334919339E+03  0.89332994700E+02 0.  0.
          4    1    3    3  502    0  0.13889307750E+03  0.19015772421E+03  0.64746951357E+02  0.24422001303E+03  0.00000000000E+00 0. -1.
         -3    1    3    3    0  502  0.28125171523E+03  0.31945912100E+03  0.15145088033E+02  0.42589438949E+03  0.00000000000E+00 0.  1.
         13    1    5    5    0    0 -0.42032583048E+03 -0.30438290048E+03  0.19613122975E+03  0.55478844000E+03  0.00000000000E+00 0.  1.
        -13    1    5    5    0    0 -0.35328430669E+02 -0.55192696378E+02  0.48463295299E+02  0.81504740587E+02  0.00000000000E+00 0. -1.
          3    1    6    6  503    0 -0.18308203546E+02 -0.39595810765E+01 -0.91334066724E+02  0.93235081078E+02  0.00000000000E+00 0. -1.
         -3    1    6    6    0  503  0.53817671968E+02 -0.14608166727E+03 -0.37941717118E+03  0.41011411231E+03  0.00000000000E+00 0.  1.
<mgrwt>
<rscale>  0 0.18038365E+04</rscale>
<asrwt>0</asrwt>
<pdfrwt beam="1">  1        2 0.15046319E+00 0.18038365E+04</pdfrwt>
<pdfrwt beam="2">  1       -1 0.12796093E+00 0.18038365E+04</pdfrwt>
<totfact> 0.14793054E+01</totfact>
</mgrwt>
</event>
<event>
12    7  0.2466188E-007  0.1728886E+04  0.7818608E-02  0.8745059E-01
         -1   -1    0    0    0  501 -0.00000000000E+00  0.00000000000E+00  0.37292707026E+03  0.37292707026E+03  0.00000000000E+00 0.  1.
          2   -1    0    0  501    0  0.00000000000E+00 -0.00000000000E+00 -0.20037751171E+04  0.20037751171E+04  0.00000000000E+00 0. -1.
         24    2    1    2    0    0  0.58425218941E+03  0.54717742974E+01 -0.28433276704E+03  0.65472612784E+03  0.80253466713E+02 0.  0.
        254    2    1    2    0    0 -0.58425218941E+03 -0.54717742974E+01 -0.13465152798E+04  0.17219760595E+04  0.90039857266E+03 0.  0.
         23    2    4    4    0    0  0.57773104362E+02  0.31336673235E+03 -0.58545821973E+03  0.67256324417E+03  0.89685839595E+02 0.  0.
         23    2    4    4    0    0 -0.64202529377E+03 -0.31883850665E+03 -0.76105706003E+03  0.10494128153E+04  0.90581108137E+02 0.  0.
          4    1    3    3  502    0  0.50210228208E+03  0.19902347528E+02 -0.26883646931E+03  0.56989108814E+03  0.00000000000E+00 0. -1.
         -3    1    3    3    0  502  0.82149907329E+02 -0.14430573231E+02 -0.15496297730E+02  0.84835039702E+02  0.00000000000E+00 0.  1.
         13    1    5    5    0    0  0.54678467130E+02  0.75962848408E+02 -0.16781322058E+03  0.19214933283E+03  0.00000000000E+00 0. -1.
        -13    1    5    5    0    0  0.30946372322E+01  0.23740388394E+03 -0.41764499915E+03  0.48041391134E+03  0.00000000000E+00 0.  1.
          3    1    6    6  503    0 -0.17033265030E+03 -0.46761819481E+02 -0.21489003253E+03  0.27816830444E+03  0.00000000000E+00 0. -1.
         -3    1    6    6    0  503 -0.47169264348E+03 -0.27207668717E+03 -0.54616702751E+03  0.77124451087E+03  0.00000000000E+00 0.  1.
<mgrwt>
<rscale>  0 0.17288863E+04</rscale>
<asrwt>0</asrwt>
<pdfrwt beam="1">  1        2 0.30827310E+00 0.17288863E+04</pdfrwt>
<pdfrwt beam="2">  1       -1 0.57373395E-01 0.17288863E+04</pdfrwt>
<totfact> 0.22120634E+01</totfact>
</mgrwt>
</event>
<event>
12    7  0.2466188E-007  0.2443825E+04  0.7818608E-02  0.8423276E-01
         -3   -1    0    0    0  501 -0.00000000000E+00  0.00000000000E+00  0.10745393480E+04  0.10745393480E+04  0.00000000000E+00 0.  1.
          2   -1    0    0  501    0  0.00000000000E+00 -0.00000000000E+00 -0.13894979986E+04  0.13894979986E+04  0.00000000000E+00 0. -1.
         24    2    1    2    0    0  0.54614088596E+03 -0.44498558252E+03  0.65418749160E+03  0.96464894728E+03  0.79399504800E+02 0.  0.
        254    2    1    2    0    0 -0.54614088596E+03  0.44498558252E+03 -0.96914614214E+03  0.14993883993E+04  0.90146508046E+03 0.  0.
         23    2    4    4    0    0 -0.72026982634E+03  0.81046120414E+02 -0.65493114956E+03  0.98073758878E+03  0.86915539437E+02 0.  0.
         23    2    4    4    0    0  0.17412894039E+03  0.36393946210E+03 -0.31421499257E+03  0.51865081056E+03  0.86572407750E+02 0.  0.
          4    1    3    3  502    0  0.15570005870E+02 -0.17975620533E+00  0.76299107034E+01  0.17339923081E+02  0.00000000000E+00 0. -1.
         -3    1    3    3    0  502  0.53057088009E+03 -0.44480582631E+03  0.64655758089E+03  0.94730902420E+03  0.00000000000E+00 0.  1.
         13    1    5    5    0    0 -0.66623927285E+03  0.66965274468E+02 -0.57137844912E+03  0.88024567525E+03  0.00000000000E+00 0.  1.
        -13    1    5    5    0    0 -0.54030553491E+02  0.14080845946E+02 -0.83552700442E+02  0.10049191353E+03  0.00000000000E+00 0. -1.
          3    1    6    6  503    0  0.15572115271E+02  0.51114559266E+02 -0.99589567065E+01  0.54354114487E+02  0.00000000000E+00 0. -1.
         -3    1    6    6    0  503  0.15855682511E+03  0.31282490284E+03 -0.30425603587E+03  0.46429669607E+03  0.00000000000E+00 0.  1.
<mgrwt>
<rscale>  0 0.24438251E+04</rscale>
<asrwt>0</asrwt>
<pdfrwt beam="1">  1        2 0.21376892E+00 0.24438251E+04</pdfrwt>
<pdfrwt beam="2">  1       -3 0.16531375E+00 0.24438251E+04</pdfrwt>
<totfact> 0.20744023E+00</totfact>
</mgrwt>
</event>
<event>
12    7  0.2466188E-007  0.3315539E+04  0.7818608E-02  0.8158953E-01
          2   -1    0    0  501    0  0.00000000000E+00  0.00000000000E+00  0.42057492109E+04  0.42057492109E+04  0.00000000000E+00 0. -1.
         -1   -1    0    0    0  501 -0.00000000000E+00 -0.00000000000E+00 -0.65343873366E+03  0.65343873366E+03  0.00000000000E+00 0.  1.
         24    2    1    2    0    0  0.14543887420E+04 -0.27500071283E+03  0.22445474270E+04  0.26898499484E+04  0.80172238729E+02 0.  0.
        254    2    1    2    0    0 -0.14543887420E+04  0.27500071283E+03  0.13077630502E+04  0.21693379961E+04  0.89716840179E+03 0.  0.
         23    2    4    4    0    0 -0.14040370301E+04  0.42595211850E+03  0.13337834788E+04  0.19849886635E+04  0.91904498682E+02 0.  0.
         23    2    4    4    0    0 -0.50351711912E+02 -0.15095140567E+03 -0.26020428643E+02  0.18434933260E+03  0.89364377449E+02 0.  0.
          4    1    3    3  502    0  0.95034298151E+03 -0.20182317318E+03  0.14151261235E+04  0.17165274018E+04  0.00000000000E+00 0. -1.
         -3    1    3    3    0  502  0.50404576047E+03 -0.73177539647E+02  0.82942130356E+03  0.97332254662E+03  0.00000000000E+00 0.  1.
         13    1    5    5    0    0 -0.63781382564E+01 -0.14602882777E+01  0.33659649361E+00  0.65518231563E+01  0.00000000000E+00 0. -1.
        -13    1    5    5    0    0 -0.13976588918E+04  0.42741240678E+03  0.13334468823E+04  0.19784368404E+04  0.00000000000E+00 0.  1.
          4    1    6    6  503    0 -0.11954609578E+02 -0.14240199972E+03 -0.16306022106E+02  0.14383020744E+03  0.00000000000E+00 0.  1.
         -4    1    6    6    0  503 -0.38397102334E+02 -0.85494059536E+01 -0.97144065367E+01  0.40519125165E+02  0.00000000000E+00 0. -1.
<mgrwt>
<rscale>  0 0.33155388E+04</rscale>
<asrwt>0</asrwt>
<pdfrwt beam="1">  1        2 0.64703832E+00 0.33155388E+04</pdfrwt>
<pdfrwt beam="2">  1       -1 0.10052904E+00 0.33155388E+04</pdfrwt>
<totfact> 0.20445278E-01</totfact>
</mgrwt>
</event>
<event>
12    7  0.2466188E-007  0.2395623E+04  0.7818608E-02  0.8441144E-01
          2   -1    0    0  501    0  0.00000000000E+00  0.00000000000E+00  0.21850747239E+04  0.21850747239E+04  0.00000000000E+00 0. -1.
         -1   -1    0    0    0  501 -0.00000000000E+00 -0.00000000000E+00 -0.65661476458E+03  0.65661476458E+03  0.00000000000E+00 0.  1.
         24    2    1    2    0    0  0.61599982839E+03  0.42782447682E+03  0.14919879929E+04  0.16719003492E+04  0.82055074095E+02 0.  0.
        254    2    1    2    0    0 -0.61599982839E+03 -0.42782447682E+03  0.36471966388E+02  0.11697891392E+04  0.89698765565E+03 0.  0.
         23    2    4    4    0    0 -0.13089660693E+02 -0.53763170595E+03 -0.36681707807E+02  0.54649973172E+03  0.89984546588E+02 0.  0.
         23    2    4    4    0    0 -0.60291016770E+03  0.10980722912E+03  0.73153674195E+02  0.62328940752E+03  0.87062779595E+02 0.  0.
          2    1    3    3  502    0  0.24197145572E+03  0.21571707964E+03  0.66540386801E+03  0.74016643492E+03  0.00000000000E+00 0. -1.
         -1    1    3    3    0  502  0.37402837268E+03  0.21210739718E+03  0.82658412490E+03  0.93173391430E+03  0.00000000000E+00 0.  1.
         13    1    5    5    0    0 -0.48387163641E+02 -0.26083904151E+03 -0.18130296027E+01  0.26529532649E+03  0.00000000000E+00 0.  1.
        -13    1    5    5    0    0  0.35297502948E+02 -0.27679266443E+03 -0.34868678205E+02  0.28120440523E+03  0.00000000000E+00 0. -1.
          3    1    6    6  503    0 -0.42410093789E+03  0.51740493798E+02  0.19102060168E+02  0.42767227280E+03  0.00000000000E+00 0. -1.
         -3    1    6    6    0  503 -0.17880922981E+03  0.58066735325E+02  0.54051614027E+02  0.19561713472E+03  0.00000000000E+00 0.  1.
<mgrwt>
<rscale>  0 0.23956229E+04</rscale>
<asrwt>0</asrwt>
<pdfrwt beam="1">  1        2 0.33616534E+00 0.23956229E+04</pdfrwt>
<pdfrwt beam="2">  1       -1 0.10101766E+00 0.23956229E+04</pdfrwt>
<totfact> 0.50169255E+00</totfact>
</mgrwt>
</event>
<event>
12    7  0.2466188E-007  0.1650148E+04  0.7818608E-02  0.8790319E-01
          2   -1    0    0  501    0  0.00000000000E+00  0.00000000000E+00  0.17956383588E+04  0.17956383588E+04  0.00000000000E+00 0. -1.
         -1   -1    0    0    0  501 -0.00000000000E+00 -0.00000000000E+00 -0.37911145643E+03  0.37911145643E+03  0.00000000000E+00 0.  1.
         24    2    1    2    0    0 -0.47591183192E+03 -0.27818368214E+03  0.72415999965E+03  0.91412300672E+03  0.85644226582E+02 0.  0.
        254    2    1    2    0    0  0.47591183192E+03  0.27818368214E+03  0.69236690274E+03  0.12606268085E+04  0.89773592422E+03 0.  0.
         23    2    4    4    0    0  0.13707774797E+03  0.51666423694E+03  0.63086628329E+03  0.83201043124E+03  0.92286768200E+02 0.  0.
         23    2    4    4    0    0  0.33883408395E+03 -0.23848055479E+03  0.61500619459E+02  0.42861637731E+03  0.90819388019E+02 0.  0.
          2    1    3    3  502    0 -0.28188120028E+03 -0.17476490133E+03  0.36654062562E+03  0.49431954446E+03  0.00000000000E+00 0. -1.
         -1    1    3    3    0  502 -0.19403063164E+03 -0.10341878081E+03  0.35761937404E+03  0.41980346226E+03  0.00000000000E+00 0.  1.
         13    1    5    5    0    0  0.11817038514E+02  0.16762129379E+03  0.15407803548E+03  0.22798373088E+03  0.00000000000E+00 0. -1.
        -13    1    5    5    0    0  0.12526070945E+03  0.34904294315E+03  0.47678824781E+03  0.60402670036E+03  0.00000000000E+00 0.  1.
          2    1    6    6  503    0  0.13366454541E+03 -0.76246726620E+02  0.64961151158E+02  0.16703210823E+03  0.00000000000E+00 0. -1.
         -2    1    6    6    0  503  0.20516953855E+03 -0.16223382817E+03 -0.34605316991E+01  0.26158426908E+03  0.00000000000E+00 0.  1.
<mgrwt>
<rscale>  0 0.16501480E+04</rscale>
<asrwt>0</asrwt>
<pdfrwt beam="1">  1        2 0.27625205E+00 0.16501480E+04</pdfrwt>
<pdfrwt beam="2">  1       -1 0.58324840E-01 0.16501480E+04</pdfrwt>
<totfact> 0.28123021E+01</totfact>
</mgrwt>
</event>
<event>
12    7  0.2466188E-007  0.1472501E+04  0.7818608E-02  0.8902948E-01
          2   -1    0    0  501    0  0.00000000000E+00  0.00000000000E+00  0.27999749214E+04  0.27999749214E+04  0.00000000000E+00 0. -1.
         -1   -1    0    0    0  501 -0.00000000000E+00 -0.00000000000E+00 -0.19359633196E+03  0.19359633196E+03  0.00000000000E+00 0.  1.
         24    2    1    2    0    0 -0.13303183603E+03  0.41537331360E+03  0.10899115868E+04  0.11766236551E+04  0.79394581683E+02 0.  0.
        254    2    1    2    0    0  0.13303183603E+03 -0.41537331360E+03  0.15164670027E+04  0.18169475983E+04  0.90077408146E+03 0.  0.
         23    2    4    4    0    0 -0.12104258419E+03 -0.48738756421E+03  0.35377481706E+03  0.62108406890E+03  0.91601607670E+02 0.  0.
         23    2    4    4    0    0  0.25407442023E+03  0.72014250614E+02  0.11626921856E+04  0.11958635294E+04  0.92176999308E+02 0.  0.
          4    1    3    3  502    0 -0.35078894851E+02  0.15678922924E+03  0.49873108902E+03  0.52397145956E+03  0.00000000000E+00 0. -1.
         -3    1    3    3    0  502 -0.97952941181E+02  0.25858408436E+03  0.59118049776E+03  0.65265219550E+03  0.00000000000E+00 0.  1.
         13    1    5    5    0    0 -0.65089769169E+02 -0.10839639170E+03  0.71813209033E+02  0.14540836557E+03  0.00000000000E+00 0.  1.
        -13    1    5    5    0    0 -0.55952815025E+02 -0.37899117251E+03  0.28196160802E+03  0.47567570334E+03  0.00000000000E+00 0. -1.
          1    1    6    6  503    0 -0.65838300214E+01  0.74319989638E+01  0.67650248837E+02  0.68374977836E+02  0.00000000000E+00 0. -1.
         -1    1    6    6    0  503  0.26065825025E+03  0.64582251650E+02  0.10950419368E+04  0.11274885516E+04  0.00000000000E+00 0.  1.
<mgrwt>
<rscale>  0 0.14725011E+04</rscale>
<asrwt>0</asrwt>
<pdfrwt beam="1">  1        2 0.43076534E+00 0.14725011E+04</pdfrwt>
<pdfrwt beam="2">  1       -1 0.29784053E-01 0.14725011E+04</pdfrwt>
<totfact> 0.26497239E+01</totfact>
</mgrwt>
</event>
<event>
12    7  0.2466188E-007  0.1010320E+04  0.7818608E-02  0.9297298E-01
          2   -1    0    0  501    0  0.00000000000E+00  0.00000000000E+00  0.13522325110E+04  0.13522325110E+04  0.00000000000E+00 0. -1.
         -1   -1    0    0    0  501 -0.00000000000E+00 -0.00000000000E+00 -0.18871496632E+03  0.18871496632E+03  0.00000000000E+00 0.  1.
         24    2    1    2    0    0 -0.70676832348E+02 -0.10824353334E+02  0.11868172277E+03  0.16045923162E+03  0.80928563795E+02 0.  0.
        254    2    1    2    0    0  0.70676832348E+02  0.10824353334E+02  0.10448358219E+04  0.13804882457E+04  0.89941843462E+03 0.  0.
         23    2    4    4    0    0  0.25566164538E+03 -0.25847399776E+03  0.11648473763E+03  0.39229517041E+03  0.90305715162E+02 0.  0.
         23    2    4    4    0    0 -0.18498481303E+03  0.26929835109E+03  0.92835108431E+03  0.98819307532E+03  0.89156241615E+02 0.  0.
          4    1    3    3  502    0 -0.33039801469E+02  0.22704104860E+01  0.11587032310E+03  0.12051022787E+03  0.00000000000E+00 0. -1.
         -3    1    3    3    0  502 -0.37637030879E+02 -0.13094763820E+02  0.28113996647E+01  0.39949003754E+02  0.00000000000E+00 0.  1.
         13    1    5    5    0    0  0.10236470482E+03 -0.16525616713E+03  0.47795039747E+02  0.20018116643E+03  0.00000000000E+00 0. -1.
        -13    1    5    5    0    0  0.15329694055E+03 -0.93217830628E+02  0.68689697879E+02  0.19211400398E+03  0.00000000000E+00 0.  1.
          4    1    6    6  503    0 -0.19265236231E+03  0.26828271429E+03  0.91466828855E+03  0.97247551412E+03  0.00000000000E+00 0. -1.
         -4    1    6    6    0  503  0.76675492842E+01  0.10156367997E+01  0.13682795764E+02  0.15717561199E+02  0.00000000000E+00 0.  1.
<mgrwt>
<rscale>  0 0.10103198E+04</rscale>
<asrwt>0</asrwt>
<pdfrwt beam="1">  1        2 0.20803577E+00 0.10103198E+04</pdfrwt>
<pdfrwt beam="2">  1       -1 0.29033073E-01 0.10103198E+04</pdfrwt>
<totfact> 0.18920460E+02</totfact>
</mgrwt>
</event>
<event>
12    7  0.2466188E-007  0.4496364E+04  0.7818608E-02  0.7911274E-01
          2   -1    0    0  501    0  0.00000000000E+00  0.00000000000E+00  0.25550004573E+04  0.25550004573E+04  0.00000000000E+00 0. -1.
         -1   -1    0    0    0  501 -0.00000000000E+00 -0.00000000000E+00 -0.19782077326E+04  0.19782077326E+04  0.00000000000E+00 0.  1.
         24    2    1    2    0    0  0.16054036985E+04 -0.87288405129E+03 -0.87728687584E+03  0.20286381686E+04  0.80578870918E+02 0.  0.
        254    2    1    2    0    0 -0.16054036985E+04  0.87288405129E+03  0.14540796006E+04  0.25045700213E+04  0.90513861084E+03 0.  0.
         23    2    4    4    0    0 -0.88438067026E+03  0.95673574489E+02  0.32116018239E+03  0.95027922263E+03  0.92758478936E+02 0.  0.
         23    2    4    4    0    0 -0.72102302826E+03  0.77721047680E+03  0.11329194182E+04  0.15542907987E+04  0.91559523748E+02 0.  0.
          4    1    3    3  502    0  0.69737297310E+03 -0.33594570053E+03 -0.35805611442E+03  0.85287323700E+03  0.00000000000E+00 0. -1.
         -3    1    3    3    0  502  0.90803072543E+03 -0.53693835076E+03 -0.51923076142E+03  0.11757649316E+04  0.00000000000E+00 0.  1.
         13    1    5    5    0    0 -0.30975979163E+02  0.20665149591E+02  0.76004311771E+01  0.38004292479E+02  0.00000000000E+00 0. -1.
        -13    1    5    5    0    0 -0.85340469110E+03  0.75008424898E+02  0.31355975122E+03  0.91227493015E+03  0.00000000000E+00 0.  1.
          2    1    6    6  503    0 -0.21941146394E+03  0.25550041906E+03  0.42052472693E+03  0.53876052250E+03  0.00000000000E+00 0. -1.
         -2    1    6    6    0  503 -0.50161156431E+03  0.52171005774E+03  0.71239469123E+03  0.10155302762E+04  0.00000000000E+00 0.  1.
<mgrwt>
<rscale>  0 0.44963637E+04</rscale>
<asrwt>0</asrwt>
<pdfrwt beam="1">  1        2 0.39307699E+00 0.44963637E+04</pdfrwt>
<pdfrwt beam="2">  1       -1 0.30433965E+00 0.44963637E+04</pdfrwt>
<totfact> 0.86248037E-02</totfact>
</mgrwt>
</event>
<event>
12    7  0.2466188E-007  0.1602448E+04  0.7818608E-02  0.8819045E-01
         -1   -1    0    0    0  501 -0.00000000000E+00  0.00000000000E+00  0.15462447446E+03  0.15462447446E+03  0.00000000000E+00 0.  1.
          2   -1    0    0  501    0  0.00000000000E+00 -0.00000000000E+00 -0.41517374301E+04  0.41517374301E+04  0.00000000000E+00 0. -1.
         24    2    1    2    0    0 -0.47271510802E+03  0.26866094115E+03 -0.13829274033E+04  0.14884876245E+04  0.86422976529E+02 0.  0.
        254    2    1    2    0    0  0.47271510802E+03 -0.26866094115E+03 -0.26141855523E+04  0.28178742800E+04  0.90045048806E+03 0.  0.
         23    2    4    4    0    0  0.69691111922E+03 -0.18163843820E+03 -0.23017101995E+04  0.24136566935E+04  0.95870544171E+02 0.  0.
         23    2    4    4    0    0 -0.22419601119E+03 -0.87022502947E+02 -0.31247535286E+03  0.40421758658E+03  0.88962035155E+02 0.  0.
          2    1    3    3  502    0 -0.47537705867E+03  0.26918561488E+03 -0.13810876355E+04  0.14852095139E+04  0.00000000000E+00 0. -1.
         -1    1    3    3    0  502  0.26619506412E+01 -0.52467373455E+00 -0.18397677748E+01  0.32781106158E+01  0.00000000000E+00 0.  1.
         13    1    5    5    0    0  0.64821705216E+03 -0.16153205429E+03 -0.21988486657E+04  0.22980890771E+04  0.00000000000E+00 0.  1.
        -13    1    5    5    0    0  0.48694067056E+02 -0.20106383905E+02 -0.10286153374E+03  0.11556761642E+03  0.00000000000E+00 0. -1.
          3    1    6    6  503    0 -0.16106566300E+03 -0.18064017209E+02 -0.18202160504E+03  0.24372181113E+03  0.00000000000E+00 0. -1.
         -3    1    6    6    0  503 -0.63130348189E+02 -0.68958485738E+02 -0.13045374781E+03  0.16049577545E+03  0.00000000000E+00 0.  1.
<mgrwt>
<rscale>  0 0.16024484E+04</rscale>
<asrwt>0</asrwt>
<pdfrwt beam="1">  1        2 0.63872884E+00 0.16024484E+04</pdfrwt>
<pdfrwt beam="2">  1       -1 0.23788380E-01 0.16024484E+04</pdfrwt>
<totfact> 0.43596993E+00</totfact>
</mgrwt>
</event>
<event>
12    7  0.2466188E-007  0.1754192E+04  0.7818608E-02  0.8731046E-01
          2   -1    0    0  501    0  0.00000000000E+00  0.00000000000E+00  0.20360805797E+04  0.20360805797E+04  0.00000000000E+00 0. -1.
         -1   -1    0    0    0  501 -0.00000000000E+00 -0.00000000000E+00 -0.37783258805E+03  0.37783258805E+03  0.00000000000E+00 0.  1.
         24    2    1    2    0    0 -0.64808140730E+02  0.48263399143E+03  0.11845420006E+04  0.12832637010E+04  0.80562462452E+02 0.  0.
        254    2    1    2    0    0  0.64808140730E+02 -0.48263399143E+03  0.47370599105E+03  0.11306494667E+04  0.90378934820E+03 0.  0.
         23    2    4    4    0    0  0.14109373298E+03 -0.52397247592E+03  0.68872400948E+03  0.88125815618E+03  0.88434040826E+02 0.  0.
         23    2    4    4    0    0 -0.76285592249E+02  0.41338484494E+02 -0.21501801844E+03  0.24939131057E+03  0.91841796862E+02 0.  0.
          2    1    3    3  502    0 -0.26110813522E+02  0.35140095684E+03  0.92547608956E+03  0.99028803861E+03  0.00000000000E+00 0. -1.
         -1    1    3    3    0  502 -0.38697327207E+02  0.13123303459E+03  0.25906591105E+03  0.29297566241E+03  0.00000000000E+00 0.  1.
         13    1    5    5    0    0  0.96359208545E+02 -0.19969177265E+03  0.30039758267E+03  0.37336390936E+03  0.00000000000E+00 0.  1.
        -13    1    5    5    0    0  0.44734524433E+02 -0.32428070327E+03  0.38832642681E+03  0.50789424681E+03  0.00000000000E+00 0. -1.
          4    1    6    6  503    0 -0.62943932027E+02  0.57514058705E+02 -0.21161876452E+03  0.22814974693E+03  0.00000000000E+00 0. -1.
         -4    1    6    6    0  503 -0.13341660222E+02 -0.16175574211E+02 -0.33992539131E+01  0.21241563636E+02  0.00000000000E+00 0.  1.
<mgrwt>
<rscale>  0 0.17541922E+04</rscale>
<asrwt>0</asrwt>
<pdfrwt beam="1">  1        2 0.31324316E+00 0.17541922E+04</pdfrwt>
<pdfrwt beam="2">  1       -1 0.58128092E-01 0.17541922E+04</pdfrwt>
<totfact> 0.20642676E+01</totfact>
</mgrwt>
</event>
<event>
12    7  0.2466188E-007  0.3672487E+04  0.7818608E-02  0.8074087E-01
         -1   -1    0    0    0  501 -0.00000000000E+00  0.00000000000E+00  0.17848503981E+04  0.17848503981E+04  0.00000000000E+00 0.  1.
          2   -1    0    0  501    0  0.00000000000E+00 -0.00000000000E+00 -0.18891162515E+04  0.18891162515E+04  0.00000000000E+00 0. -1.
         24    2    1    2    0    0 -0.81055873772E+03  0.53809293489E+03  0.13760306227E+04  0.16871257939E+04  0.79898033157E+02 0.  0.
        254    2    1    2    0    0  0.81055873772E+03 -0.53809293489E+03 -0.14802964761E+04  0.19868408557E+04  0.89983857161E+03 0.  0.
         23    2    4    4    0    0 -0.55906094551E+02  0.11360777328E+03 -0.72817559566E+01  0.15552120467E+03  0.90008908303E+02 0.  0.
         23    2    4    4    0    0  0.86646483227E+03 -0.65170070817E+03 -0.14730147202E+04  0.18313196511E+04  0.92109608678E+02 0.  0.
          2    1    3    3  502    0 -0.51913986901E+03  0.34680008843E+03  0.81553886249E+03  0.10270735812E+04  0.00000000000E+00 0. -1.
         -3    1    3    3    0  502 -0.29141886871E+03  0.19129284646E+03  0.56049176025E+03  0.66005221267E+03  0.00000000000E+00 0.  1.
         13    1    5    5    0    0 -0.30912817778E+02  0.16829019418E+02 -0.37174163070E+02  0.51193130374E+02  0.00000000000E+00 0. -1.
        -13    1    5    5    0    0 -0.24993276773E+02  0.96778753859E+02  0.29892407113E+02  0.10432807429E+03  0.00000000000E+00 0.  1.
          1    1    6    6  503    0  0.70910627360E+03 -0.53430757521E+03 -0.11430904018E+04  0.14474017960E+04  0.00000000000E+00 0. -1.
         -1    1    6    6    0  503  0.15735855867E+03 -0.11739313296E+03 -0.32992431830E+03  0.38391785509E+03  0.00000000000E+00 0.  1.
<mgrwt>
<rscale>  0 0.36724868E+04</rscale>
<asrwt>0</asrwt>
<pdfrwt beam="1">  1        2 0.29063327E+00 0.36724868E+04</pdfrwt>
<pdfrwt beam="2">  1       -1 0.27459237E+00 0.36724868E+04</pdfrwt>
<totfact> 0.34244476E-01</totfact>
</mgrwt>
</event>
<event>
12    7  0.2466188E-007  0.3154685E+04  0.7818608E-02  0.8200888E-01
          2   -1    0    0  501    0  0.00000000000E+00  0.00000000000E+00  0.12940531037E+04  0.12940531037E+04  0.00000000000E+00 0. -1.
         -1   -1    0    0    0  501 -0.00000000000E+00 -0.00000000000E+00 -0.19226480225E+04  0.19226480225E+04  0.00000000000E+00 0.  1.
         24    2    1    2    0    0  0.11950656389E+04 -0.77410421195E+03 -0.55305699323E+03  0.15295809405E+04  0.79539949554E+02 0.  0.
        254    2    1    2    0    0 -0.11950656389E+04  0.77410421195E+03 -0.75537925549E+02  0.16871201858E+04  0.90180337705E+03 0.  0.
         23    2    4    4    0    0 -0.16472524651E+03  0.47595904446E+03  0.23899283073E+03  0.56563476701E+03  0.95674958372E+02 0.  0.
         23    2    4    4    0    0 -0.10303403923E+04  0.29814516748E+03 -0.31453075628E+03  0.11214854188E+04  0.91148685323E+02 0.  0.
          2    1    3    3  502    0  0.32221513140E+03 -0.22655740594E+03 -0.11864315957E+03  0.41137215317E+03  0.00000000000E+00 0. -1.
         -1    1    3    3    0  502  0.87285050746E+03 -0.54754680600E+03 -0.43441383366E+03  0.11182087873E+04  0.00000000000E+00 0.  1.
         13    1    5    5    0    0 -0.14407687761E+03  0.43739653886E+03  0.24475207568E+03  0.52151458025E+03  0.00000000000E+00 0.  1.
        -13    1    5    5    0    0 -0.20648368904E+02  0.38562505605E+02 -0.57592449443E+01  0.44120186754E+02  0.00000000000E+00 0. -1.
          4    1    6    6  503    0 -0.29284560652E+03  0.63431104193E+02 -0.12505274484E+03  0.32468483677E+03  0.00000000000E+00 0. -1.
         -4    1    6    6    0  503 -0.73749478582E+03  0.23471406329E+03 -0.18947801144E+03  0.79680058198E+03  0.00000000000E+00 0.  1.
<mgrwt>
<rscale>  0 0.31546845E+04</rscale>
<asrwt>0</asrwt>
<pdfrwt beam="1">  1        2 0.19908509E+00 0.31546845E+04</pdfrwt>
<pdfrwt beam="2">  1       -1 0.29579200E+00 0.31546845E+04</pdfrwt>
<totfact> 0.56408055E-01</totfact>
</mgrwt>
</event>
<event>
12    7  0.2466188E-007  0.2004814E+04  0.7818608E-02  0.8604373E-01
         -1   -1    0    0    0  501 -0.00000000000E+00  0.00000000000E+00  0.12749848836E+04  0.12749848836E+04  0.00000000000E+00 0.  1.
          2   -1    0    0  501    0  0.00000000000E+00 -0.00000000000E+00 -0.78810314416E+03  0.78810314416E+03  0.00000000000E+00 0. -1.
         24    2    1    2    0    0  0.49426098994E+03 -0.45614754530E+03  0.63716315216E+03  0.93008777885E+03  0.81987100373E+02 0.  0.
        254    2    1    2    0    0 -0.49426098994E+03  0.45614754530E+03 -0.15028141270E+03  0.11330002489E+04  0.89930003438E+03 0.  0.
         23    2    4    4    0    0 -0.70058473769E+03  0.24132505779E+03 -0.27726424297E+03  0.79630724234E+03  0.90404676701E+02 0.  0.
         23    2    4    4    0    0  0.20632374775E+03  0.21482248750E+03  0.12698283028E+03  0.33669300660E+03  0.92300333073E+02 0.  0.
          2    1    3    3  502    0  0.24910860400E+02 -0.30089723938E+01  0.26156692506E+02  0.36246067974E+02  0.00000000000E+00 0. -1.
         -1    1    3    3    0  502  0.46935012954E+03 -0.45313857290E+03  0.61100645966E+03  0.89384171087E+03  0.00000000000E+00 0.  1.
         13    1    5    5    0    0 -0.44091557709E+03  0.16495022323E+03 -0.13099794807E+03  0.48864668695E+03  0.00000000000E+00 0.  1.
        -13    1    5    5    0    0 -0.25966916060E+03  0.76374834567E+02 -0.14626629490E+03  0.30766055539E+03  0.00000000000E+00 0. -1.
          4    1    6    6  503    0  0.18391095758E+03  0.13854221523E+03  0.11093346748E+03  0.25558446730E+03  0.00000000000E+00 0. -1.
         -4    1    6    6    0  503  0.22412790173E+02  0.76280272271E+02  0.16049362798E+02  0.81108539299E+02  0.00000000000E+00 0.  1.
<mgrwt>
<rscale>  0 0.20048138E+04</rscale>
<asrwt>0</asrwt>
<pdfrwt beam="1">  1        2 0.12124664E+00 0.20048138E+04</pdfrwt>
<pdfrwt beam="2">  1       -1 0.19615152E+00 0.20048138E+04</pdfrwt>
<totfact> 0.59598289E+00</totfact>
</mgrwt>
</event>
<event>
12    7  0.2466188E-007  0.1487188E+04  0.7818608E-02  0.8893018E-01
          2   -1    0    0  501    0  0.00000000000E+00  0.00000000000E+00  0.69304943022E+03  0.69304943022E+03  0.00000000000E+00 0. -1.
         -1   -1    0    0    0  501 -0.00000000000E+00 -0.00000000000E+00 -0.79782507579E+03  0.79782507579E+03  0.00000000000E+00 0.  1.
         24    2    1    2    0    0 -0.36682074254E+03 -0.17915687008E+03 -0.25430885931E+03  0.48813210834E+03  0.83338574613E+02 0.  0.
        254    2    1    2    0    0  0.36682074254E+03  0.17915687008E+03  0.14953321374E+03  0.10027423977E+04  0.90359144131E+03 0.  0.
         23    2    4    4    0    0  0.19992422200E+03 -0.35596943509E+03  0.14245648733E+02  0.41879955554E+03  0.92229040677E+02 0.  0.
         23    2    4    4    0    0  0.16689652054E+03  0.53512630517E+03  0.13528756501E+03  0.58394284213E+03  0.92042960471E+02 0.  0.
          2    1    3    3  502    0 -0.15594185007E+03 -0.12225564659E+03 -0.12575397111E+03  0.23468780321E+03  0.00000000000E+00 0. -1.
         -1    1    3    3    0  502 -0.21087889247E+03 -0.56901223488E+02 -0.12855488820E+03  0.25344430513E+03  0.00000000000E+00 0.  1.
         13    1    5    5    0    0  0.27697383623E+02 -0.10483722505E+03 -0.26351236272E+02  0.11159021673E+03  0.00000000000E+00 0. -1.
        -13    1    5    5    0    0  0.17222683838E+03 -0.25113221004E+03  0.40596885005E+02  0.30720933881E+03  0.00000000000E+00 0.  1.
          1    1    6    6  503    0  0.63970874003E+02  0.12754433816E+03  0.11798129866E+01  0.14269275691E+03  0.00000000000E+00 0. -1.
         -1    1    6    6    0  503  0.10292564653E+03  0.40758196702E+03  0.13410775202E+03  0.44125008522E+03  0.00000000000E+00 0.  1.
<mgrwt>
<rscale>  0 0.14871882E+04</rscale>
<asrwt>0</asrwt>
<pdfrwt beam="1">  1        2 0.10662299E+00 0.14871882E+04</pdfrwt>
<pdfrwt beam="2">  1       -1 0.12274232E+00 0.14871882E+04</pdfrwt>
<totfact> 0.26847245E+01</totfact>
</mgrwt>
</event>
<event>
12    7  0.2466188E-007  0.3487792E+04  0.7818608E-02  0.8116689E-01
         -1   -1    0    0    0  501 -0.00000000000E+00  0.00000000000E+00  0.12501260628E+04  0.12501260628E+04  0.00000000000E+00 0.  1.
          2   -1    0    0  501    0  0.00000000000E+00 -0.00000000000E+00 -0.24326938128E+04  0.24326938128E+04  0.00000000000E+00 0. -1.
         24    2    1    2    0    0 -0.12357951934E+04  0.10354097442E+04 -0.77552566746E+03  0.17908543986E+04  0.80351214945E+02 0.  0.
        254    2    1    2    0    0  0.12357951934E+04 -0.10354097442E+04 -0.40704208255E+03  0.18919654771E+04  0.90254474196E+03 0.  0.
         23    2    4    4    0    0  0.11999409058E+04 -0.52300576607E+03 -0.18619823648E+03  0.13254359207E+04  0.93366952614E+02 0.  0.
         23    2    4    4    0    0  0.35854287589E+02 -0.51240397808E+03 -0.22084384608E+03  0.56652955640E+03  0.91325611068E+02 0.  0.
          2    1    3    3  502    0 -0.40762961288E+03  0.38788595599E+03 -0.28624455960E+03  0.63131082998E+03  0.00000000000E+00 0. -1.
         -1    1    3    3    0  502 -0.82816558049E+03  0.64752378816E+03 -0.48928110786E+03  0.11595435686E+04  0.00000000000E+00 0.  1.
         13    1    5    5    0    0  0.20228791232E+03 -0.12663193042E+03 -0.26750638106E+02  0.24014920760E+03  0.00000000000E+00 0. -1.
        -13    1    5    5    0    0  0.99765299345E+03 -0.39637383566E+03 -0.15944759837E+03  0.10852867131E+04  0.00000000000E+00 0.  1.
          1    1    6    6  503    0  0.87720120910E+01 -0.21150356383E+02  0.75396292116E+01  0.24106675008E+02  0.00000000000E+00 0. -1.
         -1    1    6    6    0  503  0.27082275498E+02 -0.49125362170E+03 -0.22838347529E+03  0.54242288139E+03  0.00000000000E+00 0.  1.
<mgrwt>
<rscale>  0 0.34877924E+04</rscale>
<asrwt>0</asrwt>
<pdfrwt beam="1">  1        2 0.37426058E+00 0.34877924E+04</pdfrwt>
<pdfrwt beam="2">  1       -1 0.19232709E+00 0.34877924E+04</pdfrwt>
<totfact> 0.60565393E-01</totfact>
</mgrwt>
</event>
<event>
12    7  0.2466188E-007  0.1183472E+04  0.7818608E-02  0.9127447E-01
         -1   -1    0    0    0  501 -0.00000000000E+00  0.00000000000E+00  0.11960492980E+03  0.11960492980E+03  0.00000000000E+00 0.  1.
          2   -1    0    0  501    0  0.00000000000E+00 -0.00000000000E+00 -0.29275693153E+04  0.29275693153E+04  0.00000000000E+00 0. -1.
         24    2    1    2    0    0 -0.15282223072E+03  0.14165188127E+03 -0.91973463448E+03  0.94639861462E+03  0.79615640584E+02 0.  0.
        254    2    1    2    0    0  0.15282223072E+03 -0.14165188127E+03 -0.18882297510E+04  0.21007756305E+04  0.89689841529E+03 0.  0.
         23    2    4    4    0    0  0.23449269683E+03 -0.46220096557E+02 -0.19253039014E+04  0.19423100650E+04  0.93006200612E+02 0.  0.
         23    2    4    4    0    0 -0.81670466112E+02 -0.95431784712E+02  0.37074150395E+02  0.15846556555E+03  0.89216322886E+02 0.  0.
          4    1    3    3  502    0 -0.10597420019E+02  0.36252899156E+02 -0.83689142798E+02  0.91817485429E+02  0.00000000000E+00 0. -1.
         -3    1    3    3    0  502 -0.14222481070E+03  0.10539898211E+03 -0.83604549168E+03  0.85458112919E+03  0.00000000000E+00 0.  1.
         13    1    5    5    0    0  0.12527740154E+03 -0.67879769847E+02 -0.94051418717E+03  0.95124603903E+03  0.00000000000E+00 0.  1.
        -13    1    5    5    0    0  0.10921529529E+03  0.21659673290E+02 -0.98478971426E+03  0.99106402593E+03  0.00000000000E+00 0. -1.
          2    1    6    6  503    0 -0.11620743419E+02 -0.79290477258E+02  0.66693102919E+01  0.80414558143E+02  0.00000000000E+00 0. -1.
         -2    1    6    6    0  503 -0.70049722692E+02 -0.16141307454E+02  0.30404840103E+02  0.78051007407E+02  0.00000000000E+00 0.  1.
<mgrwt>
<rscale>  0 0.11834724E+04</rscale>
<asrwt>0</asrwt>
<pdfrwt beam="1">  1        2 0.45039532E+00 0.11834724E+04</pdfrwt>
<pdfrwt beam="2">  1       -1 0.18400757E-01 0.11834724E+04</pdfrwt>
<totfact> 0.51800952E+01</totfact>
</mgrwt>
</event>
<event>
12    7  0.2466188E-007  0.2745331E+04  0.7818608E-02  0.8320445E-01
          2   -1    0    0  501    0  0.00000000000E+00  0.00000000000E+00  0.18619912992E+04  0.18619912992E+04  0.00000000000E+00 0. -1.
         -1   -1    0    0    0  501 -0.00000000000E+00 -0.00000000000E+00 -0.10119328581E+04  0.10119328581E+04  0.00000000000E+00 0.  1.
         24    2    1    2    0    0 -0.11528547563E+04  0.21741523865E+02 -0.48383161750E+02  0.11566965947E+04  0.77841499259E+02 0.  0.
        254    2    1    2    0    0  0.11528547563E+04 -0.21741523865E+02  0.89844160286E+03  0.17172275625E+04  0.90118056175E+03 0.  0.
         23    2    4    4    0    0 -0.43693904876E+01  0.19168817593E+03  0.36330138023E+03  0.42051653579E+03  0.89904480585E+02 0.  0.
         23    2    4    4    0    0  0.11572241468E+04 -0.21342969979E+03  0.53514022263E+03  0.12967110267E+04  0.10180602351E+03 0.  0.
          2    1    3    3  502    0 -0.70229528389E+03 -0.23151413909E+02 -0.18479480071E+02  0.70291972865E+03  0.00000000000E+00 0. -1.
         -1    1    3    3    0  502 -0.45055947237E+03  0.44892937773E+02 -0.29903681679E+02  0.45377686608E+03  0.00000000000E+00 0.  1.
         13    1    5    5    0    0 -0.34426351804E+02  0.69648372314E+02  0.19918713148E+03  0.21380267261E+03  0.00000000000E+00 0.  1.
        -13    1    5    5    0    0  0.30056961316E+02  0.12203980362E+03  0.16411424875E+03  0.20671386318E+03  0.00000000000E+00 0. -1.
          2    1    6    6  503    0  0.31308150435E+03 -0.22436253443E+02  0.11140262390E+03  0.33306749833E+03  0.00000000000E+00 0. -1.
         -2    1    6    6    0  503  0.84414264241E+03 -0.19099344635E+03  0.42373759873E+03  0.96364352841E+03  0.00000000000E+00 0.  1.
<mgrwt>
<rscale>  0 0.27453307E+04</rscale>
<asrwt>0</asrwt>
<pdfrwt beam="1">  1        2 0.28646020E+00 0.27453307E+04</pdfrwt>
<pdfrwt beam="2">  1       -1 0.15568198E+00 0.27453307E+04</pdfrwt>
<totfact> 0.24999412E+00</totfact>
</mgrwt>
</event>
<event>
12    7  0.2466188E-007  0.3207724E+04  0.7818608E-02  0.8186780E-01
         -1   -1    0    0    0  501 -0.00000000000E+00  0.00000000000E+00  0.17249420179E+04  0.17249420179E+04  0.00000000000E+00 0.  1.
          2   -1    0    0  501    0  0.00000000000E+00 -0.00000000000E+00 -0.14912812257E+04  0.14912812257E+04  0.00000000000E+00 0. -1.
         24    2    1    2    0    0  0.11879088131E+04  0.41264550455E+03 -0.66763572018E+03  0.14260690543E+04  0.80819750351E+02 0.  0.
        254    2    1    2    0    0 -0.11879088131E+04 -0.41264550455E+03  0.90129651242E+03  0.17901541893E+04  0.90050705589E+03 0.  0.
         23    2    4    4    0    0 -0.68344472946E+02 -0.92421516752E+02  0.55085458566E+03  0.57005085317E+03  0.91129012479E+02 0.  0.
         23    2    4    4    0    0 -0.11195643401E+04 -0.32022398780E+03  0.35044192676E+03  0.12201033362E+04  0.99372495433E+02 0.  0.
          4    1    3    3  502    0  0.42612810648E+03  0.10774087221E+03 -0.22619639515E+03  0.49432587212E+03  0.00000000000E+00 0. -1.
         -3    1    3    3    0  502  0.76178070661E+03  0.30490463234E+03 -0.44143932503E+03  0.93174318214E+03  0.00000000000E+00 0.  1.
         13    1    5    5    0    0 -0.68668744128E+02 -0.20989952691E+02  0.21465796895E+03  0.22634932774E+03  0.00000000000E+00 0. -1.
        -13    1    5    5    0    0  0.32427118176E+00 -0.71431564061E+02  0.33619661671E+03  0.34370152543E+03  0.00000000000E+00 0.  1.
          1    1    6    6  503    0 -0.44081288059E+01  0.52708323088E+01  0.68623998929E+00  0.69053745822E+01  0.00000000000E+00 0. -1.
         -1    1    6    6    0  503 -0.11151562113E+04 -0.32549482010E+03  0.34975568677E+03  0.12131979616E+04  0.00000000000E+00 0.  1.
<mgrwt>
<rscale>  0 0.32077242E+04</rscale>
<asrwt>0</asrwt>
<pdfrwt beam="1">  1        2 0.22942788E+00 0.32077242E+04</pdfrwt>
<pdfrwt beam="2">  1       -1 0.26537569E+00 0.32077242E+04</pdfrwt>
<totfact> 0.68105118E-01</totfact>
</mgrwt>
</event>
<event>
12    7  0.2466188E-007  0.2171130E+04  0.7818608E-02  0.8530541E-01
          2   -1    0    0  501    0  0.00000000000E+00  0.00000000000E+00  0.16495794195E+04  0.16495794195E+04  0.00000000000E+00 0. -1.
         -1   -1    0    0    0  501 -0.00000000000E+00 -0.00000000000E+00 -0.71439519644E+03  0.71439519644E+03  0.00000000000E+00 0.  1.
         24    2    1    2    0    0 -0.66801254101E+03 -0.11116272606E+02 -0.26332841318E+03  0.72282563706E+03  0.82284396662E+02 0.  0.
        254    2    1    2    0    0  0.66801254101E+03  0.11116272606E+02  0.11985126363E+04  0.16411489789E+04  0.90031833548E+03 0.  0.
         23    2    4    4    0    0  0.77641334020E+03  0.93105032024E+02  0.12429098524E+04  0.14713907852E+04  0.93165013121E+02 0.  0.
         23    2    4    4    0    0 -0.10840079918E+03 -0.81988759418E+02 -0.44397216186E+02  0.16975819369E+03  0.91508696779E+02 0.  0.
          4    1    3    3  502    0 -0.25741457861E+03 -0.22138588824E+02 -0.63516937015E+02  0.26605785778E+03  0.00000000000E+00 0. -1.
         -3    1    3    3    0  502 -0.41059796240E+03  0.11022316218E+02 -0.19981147616E+03  0.45676777928E+03  0.00000000000E+00 0.  1.
         13    1    5    5    0    0  0.23013710672E+03  0.14204164897E+02  0.29399150349E+03  0.37362528061E+03  0.00000000000E+00 0.  1.
        -13    1    5    5    0    0  0.54627623348E+03  0.78900867127E+02  0.94891834896E+03  0.10977655046E+04  0.00000000000E+00 0. -1.
          4    1    6    6  503    0 -0.70604278062E+02 -0.99575596802E+02 -0.30560188755E+02  0.12583397274E+03  0.00000000000E+00 0. -1.
         -4    1    6    6    0  503 -0.37796521120E+02  0.17586837384E+02 -0.13837027431E+02  0.43924220950E+02  0.00000000000E+00 0.  1.
<mgrwt>
<rscale>  0 0.21711302E+04</rscale>
<asrwt>0</asrwt>
<pdfrwt beam="1">  1        2 0.25378145E+00 0.21711302E+04</pdfrwt>
<pdfrwt beam="2">  1       -1 0.10990695E+00 0.21711302E+04</pdfrwt>
<totfact> 0.83484681E+00</totfact>
</mgrwt>
</event>
<event>
12    7  0.2466188E-007  0.2819131E+04  0.7818608E-02  0.8297353E-01
         -1   -1    0    0    0  501 -0.00000000000E+00  0.00000000000E+00  0.77851515280E+03  0.77851515280E+03  0.00000000000E+00 0.  1.
          2   -1    0    0  501    0  0.00000000000E+00 -0.00000000000E+00 -0.25521341558E+04  0.25521341558E+04  0.00000000000E+00 0. -1.
         24    2    1    2    0    0  0.90202026330E+03 -0.76000731750E+03 -0.25900348200E+03  0.12102694296E+04  0.80109990554E+02 0.  0.
        254    2    1    2    0    0 -0.90202026330E+03  0.76000731750E+03 -0.15146155210E+04  0.21203798790E+04  0.90038823661E+03 0.  0.
         23    2    4    4    0    0 -0.59948325198E+03  0.44764485331E+03 -0.27365173895E+03  0.80174664527E+03  0.90256993489E+02 0.  0.
         23    2    4    4    0    0 -0.30253701133E+03  0.31236246418E+03 -0.12409637820E+04  0.13186332337E+04  0.98506570352E+02 0.  0.
          4    1    3    3  502    0  0.36166632288E+03 -0.33238735849E+03 -0.73725130732E+02  0.49670844576E+03  0.00000000000E+00 0. -1.
         -3    1    3    3    0  502  0.54035394042E+03 -0.42761995901E+03 -0.18527835127E+03  0.71356098388E+03  0.00000000000E+00 0.  1.
         13    1    5    5    0    0 -0.92055488678E+01 -0.18866965591E+01 -0.11463760944E+02  0.14822940627E+02  0.00000000000E+00 0.  1.
        -13    1    5    5    0    0 -0.59027770311E+03  0.44953154987E+03 -0.26218797801E+03  0.78692370464E+03  0.00000000000E+00 0. -1.
          3    1    6    6  503    0 -0.21647189346E+03  0.17915036264E+03 -0.68230825599E+03  0.73790208652E+03  0.00000000000E+00 0. -1.
         -3    1    6    6    0  503 -0.86065117864E+02  0.13321210154E+03 -0.55865552606E+03  0.58073114718E+03  0.00000000000E+00 0.  1.
<mgrwt>
<rscale>  0 0.28191312E+04</rscale>
<asrwt>0</asrwt>
<pdfrwt beam="1">  1        2 0.39263602E+00 0.28191312E+04</pdfrwt>
<pdfrwt beam="2">  1       -1 0.11977156E+00 0.28191312E+04</pdfrwt>
<totfact> 0.19935772E+00</totfact>
</mgrwt>
</event>
<event>
12    7  0.2466188E-007  0.2198288E+04  0.7818608E-02  0.8519141E-01
          4   -1    0    0  501    0  0.00000000000E+00  0.00000000000E+00  0.80067225565E+03  0.80067225565E+03  0.00000000000E+00 0. -1.
         -3   -1    0    0    0  501 -0.00000000000E+00 -0.00000000000E+00 -0.15088793722E+04  0.15088793722E+04  0.00000000000E+00 0.  1.
         24    2    1    2    0    0 -0.40940637757E+03  0.16635951356E+02  0.56161651276E+03  0.69978120071E+03  0.79939255582E+02 0.  0.
        254    2    1    2    0    0  0.40940637757E+03 -0.16635951356E+02 -0.12698236293E+04  0.16097704272E+04  0.90056562319E+03 0.  0.
         23    2    4    4    0    0  0.61733699772E+03 -0.18097605616E+03 -0.11045920943E+04  0.12817028322E+04  0.93707809614E+02 0.  0.
         23    2    4    4    0    0 -0.20793062016E+03  0.16434010480E+03 -0.16523153505E+03  0.32806759499E+03  0.10041948946E+03 0.  0.
          2    1    3    3  502    0 -0.32129062883E+03  0.39522284644E+02  0.46938919654E+03  0.57018935187E+03  0.00000000000E+00 0. -1.
         -1    1    3    3    0  502 -0.88115748741E+02 -0.22886333288E+02  0.92227316222E+02  0.12959184884E+03  0.00000000000E+00 0.  1.
         13    1    5    5    0    0  0.31708465105E+03 -0.11559702320E+03 -0.65947946562E+03  0.74082286228E+03  0.00000000000E+00 0.  1.
        -13    1    5    5    0    0  0.30025234667E+03 -0.65379032953E+02 -0.44511262868E+03  0.54087996990E+03  0.00000000000E+00 0. -1.
          2    1    6    6  503    0 -0.57085794840E+02 -0.27413081227E+01 -0.21879504183E+02  0.61196531323E+02  0.00000000000E+00 0. -1.
         -2    1    6    6    0  503 -0.15084482532E+03  0.16708141292E+03 -0.14335203087E+03  0.26687106367E+03  0.00000000000E+00 0.  1.
<mgrwt>
<rscale>  0 0.21982883E+04</rscale>
<asrwt>0</asrwt>
<pdfrwt beam="1">  1        4 0.12318035E+00 0.21982883E+04</pdfrwt>
<pdfrwt beam="2">  1       -3 0.23213528E+00 0.21982883E+04</pdfrwt>
<totfact> 0.96446709E-02</totfact>
</mgrwt>
</event>
<event>
12    7  0.2466188E-007  0.4005519E+04  0.7818608E-02  0.8003434E-01
         -1   -1    0    0    0  501 -0.00000000000E+00  0.00000000000E+00  0.10293700894E+04  0.10293700894E+04  0.00000000000E+00 0.  1.
          2   -1    0    0  501    0  0.00000000000E+00 -0.00000000000E+00 -0.38966018021E+04  0.38966018021E+04  0.00000000000E+00 0. -1.
         24    2    1    2    0    0 -0.15526482349E+04  0.93739482883E+03 -0.66126746529E+03  0.19320296128E+04  0.77705583162E+02 0.  0.
        254    2    1    2    0    0  0.15526482349E+04 -0.93739482883E+03 -0.22059642475E+04  0.29939422787E+04  0.89888069323E+03 0.  0.
         23    2    4    4    0    0  0.13246172870E+04 -0.67625727922E+03 -0.11605725389E+04  0.18888136651E+04  0.93560561845E+02 0.  0.
         23    2    4    4    0    0  0.22803094788E+03 -0.26113754962E+03 -0.10453917086E+04  0.11051286136E+04  0.90964252191E+02 0.  0.
          4    1    3    3  502    0 -0.12939452107E+04  0.77355740722E+03 -0.57945056744E+03  0.16150691102E+04  0.00000000000E+00 0. -1.
         -3    1    3    3    0  502 -0.25870302418E+03  0.16383742161E+03 -0.81816897848E+02  0.31696050261E+03  0.00000000000E+00 0.  1.
         13    1    5    5    0    0  0.10798967012E+04 -0.51237313046E+03 -0.94809073378E+03  0.15256405702E+04  0.00000000000E+00 0.  1.
        -13    1    5    5    0    0  0.24472058581E+03 -0.16388414875E+03 -0.21248180507E+03  0.36317309485E+03  0.00000000000E+00 0. -1.
          1    1    6    6  503    0  0.20565020401E+03 -0.18908858835E+03 -0.88140118221E+03  0.92461589033E+03  0.00000000000E+00 0. -1.
         -1    1    6    6    0  503  0.22380743864E+02 -0.72048961268E+02 -0.16399052641E+03  0.18051272328E+03  0.00000000000E+00 0.  1.
<mgrwt>
<rscale>  0 0.40055189E+04</rscale>
<asrwt>0</asrwt>
<pdfrwt beam="1">  1        2 0.59947718E+00 0.40055189E+04</pdfrwt>
<pdfrwt beam="2">  1       -1 0.15836463E+00 0.40055189E+04</pdfrwt>
<totfact> 0.11090695E-01</totfact>
</mgrwt>
</event>
<event>
12    7  0.2466188E-007  0.2775218E+04  0.7818608E-02  0.8311004E-01
          2   -1    0    0  501    0  0.00000000000E+00  0.00000000000E+00  0.48898972738E+04  0.48898972738E+04  0.00000000000E+00 0. -1.
         -3   -1    0    0    0  501 -0.00000000000E+00 -0.00000000000E+00 -0.39376259209E+03  0.39376259209E+03  0.00000000000E+00 0.  1.
         24    2    1    2    0    0 -0.11349605414E+04 -0.41009284965E+03  0.14619170573E+04  0.18970604098E+04  0.72973556693E+02 0.  0.
        254    2    1    2    0    0  0.11349605414E+04  0.41009284965E+03  0.30342176244E+04  0.33865994561E+04  0.89792411042E+03 0.  0.
         23    2    4    4    0    0  0.30537023696E+03  0.47511391558E+03  0.68409075257E+03  0.89174349098E+03  0.90785910608E+02 0.  0.
         23    2    4    4    0    0  0.82959030445E+03 -0.65021065934E+02  0.23501268718E+04  0.24948559651E+04  0.93606414343E+02 0.  0.
          4    1    3    3  502    0 -0.61784210434E+03 -0.22028924813E+03  0.85124960574E+03  0.10746544142E+04  0.00000000000E+00 0. -1.
         -3    1    3    3    0  502 -0.51711843707E+03 -0.18980360152E+03  0.61066745158E+03  0.82240599556E+03  0.00000000000E+00 0.  1.
         13    1    5    5    0    0  0.20715525350E+03  0.39062291126E+03  0.54147855780E+03  0.69906980081E+03  0.00000000000E+00 0. -1.
        -13    1    5    5    0    0  0.98214983459E+02  0.84491004318E+02  0.14261219477E+03  0.19267369017E+03  0.00000000000E+00 0.  1.
          2    1    6    6  503    0  0.35006045000E+02 -0.20809276990E+00  0.54843162581E+02  0.65063345834E+02  0.00000000000E+00 0. -1.
         -2    1    6    6    0  503  0.79458425945E+03 -0.64812973164E+02  0.22952837093E+04  0.24297926193E+04  0.00000000000E+00 0.  1.
<mgrwt>
<rscale>  0 0.27752179E+04</rscale>
<asrwt>0</asrwt>
<pdfrwt beam="1">  1        2 0.75229184E+00 0.27752179E+04</pdfrwt>
<pdfrwt beam="2">  1       -3 0.60578864E-01 0.27752179E+04</pdfrwt>
<totfact> 0.70498591E-02</totfact>
</mgrwt>
</event>
<event>
12    7  0.2466188E-007  0.1639486E+04  0.7818608E-02  0.8796651E-01
          2   -1    0    0  501    0  0.00000000000E+00  0.00000000000E+00  0.18929256925E+04  0.18929256925E+04  0.00000000000E+00 0. -1.
         -1   -1    0    0    0  501 -0.00000000000E+00 -0.00000000000E+00 -0.35499459659E+03  0.35499459659E+03  0.00000000000E+00 0.  1.
         24    2    1    2    0    0  0.37874853647E+03 -0.11299995354E+03  0.11037259445E+04  0.11751054701E+04  0.80264947509E+02 0.  0.
        254    2    1    2    0    0 -0.37874853647E+03  0.11299995354E+03  0.43420515134E+03  0.10728148190E+04  0.89787419996E+03 0.  0.
         23    2    4    4    0    0 -0.22333926499E+03  0.48440138414E+03  0.12061487861E+03  0.55439150549E+03  0.90977272844E+02 0.  0.
         23    2    4    4    0    0 -0.15540927149E+03 -0.37140143060E+03  0.31359027273E+03  0.51842331347E+03  0.91284218155E+02 0.  0.
          4    1    3    3  502    0  0.13919015027E+03 -0.61907115268E+02  0.32851425061E+03  0.36211600587E+03  0.00000000000E+00 0. -1.
         -3    1    3    3    0  502  0.23955838620E+03 -0.51092838269E+02  0.77521169394E+03  0.81298946423E+03  0.00000000000E+00 0.  1.
         13    1    5    5    0    0 -0.16526365460E+03  0.43197991457E+03  0.95961000551E+02  0.47236345725E+03  0.00000000000E+00 0.  1.
        -13    1    5    5    0    0 -0.58075610390E+02  0.52421469576E+02  0.24653878058E+02  0.82028048239E+02  0.00000000000E+00 0. -1.
          3    1    6    6  503    0 -0.36825678226E+02 -0.86251585566E+02  0.28222204746E+02  0.97938549255E+02  0.00000000000E+00 0. -1.
         -3    1    6    6    0  503 -0.11858359326E+03 -0.28514984504E+03  0.28536806798E+03  0.42048476422E+03  0.00000000000E+00 0.  1.
<mgrwt>
<rscale>  0 0.16394858E+04</rscale>
<asrwt>0</asrwt>
<pdfrwt beam="1">  1        2 0.29121933E+00 0.16394858E+04</pdfrwt>
<pdfrwt beam="2">  1       -1 0.54614554E-01 0.16394858E+04</pdfrwt>
<totfact> 0.28263351E+01</totfact>
</mgrwt>
</event>
<event>
12    7  0.2466188E-007  0.2675060E+04  0.7818608E-02  0.8343143E-01
          2   -1    0    0  501    0  0.00000000000E+00  0.00000000000E+00  0.10118664055E+04  0.10118664055E+04  0.00000000000E+00 0. -1.
         -3   -1    0    0    0  501 -0.00000000000E+00 -0.00000000000E+00 -0.17680065489E+04  0.17680065489E+04  0.00000000000E+00 0.  1.
         24    2    1    2    0    0  0.60754352906E+03 -0.10125641473E+04 -0.42994323168E+03  0.12588347294E+04  0.73609791977E+02 0.  0.
        254    2    1    2    0    0 -0.60754352906E+03  0.10125641473E+04 -0.32619691164E+03  0.15210382250E+04  0.90153067865E+03 0.  0.
         23    2    4    4    0    0 -0.31944767650E+03  0.25971528431E+03  0.28176199142E+03  0.50745850028E+03  0.92873369571E+02 0.  0.
         23    2    4    4    0    0 -0.28809585256E+03  0.75284886300E+03 -0.60795890306E+03  0.10135797247E+04  0.89158284657E+02 0.  0.
          2    1    3    3  502    0  0.51824951986E+03 -0.82070628854E+03 -0.33418355685E+03  0.10265573664E+04  0.00000000000E+00 0. -1.
         -3    1    3    3    0  502  0.89294009197E+02 -0.19185785876E+03 -0.95759674831E+02  0.23227736302E+03  0.00000000000E+00 0.  1.
         13    1    5    5    0    0 -0.84932654272E+02  0.12629113239E+03  0.10499154388E+03  0.18489518698E+03  0.00000000000E+00 0. -1.
        -13    1    5    5    0    0 -0.23451502223E+03  0.13342415192E+03  0.17677044754E+03  0.32256331330E+03  0.00000000000E+00 0.  1.
          4    1    6    6  503    0 -0.23484425182E+03  0.58789334312E+03 -0.51973439566E+03  0.81908134366E+03  0.00000000000E+00 0. -1.
         -4    1    6    6    0  503 -0.53251600739E+02  0.16495551988E+03 -0.88224507396E+02  0.19449838103E+03  0.00000000000E+00 0.  1.
<mgrwt>
<rscale>  0 0.26750599E+04</rscale>
<asrwt>0</asrwt>
<pdfrwt beam="1">  1        2 0.15567175E+00 0.26750599E+04</pdfrwt>
<pdfrwt beam="2">  1       -3 0.27200101E+00 0.26750599E+04</pdfrwt>
<totfact> 0.74564452E-01</totfact>
</mgrwt>
</event>
<event>
12    7  0.2466188E-007  0.1462135E+04  0.7818608E-02  0.8910031E-01
         -3   -1    0    0    0  501 -0.00000000000E+00  0.00000000000E+00  0.75413777318E+03  0.75413777318E+03  0.00000000000E+00 0.  1.
          2   -1    0    0  501    0  0.00000000000E+00 -0.00000000000E+00 -0.70870278101E+03  0.70870278101E+03  0.00000000000E+00 0. -1.
         24    2    1    2    0    0 -0.11579495722E+03 -0.41470960258E+03 -0.11597676624E+03  0.45280651138E+03  0.78680365072E+02 0.  0.
        254    2    1    2    0    0  0.11579495722E+03  0.41470960258E+03  0.16141175841E+03  0.10100340428E+04  0.89928998955E+03 0.  0.
         23    2    4    4    0    0 -0.30813215841E+03 -0.80362423005E+02  0.11178194194E+03  0.35012427335E+03  0.93210826444E+02 0.  0.
         23    2    4    4    0    0  0.42392711563E+03  0.49507202559E+03  0.49629816470E+02  0.65990976946E+03  0.90594013414E+02 0.  0.
          2    1    3    3  502    0 -0.53458608001E+02 -0.26136418238E+03 -0.10571388935E+03  0.28695728777E+03  0.00000000000E+00 0. -1.
         -1    1    3    3    0  502 -0.62336349216E+02 -0.15334542020E+03 -0.10262876889E+02  0.16584922361E+03  0.00000000000E+00 0.  1.
         13    1    5    5    0    0 -0.85299525549E+02 -0.43173243459E+02 -0.51501176613E+01  0.95741640479E+02  0.00000000000E+00 0. -1.
        -13    1    5    5    0    0 -0.22283263286E+03 -0.37189179546E+02  0.11693205960E+03  0.25438263287E+03  0.00000000000E+00 0.  1.
          3    1    6    6  503    0  0.24780721299E+03  0.30689348415E+03  0.72866820085E+02  0.40112541542E+03  0.00000000000E+00 0. -1.
         -3    1    6    6    0  503  0.17611990263E+03  0.18817854144E+03 -0.23237003614E+02  0.25878435404E+03  0.00000000000E+00 0.  1.
<mgrwt>
<rscale>  0 0.14621348E+04</rscale>
<asrwt>0</asrwt>
<pdfrwt beam="1">  1        2 0.10903120E+00 0.14621348E+04</pdfrwt>
<pdfrwt beam="2">  1       -3 0.11602120E+00 0.14621348E+04</pdfrwt>
<totfact> 0.15131612E+01</totfact>
</mgrwt>
</event>
<event>
12    7  0.2466188E-007  0.3926920E+04  0.7818608E-02  0.8019454E-01
          2   -1    0    0  501    0  0.00000000000E+00  0.00000000000E+00  0.43689499581E+04  0.43689499581E+04  0.00000000000E+00 0. -1.
         -1   -1    0    0    0  501 -0.00000000000E+00 -0.00000000000E+00 -0.88240300596E+03  0.88240300596E+03  0.00000000000E+00 0.  1.
         24    2    1    2    0    0 -0.95232008393E+03 -0.85951936200E+03  0.34524442469E+04  0.36839721625E+04  0.81194461416E+02 0.  0.
        254    2    1    2    0    0  0.95232008393E+03  0.85951936200E+03  0.34102705247E+02  0.15673808015E+04  0.89990694327E+03 0.  0.
         23    2    4    4    0    0  0.44318460754E+03  0.92498165887E+03 -0.82901723788E+02  0.10329679560E+04  0.90257613198E+02 0.  0.
         23    2    4    4    0    0  0.50913547639E+03 -0.65462296871E+02  0.11700442903E+03  0.53441284550E+03  0.91666828172E+02 0.  0.
          4    1    3    3  502    0 -0.43719009643E+03 -0.44925789849E+03  0.16838571808E+04  0.17967589836E+04  0.00000000000E+00 0. -1.
         -3    1    3    3    0  502 -0.51512998750E+03 -0.41026146351E+03  0.17685870660E+04  0.18872131789E+04  0.00000000000E+00 0.  1.
         13    1    5    5    0    0  0.35061074722E+03  0.65433388261E+03 -0.37031469504E+02  0.74327118586E+03  0.00000000000E+00 0. -1.
        -13    1    5    5    0    0  0.92573860313E+02  0.27064777626E+03 -0.45870254284E+02  0.28969677015E+03  0.00000000000E+00 0.  1.
          2    1    6    6  503    0  0.39533584035E+03 -0.34334033424E+02  0.53461554027E+02  0.40040902872E+03  0.00000000000E+00 0.  1.
         -2    1    6    6    0  503  0.11379963604E+03 -0.31128263448E+02  0.63542875007E+02  0.13400381678E+03  0.00000000000E+00 0. -1.
<mgrwt>
<rscale>  0 0.39269197E+04</rscale>
<asrwt>0</asrwt>
<pdfrwt beam="1">  1        2 0.67214614E+00 0.39269197E+04</pdfrwt>
<pdfrwt beam="2">  1       -1 0.13575431E+00 0.39269197E+04</pdfrwt>
<totfact> 0.66657877E-02</totfact>
</mgrwt>
</event>
<event>
12    7  0.2466188E-007  0.3629368E+04  0.7818608E-02  0.8083798E-01
         -1   -1    0    0    0  501 -0.00000000000E+00  0.00000000000E+00  0.63695990045E+03  0.63695990045E+03  0.00000000000E+00 0.  1.
          2   -1    0    0  501    0  0.00000000000E+00 -0.00000000000E+00 -0.51699921581E+04  0.51699921581E+04  0.00000000000E+00 0. -1.
         24    2    1    2    0    0 -0.95573011527E+03  0.13283297343E+04 -0.28778455981E+04  0.33115521822E+04  0.80638903551E+02 0.  0.
        254    2    1    2    0    0  0.95573011527E+03 -0.13283297343E+04 -0.16551866595E+04  0.24953998763E+04  0.89972091701E+03 0.  0.
         23    2    4    4    0    0 -0.69215081848E+02  0.64297350057E+02 -0.77158298302E+02  0.15267433510E+03  0.91821418100E+02 0.  0.
         23    2    4    4    0    0  0.10249451971E+04 -0.13926270844E+04 -0.15780283612E+04  0.23427255412E+04  0.90920841334E+02 0.  0.
          4    1    3    3  502    0 -0.72880546851E+03  0.10324140574E+04 -0.22848589341E+04  0.26110565957E+04  0.00000000000E+00 0. -1.
         -3    1    3    3    0  502 -0.22692464676E+03  0.29591567687E+03 -0.59298666397E+03  0.70049558655E+03  0.00000000000E+00 0.  1.
         13    1    5    5    0    0  0.19502452524E+02  0.88505594921E+01 -0.32500647642E+02  0.38922617524E+02  0.00000000000E+00 0. -1.
        -13    1    5    5    0    0 -0.88717534372E+02  0.55446790564E+02 -0.44657650659E+02  0.11375171758E+03  0.00000000000E+00 0.  1.
          1    1    6    6  503    0  0.11642601244E+03 -0.16187536670E+03 -0.14437577114E+03  0.24617679421E+03  0.00000000000E+00 0. -1.
         -1    1    6    6    0  503  0.90851918467E+03 -0.12307517177E+04 -0.14336525901E+04  0.20965487470E+04  0.00000000000E+00 0.  1.
<mgrwt>
<rscale>  0 0.36293678E+04</rscale>
<asrwt>0</asrwt>
<pdfrwt beam="1">  1        2 0.79538342E+00 0.36293678E+04</pdfrwt>
<pdfrwt beam="2">  1       -1 0.97993830E-01 0.36293678E+04</pdfrwt>
<totfact> 0.18554610E-02</totfact>
</mgrwt>
</event>
<event>
12    7  0.2466188E-007  0.2684163E+04  0.7818608E-02  0.8340162E-01
         -1   -1    0    0    0  501 -0.00000000000E+00  0.00000000000E+00  0.36771728882E+04  0.36771728882E+04  0.00000000000E+00 0.  1.
          2   -1    0    0  501    0  0.00000000000E+00 -0.00000000000E+00 -0.48982804817E+03  0.48982804817E+03  0.00000000000E+00 0. -1.
         24    2    1    2    0    0  0.25163963306E+03  0.95181297941E+03  0.37871444032E+03  0.10577098938E+04  0.77814776887E+02 0.  0.
        254    2    1    2    0    0 -0.25163963306E+03 -0.95181297941E+03  0.28086303997E+04  0.31092910425E+04  0.90000867346E+03 0.  0.
         23    2    4    4    0    0 -0.11268758653E+03  0.13898906443E+03  0.71008391219E+03  0.73836010055E+03  0.94551697694E+02 0.  0.
         23    2    4    4    0    0 -0.13895204653E+03 -0.10908020438E+04  0.20985464875E+04  0.23709309420E+04  0.90881248490E+02 0.  0.
          4    1    3    3  502    0  0.45546087080E+02  0.20059117237E+03  0.46730877216E+02  0.21093847294E+03  0.00000000000E+00 0. -1.
         -3    1    3    3    0  502  0.20609354598E+03  0.75122180705E+03  0.33198356310E+03  0.84677142090E+03  0.00000000000E+00 0.  1.
         13    1    5    5    0    0  0.15416309178E+02  0.20464367626E+02  0.13371919711E+03  0.13615166766E+03  0.00000000000E+00 0. -1.
        -13    1    5    5    0    0 -0.12810389571E+03  0.11852469680E+03  0.57636471508E+03  0.60220843289E+03  0.00000000000E+00 0.  1.
          2    1    6    6  503    0 -0.92593185280E+02 -0.68884247669E+03  0.14181547376E+04  0.15793164077E+04  0.00000000000E+00 0.  1.
         -2    1    6    6    0  503 -0.46358861253E+02 -0.40195956715E+03  0.68039174988E+03  0.79161453431E+03  0.00000000000E+00 0. -1.
<mgrwt>
<rscale>  0 0.26841628E+04</rscale>
<asrwt>0</asrwt>
<pdfrwt beam="1">  1        2 0.75358164E-01 0.26841628E+04</pdfrwt>
<pdfrwt beam="2">  1       -1 0.56571889E+00 0.26841628E+04</pdfrwt>
<totfact> 0.39010698E-02</totfact>
</mgrwt>
</event>
<event>
12    7  0.2466188E-007  0.3052184E+04  0.7818608E-02  0.8228984E-01
          2   -1    0    0  501    0  0.00000000000E+00  0.00000000000E+00  0.22127536353E+04  0.22127536353E+04  0.00000000000E+00 0. -1.
         -1   -1    0    0    0  501 -0.00000000000E+00 -0.00000000000E+00 -0.10525151645E+04  0.10525151645E+04  0.00000000000E+00 0.  1.
         24    2    1    2    0    0 -0.11986445395E+03 -0.92747032117E+03 -0.57319594276E+03  0.10998267895E+04  0.80602073230E+02 0.  0.
        254    2    1    2    0    0  0.11986445395E+03  0.92747032117E+03  0.17334344136E+04  0.21654420102E+04  0.89987529655E+03 0.  0.
         23    2    4    4    0    0 -0.27140186500E+03  0.17537392600E+03  0.15511131775E+03  0.37148287449E+03  0.97596203297E+02 0.  0.
         23    2    4    4    0    0  0.39126631895E+03  0.75209639517E+03  0.15783230958E+04  0.17939591357E+04  0.91909008033E+02 0.  0.
          2    1    3    3  502    0 -0.76860096318E+02 -0.46319216417E+03 -0.24469926742E+03  0.52946405623E+03  0.00000000000E+00 0. -1.
         -1    1    3    3    0  502 -0.43004357628E+02 -0.46427815700E+03 -0.32849667534E+03  0.57036273331E+03  0.00000000000E+00 0.  1.
         13    1    5    5    0    0 -0.15132497960E+03  0.90764694011E+02  0.13716523062E+03  0.22349894770E+03  0.00000000000E+00 0.  1.
        -13    1    5    5    0    0 -0.12007688540E+03  0.84609231991E+02  0.17946087124E+02  0.14798392679E+03  0.00000000000E+00 0. -1.
          1    1    6    6  503    0  0.84030049779E+02  0.20333461259E+03  0.48690417425E+03  0.53430486507E+03  0.00000000000E+00 0. -1.
         -1    1    6    6    0  503  0.30723626917E+03  0.54876178258E+03  0.10914189216E+04  0.12596542706E+04  0.00000000000E+00 0.  1.
<mgrwt>
<rscale>  0 0.30521840E+04</rscale>
<asrwt>0</asrwt>
<pdfrwt beam="1">  1        2 0.34042363E+00 0.30521840E+04</pdfrwt>
<pdfrwt beam="2">  1       -1 0.16192541E+00 0.30521840E+04</pdfrwt>
<totfact> 0.13910554E+00</totfact>
</mgrwt>
</event>
<event>
12    7  0.2466188E-007  0.2521084E+04  0.7818608E-02  0.8395513E-01
         -1   -1    0    0    0  501 -0.00000000000E+00  0.00000000000E+00  0.14423459846E+04  0.14423459846E+04  0.00000000000E+00 0.  1.
          2   -1    0    0  501    0  0.00000000000E+00 -0.00000000000E+00 -0.11016538057E+04  0.11016538057E+04  0.00000000000E+00 0. -1.
         24    2    1    2    0    0 -0.94039858774E+03  0.50134460038E+03  0.41707121831E+03  0.11472184682E+04  0.80410823275E+02 0.  0.
        254    2    1    2    0    0  0.94039858774E+03 -0.50134460038E+03 -0.76379039438E+02  0.13967813221E+04  0.89970461373E+03 0.  0.
         23    2    4    4    0    0  0.68984068801E+03 -0.69100055354E+03  0.15976868261E+03  0.99352881463E+03  0.90617513390E+02 0.  0.
         23    2    4    4    0    0  0.25055789973E+03  0.18965595316E+03 -0.23614772204E+03  0.40325250748E+03  0.89989979863E+02 0.  0.
          4    1    3    3  502    0 -0.70277504165E+03  0.33416961952E+03  0.30250991755E+03  0.83490978195E+03  0.00000000000E+00 0. -1.
         -3    1    3    3    0  502 -0.23762354610E+03  0.16717498086E+03  0.11456130076E+03  0.31230868626E+03  0.00000000000E+00 0.  1.
         13    1    5    5    0    0  0.42057233246E+03 -0.36132559123E+03  0.75243107841E+02  0.55955231657E+03  0.00000000000E+00 0. -1.
        -13    1    5    5    0    0  0.26926835556E+03 -0.32967496231E+03  0.84525574766E+02  0.43397649806E+03  0.00000000000E+00 0.  1.
          3    1    6    6  503    0  0.18591137289E+02  0.53881235273E+02 -0.54388629964E+02  0.78784141612E+02  0.00000000000E+00 0. -1.
         -3    1    6    6    0  503  0.23196676244E+03  0.13577471789E+03 -0.18175909208E+03  0.32446836587E+03  0.00000000000E+00 0.  1.
<mgrwt>
<rscale>  0 0.25210838E+04</rscale>
<asrwt>0</asrwt>
<pdfrwt beam="1">  1        2 0.16948520E+00 0.25210838E+04</pdfrwt>
<pdfrwt beam="2">  1       -1 0.22189938E+00 0.25210838E+04</pdfrwt>
<totfact> 0.23573733E+00</totfact>
</mgrwt>
</event>
<event>
12    7  0.2466188E-007  0.1744159E+04  0.7818608E-02  0.8736572E-01
          2   -1    0    0  501    0  0.00000000000E+00  0.00000000000E+00  0.60741428886E+03  0.60741428886E+03  0.00000000000E+00 0. -1.
         -1   -1    0    0    0  501 -0.00000000000E+00 -0.00000000000E+00 -0.12520664913E+04  0.12520664913E+04  0.00000000000E+00 0.  1.
         24    2    1    2    0    0  0.44684911675E+02 -0.62815268658E+03 -0.13616861008E+03  0.64914856956E+03  0.79242892410E+02 0.  0.
        254    2    1    2    0    0 -0.44684911675E+02  0.62815268658E+03 -0.50848359238E+03  0.12103322106E+04  0.89987552326E+03 0.  0.
         23    2    4    4    0    0  0.35631650924E+02 -0.58898810621E+02 -0.49933525648E+03  0.51249171120E+03  0.92592501025E+02 0.  0.
         23    2    4    4    0    0 -0.80316562599E+02  0.68705149720E+03 -0.91483358943E+01  0.69784049942E+03  0.91690569559E+02 0.  0.
          4    1    3    3  502    0 -0.37703217627E+01 -0.44408291350E+03 -0.86671767411E+02  0.45247745210E+03  0.00000000000E+00 0. -1.
         -3    1    3    3    0  502  0.48455233437E+02 -0.18406977308E+03 -0.49496842666E+02  0.19667111746E+03  0.00000000000E+00 0.  1.
         13    1    5    5    0    0 -0.24159160931E+02 -0.43057676900E+02 -0.15590874652E+03  0.16353949321E+03  0.00000000000E+00 0. -1.
        -13    1    5    5    0    0  0.59790811856E+02 -0.15841133721E+02 -0.34342650996E+03  0.34895221800E+03  0.00000000000E+00 0.  1.
          1    1    6    6  503    0  0.46331849866E+01  0.34462051276E+03 -0.15054597586E+02  0.34498029672E+03  0.00000000000E+00 0. -1.
         -1    1    6    6    0  503 -0.84949747586E+02  0.34243098444E+03  0.59062616914E+01  0.35286020270E+03  0.00000000000E+00 0.  1.
<mgrwt>
<rscale>  0 0.17441595E+04</rscale>
<asrwt>0</asrwt>
<pdfrwt beam="1">  1        2 0.93448353E-01 0.17441595E+04</pdfrwt>
<pdfrwt beam="2">  1       -1 0.19262561E+00 0.17441595E+04</pdfrwt>
<totfact> 0.89627145E+00</totfact>
</mgrwt>
</event>
<event>
12    7  0.2466188E-007  0.2526139E+04  0.7818608E-02  0.8393732E-01
         -1   -1    0    0    0  501 -0.00000000000E+00  0.00000000000E+00  0.13760998527E+04  0.13760998527E+04  0.00000000000E+00 0.  1.
          2   -1    0    0  501    0  0.00000000000E+00 -0.00000000000E+00 -0.11593229476E+04  0.11593229476E+04  0.00000000000E+00 0. -1.
         24    2    1    2    0    0 -0.94211280287E+03 -0.46272362345E+03  0.43293076612E+03  0.11386883587E+04  0.86558910301E+02 0.  0.
        254    2    1    2    0    0  0.94211280287E+03  0.46272362345E+03 -0.21615386099E+03  0.13967344416E+04  0.89579848383E+03 0.  0.
         23    2    4    4    0    0  0.80548514085E+03  0.42005714138E+03  0.21029506607E+03  0.93752865266E+03  0.97373741788E+02 0.  0.
         23    2    4    4    0    0  0.13662766202E+03  0.42666482067E+02 -0.42644892706E+03  0.45920578892E+03  0.92324008034E+02 0.  0.
          4    1    3    3  502    0 -0.12871682530E+02 -0.13599170561E+02 -0.17374010347E+01  0.18805217719E+02  0.00000000000E+00 0. -1.
         -3    1    3    3    0  502 -0.92924112034E+03 -0.44912445289E+03  0.43466816715E+03  0.11198831410E+04  0.00000000000E+00 0.  1.
         13    1    5    5    0    0  0.22214432547E+03  0.70416900738E+02  0.67273679129E+02  0.24255388917E+03  0.00000000000E+00 0. -1.
        -13    1    5    5    0    0  0.58334081538E+03  0.34964024064E+03  0.14302138694E+03  0.69497476349E+03  0.00000000000E+00 0.  1.
          2    1    6    6  503    0  0.10875106842E+03  0.54145992851E+02 -0.40328793578E+03  0.42118848817E+03  0.00000000000E+00 0. -1.
         -2    1    6    6    0  503  0.27876593598E+02 -0.11479510784E+02 -0.23160991282E+02  0.38017300741E+02  0.00000000000E+00 0.  1.
<mgrwt>
<rscale>  0 0.25261387E+04</rscale>
<asrwt>0</asrwt>
<pdfrwt beam="1">  1        2 0.17835738E+00 0.25261387E+04</pdfrwt>
<pdfrwt beam="2">  1       -1 0.21170767E+00 0.25261387E+04</pdfrwt>
<totfact> 0.25443555E+00</totfact>
</mgrwt>
</event>
<event>
12    7  0.2466188E-007  0.1835827E+04  0.7818608E-02  0.8687476E-01
          2   -1    0    0  501    0  0.00000000000E+00  0.00000000000E+00  0.21468009629E+04  0.21468009629E+04  0.00000000000E+00 0. -1.
         -1   -1    0    0    0  501 -0.00000000000E+00 -0.00000000000E+00 -0.39247485179E+03  0.39247485179E+03  0.00000000000E+00 0.  1.
         24    2    1    2    0    0  0.33706449103E+02 -0.40781661475E+03 -0.10748309094E+03  0.43090999757E+03  0.81733072802E+02 0.  0.
        254    2    1    2    0    0 -0.33706449103E+02  0.40781661475E+03  0.18618092020E+04  0.21083658171E+04  0.90078987449E+03 0.  0.
         23    2    4    4    0    0 -0.40266260488E+03 -0.52184637117E+01  0.97447237538E+03  0.10581815402E+04  0.89372009042E+02 0.  0.
         23    2    4    4    0    0  0.36895615578E+03  0.41303507846E+03  0.88733682665E+03  0.10501842769E+04  0.93774999400E+02 0.  0.
          2    1    3    3  502    0 -0.87345875229E+01 -0.13363023550E+03 -0.15537347949E+01  0.13392440760E+03  0.00000000000E+00 0. -1.
         -1    1    3    3    0  502  0.42441036626E+02 -0.27418637924E+03 -0.10592935615E+03  0.29698558997E+03  0.00000000000E+00 0.  1.
         13    1    5    5    0    0 -0.24649995194E+03  0.23383957069E+02  0.67934656521E+03  0.72306347675E+03  0.00000000000E+00 0.  1.
        -13    1    5    5    0    0 -0.15616265294E+03 -0.28602420780E+02  0.29512581017E+03  0.33511806349E+03  0.00000000000E+00 0. -1.
          3    1    6    6  503    0  0.41647403367E+02  0.22242346781E+02  0.12004873109E+03  0.12899971331E+03  0.00000000000E+00 0. -1.
         -3    1    6    6    0  503  0.32730875241E+03  0.39079273168E+03  0.76728809555E+03  0.92118456355E+03  0.00000000000E+00 0.  1.
<mgrwt>
<rscale>  0 0.18358272E+04</rscale>
<asrwt>0</asrwt>
<pdfrwt beam="1">  1        2 0.33027707E+00 0.18358272E+04</pdfrwt>
<pdfrwt beam="2">  1       -1 0.60380747E-01 0.18358272E+04</pdfrwt>
<totfact> 0.16495264E+01</totfact>
</mgrwt>
</event>
<event>
12    7  0.2466188E-007  0.1249685E+04  0.7818608E-02  0.9070445E-01
         -1   -1    0    0    0  501 -0.00000000000E+00  0.00000000000E+00  0.60250440214E+03  0.60250440214E+03  0.00000000000E+00 0.  1.
          2   -1    0    0  501    0  0.00000000000E+00 -0.00000000000E+00 -0.64800906089E+03  0.64800906089E+03  0.00000000000E+00 0. -1.
         24    2    1    2    0    0  0.22341324500E+03  0.14744765410E+03  0.10431692279E+03  0.29836619916E+03  0.80536201045E+02 0.  0.
        254    2    1    2    0    0 -0.22341324500E+03 -0.14744765410E+03 -0.14982158154E+03  0.95214726387E+03  0.90137873120E+03 0.  0.
         23    2    4    4    0    0  0.66346516903E+02 -0.41040154416E+03 -0.30326838631E+03  0.52238174429E+03  0.89887067395E+02 0.  0.
         23    2    4    4    0    0 -0.28975976190E+03  0.26295389006E+03  0.15344680476E+03  0.42976551958E+03  0.89705139270E+02 0.  0.
          4    1    3    3  502    0  0.35694213777E+02  0.24408301630E+01 -0.68138906968E+01  0.36420648751E+02  0.00000000000E+00 0. -1.
         -3    1    3    3    0  502  0.18771903122E+03  0.14500682394E+03  0.11113081349E+03  0.26194555041E+03  0.00000000000E+00 0.  1.
         13    1    5    5    0    0  0.14436337526E+02 -0.12709943030E+03 -0.14641315324E+03  0.19442089513E+03  0.00000000000E+00 0. -1.
        -13    1    5    5    0    0  0.51910179377E+02 -0.28330211386E+03 -0.15685523307E+03  0.32796084916E+03  0.00000000000E+00 0.  1.
          1    1    6    6  503    0 -0.12938013346E+02  0.34648864241E+02 -0.53591075305E+01  0.37371861287E+02  0.00000000000E+00 0. -1.
         -1    1    6    6    0  503 -0.27682174856E+03  0.22830502582E+03  0.15880591229E+03  0.39239365829E+03  0.00000000000E+00 0.  1.
<mgrwt>
<rscale>  0 0.12496853E+04</rscale>
<asrwt>0</asrwt>
<pdfrwt beam="1">  1        2 0.99693703E-01 0.12496853E+04</pdfrwt>
<pdfrwt beam="2">  1       -1 0.92692984E-01 0.12496853E+04</pdfrwt>
<totfact> 0.57410882E+01</totfact>
</mgrwt>
</event>
<event>
12    7  0.2466188E-007  0.2923592E+04  0.7818608E-02  0.8265893E-01
         -1   -1    0    0    0  501 -0.00000000000E+00  0.00000000000E+00  0.82599002453E+03  0.82599002453E+03  0.00000000000E+00 0.  1.
          2   -1    0    0  501    0  0.00000000000E+00 -0.00000000000E+00 -0.25870129162E+04  0.25870129162E+04  0.00000000000E+00 0. -1.
         24    2    1    2    0    0  0.98566380806E+02 -0.13067292709E+04 -0.99850269019E+03  0.16494936007E+04  0.81023437255E+02 0.  0.
        254    2    1    2    0    0 -0.98566380806E+02  0.13067292709E+04 -0.76252020145E+03  0.17635093400E+04  0.90070606519E+03 0.  0.
         23    2    4    4    0    0  0.63011710771E+02  0.72300075012E+02 -0.46133925379E+03  0.47979355082E+03  0.90388980440E+02 0.  0.
         23    2    4    4    0    0 -0.16157809158E+03  0.12344291959E+04 -0.30118094767E+03  0.12837157892E+04  0.85401082297E+02 0.  0.
          2    1    3    3  502    0  0.56491757681E+02 -0.95547524122E+03 -0.76910020596E+03  0.12278596752E+04  0.00000000000E+00 0. -1.
         -3    1    3    3    0  502  0.42074623126E+02 -0.35125402971E+03 -0.22940248423E+03  0.42163392542E+03  0.00000000000E+00 0.  1.
         13    1    5    5    0    0  0.73961182689E+02  0.65671230856E+02 -0.45477923770E+03  0.46541070266E+03  0.00000000000E+00 0.  1.
        -13    1    5    5    0    0 -0.10949471918E+02  0.66288441568E+01 -0.65600160815E+01  0.14382848158E+02  0.00000000000E+00 0. -1.
          2    1    6    6  503    0 -0.86225518867E+02  0.76976977775E+03 -0.14724099974E+03  0.78845435052E+03  0.00000000000E+00 0. -1.
         -2    1    6    6    0  503 -0.75352572711E+02  0.46465941816E+03 -0.15393994793E+03  0.49526143871E+03  0.00000000000E+00 0.  1.
<mgrwt>
<rscale>  0 0.29235915E+04</rscale>
<asrwt>0</asrwt>
<pdfrwt beam="1">  1        2 0.39800198E+00 0.29235915E+04</pdfrwt>
<pdfrwt beam="2">  1       -1 0.12707539E+00 0.29235915E+04</pdfrwt>
<totfact> 0.16280494E+00</totfact>
</mgrwt>
</event>
<event>
12    7  0.2466188E-007  0.2421050E+04  0.7818608E-02  0.8431665E-01
          2   -1    0    0  501    0  0.00000000000E+00  0.00000000000E+00  0.16652153035E+04  0.16652153035E+04  0.00000000000E+00 0. -1.
         -1   -1    0    0    0  501 -0.00000000000E+00 -0.00000000000E+00 -0.87998867328E+03  0.87998867328E+03  0.00000000000E+00 0.  1.
         24    2    1    2    0    0  0.17378388615E+03  0.43445647497E+03  0.13184882424E+04  0.14004047906E+04  0.61392706243E+02 0.  0.
        254    2    1    2    0    0 -0.17378388615E+03 -0.43445647497E+03 -0.53326161226E+03  0.11447991861E+04  0.89846756299E+03 0.  0.
         23    2    4    4    0    0 -0.39517078426E+03 -0.51925143746E+03 -0.13599670543E+03  0.67317865766E+03  0.94299507963E+02 0.  0.
         23    2    4    4    0    0  0.22138689811E+03  0.84794962490E+02 -0.39726490683E+03  0.47162052848E+03  0.91674273225E+02 0.  0.
          2    1    3    3  502    0  0.14892309219E+03  0.38853877598E+03  0.12187575705E+04  0.12878316985E+04  0.00000000000E+00 0. -1.
         -1    1    3    3    0  502  0.24860793956E+02  0.45917698991E+02  0.99730671895E+02  0.11257309214E+03  0.00000000000E+00 0.  1.
         13    1    5    5    0    0 -0.70283333329E+02 -0.15970624628E+03 -0.43769166775E+02  0.17989322390E+03  0.00000000000E+00 0.  1.
        -13    1    5    5    0    0 -0.32488745093E+03 -0.35954519118E+03 -0.92227538656E+02  0.49328543376E+03  0.00000000000E+00 0. -1.
          4    1    6    6  503    0  0.16686150969E+03  0.19856182826E+02 -0.28623271882E+03  0.33191294150E+03  0.00000000000E+00 0. -1.
         -4    1    6    6    0  503  0.54525388417E+02  0.64938779664E+02 -0.11103218801E+03  0.13970758698E+03  0.00000000000E+00 0.  1.
<mgrwt>
<rscale>  0 0.24210499E+04</rscale>
<asrwt>0</asrwt>
<pdfrwt beam="1">  1        2 0.25618697E+00 0.24210499E+04</pdfrwt>
<pdfrwt beam="2">  1       -1 0.13538287E+00 0.24210499E+04</pdfrwt>
<totfact> 0.47933544E+00</totfact>
</mgrwt>
</event>
<event>
12    7  0.2466188E-007  0.4114686E+04  0.7818608E-02  0.7981802E-01
          4   -1    0    0  501    0  0.00000000000E+00  0.00000000000E+00  0.13424992286E+04  0.13424992286E+04  0.00000000000E+00 0. -1.
         -3   -1    0    0    0  501 -0.00000000000E+00 -0.00000000000E+00 -0.31528212338E+04  0.31528212338E+04  0.00000000000E+00 0.  1.
         24    2    1    2    0    0 -0.16161421916E+04 -0.10168390613E+04 -0.38868749986E+03  0.19502743888E+04  0.81332396557E+02 0.  0.
        254    2    1    2    0    0  0.16161421916E+04  0.10168390613E+04 -0.14216345054E+04  0.25450460736E+04  0.90018753032E+03 0.  0.
         23    2    4    4    0    0  0.65907687311E+03  0.92898050856E+03 -0.83821136428E+03  0.14171048096E+04  0.90557385749E+02 0.  0.
         23    2    4    4    0    0  0.95706531851E+03  0.87858552767E+02 -0.58342314109E+03  0.11279412640E+04  0.90420044152E+02 0.  0.
          2    1    3    3  502    0 -0.69936532565E+03 -0.39274861195E+03 -0.15992906190E+03  0.81788791148E+03  0.00000000000E+00 0. -1.
         -1    1    3    3    0  502 -0.91677686598E+03 -0.62409044938E+03 -0.22875843796E+03  0.11323864773E+04  0.00000000000E+00 0.  1.
         13    1    5    5    0    0  0.10448694322E+03  0.16987753621E+03 -0.10861482778E+03  0.22709707049E+03  0.00000000000E+00 0.  1.
        -13    1    5    5    0    0  0.55458992989E+03  0.75910297236E+03 -0.72959653651E+03  0.11900077391E+04  0.00000000000E+00 0. -1.
          2    1    6    6  503    0  0.56115978371E+03  0.23763762946E+02 -0.29924150203E+03  0.63640434931E+03  0.00000000000E+00 0. -1.
         -2    1    6    6    0  503  0.39590553480E+03  0.64094789820E+02 -0.28418163906E+03  0.49153691474E+03  0.00000000000E+00 0.  1.
<mgrwt>
<rscale>  0 0.41146859E+04</rscale>
<asrwt>0</asrwt>
<pdfrwt beam="1">  1        4 0.20653834E+00 0.41146859E+04</pdfrwt>
<pdfrwt beam="2">  1       -3 0.48504942E+00 0.41146859E+04</pdfrwt>
<totfact> 0.76609690E-04</totfact>
</mgrwt>
</event>
<event>
12    7  0.2466188E-007  0.1595697E+04  0.7818608E-02  0.8823196E-01
          2   -1    0    0  501    0  0.00000000000E+00  0.00000000000E+00  0.27931887698E+03  0.27931887698E+03  0.00000000000E+00 0. -1.
         -1   -1    0    0    0  501 -0.00000000000E+00 -0.00000000000E+00 -0.22789790040E+04  0.22789790040E+04  0.00000000000E+00 0.  1.
         24    2    1    2    0    0  0.40729211205E+03  0.32781089008E+03 -0.46701579609E+03  0.70560098219E+03  0.80138305942E+02 0.  0.
        254    2    1    2    0    0 -0.40729211205E+03 -0.32781089008E+03 -0.15326443310E+04  0.18526968988E+04  0.90007794633E+03 0.  0.
         23    2    4    4    0    0 -0.43574139396E+03  0.14397637653E+03 -0.11383252939E+04  0.12306138600E+04  0.89589275371E+02 0.  0.
         23    2    4    4    0    0  0.28449281915E+02 -0.47178726661E+03 -0.39431903702E+03  0.62208303879E+03  0.90040088925E+02 0.  0.
          4    1    3    3  502    0  0.31924144579E+03  0.22063398607E+03 -0.31505741858E+03  0.49985561268E+03  0.00000000000E+00 0. -1.
         -3    1    3    3    0  502  0.88050666252E+02  0.10717690401E+03 -0.15195837751E+03  0.20574536951E+03  0.00000000000E+00 0.  1.
         13    1    5    5    0    0 -0.37019148647E+03  0.97899138159E+02 -0.99929534062E+03  0.10701481933E+04  0.00000000000E+00 0.  1.
        -13    1    5    5    0    0 -0.65549907489E+02  0.46077238372E+02 -0.13902995331E+03  0.16046566669E+03  0.00000000000E+00 0. -1.
          3    1    6    6  503    0  0.12299786994E+01 -0.26110470358E+01  0.47390037852E+01  0.55487450023E+01  0.00000000000E+00 0. -1.
         -3    1    6    6    0  503  0.27219303216E+02 -0.46917621958E+03 -0.39905804081E+03  0.61653429379E+03  0.00000000000E+00 0.  1.
<mgrwt>
<rscale>  0 0.15956965E+04</rscale>
<asrwt>0</asrwt>
<pdfrwt beam="1">  1        2 0.42972136E-01 0.15956965E+04</pdfrwt>
<pdfrwt beam="2">  1       -1 0.35061215E+00 0.15956965E+04</pdfrwt>
<totfact> 0.20184930E+00</totfact>
</mgrwt>
</event>
<event>
12    7  0.2466188E-007  0.1621681E+04  0.7818608E-02  0.8807338E-01
          2   -1    0    0  501    0  0.00000000000E+00  0.00000000000E+00  0.22519750901E+04  0.22519750901E+04  0.00000000000E+00 0. -1.
         -1   -1    0    0    0  501 -0.00000000000E+00 -0.00000000000E+00 -0.29194927013E+03  0.29194927013E+03  0.00000000000E+00 0.  1.
         24    2    1    2    0    0 -0.48372075373E+03  0.27478905248E+03  0.73140925393E+03  0.92251392498E+03  0.81102737954E+02 0.  0.
        254    2    1    2    0    0  0.48372075373E+03 -0.27478905248E+03  0.12286165661E+04  0.16214104353E+04  0.89998796786E+03 0.  0.
         23    2    4    4    0    0 -0.21018019077E+03  0.72480484346E+01  0.58987946104E+03  0.63307254093E+03  0.92708234363E+02 0.  0.
         23    2    4    4    0    0  0.69390094449E+03 -0.28203710091E+03  0.63873710503E+03  0.98833789436E+03  0.88222769340E+02 0.  0.
          2    1    3    3  502    0 -0.68080177523E+02  0.55773643213E+02  0.77099092297E+02  0.11700376012E+03  0.00000000000E+00 0. -1.
         -1    1    3    3    0  502 -0.41564057620E+03  0.21901540926E+03  0.65431016163E+03  0.80551016486E+03  0.00000000000E+00 0.  1.
         13    1    5    5    0    0 -0.30565500078E+02 -0.49436169394E+01  0.21486736956E+03  0.21708679288E+03  0.00000000000E+00 0. -1.
        -13    1    5    5    0    0 -0.17961469069E+03  0.12191665374E+02  0.37501209149E+03  0.41598574805E+03  0.00000000000E+00 0.  1.
          3    1    6    6  503    0  0.52757580216E+03 -0.22852027244E+03  0.44192406386E+03  0.72515834144E+03  0.00000000000E+00 0. -1.
         -3    1    6    6    0  503  0.16632514233E+03 -0.53516828471E+02  0.19681304117E+03  0.26317955292E+03  0.00000000000E+00 0.  1.
<mgrwt>
<rscale>  0 0.16216812E+04</rscale>
<asrwt>0</asrwt>
<pdfrwt beam="1">  1        2 0.34645770E+00 0.16216812E+04</pdfrwt>
<pdfrwt beam="2">  1       -1 0.44915274E-01 0.16216812E+04</pdfrwt>
<totfact> 0.25886928E+01</totfact>
</mgrwt>
</event>
<event>
12    7  0.2466188E-007  0.2600152E+04  0.7818608E-02  0.8368149E-01
          2   -1    0    0  501    0  0.00000000000E+00  0.00000000000E+00  0.28985547032E+04  0.28985547032E+04  0.00000000000E+00 0. -1.
         -3   -1    0    0    0  501 -0.00000000000E+00 -0.00000000000E+00 -0.58311758584E+03  0.58311758584E+03  0.00000000000E+00 0.  1.
         24    2    1    2    0    0  0.90178533879E+03 -0.69912206110E+03  0.95127429344E+03  0.14878010114E+04  0.81489965343E+02 0.  0.
        254    2    1    2    0    0 -0.90178533879E+03  0.69912206110E+03  0.13641628239E+04  0.19938712777E+04  0.90143996374E+03 0.  0.
         23    2    4    4    0    0  0.10233994922E+03  0.20417785056E+03  0.22501902436E+02  0.24410227774E+03  0.83171668983E+02 0.  0.
         23    2    4    4    0    0 -0.10041252880E+04  0.49494421054E+03  0.13416609214E+04  0.17497689999E+04  0.91652383171E+02 0.  0.
          4    1    3    3  502    0  0.61153450256E+03 -0.47077494168E+03  0.69203107131E+03  0.10365859816E+04  0.00000000000E+00 0. -1.
         -3    1    3    3    0  502  0.29025083623E+03 -0.22834711942E+03  0.25924322213E+03  0.45121502978E+03  0.00000000000E+00 0.  1.
         13    1    5    5    0    0  0.34921858064E+02  0.15643789174E+03  0.10580236402E+02  0.16063714248E+03  0.00000000000E+00 0.  1.
        -13    1    5    5    0    0  0.67418091159E+02  0.47739958821E+02  0.11921666034E+02  0.83465135265E+02  0.00000000000E+00 0. -1.
          4    1    6    6  503    0 -0.41316804860E+03  0.20733632137E+03  0.48466616462E+03  0.66977419902E+03  0.00000000000E+00 0. -1.
         -4    1    6    6    0  503 -0.59095723941E+03  0.28760788917E+03  0.85699475683E+03  0.10799948009E+04  0.00000000000E+00 0.  1.
<mgrwt>
<rscale>  0 0.26001525E+04</rscale>
<asrwt>0</asrwt>
<pdfrwt beam="1">  1        2 0.44593149E+00 0.26001525E+04</pdfrwt>
<pdfrwt beam="2">  1       -3 0.89710399E-01 0.26001525E+04</pdfrwt>
<totfact> 0.12810849E+00</totfact>
</mgrwt>
</event>
<event>
12    7  0.2466188E-007  0.1349383E+04  0.7818608E-02  0.8991295E-01
          2   -1    0    0  501    0  0.00000000000E+00  0.00000000000E+00  0.66907023598E+03  0.66907023598E+03  0.00000000000E+00 0. -1.
         -1   -1    0    0    0  501 -0.00000000000E+00 -0.00000000000E+00 -0.68036004894E+03  0.68036004894E+03  0.00000000000E+00 0.  1.
         24    2    1    2    0    0 -0.27828909725E+03  0.20948842846E+03 -0.12215884422E+03  0.37733321030E+03  0.78277359837E+02 0.  0.
        254    2    1    2    0    0  0.27828909725E+03 -0.20948842846E+03  0.11086903126E+03  0.97209707463E+03  0.90074999700E+03 0.  0.
         23    2    4    4    0    0 -0.20048878219E+03 -0.38750452640E+03  0.27516631137E+02  0.44658850828E+03  0.91261278617E+02 0.  0.
         23    2    4    4    0    0  0.47877787945E+03  0.17801609794E+03  0.83352400124E+02  0.52550856635E+03  0.91069433538E+02 0.  0.
          2    1    3    3  502    0 -0.19030865225E+03  0.15136552852E+03 -0.46546163457E+02  0.24757918264E+03  0.00000000000E+00 0. -1.
         -1    1    3    3    0  502 -0.87980445001E+02  0.58122899945E+02 -0.75612680764E+02  0.12975402766E+03  0.00000000000E+00 0.  1.
         13    1    5    5    0    0 -0.11687100560E+03 -0.30956339594E+03  0.30037866064E+02  0.33225081106E+03  0.00000000000E+00 0. -1.
        -13    1    5    5    0    0 -0.83617776591E+02 -0.77941130466E+02 -0.25212349267E+01  0.11433769722E+03  0.00000000000E+00 0.  1.
          2    1    6    6  503    0  0.34165181697E+03  0.14781359715E+03  0.96268874855E+02  0.38450295162E+03  0.00000000000E+00 0. -1.
         -2    1    6    6    0  503  0.13712606248E+03  0.30202500791E+02 -0.12916474731E+02  0.14100561472E+03  0.00000000000E+00 0.  1.
<mgrwt>
<rscale>  0 0.13493831E+04</rscale>
<asrwt>0</asrwt>
<pdfrwt beam="1">  1        2 0.10293388E+00 0.13493831E+04</pdfrwt>
<pdfrwt beam="2">  1       -1 0.10467078E+00 0.13493831E+04</pdfrwt>
<totfact> 0.41528211E+01</totfact>
</mgrwt>
</event>
<event>
12    7  0.2466188E-007  0.1969058E+04  0.7818608E-02  0.8621225E-01
         -1   -1    0    0    0  501 -0.00000000000E+00  0.00000000000E+00  0.15377903388E+04  0.15377903388E+04  0.00000000000E+00 0.  1.
          2   -1    0    0  501    0  0.00000000000E+00 -0.00000000000E+00 -0.63031833929E+03  0.63031833929E+03  0.00000000000E+00 0. -1.
         24    2    1    2    0    0 -0.56145192565E+02  0.65158295765E+02  0.12096399199E+04  0.12154155177E+04  0.81291196887E+02 0.  0.
        254    2    1    2    0    0  0.56145192565E+02 -0.65158295765E+02 -0.30216792038E+03  0.95269316040E+03  0.89940031110E+03 0.  0.
         23    2    4    4    0    0 -0.18770479053E+03 -0.31925321858E+03 -0.42276903566E+03  0.56953021060E+03  0.92061377894E+02 0.  0.
         23    2    4    4    0    0  0.24384998310E+03  0.25409492282E+03  0.12060111529E+03  0.38316294980E+03  0.90786414358E+02 0.  0.
          4    1    3    3  502    0  0.46718368550E+01  0.15138892666E+01  0.34126743063E+01  0.59803232549E+01  0.00000000000E+00 0. -1.
         -3    1    3    3    0  502 -0.60817029420E+02  0.63644406498E+02  0.12062272456E+04  0.12094351945E+04  0.00000000000E+00 0.  1.
         13    1    5    5    0    0 -0.16254408257E+03 -0.29353165886E+03 -0.33258981097E+03  0.47243771642E+03  0.00000000000E+00 0. -1.
        -13    1    5    5    0    0 -0.25160707963E+02 -0.25721559725E+02 -0.90179224689E+02  0.97092494177E+02  0.00000000000E+00 0.  1.
          4    1    6    6  503    0  0.13284128049E+03  0.20011414590E+03  0.76412515755E+02  0.25205425955E+03  0.00000000000E+00 0. -1.
         -4    1    6    6    0  503  0.11100870261E+03  0.53980776920E+02  0.44188599532E+02  0.13110869025E+03  0.00000000000E+00 0.  1.
<mgrwt>
<rscale>  0 0.19690581E+04</rscale>
<asrwt>0</asrwt>
<pdfrwt beam="1">  1        2 0.96972052E-01 0.19690581E+04</pdfrwt>
<pdfrwt beam="2">  1       -1 0.23658313E+00 0.19690581E+04</pdfrwt>
<totfact> 0.42405539E+00</totfact>
</mgrwt>
</event>
<event>
12    7  0.2466188E-007  0.1978843E+04  0.7818608E-02  0.8616577E-01
         -3   -1    0    0    0  501 -0.00000000000E+00  0.00000000000E+00  0.20666769469E+04  0.20666769469E+04  0.00000000000E+00 0.  1.
          4   -1    0    0  501    0  0.00000000000E+00 -0.00000000000E+00 -0.47368545620E+03  0.47368545620E+03  0.00000000000E+00 0. -1.
         24    2    1    2    0    0 -0.23000432301E+03 -0.56039269834E+03 -0.16187145596E+01  0.61098397500E+03  0.79729746725E+02 0.  0.
        254    2    1    2    0    0  0.23000432301E+03  0.56039269834E+03  0.15946102052E+04  0.19293784281E+04  0.90154170570E+03 0.  0.
         23    2    4    4    0    0 -0.65718128332E+02  0.16242416928E+03 -0.54191838509E+02  0.20531632352E+03  0.92290596406E+02 0.  0.
         23    2    4    4    0    0  0.29572245135E+03  0.39796852905E+03  0.16488020437E+04  0.17240621045E+04  0.89505544806E+02 0.  0.
          2    1    3    3  502    0 -0.65556912618E+02 -0.26307490025E+03  0.46593893640E+01  0.27116014059E+03  0.00000000000E+00 0. -1.
         -1    1    3    3    0  502 -0.16444741040E+03 -0.29731779808E+03 -0.62781039235E+01  0.33982383441E+03  0.00000000000E+00 0.  1.
         13    1    5    5    0    0 -0.76456026197E+02  0.12701002703E+03 -0.11314603243E+02  0.14867780989E+03  0.00000000000E+00 0. -1.
        -13    1    5    5    0    0  0.10737897865E+02  0.35414142251E+02 -0.42877235266E+02  0.56638513628E+02  0.00000000000E+00 0.  1.
          2    1    6    6  503    0  0.70462270674E+02  0.51393294099E+02  0.36890504795E+03  0.37907405170E+03  0.00000000000E+00 0. -1.
         -2    1    6    6    0  503  0.22526018067E+03  0.34657523496E+03  0.12798969958E+04  0.13449880528E+04  0.00000000000E+00 0.  1.
<mgrwt>
<rscale>  0 0.19788429E+04</rscale>
<asrwt>0</asrwt>
<pdfrwt beam="1">  1        4 0.72874687E-01 0.19788429E+04</pdfrwt>
<pdfrwt beam="2">  1       -3 0.31795029E+00 0.19788429E+04</pdfrwt>
<totfact> 0.11027226E-01</totfact>
</mgrwt>
</event>
<event>
12    7  0.2466188E-007  0.4028828E+04  0.7818608E-02  0.7998756E-01
         -1   -1    0    0    0  501 -0.00000000000E+00  0.00000000000E+00  0.23903510675E+04  0.23903510675E+04  0.00000000000E+00 0.  1.
          2   -1    0    0  501    0  0.00000000000E+00 -0.00000000000E+00 -0.16976012447E+04  0.16976012447E+04  0.00000000000E+00 0. -1.
         24    2    1    2    0    0 -0.37704508095E+03 -0.14133825919E+04 -0.92161110134E+03  0.17307856363E+04  0.80240591931E+02 0.  0.
        254    2    1    2    0    0  0.37704508095E+03  0.14133825919E+04  0.16143609242E+04  0.23571666760E+04  0.90014454434E+03 0.  0.
         23    2    4    4    0    0  0.64228861731E+03  0.10622509603E+04  0.13467467261E+04  0.18339280107E+04  0.93023833697E+02 0.  0.
         23    2    4    4    0    0 -0.26524353636E+03  0.35113163158E+03  0.26761419810E+03  0.52323866528E+03  0.92270176866E+02 0.  0.
          4    1    3    3  502    0 -0.28890582109E+03 -0.94464889968E+03 -0.63555318970E+03  0.11746301435E+04  0.00000000000E+00 0. -1.
         -3    1    3    3    0  502 -0.88139259863E+02 -0.46873369222E+03 -0.28605791164E+03  0.55615549280E+03  0.00000000000E+00 0.  1.
         13    1    5    5    0    0  0.39841574677E+01  0.20876554320E+02  0.39491938536E+02  0.44847711652E+02  0.00000000000E+00 0.  1.
        -13    1    5    5    0    0  0.63830445984E+03  0.10413744060E+04  0.13072547875E+04  0.17890802990E+04  0.00000000000E+00 0. -1.
          4    1    6    6  503    0 -0.17973870405E+03  0.30037678879E+03  0.20287787961E+03  0.40458824873E+03  0.00000000000E+00 0. -1.
         -4    1    6    6    0  503 -0.85504832304E+02  0.50754842792E+02  0.64736318487E+02  0.11865041654E+03  0.00000000000E+00 0.  1.
<mgrwt>
<rscale>  0 0.40288276E+04</rscale>
<asrwt>0</asrwt>
<pdfrwt beam="1">  1        2 0.26116942E+00 0.40288276E+04</pdfrwt>
<pdfrwt beam="2">  1       -1 0.36774632E+00 0.40288276E+04</pdfrwt>
<totfact> 0.10423786E-01</totfact>
</mgrwt>
</event>
<event>
12    7  0.2466188E-007  0.3415620E+04  0.7818608E-02  0.8134083E-01
         -1   -1    0    0    0  501 -0.00000000000E+00  0.00000000000E+00  0.21241032640E+04  0.21241032640E+04  0.00000000000E+00 0.  1.
          2   -1    0    0  501    0  0.00000000000E+00 -0.00000000000E+00 -0.13731044941E+04  0.13731044941E+04  0.00000000000E+00 0. -1.
         24    2    1    2    0    0  0.77585973125E+03 -0.60865267649E+03  0.16241433469E+04  0.19017662374E+04  0.80354258909E+02 0.  0.
        254    2    1    2    0    0 -0.77585973125E+03  0.60865267649E+03 -0.87314457698E+03  0.15954415208E+04  0.90035314777E+03 0.  0.
         23    2    4    4    0    0  0.96098840123E+02 -0.12794397532E+03 -0.70386358815E+02  0.19700838815E+03  0.90848321929E+02 0.  0.
         23    2    4    4    0    0 -0.87195857137E+03  0.73659665181E+03 -0.80275821816E+03  0.13984331326E+04  0.91148735171E+02 0.  0.
          4    1    3    3  502    0  0.28315821252E+03 -0.17860381041E+03  0.51851774208E+03  0.61720218993E+03  0.00000000000E+00 0. -1.
         -3    1    3    3    0  502  0.49270151873E+03 -0.43004886607E+03  0.11056256049E+04  0.12845640474E+04  0.00000000000E+00 0.  1.
         13    1    5    5    0    0  0.43895769538E+02 -0.57894265213E+02  0.15730329138E+02  0.74337257029E+02  0.00000000000E+00 0.  1.
        -13    1    5    5    0    0  0.52203070586E+02 -0.70049710112E+02 -0.86116687953E+02  0.12267113112E+03  0.00000000000E+00 0. -1.
          1    1    6    6  503    0 -0.74602732050E+03  0.66370965688E+03 -0.68025888602E+03  0.12082298720E+04  0.00000000000E+00 0. -1.
         -1    1    6    6    0  503 -0.12593125088E+03  0.72886994932E+02 -0.12249933214E+03  0.19020326063E+03  0.00000000000E+00 0.  1.
<mgrwt>
<rscale>  0 0.34156204E+04</rscale>
<asrwt>0</asrwt>
<pdfrwt beam="1">  1        2 0.21124685E+00 0.34156204E+04</pdfrwt>
<pdfrwt beam="2">  1       -1 0.32678512E+00 0.34156204E+04</pdfrwt>
<totfact> 0.31212258E-01</totfact>
</mgrwt>
</event>
<event>
12    7  0.2466188E-007  0.3519020E+04  0.7818608E-02  0.8109297E-01
          2   -1    0    0  501    0  0.00000000000E+00  0.00000000000E+00  0.21057593307E+04  0.21057593307E+04  0.00000000000E+00 0. -1.
         -1   -1    0    0    0  501 -0.00000000000E+00 -0.00000000000E+00 -0.14701943833E+04  0.14701943833E+04  0.00000000000E+00 0.  1.
         24    2    1    2    0    0  0.81147969057E+03 -0.15927252156E+02 -0.11552953651E+04  0.14141264481E+04  0.79330100753E+02 0.  0.
        254    2    1    2    0    0 -0.81147969057E+03  0.15927252156E+02  0.17908603125E+04  0.21618272660E+04  0.89864537136E+03 0.  0.
         23    2    4    4    0    0 -0.93582331477E+03  0.18059399824E+03  0.12421006493E+04  0.15684956904E+04  0.94790502349E+02 0.  0.
         23    2    4    4    0    0  0.12434362420E+03 -0.16466674608E+03  0.54875966321E+03  0.59333157552E+03  0.91261801440E+02 0.  0.
          4    1    3    3  502    0  0.64930899400E+03 -0.31405656357E+02 -0.87703675795E+03  0.10916876658E+04  0.00000000000E+00 0. -1.
         -3    1    3    3    0  502  0.16217069657E+03  0.15478404201E+02 -0.27825860718E+03  0.32243878224E+03  0.00000000000E+00 0.  1.
         13    1    5    5    0    0 -0.89251773063E+03  0.15766501151E+03  0.12005504509E+04  0.15042498265E+04  0.00000000000E+00 0. -1.
        -13    1    5    5    0    0 -0.43305584146E+02  0.22928986725E+02  0.41550198397E+02  0.64245863970E+02  0.00000000000E+00 0.  1.
          4    1    6    6  503    0  0.82959584571E+01 -0.14450283088E+02  0.15831894424E+03  0.15919334695E+03  0.00000000000E+00 0.  1.
         -4    1    6    6    0  503  0.11604766574E+03 -0.15021646299E+03  0.39044071897E+03  0.43413822857E+03  0.00000000000E+00 0. -1.
<mgrwt>
<rscale>  0 0.35190201E+04</rscale>
<asrwt>0</asrwt>
<pdfrwt beam="1">  1        2 0.32396297E+00 0.35190201E+04</pdfrwt>
<pdfrwt beam="2">  1       -1 0.22618375E+00 0.35190201E+04</pdfrwt>
<totfact> 0.54456693E-01</totfact>
</mgrwt>
</event>
<event>
12    7  0.2466188E-007  0.1608436E+04  0.7818608E-02  0.8815382E-01
         -1   -1    0    0    0  501 -0.00000000000E+00  0.00000000000E+00  0.10995554821E+04  0.10995554821E+04  0.00000000000E+00 0.  1.
          2   -1    0    0  501    0  0.00000000000E+00 -0.00000000000E+00 -0.58820735629E+03  0.58820735629E+03  0.00000000000E+00 0. -1.
         24    2    1    2    0    0 -0.30811586509E+03  0.44618440877E+03  0.26532010606E+03  0.60881189112E+03  0.79001564178E+02 0.  0.
        254    2    1    2    0    0  0.30811586509E+03 -0.44618440877E+03  0.24602801973E+03  0.10789509472E+04  0.89977188616E+03 0.  0.
         23    2    4    4    0    0  0.28089488495E+03 -0.69692036082E+03  0.28327868626E+03  0.80870580738E+03  0.95699232345E+02 0.  0.
         23    2    4    4    0    0  0.27220980139E+02  0.25073595205E+03 -0.37250666528E+02  0.27024513987E+03  0.89639969080E+02 0.  0.
          4    1    3    3  502    0 -0.75470781230E+02  0.95122148244E+02  0.25184709197E+02  0.12400940079E+03  0.00000000000E+00 0. -1.
         -3    1    3    3    0  502 -0.23264508386E+03  0.35106226053E+03  0.24013539686E+03  0.48480249034E+03  0.00000000000E+00 0.  1.
         13    1    5    5    0    0  0.95560529430E+01 -0.78378955403E+02  0.81405398426E+01  0.79377875928E+02  0.00000000000E+00 0. -1.
        -13    1    5    5    0    0  0.27133883201E+03 -0.61854140542E+03  0.27513814642E+03  0.72932793145E+03  0.00000000000E+00 0.  1.
          3    1    6    6  503    0 -0.87484392643E+01  0.12604617967E+03  0.20850652566E+02  0.12805828482E+03  0.00000000000E+00 0. -1.
         -3    1    6    6    0  503  0.35969419404E+02  0.12468977239E+03 -0.58101319094E+02  0.14218685505E+03  0.00000000000E+00 0.  1.
<mgrwt>
<rscale>  0 0.16084360E+04</rscale>
<asrwt>0</asrwt>
<pdfrwt beam="1">  1        2 0.90493440E-01 0.16084360E+04</pdfrwt>
<pdfrwt beam="2">  1       -1 0.16916238E+00 0.16084360E+04</pdfrwt>
<totfact> 0.13882409E+01</totfact>
</mgrwt>
</event>
<event>
12    7  0.2466188E-007  0.2989217E+04  0.7818608E-02  0.8246817E-01
          2   -1    0    0  501    0  0.00000000000E+00  0.00000000000E+00  0.30671890624E+04  0.30671890624E+04  0.00000000000E+00 0. -1.
         -1   -1    0    0    0  501 -0.00000000000E+00 -0.00000000000E+00 -0.72830663816E+03  0.72830663816E+03  0.00000000000E+00 0.  1.
         24    2    1    2    0    0  0.58577779260E+03  0.55442620030E+03 -0.32250285897E+03  0.87225940826E+03  0.79399920446E+02 0.  0.
        254    2    1    2    0    0 -0.58577779260E+03 -0.55442620030E+03  0.26613852832E+04  0.29232362923E+04  0.90100763650E+03 0.  0.
         23    2    4    4    0    0  0.20073034992E+03 -0.30998019585E+03  0.82764356274E+03  0.91089612657E+03  0.91419315538E+02 0.  0.
         23    2    4    4    0    0 -0.78650814253E+03 -0.24444600445E+03  0.18337417205E+04  0.20123401657E+04  0.92495069358E+02 0.  0.
          2    1    3    3  502    0  0.33068589668E+03  0.33834093715E+03 -0.15162477948E+03  0.49680763457E+03  0.00000000000E+00 0. -1.
         -1    1    3    3    0  502  0.25509189593E+03  0.21608526315E+03 -0.17087807949E+03  0.37545177369E+03  0.00000000000E+00 0.  1.
         13    1    5    5    0    0  0.15032885780E+03 -0.23939858181E+03  0.52746637358E+03  0.59844065847E+03  0.00000000000E+00 0. -1.
        -13    1    5    5    0    0  0.50401492123E+02 -0.70581614043E+02  0.30017718917E+03  0.31245546810E+03  0.00000000000E+00 0.  1.
          3    1    6    6  503    0 -0.39219875920E+03 -0.11198004093E+03  0.10178771465E+04  0.10965551886E+04  0.00000000000E+00 0. -1.
         -3    1    6    6    0  503 -0.39430938332E+03 -0.13246596351E+03  0.81586457400E+03  0.91578497715E+03  0.00000000000E+00 0.  1.
<mgrwt>
<rscale>  0 0.29892167E+04</rscale>
<asrwt>0</asrwt>
<pdfrwt beam="1">  1        2 0.47187523E+00 0.29892167E+04</pdfrwt>
<pdfrwt beam="2">  1       -1 0.11204718E+00 0.29892167E+04</pdfrwt>
<totfact> 0.11221502E+00</totfact>
</mgrwt>
</event>
<event>
12    7  0.2466188E-007  0.1633487E+04  0.7818608E-02  0.8800236E-01
         -1   -1    0    0    0  501 -0.00000000000E+00  0.00000000000E+00  0.16999218268E+04  0.16999218268E+04  0.00000000000E+00 0.  1.
          2   -1    0    0  501    0  0.00000000000E+00 -0.00000000000E+00 -0.39241196283E+03  0.39241196283E+03  0.00000000000E+00 0. -1.
         24    2    1    2    0    0  0.52980253358E+03  0.13501729157E+03  0.63953295163E+03  0.84508398112E+03  0.79019904606E+02 0.  0.
        254    2    1    2    0    0 -0.52980253358E+03 -0.13501729157E+03  0.66797691229E+03  0.12472498085E+04  0.90028802933E+03 0.  0.
         23    2    4    4    0    0 -0.28173962026E+03  0.26630386137E+03 -0.30718943597E+02  0.39919594439E+03  0.90104319057E+02 0.  0.
         23    2    4    4    0    0 -0.24806291331E+03 -0.40132115294E+03  0.69869585589E+03  0.84805386408E+03  0.91790961320E+02 0.  0.
          4    1    3    3  502    0  0.18520743970E+03  0.84179702358E+02  0.25579843597E+03  0.32683460321E+03  0.00000000000E+00 0. -1.
         -3    1    3    3    0  502  0.34459509388E+03  0.50837589209E+02  0.38373451566E+03  0.51824937791E+03  0.00000000000E+00 0.  1.
         13    1    5    5    0    0 -0.25812763276E+03  0.23721811980E+03  0.27382270449E+00  0.35057436605E+03  0.00000000000E+00 0.  1.
        -13    1    5    5    0    0 -0.23611987501E+02  0.29085741579E+02 -0.30992766301E+02  0.48621578336E+02  0.00000000000E+00 0. -1.
          1    1    6    6  503    0 -0.17653517769E+03 -0.20056593242E+03  0.40437905912E+03  0.48467905428E+03  0.00000000000E+00 0. -1.
         -1    1    6    6    0  503 -0.71527735628E+02 -0.20075522053E+03  0.29431679677E+03  0.36337480980E+03  0.00000000000E+00 0.  1.
<mgrwt>
<rscale>  0 0.16334867E+04</rscale>
<asrwt>0</asrwt>
<pdfrwt beam="1">  1        2 0.60371072E-01 0.16334867E+04</pdfrwt>
<pdfrwt beam="2">  1       -1 0.26152643E+00 0.16334867E+04</pdfrwt>
<totfact> 0.52167685E+00</totfact>
</mgrwt>
</event>
<event>
12    7  0.2466188E-007  0.2124815E+04  0.7818608E-02  0.8550390E-01
         -1   -1    0    0    0  501 -0.00000000000E+00  0.00000000000E+00  0.76464768730E+03  0.76464768730E+03  0.00000000000E+00 0.  1.
          2   -1    0    0  501    0  0.00000000000E+00 -0.00000000000E+00 -0.14761168559E+04  0.14761168559E+04  0.00000000000E+00 0. -1.
         24    2    1    2    0    0  0.66671926627E+03 -0.45742973209E+03 -0.63263725352E+03  0.10296949518E+04  0.79279627639E+02 0.  0.
        254    2    1    2    0    0 -0.66671926627E+03  0.45742973209E+03 -0.78831915060E+02  0.12110695914E+04  0.89817511912E+03 0.  0.
         23    2    4    4    0    0 -0.68684569538E+03  0.14047528708E+03 -0.34483491595E+03  0.78666698453E+03  0.91888572457E+02 0.  0.
         23    2    4    4    0    0  0.20126429115E+02  0.31695444501E+03  0.26600300089E+03  0.42440260688E+03  0.92167146445E+02 0.  0.
          4    1    3    3  502    0  0.17542289370E+03 -0.80494758898E+02 -0.14104883092E+03  0.23905516215E+03  0.00000000000E+00 0. -1.
         -3    1    3    3    0  502  0.49129637257E+03 -0.37693497319E+03 -0.49158842260E+03  0.79063978963E+03  0.00000000000E+00 0.  1.
         13    1    5    5    0    0 -0.12601925687E+03  0.13751391545E+02 -0.26674050875E+02  0.12954327023E+03  0.00000000000E+00 0. -1.
        -13    1    5    5    0    0 -0.56082643851E+03  0.12672389553E+03 -0.31816086507E+03  0.65712371430E+03  0.00000000000E+00 0.  1.
          3    1    6    6  503    0  0.16283069941E+02  0.15929781888E+03  0.75328316268E+02  0.17696126327E+03  0.00000000000E+00 0. -1.
         -3    1    6    6    0  503  0.38433591741E+01  0.15765662614E+03  0.19067468462E+03  0.24744134361E+03  0.00000000000E+00 0.  1.
<mgrwt>
<rscale>  0 0.21248147E+04</rscale>
<asrwt>0</asrwt>
<pdfrwt beam="1">  1        2 0.22709490E+00 0.21248147E+04</pdfrwt>
<pdfrwt beam="2">  1       -1 0.11763811E+00 0.21248147E+04</pdfrwt>
<totfact> 0.89174296E+00</totfact>
</mgrwt>
</event>
<event>
12    7  0.2466188E-007  0.2144972E+04  0.7818608E-02  0.8541688E-01
          2   -1    0    0  501    0  0.00000000000E+00  0.00000000000E+00  0.10059128339E+04  0.10059128339E+04  0.00000000000E+00 0. -1.
         -1   -1    0    0    0  501 -0.00000000000E+00 -0.00000000000E+00 -0.11434650108E+04  0.11434650108E+04  0.00000000000E+00 0.  1.
         24    2    1    2    0    0 -0.27574375017E+03  0.57306304726E+03 -0.67071854821E+03  0.92780514877E+03  0.80766027999E+02 0.  0.
        254    2    1    2    0    0  0.27574375017E+03 -0.57306304726E+03  0.53316637128E+03  0.12215726960E+04  0.89640258823E+03 0.  0.
         23    2    4    4    0    0 -0.10077195142E+03  0.19041079882E+03  0.17889098923E+03  0.29478153541E+03  0.92102709473E+02 0.  0.
         23    2    4    4    0    0  0.37651570159E+03 -0.76347384608E+03  0.35427538205E+03  0.92679116056E+03  0.93671883579E+02 0.  0.
          2    1    3    3  502    0 -0.71926802852E+02  0.99136080042E+02 -0.96925088586E+02  0.15619186961E+03  0.00000000000E+00 0. -1.
         -1    1    3    3    0  502 -0.20381694732E+03  0.47392696722E+03 -0.57379345962E+03  0.77161327916E+03  0.00000000000E+00 0.  1.
         13    1    5    5    0    0 -0.11375225109E+03  0.18230608892E+03  0.17869698703E+03  0.27947754446E+03  0.00000000000E+00 0. -1.
        -13    1    5    5    0    0  0.12980299674E+02  0.81047099050E+01  0.19400220336E+00  0.15303990954E+02  0.00000000000E+00 0.  1.
          1    1    6    6  503    0  0.23935851126E+03 -0.39794094566E+03  0.22067381138E+03  0.51414630619E+03  0.00000000000E+00 0. -1.
         -1    1    6    6    0  503  0.13715719033E+03 -0.36553290042E+03  0.13360157068E+03  0.41264485437E+03  0.00000000000E+00 0.  1.
<mgrwt>
<rscale>  0 0.21449719E+04</rscale>
<asrwt>0</asrwt>
<pdfrwt beam="1">  1        2 0.15475582E+00 0.21449719E+04</pdfrwt>
<pdfrwt beam="2">  1       -1 0.17591769E+00 0.21449719E+04</pdfrwt>
<totfact> 0.58240476E+00</totfact>
</mgrwt>
</event>
<event>
12    7  0.2466188E-007  0.1865044E+04  0.7818608E-02  0.8672455E-01
         -1   -1    0    0    0  501 -0.00000000000E+00  0.00000000000E+00  0.66670885474E+03  0.66670885474E+03  0.00000000000E+00 0.  1.
          2   -1    0    0  501    0  0.00000000000E+00 -0.00000000000E+00 -0.13043134026E+04  0.13043134026E+04  0.00000000000E+00 0. -1.
         24    2    1    2    0    0 -0.17228137318E+03  0.17810744266E+03  0.46137630022E+03  0.52979654368E+03  0.80082174089E+02 0.  0.
        254    2    1    2    0    0  0.17228137318E+03 -0.17810744266E+03 -0.10989808481E+04  0.14412257137E+04  0.89887124806E+03 0.  0.
         23    2    4    4    0    0  0.50733591269E+03 -0.53240133933E+01 -0.79368883417E+03  0.94648520762E+03  0.92055468799E+02 0.  0.
         23    2    4    4    0    0 -0.33505453951E+03 -0.17278342927E+03 -0.30529201393E+03  0.49474050606E+03  0.97207492955E+02 0.  0.
          2    1    3    3  502    0 -0.98438678636E+02  0.15389008502E+03  0.32683190320E+03  0.37442145327E+03  0.00000000000E+00 0. -1.
         -1    1    3    3    0  502 -0.73842694546E+02  0.24217357646E+02  0.13454439702E+03  0.15537509041E+03  0.00000000000E+00 0.  1.
         13    1    5    5    0    0  0.39718834949E+03 -0.17687214410E+02 -0.68004766341E+03  0.78774123101E+03  0.00000000000E+00 0. -1.
        -13    1    5    5    0    0  0.11014756320E+03  0.12363201016E+02 -0.11364117076E+03  0.15874397661E+03  0.00000000000E+00 0.  1.
          3    1    6    6  503    0 -0.17009482712E+03 -0.12771934560E+03 -0.12719066803E+03  0.24783451633E+03  0.00000000000E+00 0. -1.
         -3    1    6    6    0  503 -0.16495971239E+03 -0.45064083675E+02 -0.17810134590E+03  0.24690598973E+03  0.00000000000E+00 0.  1.
<mgrwt>
<rscale>  0 0.18650440E+04</rscale>
<asrwt>0</asrwt>
<pdfrwt beam="1">  1        2 0.20066360E+00 0.18650440E+04</pdfrwt>
<pdfrwt beam="2">  1       -1 0.10257059E+00 0.18650440E+04</pdfrwt>
<totfact> 0.15819539E+01</totfact>
</mgrwt>
</event>
<event>
12    7  0.2466188E-007  0.3078009E+04  0.7818608E-02  0.8221799E-01
         -1   -1    0    0    0  501 -0.00000000000E+00  0.00000000000E+00  0.91670621486E+03  0.91670621486E+03  0.00000000000E+00 0.  1.
          2   -1    0    0  501    0  0.00000000000E+00 -0.00000000000E+00 -0.25837452623E+04  0.25837452623E+04  0.00000000000E+00 0. -1.
         24    2    1    2    0    0 -0.62609656222E+03 -0.12480552974E+04 -0.95018573157E+03  0.16908123786E+04  0.79716024771E+02 0.  0.
        254    2    1    2    0    0  0.62609656222E+03  0.12480552974E+04 -0.71685331590E+03  0.18096390986E+04  0.90070864324E+03 0.  0.
         23    2    4    4    0    0  0.49184148219E+03  0.49082910927E+03  0.71414177775E+02  0.70462984546E+03  0.92638956227E+02 0.  0.
         23    2    4    4    0    0  0.13425508004E+03  0.75722618813E+03 -0.78826749368E+03  0.11050092531E+04  0.90905893107E+02 0.  0.
          4    1    3    3  502    0 -0.15999103803E+03 -0.39031174424E+03 -0.30825896676E+03  0.52245954918E+03  0.00000000000E+00 0. -1.
         -3    1    3    3    0  502 -0.46610552419E+03 -0.85774355316E+03 -0.64192676481E+03  0.11683528294E+04  0.00000000000E+00 0.  1.
         13    1    5    5    0    0  0.80370644237E+02  0.40249071225E+02 -0.28985137089E+01  0.89932361090E+02  0.00000000000E+00 0. -1.
        -13    1    5    5    0    0  0.41147083795E+03  0.45058003805E+03  0.74312691484E+02  0.61469748437E+03  0.00000000000E+00 0.  1.
          2    1    6    6  503    0 -0.20932024565E+01  0.21465817865E+03 -0.23211076726E+03  0.31616123013E+03  0.00000000000E+00 0.  1.
         -2    1    6    6    0  503  0.13634828249E+03  0.54256800948E+03 -0.55615672642E+03  0.78884802300E+03  0.00000000000E+00 0. -1.
<mgrwt>
<rscale>  0 0.30780093E+04</rscale>
<asrwt>0</asrwt>
<pdfrwt beam="1">  1        2 0.39749927E+00 0.30780093E+04</pdfrwt>
<pdfrwt beam="2">  1       -1 0.14103173E+00 0.30780093E+04</pdfrwt>
<totfact> 0.12359924E+00</totfact>
</mgrwt>
</event>
<event>
12    7  0.2466188E-007  0.1499090E+04  0.7818608E-02  0.8885058E-01
         -1   -1    0    0    0  501 -0.00000000000E+00  0.00000000000E+00  0.70336227443E+03  0.70336227443E+03  0.00000000000E+00 0.  1.
          2   -1    0    0  501    0  0.00000000000E+00 -0.00000000000E+00 -0.79875992479E+03  0.79875992479E+03  0.00000000000E+00 0. -1.
         24    2    1    2    0    0  0.17659559669E+03  0.41852399725E+03  0.11506305008E+03  0.47332488094E+03  0.66697798890E+02 0.  0.
        254    2    1    2    0    0 -0.17659559669E+03 -0.41852399725E+03 -0.21046070044E+03  0.10287973183E+04  0.89876686334E+03 0.  0.
         23    2    4    4    0    0  0.18941125506E+03  0.12614588349E+03  0.13741938079E+03  0.27923682284E+03  0.85438337703E+02 0.  0.
         23    2    4    4    0    0 -0.36600685175E+03 -0.54466988074E+03 -0.34788008123E+03  0.74956049544E+03  0.10096579074E+03 0.  0.
          2    1    3    3  502    0  0.11853148770E+03  0.20661382482E+03  0.42714661635E+02  0.24199902583E+03  0.00000000000E+00 0. -1.
         -1    1    3    3    0  502  0.58064108997E+02  0.21191017243E+03  0.72348388449E+02  0.23132585511E+03  0.00000000000E+00 0.  1.
         13    1    5    5    0    0  0.14039701725E+03  0.11311066684E+03  0.14028067882E+03  0.22843820665E+03  0.00000000000E+00 0.  1.
        -13    1    5    5    0    0  0.49014237805E+02  0.13035216648E+02 -0.28612980288E+01  0.50798616193E+02  0.00000000000E+00 0. -1.
          3    1    6    6  503    0 -0.16992554624E+03 -0.17425878501E+03 -0.10421716276E+03  0.26476788407E+03  0.00000000000E+00 0. -1.
         -3    1    6    6    0  503 -0.19608130551E+03 -0.37041109573E+03 -0.24366291847E+03  0.48479261137E+03  0.00000000000E+00 0.  1.
<mgrwt>
<rscale>  0 0.14990899E+04</rscale>
<asrwt>0</asrwt>
<pdfrwt beam="1">  1        2 0.12288614E+00 0.14990899E+04</pdfrwt>
<pdfrwt beam="2">  1       -1 0.10820958E+00 0.14990899E+04</pdfrwt>
<totfact> 0.30220315E+01</totfact>
</mgrwt>
</event>
<event>
12    7  0.2466188E-007  0.2985237E+04  0.7818608E-02  0.8247959E-01
          2   -1    0    0  501    0  0.00000000000E+00  0.00000000000E+00  0.30977721012E+04  0.30977721012E+04  0.00000000000E+00 0. -1.
         -3   -1    0    0    0  501 -0.00000000000E+00 -0.00000000000E+00 -0.71919748296E+03  0.71919748296E+03  0.00000000000E+00 0.  1.
         24    2    1    2    0    0 -0.10812581912E+04 -0.15195527137E+03  0.55747334244E+02  0.10962153056E+04  0.79815727001E+02 0.  0.
        254    2    1    2    0    0  0.10812581912E+04  0.15195527137E+03  0.23228272840E+04  0.27207542786E+04  0.90264476542E+03 0.  0.
         23    2    4    4    0    0 -0.99720892402E+02 -0.60303208255E+02  0.65769543055E+02  0.16298425798E+03  0.93045699792E+02 0.  0.
         23    2    4    4    0    0  0.11809790836E+04  0.21225847963E+03  0.22570577409E+04  0.25577700206E+04  0.90069829388E+02 0.  0.
          2    1    3    3  502    0 -0.91528415927E+03 -0.10237245911E+03  0.59971078212E+02  0.92294189569E+03  0.00000000000E+00 0. -1.
         -1    1    3    3    0  502 -0.16597403197E+03 -0.49582812262E+02 -0.42237439677E+01  0.17327340989E+03  0.00000000000E+00 0.  1.
         13    1    5    5    0    0 -0.11408953443E+03 -0.42537842340E+02  0.39144224757E+02  0.12789902357E+03  0.00000000000E+00 0.  1.
        -13    1    5    5    0    0  0.14368642027E+02 -0.17765365915E+02  0.26625318298E+02  0.35085234419E+02  0.00000000000E+00 0. -1.
          1    1    6    6  503    0  0.43416802180E+03  0.12216654642E+03  0.83821700971E+03  0.95185833588E+03  0.00000000000E+00 0. -1.
         -1    1    6    6    0  503  0.74681106185E+03  0.90091933205E+02  0.14188407312E+04  0.16059116847E+04  0.00000000000E+00 0.  1.
<mgrwt>
<rscale>  0 0.29852369E+04</rscale>
<asrwt>0</asrwt>
<pdfrwt beam="1">  1        2 0.47658031E+00 0.29852369E+04</pdfrwt>
<pdfrwt beam="2">  1       -3 0.11064577E+00 0.29852369E+04</pdfrwt>
<totfact> 0.56857026E-01</totfact>
</mgrwt>
</event>
<event>
12    7  0.2466188E-007  0.1175756E+04  0.7818608E-02  0.9134346E-01
         -1   -1    0    0    0  501 -0.00000000000E+00  0.00000000000E+00  0.73073065867E+03  0.73073065867E+03  0.00000000000E+00 0.  1.
          2   -1    0    0  501    0  0.00000000000E+00 -0.00000000000E+00 -0.47295237904E+03  0.47295237904E+03  0.00000000000E+00 0. -1.
         24    2    1    2    0    0  0.15200196874E+03 -0.16447986942E+03 -0.11680931849E+02  0.23811720690E+03  0.80032081747E+02 0.  0.
        254    2    1    2    0    0 -0.15200196874E+03  0.16447986942E+03  0.26945921148E+03  0.96556583081E+03  0.89975045487E+03 0.  0.
         23    2    4    4    0    0 -0.97424991196E+02 -0.15457690884E+02  0.57789488837E+03  0.59319589007E+03  0.90489186491E+02 0.  0.
         23    2    4    4    0    0 -0.54576977545E+02  0.17993756030E+03 -0.30843567689E+03  0.37236994075E+03  0.90391558824E+02 0.  0.
          2    1    3    3  502    0 -0.73431591101E+01 -0.18749751358E+02  0.71358378189E+01  0.21363411317E+02  0.00000000000E+00 0. -1.
         -1    1    3    3    0  502  0.15934512785E+03 -0.14573011806E+03 -0.18816769667E+02  0.21675379559E+03  0.00000000000E+00 0.  1.
         13    1    5    5    0    0 -0.99879284889E+01 -0.91639290508E+01  0.32962661602E+03  0.32990520199E+03  0.00000000000E+00 0. -1.
        -13    1    5    5    0    0 -0.87437062707E+02 -0.62937618331E+01  0.24826827235E+03  0.26329068808E+03  0.00000000000E+00 0.  1.
          2    1    6    6  503    0 -0.46710071806E+02  0.35103266312E+02 -0.12918493231E+03  0.14178440270E+03  0.00000000000E+00 0. -1.
         -2    1    6    6    0  503 -0.78669057393E+01  0.14483429399E+03 -0.17925074458E+03  0.23058553804E+03  0.00000000000E+00 0.  1.
<mgrwt>
<rscale>  0 0.11757564E+04</rscale>
<asrwt>0</asrwt>
<pdfrwt beam="1">  1        2 0.72761904E-01 0.11757564E+04</pdfrwt>
<pdfrwt beam="2">  1       -1 0.11242010E+00 0.11757564E+04</pdfrwt>
<totfact> 0.53835145E+01</totfact>
</mgrwt>
</event>
<event>
12    7  0.2466188E-007  0.1848284E+04  0.7818608E-02  0.8681036E-01
         -1   -1    0    0    0  501 -0.00000000000E+00  0.00000000000E+00  0.27233676808E+03  0.27233676808E+03  0.00000000000E+00 0.  1.
          2   -1    0    0  501    0  0.00000000000E+00 -0.00000000000E+00 -0.31359657371E+04  0.31359657371E+04  0.00000000000E+00 0. -1.
         24    2    1    2    0    0  0.29698798535E+03 -0.56593552996E+03 -0.16284952339E+04  0.17515834784E+04  0.86965898176E+02 0.  0.
        254    2    1    2    0    0 -0.29698798535E+03  0.56593552996E+03 -0.12351337351E+04  0.16567190267E+04  0.90037642267E+03 0.  0.
         23    2    4    4    0    0 -0.12601772115E+03  0.23024179908E+03 -0.12379806768E+04  0.12686614836E+04  0.89521236860E+02 0.  0.
         23    2    4    4    0    0 -0.17097026420E+03  0.33569373089E+03  0.28469416949E+01  0.38805754313E+03  0.93056109450E+02 0.  0.
          2    1    3    3  502    0  0.73166228963E+02 -0.96492466919E+02 -0.38870056604E+03  0.40712679017E+03  0.00000000000E+00 0. -1.
         -1    1    3    3    0  502  0.22382175638E+03 -0.46944306305E+03 -0.12397946679E+04  0.13444566882E+04  0.00000000000E+00 0.  1.
         13    1    5    5    0    0 -0.11389402494E+03  0.13137835229E+03 -0.88383511604E+03  0.90077557289E+03  0.00000000000E+00 0. -1.
        -13    1    5    5    0    0 -0.12123696206E+02  0.98863446793E+02 -0.35414556073E+03  0.36788591072E+03  0.00000000000E+00 0.  1.
          3    1    6    6  503    0 -0.44470201860E+02  0.18953947061E+03  0.49711852139E+01  0.19474989719E+03  0.00000000000E+00 0. -1.
         -3    1    6    6    0  503 -0.12650006234E+03  0.14615426027E+03 -0.21242435191E+01  0.19330764594E+03  0.00000000000E+00 0.  1.
<mgrwt>
<rscale>  0 0.18482844E+04</rscale>
<asrwt>0</asrwt>
<pdfrwt beam="1">  1        2 0.48245625E+00 0.18482844E+04</pdfrwt>
<pdfrwt beam="2">  1       -1 0.41897965E-01 0.18482844E+04</pdfrwt>
<totfact> 0.85813712E+00</totfact>
</mgrwt>
</event>
<event>
12    7  0.2466188E-007  0.2120375E+04  0.7818608E-02  0.8552321E-01
          2   -1    0    0  501    0  0.00000000000E+00  0.00000000000E+00  0.97646897177E+03  0.97646897177E+03  0.00000000000E+00 0. -1.
         -1   -1    0    0    0  501 -0.00000000000E+00 -0.00000000000E+00 -0.11510841656E+04  0.11510841656E+04  0.00000000000E+00 0.  1.
         24    2    1    2    0    0 -0.67151220893E+03  0.44193305858E+02 -0.62100449417E+03  0.91918661841E+03  0.79848372890E+02 0.  0.
        254    2    1    2    0    0  0.67151220893E+03 -0.44193305858E+02  0.44638930029E+03  0.12083665190E+04  0.89889072852E+03 0.  0.
         23    2    4    4    0    0 -0.21314259651E+03 -0.13048386092E+02  0.99279702320E+02  0.25323400000E+03  0.93118057511E+02 0.  0.
         23    2    4    4    0    0  0.88465480544E+03 -0.31144919766E+02  0.34710959797E+03  0.95513251901E+03  0.90603118331E+02 0.  0.
          2    1    3    3  502    0 -0.28410395856E+03 -0.61340715458E+01 -0.22031979458E+03  0.35957405077E+03  0.00000000000E+00 0. -1.
         -1    1    3    3    0  502 -0.38740825037E+03  0.50327377404E+02 -0.40068469959E+03  0.55961256763E+03  0.00000000000E+00 0.  1.
         13    1    5    5    0    0 -0.19761843950E+03 -0.20448319331E+02  0.11532002414E+03  0.22971697665E+03  0.00000000000E+00 0.  1.
        -13    1    5    5    0    0 -0.15524157014E+02  0.73999332387E+01 -0.16040321823E+02  0.23517023347E+02  0.00000000000E+00 0. -1.
          3    1    6    6  503    0  0.49744854874E+03 -0.44295935378E+02  0.23407278874E+03  0.55154986988E+03  0.00000000000E+00 0. -1.
         -3    1    6    6    0  503  0.38720625670E+03  0.13151015612E+02  0.11303680924E+03  0.40358264914E+03  0.00000000000E+00 0.  1.
<mgrwt>
<rscale>  0 0.21203754E+04</rscale>
<asrwt>0</asrwt>
<pdfrwt beam="1">  1        2 0.15022600E+00 0.21203754E+04</pdfrwt>
<pdfrwt beam="2">  1       -1 0.17708987E+00 0.21203754E+04</pdfrwt>
<totfact> 0.59794393E+00</totfact>
</mgrwt>
</event>
<event>
12    7  0.2466188E-007  0.1341277E+04  0.7818608E-02  0.8997458E-01
         -1   -1    0    0    0  501 -0.00000000000E+00  0.00000000000E+00  0.40490150267E+03  0.40490150267E+03  0.00000000000E+00 0.  1.
          2   -1    0    0  501    0  0.00000000000E+00 -0.00000000000E+00 -0.11107780012E+04  0.11107780012E+04  0.00000000000E+00 0. -1.
         24    2    1    2    0    0  0.35479414361E+03 -0.10119712082E+03 -0.25125883698E+03  0.45327858206E+03  0.78808173392E+02 0.  0.
        254    2    1    2    0    0 -0.35479414361E+03  0.10119712082E+03 -0.45461766158E+03  0.10624009218E+04  0.88650931123E+03 0.  0.
         23    2    4    4    0    0  0.21117494761E+03 -0.46126868703E+02  0.96211334699E+02  0.25403049015E+03  0.92478767763E+02 0.  0.
         23    2    4    4    0    0 -0.56596909122E+03  0.14732398953E+03 -0.55082899628E+03  0.80837043169E+03  0.89581256862E+02 0.  0.
          2    1    3    3  502    0  0.23266369886E+03 -0.33802038530E+02 -0.18327646022E+03  0.29810272633E+03  0.00000000000E+00 0. -1.
         -1    1    3    3    0  502  0.12213044475E+03 -0.67395082293E+02 -0.67982376768E+02  0.15517585573E+03  0.00000000000E+00 0.  1.
         13    1    5    5    0    0  0.39202360483E+02 -0.42642201082E+02  0.48448179108E+02  0.75514292948E+02  0.00000000000E+00 0.  1.
        -13    1    5    5    0    0  0.17197258713E+03 -0.34846676210E+01  0.47763155591E+02  0.17851619720E+03  0.00000000000E+00 0. -1.
          4    1    6    6  503    0 -0.31201261948E+03  0.12368311074E+03 -0.29002495020E+03  0.44358072358E+03  0.00000000000E+00 0. -1.
         -4    1    6    6    0  503 -0.25395647174E+03  0.23640878788E+02 -0.26080404608E+03  0.36478970810E+03  0.00000000000E+00 0.  1.
<mgrwt>
<rscale>  0 0.13412765E+04</rscale>
<asrwt>0</asrwt>
<pdfrwt beam="1">  1        2 0.17088892E+00 0.13412765E+04</pdfrwt>
<pdfrwt beam="2">  1       -1 0.62292540E-01 0.13412765E+04</pdfrwt>
<totfact> 0.62512836E+01</totfact>
</mgrwt>
</event>
<event>
12    7  0.2466188E-007  0.1234387E+04  0.7818608E-02  0.9083279E-01
          2   -1    0    0  501    0  0.00000000000E+00  0.00000000000E+00  0.12559587570E+04  0.12559587570E+04  0.00000000000E+00 0. -1.
         -1   -1    0    0    0  501 -0.00000000000E+00 -0.00000000000E+00 -0.30329667824E+03  0.30329667824E+03  0.00000000000E+00 0.  1.
         24    2    1    2    0    0  0.97743787067E+02  0.26003990228E+03  0.25457581863E+03  0.38742240695E+03  0.90070390734E+02 0.  0.
        254    2    1    2    0    0 -0.97743787067E+02 -0.26003990228E+03  0.69808626011E+03  0.11718330283E+04  0.89927394096E+03 0.  0.
         23    2    4    4    0    0 -0.14643139336E+03 -0.12921794014E+03 -0.17841205423E+03  0.27965846650E+03  0.90766556469E+02 0.  0.
         23    2    4    4    0    0  0.48687606294E+02 -0.13082196214E+03  0.87649831434E+03  0.89217456177E+03  0.90781522600E+02 0.  0.
          2    1    3    3  502    0  0.97231751732E+02  0.23427525992E+03  0.25754672863E+03  0.36148198902E+03  0.00000000000E+00 0. -1.
         -1    1    3    3    0  502  0.51203533470E+00  0.25764642362E+02 -0.29709100026E+01  0.25940417932E+02  0.00000000000E+00 0.  1.
         13    1    5    5    0    0 -0.10355424311E+03 -0.11636467592E+03 -0.17570922928E+03  0.23481471913E+03  0.00000000000E+00 0.  1.
        -13    1    5    5    0    0 -0.42877150255E+02 -0.12853264222E+02 -0.27028249515E+01  0.44843747366E+02  0.00000000000E+00 0. -1.
          1    1    6    6  503    0  0.47023265345E+02 -0.12262012675E+03  0.54605450686E+03  0.56162479240E+03  0.00000000000E+00 0. -1.
         -1    1    6    6    0  503  0.16643409497E+01 -0.82018353907E+01  0.33044380747E+03  0.33054976937E+03  0.00000000000E+00 0.  1.
<mgrwt>
<rscale>  0 0.12343875E+04</rscale>
<asrwt>0</asrwt>
<pdfrwt beam="1">  1        2 0.19322442E+00 0.12343875E+04</pdfrwt>
<pdfrwt beam="2">  1       -1 0.46661028E-01 0.12343875E+04</pdfrwt>
<totfact> 0.90056056E+01</totfact>
</mgrwt>
</event>
<event>
12    7  0.2466188E-007  0.3444821E+04  0.7818608E-02  0.8126993E-01
          2   -1    0    0  501    0  0.00000000000E+00  0.00000000000E+00  0.25931402267E+04  0.25931402267E+04  0.00000000000E+00 0. -1.
         -1   -1    0    0    0  501 -0.00000000000E+00 -0.00000000000E+00 -0.11440558610E+04  0.11440558610E+04  0.00000000000E+00 0.  1.
         24    2    1    2    0    0  0.13493353911E+04  0.25351246449E+03 -0.22346537808E+03  0.13933564409E+04  0.80813542938E+02 0.  0.
        254    2    1    2    0    0 -0.13493353911E+04 -0.25351246449E+03  0.16725497439E+04  0.23438396468E+04  0.90065924580E+03 0.  0.
         23    2    4    4    0    0 -0.90696186792E+03 -0.55005420094E+03  0.13310616450E+04  0.17045846658E+04  0.93511101997E+02 0.  0.
         23    2    4    4    0    0 -0.44237352321E+03  0.29654173645E+03  0.34148809880E+03  0.63925498102E+03  0.91659552917E+02 0.  0.
          4    1    3    3  502    0  0.10396052721E+04  0.19924174351E+03 -0.13787359351E+03  0.10674668716E+04  0.00000000000E+00 0. -1.
         -3    1    3    3    0  502  0.30973011905E+03  0.54270720983E+02 -0.85591784569E+02  0.32588956931E+03  0.00000000000E+00 0.  1.
         13    1    5    5    0    0 -0.47852342100E+03 -0.27179880068E+03  0.61968964132E+03  0.82877892351E+03  0.00000000000E+00 0. -1.
        -13    1    5    5    0    0 -0.42843844692E+03 -0.27825540027E+03  0.71137200373E+03  0.87580574231E+03  0.00000000000E+00 0.  1.
          1    1    6    6  503    0 -0.44681948048E+02  0.23796071917E+02  0.68302850378E+02  0.85017697509E+02  0.00000000000E+00 0. -1.
         -1    1    6    6    0  503 -0.39769157516E+03  0.27274566453E+03  0.27318524842E+03  0.55423728351E+03  0.00000000000E+00 0.  1.
<mgrwt>
<rscale>  0 0.34448206E+04</rscale>
<asrwt>0</asrwt>
<pdfrwt beam="1">  1        2 0.39894465E+00 0.34448206E+04</pdfrwt>
<pdfrwt beam="2">  1       -1 0.17600859E+00 0.34448206E+04</pdfrwt>
<totfact> 0.64054720E-01</totfact>
</mgrwt>
</event>
<event>
12    7  0.2466188E-007  0.1685267E+04  0.7818608E-02  0.8769812E-01
          2   -1    0    0  501    0  0.00000000000E+00  0.00000000000E+00  0.86237706720E+03  0.86237706720E+03  0.00000000000E+00 0. -1.
         -1   -1    0    0    0  501 -0.00000000000E+00 -0.00000000000E+00 -0.82334241574E+03  0.82334241574E+03  0.00000000000E+00 0.  1.
         24    2    1    2    0    0  0.36922345781E+03 -0.22821051180E+03  0.42559052778E+03  0.61430420114E+03  0.88523187410E+02 0.  0.
        254    2    1    2    0    0 -0.36922345781E+03  0.22821051180E+03 -0.38655587632E+03  0.10714152818E+04  0.90005514334E+03 0.  0.
         23    2    4    4    0    0  0.21178390002E+03  0.17537116430E+03 -0.38370977319E+03  0.48078728984E+03  0.91190802434E+02 0.  0.
         23    2    4    4    0    0 -0.58100735784E+03  0.52839347497E+02 -0.28461031312E+01  0.59062799196E+03  0.92042262452E+02 0.  0.
          2    1    3    3  502    0  0.22250101817E+03 -0.15087164906E+03  0.31890913614E+03  0.41709950214E+03  0.00000000000E+00 0. -1.
         -1    1    3    3    0  502  0.14672243964E+03 -0.77338862739E+02  0.10668139165E+03  0.19720469900E+03  0.00000000000E+00 0.  1.
         13    1    5    5    0    0  0.82276542112E+02  0.16315114796E+02 -0.96545396103E+02  0.12789302507E+03  0.00000000000E+00 0. -1.
        -13    1    5    5    0    0  0.12950735791E+03  0.15905604950E+03 -0.28716437709E+03  0.35289426477E+03  0.00000000000E+00 0.  1.
          1    1    6    6  503    0 -0.51483795940E+02  0.25253242464E+02 -0.18204305569E+02  0.60163977932E+02  0.00000000000E+00 0. -1.
         -1    1    6    6    0  503 -0.52952356190E+03  0.27586105033E+02  0.15358202438E+02  0.53046401403E+03  0.00000000000E+00 0.  1.
<mgrwt>
<rscale>  0 0.16852675E+04</rscale>
<asrwt>0</asrwt>
<pdfrwt beam="1">  1        2 0.13267339E+00 0.16852675E+04</pdfrwt>
<pdfrwt beam="2">  1       -1 0.12666806E+00 0.16852675E+04</pdfrwt>
<totfact> 0.18320181E+01</totfact>
</mgrwt>
</event>
<event>
12    7  0.2466188E-007  0.2630924E+04  0.7818608E-02  0.8357772E-01
          2   -1    0    0  501    0  0.00000000000E+00  0.00000000000E+00  0.17017377008E+04  0.17017377008E+04  0.00000000000E+00 0. -1.
         -1   -1    0    0    0  501 -0.00000000000E+00 -0.00000000000E+00 -0.10168666485E+04  0.10168666485E+04  0.00000000000E+00 0.  1.
         24    2    1    2    0    0  0.82990286489E+03  0.61643439810E+03 -0.24645496557E+03  0.10657556301E+04  0.79780202475E+02 0.  0.
        254    2    1    2    0    0 -0.82990286489E+03 -0.61643439810E+03  0.93132601783E+03  0.16528487192E+04  0.89208217385E+03 0.  0.
         23    2    4    4    0    0 -0.70844110625E+03 -0.73687842926E+03  0.10125046563E+04  0.14415896469E+04  0.90202054002E+02 0.  0.
         23    2    4    4    0    0 -0.12146175864E+03  0.12044403116E+03 -0.81178638436E+02  0.21125907235E+03  0.93705393962E+02 0.  0.
          2    1    3    3  502    0  0.47608506152E+03  0.38442777927E+03 -0.11433399860E+03  0.62250619797E+03  0.00000000000E+00 0. -1.
         -1    1    3    3    0  502  0.35381780337E+03  0.23200661883E+03 -0.13212096697E+03  0.44324943212E+03  0.00000000000E+00 0.  1.
         13    1    5    5    0    0 -0.56829010505E+03 -0.60319373176E+03  0.86675394098E+03  0.11991908588E+04  0.00000000000E+00 0. -1.
        -13    1    5    5    0    0 -0.14015100120E+03 -0.13368469750E+03  0.14575071529E+03  0.24239878814E+03  0.00000000000E+00 0.  1.
          4    1    6    6  503    0 -0.89900951880E+01  0.41760028765E+02 -0.58031836067E+02  0.72058419434E+02  0.00000000000E+00 0.  1.
         -4    1    6    6    0  503 -0.11247166345E+03  0.78684002394E+02 -0.23146802369E+02  0.13920065291E+03  0.00000000000E+00 0. -1.
<mgrwt>
<rscale>  0 0.26309240E+04</rscale>
<asrwt>0</asrwt>
<pdfrwt beam="1">  1        2 0.26180580E+00 0.26309240E+04</pdfrwt>
<pdfrwt beam="2">  1       -1 0.15644102E+00 0.26309240E+04</pdfrwt>
<totfact> 0.30576208E+00</totfact>
</mgrwt>
</event>
<event>
12    7  0.2466188E-007  0.1275144E+04  0.7818608E-02  0.9049512E-01
         -1   -1    0    0    0  501 -0.00000000000E+00  0.00000000000E+00  0.61733243247E+03  0.61733243247E+03  0.00000000000E+00 0.  1.
          2   -1    0    0  501    0  0.00000000000E+00 -0.00000000000E+00 -0.65847524607E+03  0.65847524607E+03  0.00000000000E+00 0. -1.
         24    2    1    2    0    0 -0.23475517657E+03  0.18738560931E+03  0.74903855547E+02  0.31897047656E+03  0.76864932432E+02 0.  0.
        254    2    1    2    0    0  0.23475517657E+03 -0.18738560931E+03 -0.11604666914E+03  0.95683720198E+03  0.90102566121E+03 0.  0.
         23    2    4    4    0    0  0.54604643206E+03 -0.26712924694E+03 -0.10075376760E+03  0.62289985924E+03  0.91258821093E+02 0.  0.
         23    2    4    4    0    0 -0.31129125549E+03  0.79743637626E+02 -0.15292901545E+02  0.33393734273E+03  0.89548771909E+02 0.  0.
          4    1    3    3  502    0 -0.19661999357E+03  0.17037076440E+03  0.37393259757E+02  0.26283811579E+03  0.00000000000E+00 0. -1.
         -3    1    3    3    0  502 -0.38135182994E+02  0.17014844915E+02  0.37510595791E+02  0.56132360774E+02  0.00000000000E+00 0.  1.
         13    1    5    5    0    0  0.28311953935E+03 -0.18262454447E+03 -0.77787375496E+02  0.34577344258E+03  0.00000000000E+00 0.  1.
        -13    1    5    5    0    0  0.26292689270E+03 -0.84504702464E+02 -0.22966392102E+02  0.27712641666E+03  0.00000000000E+00 0. -1.
          4    1    6    6  503    0 -0.83599871376E+02  0.36338234881E+02  0.33407430228E+02  0.97084819631E+02  0.00000000000E+00 0.  1.
         -4    1    6    6    0  503 -0.22769138411E+03  0.43405402746E+02 -0.48700331773E+02  0.23685252310E+03  0.00000000000E+00 0. -1.
<mgrwt>
<rscale>  0 0.12751441E+04</rscale>
<asrwt>0</asrwt>
<pdfrwt beam="1">  1        2 0.10130388E+00 0.12751441E+04</pdfrwt>
<pdfrwt beam="2">  1       -1 0.94974220E-01 0.12751441E+04</pdfrwt>
<totfact> 0.53202035E+01</totfact>
</mgrwt>
</event>
<event>
12    7  0.2466188E-007  0.4449605E+04  0.7818608E-02  0.7919519E-01
          2   -1    0    0  501    0  0.00000000000E+00  0.00000000000E+00  0.20127451683E+04  0.20127451683E+04  0.00000000000E+00 0. -1.
         -3   -1    0    0    0  501 -0.00000000000E+00 -0.00000000000E+00 -0.24592017766E+04  0.24592017766E+04  0.00000000000E+00 0.  1.
         24    2    1    2    0    0 -0.35951753987E+03 -0.18399848092E+04  0.80825360814E+03  0.20430811580E+04  0.78164976192E+02 0.  0.
        254    2    1    2    0    0  0.35951753987E+03  0.18399848092E+04 -0.12547102164E+04  0.24288657870E+04  0.90016349875E+03 0.  0.
         23    2    4    4    0    0 -0.77039060691E+02  0.12647912059E+04 -0.46129106251E+03  0.13516466771E+04  0.92344376399E+02 0.  0.
         23    2    4    4    0    0  0.43655660056E+03  0.57519360327E+03 -0.79341915391E+03  0.10772191099E+04  0.97250759558E+02 0.  0.
          2    1    3    3  502    0 -0.33864930834E+03 -0.15994320421E+04  0.70975966681E+03  0.17823088947E+04  0.00000000000E+00 0. -1.
         -1    1    3    3    0  502 -0.20868231533E+02 -0.24055276709E+03  0.98493941331E+02  0.26077226333E+03  0.00000000000E+00 0.  1.
         13    1    5    5    0    0 -0.71425980053E+02  0.65862448225E+03 -0.20475615459E+03  0.69340677967E+03  0.00000000000E+00 0. -1.
        -13    1    5    5    0    0 -0.56130806387E+01  0.60616672367E+03 -0.25653490792E+03  0.65823989741E+03  0.00000000000E+00 0.  1.
          3    1    6    6  503    0  0.21071011419E+03  0.33229649701E+03 -0.37782598424E+03  0.54550177682E+03  0.00000000000E+00 0. -1.
         -3    1    6    6    0  503  0.22584648638E+03  0.24289710626E+03 -0.41559316966E+03  0.53171733309E+03  0.00000000000E+00 0.  1.
<mgrwt>
<rscale>  0 0.44496051E+04</rscale>
<asrwt>0</asrwt>
<pdfrwt beam="1">  1        2 0.30965310E+00 0.44496051E+04</pdfrwt>
<pdfrwt beam="2">  1       -3 0.37833874E+00 0.44496051E+04</pdfrwt>
<totfact> 0.43680665E-02</totfact>
</mgrwt>
</event>
<event>
12    7  0.2466188E-007  0.1671056E+04  0.7818608E-02  0.8778047E-01
         -1   -1    0    0    0  501 -0.00000000000E+00  0.00000000000E+00  0.37942352577E+03  0.37942352577E+03  0.00000000000E+00 0.  1.
          2   -1    0    0  501    0  0.00000000000E+00 -0.00000000000E+00 -0.18399144383E+04  0.18399144383E+04  0.00000000000E+00 0. -1.
         24    2    1    2    0    0 -0.22558957389E+03 -0.29689083462E+03 -0.11273650553E+04  0.11900709220E+04  0.79259118810E+02 0.  0.
        254    2    1    2    0    0  0.22558957389E+03  0.29689083462E+03 -0.33312585718E+03  0.10292670420E+04  0.89965714780E+03 0.  0.
         23    2    4    4    0    0  0.54365191412E+03  0.32763713333E+03 -0.22288689056E+03  0.67896407601E+03  0.91706900836E+02 0.  0.
         23    2    4    4    0    0 -0.31806234023E+03 -0.30746298708E+02 -0.11023896662E+03  0.35030296604E+03  0.91926879068E+02 0.  0.
          4    1    3    3  502    0 -0.11523852883E+03 -0.20088223232E+03 -0.76539305015E+03  0.79966249818E+03  0.00000000000E+00 0. -1.
         -1    1    3    3    0  502 -0.11035104506E+03 -0.96008602300E+02 -0.36197200518E+03  0.39040842383E+03  0.00000000000E+00 0.  1.
         13    1    5    5    0    0  0.20379481498E+03  0.10320682167E+03 -0.37553612607E+02  0.23150431632E+03  0.00000000000E+00 0. -1.
        -13    1    5    5    0    0  0.33985709914E+03  0.22443031165E+03 -0.18533327796E+03  0.44745975969E+03  0.00000000000E+00 0.  1.
          3    1    6    6  503    0 -0.18243673924E+03 -0.35884668580E+02 -0.10703996551E+03  0.21454236756E+03  0.00000000000E+00 0. -1.
         -3    1    6    6    0  503 -0.13562560100E+03  0.51383698716E+01 -0.31990011075E+01  0.13576059848E+03  0.00000000000E+00 0.  1.
<mgrwt>
<rscale>  0 0.16710557E+04</rscale>
<asrwt>0</asrwt>
<pdfrwt beam="1">  1        2 0.28306376E+00 0.16710557E+04</pdfrwt>
<pdfrwt beam="2">  1       -1 0.58372851E-01 0.16710557E+04</pdfrwt>
<totfact> 0.26488846E+01</totfact>
</mgrwt>
</event>
<event>
12    7  0.2466188E-007  0.4631223E+04  0.7818608E-02  0.7888058E-01
          2   -1    0    0  501    0  0.00000000000E+00  0.00000000000E+00  0.25926108791E+04  0.25926108791E+04  0.00000000000E+00 0. -1.
         -1   -1    0    0    0  501 -0.00000000000E+00 -0.00000000000E+00 -0.20682074985E+04  0.20682074985E+04  0.00000000000E+00 0.  1.
         24    2    1    2    0    0 -0.19702857512E+04 -0.10085458266E+04  0.49877081878E+03  0.22702947158E+04  0.79215786913E+02 0.  0.
        254    2    1    2    0    0  0.19702857512E+04  0.10085458266E+04  0.25632561866E+02  0.23905236618E+04  0.90263820193E+03 0.  0.
         23    2    4    4    0    0  0.13748802229E+04  0.11172314815E+04 -0.39293073004E+02  0.17743850844E+04  0.91633353490E+02 0.  0.
         23    2    4    4    0    0  0.59540552829E+03 -0.10868565487E+03  0.64925634869E+02  0.61613857743E+03  0.95347227717E+02 0.  0.
          2    1    3    3  502    0 -0.81051443694E+03 -0.42529230628E+03  0.16745810163E+03  0.93051029767E+03  0.00000000000E+00 0. -1.
         -1    1    3    3    0  502 -0.11597713143E+04 -0.58325352034E+03  0.33131271715E+03  0.13397844181E+04  0.00000000000E+00 0.  1.
         13    1    5    5    0    0  0.56716387358E+03  0.48365333315E+03  0.25115714295E+02  0.74580574231E+03  0.00000000000E+00 0.  1.
        -13    1    5    5    0    0  0.80771634936E+03  0.63357814835E+03 -0.64408787299E+02  0.10285793421E+04  0.00000000000E+00 0. -1.
          3    1    6    6  503    0  0.20493814861E+03 -0.64512691622E+01  0.55419825211E+02  0.21239731792E+03  0.00000000000E+00 0. -1.
         -3    1    6    6    0  503  0.39046737968E+03 -0.10223438571E+03  0.95058096583E+01  0.40374125951E+03  0.00000000000E+00 0.  1.
<mgrwt>
<rscale>  0 0.46312233E+04</rscale>
<asrwt>0</asrwt>
<pdfrwt beam="1">  1        2 0.39886321E+00 0.46312233E+04</pdfrwt>
<pdfrwt beam="2">  1       -1 0.31818577E+00 0.46312233E+04</pdfrwt>
<totfact> 0.65903412E-02</totfact>
</mgrwt>
</event>
<event>
12    7  0.2466188E-007  0.1959632E+04  0.7818608E-02  0.8625730E-01
          2   -1    0    0  501    0  0.00000000000E+00  0.00000000000E+00  0.13975975664E+04  0.13975975664E+04  0.00000000000E+00 0. -1.
         -1   -1    0    0    0  501 -0.00000000000E+00 -0.00000000000E+00 -0.68692129120E+03  0.68692129120E+03  0.00000000000E+00 0.  1.
         24    2    1    2    0    0  0.74406331473E+02 -0.76632029060E+03  0.29159003364E+03  0.82716742733E+03  0.79988218899E+02 0.  0.
        254    2    1    2    0    0 -0.74406331473E+02  0.76632029060E+03  0.41908624156E+03  0.12573514303E+04  0.90139683346E+03 0.  0.
         23    2    4    4    0    0 -0.33648707114E+03  0.82478054217E+03  0.36522319477E+03  0.96672913995E+03  0.87696956928E+02 0.  0.
         23    2    4    4    0    0  0.26208073967E+03 -0.58460251563E+02  0.53863046788E+02  0.29062229031E+03  0.97242854239E+02 0.  0.
          4    1    3    3  502    0  0.37323282632E+02 -0.40782968835E+03  0.19758207187E+03  0.45470513221E+03  0.00000000000E+00 0. -1.
         -3    1    3    3    0  502  0.37083048842E+02 -0.35849060225E+03  0.94007961769E+02  0.37246229512E+03  0.00000000000E+00 0.  1.
         13    1    5    5    0    0 -0.22817156076E+03  0.48216661799E+03  0.18386685024E+03  0.56422861259E+03  0.00000000000E+00 0.  1.
        -13    1    5    5    0    0 -0.10831551038E+03  0.34261392417E+03  0.18135634454E+03  0.40250052737E+03  0.00000000000E+00 0. -1.
          4    1    6    6  503    0  0.11155595309E+03 -0.46498610850E+02 -0.20038168545E+02  0.12250869226E+03  0.00000000000E+00 0. -1.
         -4    1    6    6    0  503  0.15052478658E+03 -0.11961640713E+02  0.73901215333E+02  0.16811359805E+03  0.00000000000E+00 0.  1.
<mgrwt>
<rscale>  0 0.19596321E+04</rscale>
<asrwt>0</asrwt>
<pdfrwt beam="1">  1        2 0.21501501E+00 0.19596321E+04</pdfrwt>
<pdfrwt beam="2">  1       -1 0.10568020E+00 0.19596321E+04</pdfrwt>
<totfact> 0.12932385E+01</totfact>
</mgrwt>
</event>
<event>
12    7  0.2466188E-007  0.3370511E+04  0.7818608E-02  0.8145182E-01
          2   -1    0    0  501    0  0.00000000000E+00  0.00000000000E+00  0.27513673108E+04  0.27513673108E+04  0.00000000000E+00 0. -1.
         -1   -1    0    0    0  501 -0.00000000000E+00 -0.00000000000E+00 -0.10322453991E+04  0.10322453991E+04  0.00000000000E+00 0.  1.
         24    2    1    2    0    0  0.46838567941E+03 -0.11351338185E+04 -0.28824038167E+03  0.12641932051E+04  0.84782141737E+02 0.  0.
        254    2    1    2    0    0 -0.46838567941E+03  0.11351338185E+04  0.20073622935E+04  0.25194195048E+04  0.90003185133E+03 0.  0.
         23    2    4    4    0    0 -0.64676405120E+03  0.52011547756E+03  0.14095488278E+04  0.16385236717E+04  0.95436245071E+02 0.  0.
         23    2    4    4    0    0  0.17837837179E+03  0.61501834096E+03  0.59781346568E+03  0.88089583312E+03  0.92358680289E+02 0.  0.
          2    1    3    3  502    0  0.36320183764E+03 -0.77976719791E+03 -0.19468556635E+03  0.88196084241E+03  0.00000000000E+00 0. -1.
         -1    1    3    3    0  502  0.10518384177E+03 -0.35536662061E+03 -0.93554815318E+02  0.38223236269E+03  0.00000000000E+00 0.  1.
         13    1    5    5    0    0 -0.42379003353E+03  0.28401041105E+03  0.83302342976E+03  0.97682544020E+03  0.00000000000E+00 0. -1.
        -13    1    5    5    0    0 -0.22297401767E+03  0.23610506651E+03  0.57652539802E+03  0.66169823148E+03  0.00000000000E+00 0.  1.
          1    1    6    6  503    0  0.13417128867E+03  0.32092974209E+03  0.35443108634E+03  0.49660772147E+03  0.00000000000E+00 0. -1.
         -1    1    6    6    0  503  0.44207083120E+02  0.29408859887E+03  0.24338237934E+03  0.38428811165E+03  0.00000000000E+00 0.  1.
<mgrwt>
<rscale>  0 0.33705111E+04</rscale>
<asrwt>0</asrwt>
<pdfrwt beam="1">  1        2 0.42328728E+00 0.33705111E+04</pdfrwt>
<pdfrwt beam="2">  1       -1 0.15880699E+00 0.33705111E+04</pdfrwt>
<totfact> 0.69617640E-01</totfact>
</mgrwt>
</event>
<event>
12    7  0.2466188E-007  0.1264486E+04  0.7818608E-02  0.9058212E-01
         -1   -1    0    0    0  501 -0.00000000000E+00  0.00000000000E+00  0.13947346727E+03  0.13947346727E+03  0.00000000000E+00 0.  1.
          2   -1    0    0  501    0  0.00000000000E+00 -0.00000000000E+00 -0.28660025282E+04  0.28660025282E+04  0.00000000000E+00 0. -1.
         24    2    1    2    0    0  0.30100181494E+03  0.28402796823E+02 -0.60197544390E+03  0.67838216963E+03  0.80119420560E+02 0.  0.
        254    2    1    2    0    0 -0.30100181494E+03 -0.28402796823E+02 -0.21245536171E+04  0.23270938259E+04  0.90012709722E+03 0.  0.
         23    2    4    4    0    0 -0.29177770531E+03  0.14421124174E+02 -0.21888111587E+04  0.22100691201E+04  0.90382679329E+02 0.  0.
         23    2    4    4    0    0 -0.92241096241E+01 -0.42823920997E+02  0.64257541646E+02  0.11702470583E+03  0.87445855864E+02 0.  0.
          4    1    3    3  502    0  0.10779267326E+03 -0.26323962673E+02 -0.24081024865E+03  0.26514484206E+03  0.00000000000E+00 0. -1.
         -3    1    3    3    0  502  0.19320914168E+03  0.54726759496E+02 -0.36116519525E+03  0.41323732757E+03  0.00000000000E+00 0.  1.
         13    1    5    5    0    0 -0.21890618317E+03  0.42143362698E+02 -0.14313323238E+04  0.14485883477E+04  0.00000000000E+00 0. -1.
        -13    1    5    5    0    0 -0.72871522139E+02 -0.27722238524E+02 -0.75747883493E+03  0.76148077232E+03  0.00000000000E+00 0.  1.
          3    1    6    6  503    0  0.29183344433E+02 -0.45130260863E+02  0.17608477176E+02  0.56554986573E+02  0.00000000000E+00 0. -1.
         -3    1    6    6    0  503 -0.38407454057E+02  0.23063398660E+01  0.46649064470E+02  0.60469719254E+02  0.00000000000E+00 0.  1.
<mgrwt>
<rscale>  0 0.12644862E+04</rscale>
<asrwt>0</asrwt>
<pdfrwt beam="1">  1        2 0.44092346E+00 0.12644862E+04</pdfrwt>
<pdfrwt beam="2">  1       -1 0.21457457E-01 0.12644862E+04</pdfrwt>
<totfact> 0.43305034E+01</totfact>
</mgrwt>
</event>
<event>
12    7  0.2466188E-007  0.1236601E+04  0.7818608E-02  0.9081409E-01
          2   -1    0    0  501    0  0.00000000000E+00  0.00000000000E+00  0.10508612691E+04  0.10508612691E+04  0.00000000000E+00 0. -1.
         -1   -1    0    0    0  501 -0.00000000000E+00 -0.00000000000E+00 -0.36379263054E+03  0.36379263054E+03  0.00000000000E+00 0.  1.
         24    2    1    2    0    0 -0.64034803159E+01 -0.26344442836E+03  0.27398865487E+03  0.38863108961E+03  0.80748804449E+02 0.  0.
        254    2    1    2    0    0  0.64034803159E+01  0.26344442836E+03  0.41307998374E+03  0.10260228101E+04  0.90146756038E+03 0.  0.
         23    2    4    4    0    0 -0.29137261153E+03 -0.16374047484E+03 -0.13567336884E+02  0.34677528366E+03  0.91433488816E+02 0.  0.
         23    2    4    4    0    0  0.29777609184E+03  0.42718490320E+03  0.42664732062E+03  0.67924752642E+03  0.90508140816E+02 0.  0.
          2    1    3    3  502    0  0.12098383695E+02 -0.10578563181E+03  0.16391273255E+03  0.19545934278E+03  0.00000000000E+00 0. -1.
         -1    1    3    3    0  502 -0.18501864011E+02 -0.15765879655E+03  0.11007592232E+03  0.19317174683E+03  0.00000000000E+00 0.  1.
         13    1    5    5    0    0 -0.15035385778E+03 -0.86582642158E+02  0.38659879577E+02  0.17775663915E+03  0.00000000000E+00 0. -1.
        -13    1    5    5    0    0 -0.14101875374E+03 -0.77157832678E+02 -0.52227216461E+02  0.16901864450E+03  0.00000000000E+00 0.  1.
          2    1    6    6  503    0  0.28674955968E+03  0.37460361020E+03  0.40338194695E+03  0.62070135321E+03  0.00000000000E+00 0.  1.
         -2    1    6    6    0  503  0.11026532159E+02  0.52581292996E+02  0.23265373674E+02  0.58546173204E+02  0.00000000000E+00 0. -1.
<mgrwt>
<rscale>  0 0.12366011E+04</rscale>
<asrwt>0</asrwt>
<pdfrwt beam="1">  1        2 0.16167096E+00 0.12366011E+04</pdfrwt>
<pdfrwt beam="2">  1       -1 0.55968098E-01 0.12366011E+04</pdfrwt>
<totfact> 0.84759692E+01</totfact>
</mgrwt>
</event>
<event>
12    7  0.2466188E-007  0.3151898E+04  0.7818608E-02  0.8201637E-01
         -1   -1    0    0    0  501 -0.00000000000E+00  0.00000000000E+00  0.13989315377E+04  0.13989315377E+04  0.00000000000E+00 0.  1.
          2   -1    0    0  501    0  0.00000000000E+00 -0.00000000000E+00 -0.17753660837E+04  0.17753660837E+04  0.00000000000E+00 0. -1.
         24    2    1    2    0    0 -0.11216188668E+04  0.84819680779E+03  0.16613224270E+03  0.14182882345E+04  0.80466683046E+02 0.  0.
        254    2    1    2    0    0  0.11216188668E+04 -0.84819680779E+03 -0.54256678866E+03  0.17560093869E+04  0.90095701321E+03 0.  0.
         23    2    4    4    0    0  0.25215749154E+03 -0.18758847196E+03  0.24457144995E+03  0.40685139765E+03  0.83306844169E+02 0.  0.
         23    2    4    4    0    0  0.86946137523E+03 -0.66060833583E+03 -0.78713823861E+03  0.13491579892E+04  0.90962722394E+02 0.  0.
          4    1    3    3  502    0 -0.42201065147E+03  0.28739376969E+03  0.30860125244E+02  0.51150808023E+03  0.00000000000E+00 0. -1.
         -3    1    3    3    0  502 -0.69960821531E+03  0.56080303810E+03  0.13527211745E+03  0.90678015430E+03  0.00000000000E+00 0.  1.
         13    1    5    5    0    0  0.37505650948E+02 -0.53742133488E+02  0.19817769948E+02  0.68466303907E+02  0.00000000000E+00 0.  1.
        -13    1    5    5    0    0  0.21465184059E+03 -0.13384633847E+03  0.22475368000E+03  0.33838509374E+03  0.00000000000E+00 0. -1.
          3    1    6    6  503    0  0.52284743242E+03 -0.38666221475E+03 -0.52219276855E+03  0.83400383298E+03  0.00000000000E+00 0. -1.
         -3    1    6    6    0  503  0.34661394281E+03 -0.27394612108E+03 -0.26494547006E+03  0.51515415625E+03  0.00000000000E+00 0.  1.
<mgrwt>
<rscale>  0 0.31518982E+04</rscale>
<asrwt>0</asrwt>
<pdfrwt beam="1">  1        2 0.27313324E+00 0.31518982E+04</pdfrwt>
<pdfrwt beam="2">  1       -1 0.21522024E+00 0.31518982E+04</pdfrwt>
<totfact> 0.10152750E+00</totfact>
</mgrwt>
</event>
<event>
12    7  0.2466188E-007  0.1388717E+04  0.7818608E-02  0.8962027E-01
          2   -1    0    0  501    0  0.00000000000E+00  0.00000000000E+00  0.97896295003E+03  0.97896295003E+03  0.00000000000E+00 0. -1.
         -1   -1    0    0    0  501 -0.00000000000E+00 -0.00000000000E+00 -0.49249423216E+03  0.49249423216E+03  0.00000000000E+00 0.  1.
         24    2    1    2    0    0  0.36952328808E+03  0.10566181760E+03  0.49439139304E+02  0.39998654748E+03  0.99162137596E+02 0.  0.
        254    2    1    2    0    0 -0.36952328808E+03 -0.10566181760E+03  0.43702957857E+03  0.10714706347E+04  0.89963469718E+03 0.  0.
         23    2    4    4    0    0 -0.60267191649E+03 -0.28168498262E+03  0.28355559409E+03  0.72885617469E+03  0.90926784169E+02 0.  0.
         23    2    4    4    0    0  0.23314862841E+03  0.17602316502E+03  0.15347398449E+03  0.34261446002E+03  0.92130162000E+02 0.  0.
          2    1    3    3  502    0  0.52249006006E+01 -0.11758204672E+02 -0.41039328196E+01  0.13505451787E+02  0.00000000000E+00 0. -1.
         -3    1    3    3    0  502  0.36429838748E+03  0.11742002228E+03  0.53543072123E+02  0.38648109569E+03  0.00000000000E+00 0.  1.
         13    1    5    5    0    0 -0.36942117941E+02  0.95908323516E+00  0.29665407490E+02  0.47388567399E+02  0.00000000000E+00 0. -1.
        -13    1    5    5    0    0 -0.56572979855E+03 -0.28264406586E+03  0.25389018660E+03  0.68146760729E+03  0.00000000000E+00 0.  1.
          1    1    6    6  503    0  0.25044153165E+02  0.15621792317E+02 -0.12262175132E+02  0.31962649170E+02  0.00000000000E+00 0. -1.
         -1    1    6    6    0  503  0.20810447525E+03  0.16040137270E+03  0.16573615962E+03  0.31065181085E+03  0.00000000000E+00 0.  1.
<mgrwt>
<rscale>  0 0.13887168E+04</rscale>
<asrwt>0</asrwt>
<pdfrwt beam="1">  1        2 0.15060968E+00 0.13887168E+04</pdfrwt>
<pdfrwt beam="2">  1       -1 0.75768344E-01 0.13887168E+04</pdfrwt>
<totfact> 0.50564022E+01</totfact>
</mgrwt>
</event>
<event>
12    7  0.2466188E-007  0.1815683E+04  0.7818608E-02  0.8698004E-01
          2   -1    0    0  501    0  0.00000000000E+00  0.00000000000E+00  0.27624889392E+04  0.27624889392E+04  0.00000000000E+00 0. -1.
         -1   -1    0    0    0  501 -0.00000000000E+00 -0.00000000000E+00 -0.29834538873E+03  0.29834538873E+03  0.00000000000E+00 0.  1.
         24    2    1    2    0    0  0.55022139957E+03  0.40042520207E+03  0.86384797095E+03  0.11026228713E+04  0.80373804808E+02 0.  0.
        254    2    1    2    0    0 -0.55022139957E+03 -0.40042520207E+03  0.16002955795E+04  0.19582114565E+04  0.90031229907E+03 0.  0.
         23    2    4    4    0    0 -0.92207631084E+02  0.27283359933E+03  0.34431383049E+03  0.45851264061E+03  0.93495494968E+02 0.  0.
         23    2    4    4    0    0 -0.45801376849E+03 -0.67325880140E+03  0.12559817490E+04  0.14996988159E+04  0.92478964827E+02 0.  0.
          2    1    3    3  502    0  0.20843407526E+03  0.14440824114E+03  0.38515588095E+03  0.46113290543E+03  0.00000000000E+00 0. -1.
         -1    1    3    3    0  502  0.34178732431E+03  0.25601696093E+03  0.47869209001E+03  0.64148996592E+03  0.00000000000E+00 0.  1.
         13    1    5    5    0    0 -0.66432252901E+02  0.14961720967E+03  0.12628405975E+03  0.20675158379E+03  0.00000000000E+00 0. -1.
        -13    1    5    5    0    0 -0.25775378182E+02  0.12321638967E+03  0.21802977073E+03  0.25176105681E+03  0.00000000000E+00 0.  1.
          1    1    6    6  503    0 -0.21011035095E+03 -0.29442776874E+03  0.64144284491E+03  0.73639866504E+03  0.00000000000E+00 0. -1.
         -1    1    6    6    0  503 -0.24790341754E+03 -0.37883103266E+03  0.61453890407E+03  0.76330015090E+03  0.00000000000E+00 0.  1.
<mgrwt>
<rscale>  0 0.18156826E+04</rscale>
<asrwt>0</asrwt>
<pdfrwt beam="1">  1        2 0.42499828E+00 0.18156826E+04</pdfrwt>
<pdfrwt beam="2">  1       -1 0.45899292E-01 0.18156826E+04</pdfrwt>
<totfact> 0.12370083E+01</totfact>
</mgrwt>
</event>
<event>
12    7  0.2466188E-007  0.1798283E+04  0.7818608E-02  0.8707213E-01
         -1   -1    0    0    0  501 -0.00000000000E+00  0.00000000000E+00  0.70230126672E+03  0.70230126672E+03  0.00000000000E+00 0.  1.
          2   -1    0    0  501    0  0.00000000000E+00 -0.00000000000E+00 -0.11511513553E+04  0.11511513553E+04  0.00000000000E+00 0. -1.
         24    2    1    2    0    0 -0.21362232399E+03 -0.41931912806E+03  0.32421196495E+03  0.57723458508E+03  0.81383902162E+02 0.  0.
        254    2    1    2    0    0  0.21362232399E+03  0.41931912806E+03 -0.77306205349E+03  0.12762180369E+04  0.89980248426E+03 0.  0.
         23    2    4    4    0    0  0.18322994133E+03  0.69435763940E+03 -0.55032481869E+03  0.90931506488E+03  0.91053491755E+02 0.  0.
         23    2    4    4    0    0  0.30392382657E+02 -0.27503851134E+03 -0.22273723480E+03  0.36690297201E+03  0.91847893062E+02 0.  0.
          4    1    3    3  502    0 -0.17579380483E+03 -0.26688805841E+03  0.23424499019E+03  0.39623656188E+03  0.00000000000E+00 0. -1.
         -3    1    3    3    0  502 -0.37828519160E+02 -0.15243106965E+03  0.89966974765E+02  0.18099802320E+03  0.00000000000E+00 0.  1.
         13    1    5    5    0    0  0.18971701776E+03  0.65915548498E+03 -0.53700735273E+03  0.87112306656E+03  0.00000000000E+00 0. -1.
        -13    1    5    5    0    0 -0.64870764264E+01  0.35202154421E+02 -0.13317465968E+02  0.38191998327E+02  0.00000000000E+00 0.  1.
          4    1    6    6  503    0  0.16912582249E+02 -0.30952202693E+02 -0.70734420478E+02  0.79040701732E+02  0.00000000000E+00 0.  1.
         -4    1    6    6    0  503  0.13479800408E+02 -0.24408630865E+03 -0.15200281432E+03  0.28786227028E+03  0.00000000000E+00 0. -1.
<mgrwt>
<rscale>  0 0.17982826E+04</rscale>
<asrwt>0</asrwt>
<pdfrwt beam="1">  1        2 0.17710021E+00 0.17982826E+04</pdfrwt>
<pdfrwt beam="2">  1       -1 0.10804635E+00 0.17982826E+04</pdfrwt>
<totfact> 0.17379007E+01</totfact>
</mgrwt>
</event>
<event>
12    7  0.2466188E-007  0.3313496E+04  0.7818608E-02  0.8159470E-01
          2   -1    0    0  501    0  0.00000000000E+00  0.00000000000E+00  0.26589543245E+04  0.26589543245E+04  0.00000000000E+00 0. -1.
         -1   -1    0    0    0  501 -0.00000000000E+00 -0.00000000000E+00 -0.10322906317E+04  0.10322906317E+04  0.00000000000E+00 0.  1.
         24    2    1    2    0    0  0.14178849992E+04 -0.37085607378E+03  0.25210146411E+03  0.14892086585E+04  0.79089708372E+02 0.  0.
        254    2    1    2    0    0 -0.14178849992E+04  0.37085607378E+03  0.13745622287E+04  0.22020362976E+04  0.90089424308E+03 0.  0.
         23    2    4    4    0    0 -0.13610477746E+04  0.49009867168E+03  0.14257187812E+04  0.20332489943E+04  0.93699931093E+02 0.  0.
         23    2    4    4    0    0 -0.56837224543E+02 -0.11924259790E+03 -0.51156552463E+02  0.16878730333E+03  0.91776324070E+02 0.  0.
          2    1    3    3  502    0  0.25796882098E+03 -0.69653304777E+02  0.77135176509E+02  0.27811747683E+03  0.00000000000E+00 0. -1.
         -1    1    3    3    0  502  0.11599161782E+04 -0.30120276900E+03  0.17496628760E+03  0.12110911817E+04  0.00000000000E+00 0.  1.
         13    1    5    5    0    0 -0.85727954218E+03  0.35548466677E+03  0.92563123091E+03  0.13107596032E+04  0.00000000000E+00 0. -1.
        -13    1    5    5    0    0 -0.50376823246E+03  0.13461400491E+03  0.50008755026E+03  0.72248939111E+03  0.00000000000E+00 0.  1.
          3    1    6    6  503    0 -0.61200081423E+02 -0.45974885110E+02  0.44953373031E+01  0.76676907114E+02  0.00000000000E+00 0. -1.
         -3    1    6    6    0  503  0.43628568805E+01 -0.73267712785E+02 -0.55651889766E+02  0.92110396218E+02  0.00000000000E+00 0.  1.
<mgrwt>
<rscale>  0 0.33134958E+04</rscale>
<asrwt>0</asrwt>
<pdfrwt beam="1">  1        2 0.40906989E+00 0.33134958E+04</pdfrwt>
<pdfrwt beam="2">  1       -1 0.15881394E+00 0.33134958E+04</pdfrwt>
<totfact> 0.79418149E-01</totfact>
</mgrwt>
</event>
<event>
12    7  0.2466188E-007  0.3574564E+04  0.7818608E-02  0.8096343E-01
          2   -1    0    0  501    0  0.00000000000E+00  0.00000000000E+00  0.12613588396E+04  0.12613588396E+04  0.00000000000E+00 0. -1.
         -1   -1    0    0    0  501 -0.00000000000E+00 -0.00000000000E+00 -0.25324889980E+04  0.25324889980E+04  0.00000000000E+00 0.  1.
         24    2    1    2    0    0 -0.13788183809E+04  0.87238002332E+03 -0.10179691312E+04  0.19247843171E+04  0.79664813985E+02 0.  0.
        254    2    1    2    0    0  0.13788183809E+04 -0.87238002332E+03 -0.25316102721E+03  0.18690635206E+04  0.87585438606E+03 0.  0.
         23    2    4    4    0    0  0.92366066674E+03 -0.75077006957E+03  0.19635418511E+03  0.12107757781E+04  0.10304510748E+03 0.  0.
         23    2    4    4    0    0  0.45515771416E+03 -0.12160995374E+03 -0.44951521232E+03  0.65828774245E+03  0.96546880559E+02 0.  0.
          4    1    3    3  502    0 -0.37130544402E+03  0.22122350131E+03 -0.23101027538E+03  0.49007480819E+03  0.00000000000E+00 0. -1.
         -3    1    3    3    0  502 -0.10075129369E+04  0.65115652201E+03 -0.78695885578E+03  0.14347095089E+04  0.00000000000E+00 0.  1.
         13    1    5    5    0    0  0.86809765771E+03 -0.70993880419E+03  0.20881600744E+03  0.11407062610E+04  0.00000000000E+00 0.  1.
        -13    1    5    5    0    0  0.55563009029E+02 -0.40831265384E+02 -0.12461822327E+02  0.70069517059E+02  0.00000000000E+00 0. -1.
          4    1    6    6  503    0  0.31268689328E+03 -0.87580149365E+02 -0.36751462283E+03  0.49041856999E+03  0.00000000000E+00 0.  1.
         -4    1    6    6    0  503  0.14247082088E+03 -0.34029804378E+02 -0.82000589492E+02  0.16786917247E+03  0.00000000000E+00 0. -1.
<mgrwt>
<rscale>  0 0.35745642E+04</rscale>
<asrwt>0</asrwt>
<pdfrwt beam="1">  1        2 0.19405521E+00 0.35745642E+04</pdfrwt>
<pdfrwt beam="2">  1       -1 0.38961369E+00 0.35745642E+04</pdfrwt>
<totfact> 0.13633963E-01</totfact>
</mgrwt>
</event>
<event>
12    7  0.2466188E-007  0.2787697E+04  0.7818608E-02  0.8307098E-01
          2   -1    0    0  501    0  0.00000000000E+00  0.00000000000E+00  0.28791208326E+04  0.28791208326E+04  0.00000000000E+00 0. -1.
         -1   -1    0    0    0  501 -0.00000000000E+00 -0.00000000000E+00 -0.67479413519E+03  0.67479413519E+03  0.00000000000E+00 0.  1.
         24    2    1    2    0    0  0.93406008897E+03  0.66562373478E+03  0.16138521704E+04  0.19814767095E+04  0.78790331898E+02 0.  0.
        254    2    1    2    0    0 -0.93406008897E+03 -0.66562373478E+03  0.59047452699E+03  0.15724382582E+04  0.89909882818E+03 0.  0.
         23    2    4    4    0    0 -0.78604136338E+03 -0.46266780384E+03  0.81252634908E+03  0.12249910555E+04  0.92095040177E+02 0.  0.
         23    2    4    4    0    0 -0.14801872560E+03 -0.20295593094E+03 -0.22205182209E+03  0.34744720276E+03  0.91169589105E+02 0.  0.
          4    1    3    3  502    0  0.75381691565E+03  0.50697183438E+03  0.12401948089E+04  0.15373169963E+04  0.00000000000E+00 0. -1.
         -3    1    3    3    0  502  0.18024317333E+03  0.15865190040E+03  0.37365736155E+03  0.44415971325E+03  0.00000000000E+00 0.  1.
         13    1    5    5    0    0 -0.51261635890E+03 -0.31368031333E+03  0.59072006949E+03  0.84268681660E+03  0.00000000000E+00 0. -1.
        -13    1    5    5    0    0 -0.27342500448E+03 -0.14898749050E+03  0.22180627959E+03  0.38230423888E+03  0.00000000000E+00 0.  1.
          1    1    6    6  503    0 -0.13363508173E+03 -0.13252147793E+03 -0.12214590503E+03  0.22436554837E+03  0.00000000000E+00 0. -1.
         -1    1    6    6    0  503 -0.14383643869E+02 -0.70434453012E+02 -0.99905917060E+02  0.12308165438E+03  0.00000000000E+00 0.  1.
<mgrwt>
<rscale>  0 0.27876972E+04</rscale>
<asrwt>0</asrwt>
<pdfrwt beam="1">  1        2 0.44294166E+00 0.27876972E+04</pdfrwt>
<pdfrwt beam="2">  1       -1 0.10381448E+00 0.27876972E+04</pdfrwt>
<totfact> 0.17902320E+00</totfact>
</mgrwt>
</event>
<event>
12    7  0.2466188E-007  0.1685279E+04  0.7818608E-02  0.8769805E-01
         -1   -1    0    0    0  501 -0.00000000000E+00  0.00000000000E+00  0.18260565873E+03  0.18260565873E+03  0.00000000000E+00 0.  1.
          2   -1    0    0  501    0  0.00000000000E+00 -0.00000000000E+00 -0.38883848681E+04  0.38883848681E+04  0.00000000000E+00 0. -1.
         24    2    1    2    0    0 -0.49357331278E+03  0.23490977634E+03 -0.73745004893E+03  0.92153947317E+03  0.81272429715E+02 0.  0.
        254    2    1    2    0    0  0.49357331278E+03 -0.23490977634E+03 -0.29683291604E+04  0.31494510536E+04  0.89959252809E+03 0.  0.
         23    2    4    4    0    0  0.18751396988E+03  0.11212005350E+03 -0.12518682886E+03  0.26754051832E+03  0.90409023480E+02 0.  0.
         23    2    4    4    0    0  0.30605934290E+03 -0.34702982984E+03 -0.28431423315E+04  0.28819105353E+04  0.88588892745E+02 0.  0.
          2    1    3    3  502    0 -0.13019191314E+03  0.27307429026E+02 -0.15370092745E+03  0.20327224362E+03  0.00000000000E+00 0. -1.
         -1    1    3    3    0  502 -0.36338139964E+03  0.20760234731E+03 -0.58374912148E+03  0.71826722955E+03  0.00000000000E+00 0.  1.
         13    1    5    5    0    0  0.14162801475E+03  0.36900719529E+02 -0.61148621644E+02  0.15861687045E+03  0.00000000000E+00 0.  1.
        -13    1    5    5    0    0  0.45885955130E+02  0.75219333972E+02 -0.64038207214E+02  0.10892364787E+03  0.00000000000E+00 0. -1.
          3    1    6    6  503    0  0.10498940581E+03 -0.60837031274E+02 -0.72465957426E+03  0.73474854084E+03  0.00000000000E+00 0. -1.
         -3    1    6    6    0  503  0.20106993709E+03 -0.28619279856E+03 -0.21184827573E+04  0.21471619945E+04  0.00000000000E+00 0.  1.
<mgrwt>
<rscale>  0 0.16852787E+04</rscale>
<asrwt>0</asrwt>
<pdfrwt beam="1">  1        2 0.59821298E+00 0.16852787E+04</pdfrwt>
<pdfrwt beam="2">  1       -1 0.28093182E-01 0.16852787E+04</pdfrwt>
<totfact> 0.52948719E+00</totfact>
</mgrwt>
</event>
<event>
12    7  0.2466188E-007  0.1989197E+04  0.7818608E-02  0.8611688E-01
          2   -1    0    0  501    0  0.00000000000E+00  0.00000000000E+00  0.14097935331E+04  0.14097935331E+04  0.00000000000E+00 0. -1.
         -1   -1    0    0    0  501 -0.00000000000E+00 -0.00000000000E+00 -0.70168186165E+03  0.70168186165E+03  0.00000000000E+00 0.  1.
         24    2    1    2    0    0  0.35004485890E+03  0.22871725868E+03 -0.42675258028E+03  0.60302102554E+03  0.81692134297E+02 0.  0.
        254    2    1    2    0    0 -0.35004485890E+03 -0.22871725868E+03  0.11348642518E+04  0.15084543692E+04  0.90148473448E+03 0.  0.
         23    2    4    4    0    0 -0.40694424021E+03 -0.29802249493E+03  0.17702094727E+03  0.54228605098E+03  0.91196069992E+02 0.  0.
         23    2    4    4    0    0  0.56899381318E+02  0.69305236253E+02  0.95784330450E+03  0.96616831827E+03  0.89312193390E+02 0.  0.
          4    1    3    3  502    0  0.65460879310E+01  0.11196224935E+02  0.82557144581E+00  0.12995702682E+02  0.00000000000E+00 0. -1.
         -3    1    3    3    0  502  0.34349877097E+03  0.21752103374E+03 -0.42757815173E+03  0.59002532286E+03  0.00000000000E+00 0.  1.
         13    1    5    5    0    0 -0.40589008425E+03 -0.29306953827E+03  0.16162552718E+03  0.52607920106E+03  0.00000000000E+00 0.  1.
        -13    1    5    5    0    0 -0.10541559659E+01 -0.49529566617E+01  0.15395420086E+02  0.16206849914E+02  0.00000000000E+00 0. -1.
          4    1    6    6  503    0  0.14759621283E+02  0.80867928169E+02  0.57698372208E+03  0.58281016101E+03  0.00000000000E+00 0. -1.
         -4    1    6    6    0  503  0.42139760035E+02 -0.11562691916E+02  0.38085958242E+03  0.38335815726E+03  0.00000000000E+00 0.  1.
<mgrwt>
<rscale>  0 0.19891974E+04</rscale>
<asrwt>0</asrwt>
<pdfrwt beam="1">  1        2 0.21689131E+00 0.19891974E+04</pdfrwt>
<pdfrwt beam="2">  1       -1 0.10795106E+00 0.19891974E+04</pdfrwt>
<totfact> 0.12077590E+01</totfact>
</mgrwt>
</event>
<event>
12    7  0.2466188E-007  0.2721414E+04  0.7818608E-02  0.8328090E-01
         -1   -1    0    0    0  501 -0.00000000000E+00  0.00000000000E+00  0.82032401271E+03  0.82032401271E+03  0.00000000000E+00 0.  1.
          2   -1    0    0  501    0  0.00000000000E+00 -0.00000000000E+00 -0.22570637956E+04  0.22570637956E+04  0.00000000000E+00 0. -1.
         24    2    1    2    0    0  0.60310762188E+03 -0.44374996577E+03 -0.17209209208E+04  0.18784360507E+04  0.79374712380E+02 0.  0.
        254    2    1    2    0    0 -0.60310762188E+03  0.44374996577E+03  0.28418113794E+03  0.11989517577E+04  0.89222954576E+03 0.  0.
         23    2    4    4    0    0 -0.12960824392E+03  0.14185726297E+02  0.49472055425E+03  0.51953141955E+03  0.90360043075E+02 0.  0.
         23    2    4    4    0    0 -0.47349937796E+03  0.42956423948E+03 -0.21053941631E+03  0.67942033810E+03  0.92509746724E+02 0.  0.
          2    1    3    3  502    0  0.40337878127E+03 -0.27172054153E+03 -0.11940287064E+04  0.12892831518E+04  0.00000000000E+00 0. -1.
         -1    1    3    3    0  502  0.19972884061E+03 -0.17202942424E+03 -0.52689221441E+03  0.58915289882E+03  0.00000000000E+00 0.  1.
         13    1    5    5    0    0 -0.67871262446E+02 -0.17105980512E+02  0.12387322280E+03  0.14228035059E+03  0.00000000000E+00 0.  1.
        -13    1    5    5    0    0 -0.61736981474E+02  0.31291706809E+02  0.37084733145E+03  0.37725106897E+03  0.00000000000E+00 0. -1.
          4    1    6    6  503    0 -0.33354447925E+03  0.35377647232E+03 -0.17112823676E+03  0.51545570656E+03  0.00000000000E+00 0.  1.
         -4    1    6    6    0  503 -0.13995489871E+03  0.75787767155E+02 -0.39411179553E+02  0.16396463155E+03  0.00000000000E+00 0. -1.
<mgrwt>
<rscale>  0 0.27214141E+04</rscale>
<asrwt>0</asrwt>
<pdfrwt beam="1">  1        2 0.34724058E+00 0.27214141E+04</pdfrwt>
<pdfrwt beam="2">  1       -1 0.12620370E+00 0.27214141E+04</pdfrwt>
<totfact> 0.26089143E+00</totfact>
</mgrwt>
</event>
<event>
12    7  0.2466188E-007  0.2053311E+04  0.7818608E-02  0.8582094E-01
         -1   -1    0    0    0  501 -0.00000000000E+00  0.00000000000E+00  0.11893802780E+04  0.11893802780E+04  0.00000000000E+00 0.  1.
          2   -1    0    0  501    0  0.00000000000E+00 -0.00000000000E+00 -0.88619411281E+03  0.88619411281E+03  0.00000000000E+00 0. -1.
         24    2    1    2    0    0 -0.70555228152E+03  0.36832649343E+02 -0.31183753048E+03  0.77619856032E+03  0.77980084747E+02 0.  0.
        254    2    1    2    0    0  0.70555228152E+03 -0.36832649343E+02  0.61502369572E+03  0.12993758305E+04  0.90053469488E+03 0.  0.
         23    2    4    4    0    0  0.29682692047E+03  0.34803617190E+03  0.55880540314E+03  0.72813309035E+03  0.93160726793E+02 0.  0.
         23    2    4    4    0    0  0.40872536105E+03 -0.38486882125E+03  0.56218292577E+02  0.57124274019E+03  0.89315964232E+02 0.  0.
          4    1    3    3  502    0 -0.55899977140E+03  0.77825599496E+01 -0.27122599125E+03  0.62137335877E+03  0.00000000000E+00 0. -1.
         -3    1    3    3    0  502 -0.14655251012E+03  0.29050089394E+02 -0.40611539229E+02  0.15482520155E+03  0.00000000000E+00 0.  1.
         13    1    5    5    0    0  0.30146401130E+03  0.32502856178E+03  0.52880158803E+03  0.69004002462E+03  0.00000000000E+00 0. -1.
        -13    1    5    5    0    0 -0.46370908356E+01  0.23007610126E+02  0.30003815113E+02  0.38093065727E+02  0.00000000000E+00 0.  1.
          4    1    6    6  503    0  0.29937713281E+03 -0.33100874432E+03  0.51311593020E+02  0.44925086093E+03  0.00000000000E+00 0. -1.
         -4    1    6    6    0  503  0.10934822823E+03 -0.53860076925E+02  0.49066995571E+01  0.12199187926E+03  0.00000000000E+00 0.  1.
<mgrwt>
<rscale>  0 0.20533113E+04</rscale>
<asrwt>0</asrwt>
<pdfrwt beam="1">  1        2 0.13633755E+00 0.20533113E+04</pdfrwt>
<pdfrwt beam="2">  1       -1 0.18298158E+00 0.20533113E+04</pdfrwt>
<totfact> 0.62651221E+00</totfact>
</mgrwt>
</event>
<event>
12    7  0.2466188E-007  0.3484075E+04  0.7818608E-02  0.8117574E-01
          2   -1    0    0  501    0  0.00000000000E+00  0.00000000000E+00  0.16248277398E+04  0.16248277398E+04  0.00000000000E+00 0. -1.
         -1   -1    0    0    0  501 -0.00000000000E+00 -0.00000000000E+00 -0.18677028712E+04  0.18677028712E+04  0.00000000000E+00 0.  1.
         24    2    1    2    0    0  0.14596603808E+04 -0.37822958764E+03  0.49504812751E+03  0.15890155536E+04  0.78941324763E+02 0.  0.
        254    2    1    2    0    0 -0.14596603808E+04  0.37822958764E+03 -0.73792325896E+03  0.19035150574E+04  0.89731420900E+03 0.  0.
         23    2    4    4    0    0 -0.79784372536E+03  0.64630444340E+03 -0.37095789823E+03  0.10954935359E+04  0.90731919516E+02 0.  0.
         23    2    4    4    0    0 -0.66181665540E+03 -0.26807485576E+03 -0.36696536073E+03  0.80802152157E+03  0.91486554717E+02 0.  0.
          4    1    3    3  502    0  0.12219837086E+04 -0.28859048740E+03  0.42383624749E+03  0.13252040666E+04  0.00000000000E+00 0. -1.
         -3    1    3    3    0  502  0.23767667214E+03 -0.89639100243E+02  0.71211880015E+02  0.26381148691E+03  0.00000000000E+00 0.  1.
         13    1    5    5    0    0 -0.22691597142E+03  0.21932040234E+03 -0.14757737174E+03  0.34838395144E+03  0.00000000000E+00 0. -1.
        -13    1    5    5    0    0 -0.57092775393E+03  0.42698404106E+03 -0.22338052648E+03  0.74710958443E+03  0.00000000000E+00 0.  1.
          1    1    6    6  503    0 -0.45107559241E+03 -0.14723246972E+03 -0.21070432186E+03  0.51917521268E+03  0.00000000000E+00 0. -1.
         -1    1    6    6    0  503 -0.21074106299E+03 -0.12084238604E+03 -0.15626103887E+03  0.28884630889E+03  0.00000000000E+00 0.  1.
<mgrwt>
<rscale>  0 0.34840754E+04</rscale>
<asrwt>0</asrwt>
<pdfrwt beam="1">  1        2 0.24997350E+00 0.34840754E+04</pdfrwt>
<pdfrwt beam="2">  1       -1 0.28733890E+00 0.34840754E+04</pdfrwt>
<totfact> 0.40351420E-01</totfact>
</mgrwt>
</event>
<event>
12    7  0.2466188E-007  0.1633300E+04  0.7818608E-02  0.8800348E-01
          2   -1    0    0  501    0  0.00000000000E+00  0.00000000000E+00  0.18140838136E+04  0.18140838136E+04  0.00000000000E+00 0. -1.
         -1   -1    0    0    0  501 -0.00000000000E+00 -0.00000000000E+00 -0.36763296301E+03  0.36763296301E+03  0.00000000000E+00 0.  1.
         24    2    1    2    0    0 -0.17414228291E+03  0.53042570208E+03  0.41744259075E+03  0.70471697084E+03  0.10339599747E+03 0.  0.
        254    2    1    2    0    0  0.17414228291E+03 -0.53042570208E+03  0.10290082598E+04  0.14769998058E+04  0.90055175715E+03 0.  0.
         23    2    4    4    0    0  0.53533064429E+03 -0.34768732875E+03  0.59601971645E+03  0.87773149310E+03  0.87793475277E+02 0.  0.
         23    2    4    4    0    0 -0.36118836139E+03 -0.18273837333E+03  0.43298854336E+03  0.59926831265E+03  0.88278459280E+02 0.  0.
          2    1    3    3  502    0 -0.11148068798E+03  0.22389024928E+03  0.14044816379E+03  0.28684573246E+03  0.00000000000E+00 0. -1.
         -1    1    3    3    0  502 -0.62661594925E+02  0.30653545280E+03  0.27699442696E+03  0.41787123838E+03  0.00000000000E+00 0.  1.
         13    1    5    5    0    0  0.12916860335E+03 -0.10668642059E+03  0.11229161268E+03  0.20168273775E+03  0.00000000000E+00 0. -1.
        -13    1    5    5    0    0  0.40616204095E+03 -0.24100090816E+03  0.48372810377E+03  0.67604875536E+03  0.00000000000E+00 0.  1.
          2    1    6    6  503    0 -0.10716746786E+03 -0.37802162057E+02  0.17840567684E+03  0.21152412428E+03  0.00000000000E+00 0. -1.
         -2    1    6    6    0  503 -0.25402089353E+03 -0.14493621127E+03  0.25458286652E+03  0.38774418837E+03  0.00000000000E+00 0.  1.
<mgrwt>
<rscale>  0 0.16332997E+04</rscale>
<asrwt>0</asrwt>
<pdfrwt beam="1">  1        2 0.27908981E+00 0.16332997E+04</pdfrwt>
<pdfrwt beam="2">  1       -1 0.56558918E-01 0.16332997E+04</pdfrwt>
<totfact> 0.29214478E+01</totfact>
</mgrwt>
</event>
<event>
12    7  0.2466188E-007  0.1673468E+04  0.7818608E-02  0.8776643E-01
         -1   -1    0    0    0  501 -0.00000000000E+00  0.00000000000E+00  0.75396010461E+03  0.75396010461E+03  0.00000000000E+00 0.  1.
          2   -1    0    0  501    0  0.00000000000E+00 -0.00000000000E+00 -0.92859501599E+03  0.92859501599E+03  0.00000000000E+00 0. -1.
         24    2    1    2    0    0  0.16486644698E+03 -0.42874129790E+03  0.31118468172E+03  0.56045202752E+03  0.79186634859E+02 0.  0.
        254    2    1    2    0    0 -0.16486644698E+03  0.42874129790E+03 -0.48581959311E+03  0.11221030931E+04  0.90116293121E+03 0.  0.
         23    2    4    4    0    0  0.14628046364E+03 -0.20826458182E+03 -0.23347783477E+02  0.27060530541E+03  0.88938193375E+02 0.  0.
         23    2    4    4    0    0 -0.31114691062E+03  0.63700587972E+03 -0.46247180963E+03  0.85149778767E+03  0.92625141948E+02 0.  0.
          2    1    3    3  502    0  0.10952968508E+02 -0.85818891231E+02  0.32042554897E+02  0.92258197118E+02  0.00000000000E+00 0. -1.
         -1    1    3    3    0  502  0.15391347847E+03 -0.34292240667E+03  0.27914212683E+03  0.46819383040E+03  0.00000000000E+00 0.  1.
         13    1    5    5    0    0  0.55883005301E+02 -0.39624278106E+02  0.25550822545E+02  0.73115239380E+02  0.00000000000E+00 0. -1.
        -13    1    5    5    0    0  0.90397458339E+02 -0.16864030371E+03 -0.48898606022E+02  0.19749006603E+03  0.00000000000E+00 0.  1.
          1    1    6    6  503    0 -0.13168840829E+03  0.29456445678E+03 -0.26407964377E+03  0.41695097353E+03  0.00000000000E+00 0. -1.
         -1    1    6    6    0  503 -0.17945850234E+03  0.34244142294E+03 -0.19839216586E+03  0.43454681414E+03  0.00000000000E+00 0.  1.
<mgrwt>
<rscale>  0 0.16734678E+04</rscale>
<asrwt>0</asrwt>
<pdfrwt beam="1">  1        2 0.14286077E+00 0.16734678E+04</pdfrwt>
<pdfrwt beam="2">  1       -1 0.11599386E+00 0.16734678E+04</pdfrwt>
<totfact> 0.20526404E+01</totfact>
</mgrwt>
</event>
<event>
12    7  0.2466188E-007  0.1182935E+04  0.7818608E-02  0.9127926E-01
          2   -1    0    0  501    0  0.00000000000E+00  0.00000000000E+00  0.36817915113E+03  0.36817915113E+03  0.00000000000E+00 0. -1.
         -1   -1    0    0    0  501 -0.00000000000E+00 -0.00000000000E+00 -0.95017328559E+03  0.95017328559E+03  0.00000000000E+00 0.  1.
         24    2    1    2    0    0  0.53966176188E+02  0.17250232058E+03  0.47408093548E+02  0.20145431035E+03  0.75278901748E+02 0.  0.
        254    2    1    2    0    0 -0.53966176188E+02 -0.17250232058E+03 -0.62940222801E+03  0.11168981264E+04  0.90478995423E+03 0.  0.
         23    2    4    4    0    0  0.37098692038E+03  0.10095756585E+03 -0.37777363957E+03  0.54689903142E+03  0.92530549679E+02 0.  0.
         23    2    4    4    0    0 -0.42495309657E+03 -0.27345988643E+03 -0.25162858845E+03  0.56999909494E+03  0.78845278504E+02 0.  0.
          4    1    3    3  502    0  0.52748113874E+02  0.97542905173E+02  0.58973762690E+02  0.12559811524E+03  0.00000000000E+00 0. -1.
         -3    1    3    3    0  502  0.12180623146E+01  0.74959415409E+02 -0.11565669142E+02  0.75856195112E+02  0.00000000000E+00 0.  1.
         13    1    5    5    0    0  0.36010754585E+03  0.90567936151E+02 -0.38044678442E+03  0.53161993136E+03  0.00000000000E+00 0. -1.
        -13    1    5    5    0    0  0.10879374529E+02  0.10389629700E+02  0.26731448553E+01  0.15279100067E+02  0.00000000000E+00 0.  1.
          2    1    6    6  503    0 -0.29656198844E+03 -0.18065643742E+03 -0.13204621891E+03  0.37151307554E+03  0.00000000000E+00 0. -1.
         -2    1    6    6    0  503 -0.12839110813E+03 -0.92803449014E+02 -0.11958236953E+03  0.19848601940E+03  0.00000000000E+00 0.  1.
<mgrwt>
<rscale>  0 0.11829353E+04</rscale>
<asrwt>0</asrwt>
<pdfrwt beam="1">  1        2 0.56642947E-01 0.11829353E+04</pdfrwt>
<pdfrwt beam="2">  1       -1 0.14618050E+00 0.11829353E+04</pdfrwt>
<totfact> 0.36923890E+01</totfact>
</mgrwt>
</event>
<event>
12    7  0.2466188E-007  0.1963878E+04  0.7818608E-02  0.8623697E-01
          2   -1    0    0  501    0  0.00000000000E+00  0.00000000000E+00  0.26413877114E+04  0.26413877114E+04  0.00000000000E+00 0. -1.
         -1   -1    0    0    0  501 -0.00000000000E+00 -0.00000000000E+00 -0.36503714960E+03  0.36503714960E+03  0.00000000000E+00 0.  1.
         24    2    1    2    0    0  0.51390586540E+03 -0.27589183315E+03  0.12453453654E+03  0.60200772767E+03  0.81785764586E+02 0.  0.
        254    2    1    2    0    0 -0.51390586540E+03  0.27589183315E+03  0.21518160252E+04  0.24044171333E+04  0.90038547435E+03 0.  0.
         23    2    4    4    0    0 -0.16769218145E+02  0.25134058825E+03  0.17149121860E+04  0.17357218669E+04  0.91396364832E+02 0.  0.
         23    2    4    4    0    0 -0.49713664725E+03  0.24551244903E+02  0.43690383917E+03  0.66869526637E+03  0.92308097781E+02 0.  0.
          2    1    3    3  502    0  0.26622200101E+03 -0.18881689770E+03  0.64787434627E+02  0.33275123796E+03  0.00000000000E+00 0. -1.
         -1    1    3    3    0  502  0.24768386439E+03 -0.87074935457E+02  0.59747101913E+02  0.26925648971E+03  0.00000000000E+00 0.  1.
         13    1    5    5    0    0  0.17172887587E+02  0.73083563610E+01  0.69359216366E+02  0.71826325505E+02  0.00000000000E+00 0.  1.
        -13    1    5    5    0    0 -0.33942105732E+02  0.24403223189E+03  0.16455529697E+04  0.16638955414E+04  0.00000000000E+00 0. -1.
          2    1    6    6  503    0 -0.10169704510E+02  0.15310708812E+02  0.23601374473E+02  0.29914303788E+02  0.00000000000E+00 0.  1.
         -2    1    6    6    0  503 -0.48696694274E+03  0.92405360914E+01  0.41330246470E+03  0.63878096258E+03  0.00000000000E+00 0. -1.
<mgrwt>
<rscale>  0 0.19638784E+04</rscale>
<asrwt>0</asrwt>
<pdfrwt beam="1">  1        2 0.40636733E+00 0.19638784E+04</pdfrwt>
<pdfrwt beam="2">  1       -1 0.56159563E-01 0.19638784E+04</pdfrwt>
<totfact> 0.98000621E+00</totfact>
</mgrwt>
</event>
<event>
12    7  0.2466188E-007  0.3160903E+04  0.7818608E-02  0.8199219E-01
          2   -1    0    0  501    0  0.00000000000E+00  0.00000000000E+00  0.31355882404E+04  0.31355882404E+04  0.00000000000E+00 0. -1.
         -1   -1    0    0    0  501 -0.00000000000E+00 -0.00000000000E+00 -0.79660577341E+03  0.79660577341E+03  0.00000000000E+00 0.  1.
         24    2    1    2    0    0  0.16455663705E+03 -0.99530490686E+03  0.23732895504E+04  0.25799965396E+04  0.78537316203E+02 0.  0.
        254    2    1    2    0    0 -0.16455663705E+03  0.99530490686E+03 -0.34307083333E+02  0.13521974743E+04  0.89975012587E+03 0.  0.
         23    2    4    4    0    0  0.18496142593E+03  0.95584857113E+03 -0.98269264082E+02  0.98292580664E+03  0.92892804270E+02 0.  0.
         23    2    4    4    0    0 -0.34951806298E+03  0.39456335728E+02  0.63962180750E+02  0.36927166762E+03  0.92470131154E+02 0.  0.
          4    1    3    3  502    0  0.25442372005E+02 -0.87762480308E+02  0.26998820221E+03  0.28503192203E+03  0.00000000000E+00 0. -1.
         -1    1    3    3    0  502  0.13911426505E+03 -0.90754242655E+03  0.21033013481E+04  0.22949646176E+04  0.00000000000E+00 0.  1.
         13    1    5    5    0    0  0.25688605591E+02  0.27436470718E+03  0.43165085354E+01  0.27559849282E+03  0.00000000000E+00 0.  1.
        -13    1    5    5    0    0  0.15927282034E+03  0.68148386396E+03 -0.10258577262E+03  0.70732731382E+03  0.00000000000E+00 0. -1.
          2    1    6    6  503    0 -0.19982030435E+03  0.66365061672E+02  0.23333707666E+02  0.21184177434E+03  0.00000000000E+00 0. -1.
         -2    1    6    6    0  503 -0.14969775864E+03 -0.26908725944E+02  0.40628473083E+02  0.15742989328E+03  0.00000000000E+00 0.  1.
<mgrwt>
<rscale>  0 0.31609035E+04</rscale>
<asrwt>0</asrwt>
<pdfrwt beam="1">  1        2 0.48239819E+00 0.31609035E+04</pdfrwt>
<pdfrwt beam="2">  1       -1 0.12255474E+00 0.31609035E+04</pdfrwt>
<totfact> 0.80453190E-01</totfact>
</mgrwt>
</event>
<event>
12    7  0.2466188E-007  0.1293567E+04  0.7818608E-02  0.9034682E-01
         -1   -1    0    0    0  501 -0.00000000000E+00  0.00000000000E+00  0.59785348804E+03  0.59785348804E+03  0.00000000000E+00 0.  1.
          2   -1    0    0  501    0  0.00000000000E+00 -0.00000000000E+00 -0.69971828155E+03  0.69971828155E+03  0.00000000000E+00 0. -1.
         24    2    1    2    0    0  0.27966275505E+03 -0.96983203823E+02 -0.16577495753E+03  0.34796022593E+03  0.77317423006E+02 0.  0.
        254    2    1    2    0    0 -0.27966275505E+03  0.96983203823E+02  0.63910164014E+02  0.94961154367E+03  0.90003365293E+03 0.  0.
         23    2    4    4    0    0 -0.28995609348E+03  0.33596041052E+02 -0.38265257470E+03  0.48912255792E+03  0.87261982689E+02 0.  0.
         23    2    4    4    0    0  0.10293338431E+02  0.63387162771E+02  0.44656273871E+03  0.46048898574E+03  0.92238501532E+02 0.  0.
          2    1    3    3  502    0  0.22915371237E+03 -0.49774164831E+02 -0.14526499513E+03  0.27584562746E+03  0.00000000000E+00 0. -1.
         -1    1    3    3    0  502  0.50509042679E+02 -0.47209038992E+02 -0.20509962391E+02  0.72114598468E+02  0.00000000000E+00 0.  1.
         13    1    5    5    0    0 -0.24492747777E+03  0.51674944387E+02 -0.35127146387E+03  0.43133677164E+03  0.00000000000E+00 0.  1.
        -13    1    5    5    0    0 -0.45028615713E+02 -0.18078903336E+02 -0.31381110830E+02  0.57785786278E+02  0.00000000000E+00 0. -1.
          3    1    6    6  503    0 -0.40524153552E+02  0.37887253499E+02  0.22795628719E+03  0.23460971819E+03  0.00000000000E+00 0. -1.
         -3    1    6    6    0  503  0.50817491984E+02  0.25499909272E+02  0.21860645152E+03  0.22587926755E+03  0.00000000000E+00 0.  1.
<mgrwt>
<rscale>  0 0.12935672E+04</rscale>
<asrwt>0</asrwt>
<pdfrwt beam="1">  1        2 0.10764897E+00 0.12935672E+04</pdfrwt>
<pdfrwt beam="2">  1       -1 0.91977460E-01 0.12935672E+04</pdfrwt>
<totfact> 0.52880468E+01</totfact>
</mgrwt>
</event>
<event>
12    7  0.2466188E-007  0.1416523E+04  0.7818608E-02  0.8941945E-01
         -1   -1    0    0    0  501 -0.00000000000E+00  0.00000000000E+00  0.50987438872E+03  0.50987438872E+03  0.00000000000E+00 0.  1.
          2   -1    0    0  501    0  0.00000000000E+00 -0.00000000000E+00 -0.98383843581E+03  0.98383843581E+03  0.00000000000E+00 0. -1.
         24    2    1    2    0    0  0.32683296814E+03 -0.18931649126E+03  0.37826545381E+02  0.38791119165E+03  0.79898198659E+02 0.  0.
        254    2    1    2    0    0 -0.32683296814E+03  0.18931649126E+03 -0.51179059248E+03  0.11058016329E+04  0.90454801852E+03 0.  0.
         23    2    4    4    0    0  0.82227683795E+02 -0.13804197821E+03  0.16285919185E+03  0.24667444568E+03  0.92239828998E+02 0.  0.
         23    2    4    4    0    0 -0.40906065193E+03  0.32735846947E+03 -0.67464978433E+03  0.85912718720E+03  0.91940240372E+02 0.  0.
          4    1    3    3  502    0  0.29181985484E+03 -0.13792192223E+03  0.20830567460E+02  0.32344272577E+03  0.00000000000E+00 0. -1.
         -1    1    3    3    0  502  0.35013113298E+02 -0.51394569022E+02  0.16995977921E+02  0.64468465882E+02  0.00000000000E+00 0.  1.
         13    1    5    5    0    0 -0.59002318511E+01 -0.28111861969E+02  0.75782815950E+02  0.81043967774E+02  0.00000000000E+00 0. -1.
        -13    1    5    5    0    0  0.88127915646E+02 -0.10993011624E+03  0.87076375898E+02  0.16563047791E+03  0.00000000000E+00 0.  1.
          4    1    6    6  503    0 -0.18303603177E+03  0.18921719056E+03 -0.38736133035E+03  0.46835257486E+03  0.00000000000E+00 0. -1.
         -4    1    6    6    0  503 -0.22602462017E+03  0.13814127891E+03 -0.28728845398E+03  0.39077461234E+03  0.00000000000E+00 0.  1.
<mgrwt>
<rscale>  0 0.14165225E+04</rscale>
<asrwt>0</asrwt>
<pdfrwt beam="1">  1        2 0.15135976E+00 0.14165225E+04</pdfrwt>
<pdfrwt beam="2">  1       -1 0.78442214E-01 0.14165225E+04</pdfrwt>
<totfact> 0.46559990E+01</totfact>
</mgrwt>
</event>
<event>
12    7  0.2466188E-007  0.2272849E+04  0.7818608E-02  0.8488704E-01
         -1   -1    0    0    0  501 -0.00000000000E+00  0.00000000000E+00  0.79221476378E+03  0.79221476378E+03  0.00000000000E+00 0.  1.
          2   -1    0    0  501    0  0.00000000000E+00 -0.00000000000E+00 -0.16301899924E+04  0.16301899924E+04  0.00000000000E+00 0. -1.
         24    2    1    2    0    0 -0.41843193001E+03 -0.85923696133E+03 -0.32271490666E+03  0.10120013969E+04  0.81415480749E+02 0.  0.
        254    2    1    2    0    0  0.41843193001E+03  0.85923696133E+03 -0.51526032199E+03  0.14104033593E+04  0.90020608799E+03 0.  0.
         23    2    4    4    0    0  0.22829651775E+03 -0.13810964431E+03 -0.35988265699E+02  0.28358916925E+03  0.89073496477E+02 0.  0.
         23    2    4    4    0    0  0.19013541226E+03  0.99734660564E+03 -0.47927205629E+03  0.11268141901E+04  0.95691108651E+02 0.  0.
          4    1    3    3  502    0 -0.23850407678E+03 -0.51812599206E+03 -0.23238917022E+03  0.61590864966E+03  0.00000000000E+00 0. -1.
         -3    1    3    3    0  502 -0.17992785324E+03 -0.34111096927E+03 -0.90325736439E+02  0.39609274721E+03  0.00000000000E+00 0.  1.
         13    1    5    5    0    0  0.22569624937E+03 -0.11605804526E+03 -0.48085759299E+02  0.25830313025E+03  0.00000000000E+00 0. -1.
        -13    1    5    5    0    0  0.26002683792E+01 -0.22051599058E+02  0.12097493599E+02  0.25286038995E+02  0.00000000000E+00 0.  1.
          1    1    6    6  503    0  0.10332860437E+03  0.67660081499E+03 -0.28108917461E+03  0.73991660842E+03  0.00000000000E+00 0. -1.
         -1    1    6    6    0  503  0.86806807887E+02  0.32074579065E+03 -0.19818288168E+03  0.38689758168E+03  0.00000000000E+00 0.  1.
<mgrwt>
<rscale>  0 0.22728489E+04</rscale>
<asrwt>0</asrwt>
<pdfrwt beam="1">  1        2 0.25079846E+00 0.22728489E+04</pdfrwt>
<pdfrwt beam="2">  1       -1 0.12187920E+00 0.22728489E+04</pdfrwt>
<totfact> 0.66138815E+00</totfact>
</mgrwt>
</event>
<event>
12    7  0.2466188E-007  0.1752207E+04  0.7818608E-02  0.8732136E-01
          2   -1    0    0  501    0  0.00000000000E+00  0.00000000000E+00  0.17240805301E+04  0.17240805301E+04  0.00000000000E+00 0. -1.
         -3   -1    0    0    0  501 -0.00000000000E+00 -0.00000000000E+00 -0.44519824839E+03  0.44519824839E+03  0.00000000000E+00 0.  1.
         24    2    1    2    0    0  0.39170383865E+03 -0.47207484095E+03  0.23652092935E+03  0.66244406728E+03  0.81261550447E+02 0.  0.
        254    2    1    2    0    0 -0.39170383865E+03  0.47207484095E+03  0.10423613524E+04  0.15068347112E+04  0.89874752038E+03 0.  0.
         23    2    4    4    0    0  0.13912225393E+02 -0.19174220365E+03  0.10914007850E+02  0.21167633073E+03  0.87915475021E+02 0.  0.
         23    2    4    4    0    0 -0.40561606404E+03  0.66381704460E+03  0.10314473445E+04  0.12951583805E+04  0.91510359898E+02 0.  0.
          4    1    3    3  502    0  0.18875322802E+03 -0.28158551303E+03  0.15231302434E+03  0.37164154722E+03  0.00000000000E+00 0. -1.
         -3    1    3    3    0  502  0.20295061063E+03 -0.19048932792E+03  0.84207905008E+02  0.29080252006E+03  0.00000000000E+00 0.  1.
         13    1    5    5    0    0  0.60955019177E+01  0.87631745731E+01 -0.57377746746E+00  0.10690069822E+02  0.00000000000E+00 0.  1.
        -13    1    5    5    0    0  0.78167234750E+01 -0.20050537822E+03  0.11487785317E+02  0.20098626090E+03  0.00000000000E+00 0. -1.
          1    1    6    6  503    0 -0.30507129788E+03  0.55446367911E+03  0.79843499491E+03  0.10188213334E+04  0.00000000000E+00 0. -1.
         -1    1    6    6    0  503 -0.10054476616E+03  0.10935336548E+03  0.23301234961E+03  0.27633704713E+03  0.00000000000E+00 0.  1.
<mgrwt>
<rscale>  0 0.17522073E+04</rscale>
<asrwt>0</asrwt>
<pdfrwt beam="1">  1        2 0.26524315E+00 0.17522073E+04</pdfrwt>
<pdfrwt beam="2">  1       -3 0.68492039E-01 0.17522073E+04</pdfrwt>
<totfact> 0.11785969E+01</totfact>
</mgrwt>
</event>
<event>
12    7  0.2466188E-007  0.1813260E+04  0.7818608E-02  0.8699280E-01
          2   -1    0    0  501    0  0.00000000000E+00  0.00000000000E+00  0.31858527927E+04  0.31858527927E+04  0.00000000000E+00 0. -1.
         -1   -1    0    0    0  501 -0.00000000000E+00 -0.00000000000E+00 -0.25800878141E+03  0.25800878141E+03  0.00000000000E+00 0.  1.
         24    2    1    2    0    0  0.58280223174E+03  0.31504206901E+03  0.81579470126E+03  0.10541578103E+04  0.82569654673E+02 0.  0.
        254    2    1    2    0    0 -0.58280223174E+03 -0.31504206901E+03  0.21120493101E+04  0.23897037638E+04  0.90056751228E+03 0.  0.
         23    2    4    4    0    0 -0.59728218618E+03 -0.52598619321E+03  0.19420479104E+04  0.21008116811E+04  0.91935563068E+02 0.  0.
         23    2    4    4    0    0  0.14479954444E+02  0.21094412421E+03  0.17000139966E+03  0.28889208273E+03  0.99252541333E+02 0.  0.
          2    1    3    3  502    0  0.17317897225E+03  0.11681423755E+03  0.30961048274E+03  0.37349052672E+03  0.00000000000E+00 0. -1.
         -1    1    3    3    0  502  0.40962325949E+03  0.19822783145E+03  0.50618421852E+03  0.68066728359E+03  0.00000000000E+00 0.  1.
         13    1    5    5    0    0 -0.40093115796E+03 -0.32759891104E+03  0.11551407845E+04  0.12658661351E+04  0.00000000000E+00 0. -1.
        -13    1    5    5    0    0 -0.19635102822E+03 -0.19838728217E+03  0.78690712589E+03  0.83494554600E+03  0.00000000000E+00 0.  1.
          2    1    6    6  503    0  0.55332524269E+02  0.15111450722E+03  0.11158640321E+03  0.19582851661E+03  0.00000000000E+00 0. -1.
         -2    1    6    6    0  503 -0.40852569825E+02  0.59829616982E+02  0.58414996444E+02  0.93063566121E+02  0.00000000000E+00 0.  1.
<mgrwt>
<rscale>  0 0.18132600E+04</rscale>
<asrwt>0</asrwt>
<pdfrwt beam="1">  1        2 0.49013117E+00 0.18132600E+04</pdfrwt>
<pdfrwt beam="2">  1       -1 0.39693661E-01 0.18132600E+04</pdfrwt>
<totfact> 0.88302646E+00</totfact>
</mgrwt>
</event>
<event>
12    7  0.2466188E-007  0.3287886E+04  0.7818608E-02  0.8165985E-01
         -1   -1    0    0    0  501 -0.00000000000E+00  0.00000000000E+00  0.30151471995E+04  0.30151471995E+04  0.00000000000E+00 0.  1.
          2   -1    0    0  501    0  0.00000000000E+00 -0.00000000000E+00 -0.89632389604E+03  0.89632389604E+03  0.00000000000E+00 0. -1.
         24    2    1    2    0    0  0.85661387771E+03  0.93675867919E+03  0.19752302040E+04  0.23493357727E+04  0.80870609152E+02 0.  0.
        254    2    1    2    0    0 -0.85661387771E+03 -0.93675867919E+03  0.14359309943E+03  0.15621353228E+04  0.89907932361E+03 0.  0.
         23    2    4    4    0    0  0.25903487734E+02  0.15485404430E+02  0.23524462492E+03  0.25711695589E+03  0.99289007568E+02 0.  0.
         23    2    4    4    0    0 -0.88251736545E+03 -0.95224408362E+03 -0.91651525492E+02  0.13050183670E+04  0.95222060792E+02 0.  0.
          2    1    3    3  502    0  0.30662323295E+03  0.29869386384E+03  0.61241544959E+03  0.74718706772E+03  0.00000000000E+00 0. -1.
         -3    1    3    3    0  502  0.54999064476E+03  0.63806481535E+03  0.13628147544E+04  0.16021487050E+04  0.00000000000E+00 0.  1.
         13    1    5    5    0    0 -0.59743264819E+01 -0.39139420454E+02  0.74285290870E+02  0.84177736071E+02  0.00000000000E+00 0. -1.
        -13    1    5    5    0    0  0.31877814216E+02  0.54624824884E+02  0.16095933405E+03  0.17293921982E+03  0.00000000000E+00 0.  1.
          3    1    6    6  503    0 -0.72553874531E+02 -0.44783149545E+02 -0.11331181843E+02  0.86011574073E+02  0.00000000000E+00 0. -1.
         -3    1    6    6    0  503 -0.80996349092E+03 -0.90746093407E+03 -0.80320343649E+02  0.12190067929E+04  0.00000000000E+00 0.  1.
<mgrwt>
<rscale>  0 0.32878859E+04</rscale>
<asrwt>0</asrwt>
<pdfrwt beam="1">  1        2 0.13789599E+00 0.32878859E+04</pdfrwt>
<pdfrwt beam="2">  1       -1 0.46386880E+00 0.32878859E+04</pdfrwt>
<totfact> 0.72925650E-02</totfact>
</mgrwt>
</event>
<event>
12    7  0.2466188E-007  0.1251824E+04  0.7818608E-02  0.9068667E-01
          2   -1    0    0  501    0  0.00000000000E+00  0.00000000000E+00  0.31407085717E+03  0.31407085717E+03  0.00000000000E+00 0. -1.
         -1   -1    0    0    0  501 -0.00000000000E+00 -0.00000000000E+00 -0.12473803801E+04  0.12473803801E+04  0.00000000000E+00 0.  1.
         24    2    1    2    0    0  0.97046573861E+02  0.27684108427E+03 -0.20149011244E+03  0.36454217928E+03  0.78953857599E+02 0.  0.
        254    2    1    2    0    0 -0.97046573861E+02 -0.27684108427E+03 -0.73181941050E+03  0.11969090580E+04  0.90054018237E+03 0.  0.
         23    2    4    4    0    0  0.11048368442E+03  0.21014554646E+03  0.38576668111E+02  0.25751292190E+03  0.91961678985E+02 0.  0.
         23    2    4    4    0    0 -0.20753025828E+03 -0.48698663073E+03 -0.77039607861E+03  0.93939613608E+03  0.93435517575E+02 0.  0.
          4    1    3    3  502    0 -0.76152535308E+01  0.84338559170E+02 -0.56508051865E+02  0.10180444281E+03  0.00000000000E+00 0. -1.
         -3    1    3    3    0  502  0.10466182739E+03  0.19250252510E+03 -0.14498206057E+03  0.26273773648E+03  0.00000000000E+00 0.  1.
         13    1    5    5    0    0  0.79021326590E+01  0.51290467990E+02  0.44441685132E+02  0.68324367429E+02  0.00000000000E+00 0.  1.
        -13    1    5    5    0    0  0.10258155176E+03  0.15885507847E+03 -0.58650170214E+01  0.18918855447E+03  0.00000000000E+00 0. -1.
          4    1    6    6  503    0 -0.16902875042E+03 -0.28115337346E+03 -0.47860753724E+03  0.58024401124E+03  0.00000000000E+00 0. -1.
         -4    1    6    6    0  503 -0.38501507851E+02 -0.20583325727E+03 -0.29178854137E+03  0.35915212485E+03  0.00000000000E+00 0.  1.
<mgrwt>
<rscale>  0 0.12518240E+04</rscale>
<asrwt>0</asrwt>
<pdfrwt beam="1">  1        2 0.48318593E-01 0.12518240E+04</pdfrwt>
<pdfrwt beam="2">  1       -1 0.19190468E+00 0.12518240E+04</pdfrwt>
<totfact> 0.20134971E+01</totfact>
</mgrwt>
</event>
<event>
12    7  0.2466188E-007  0.2166895E+04  0.7818608E-02  0.8532335E-01
         -1   -1    0    0    0  501 -0.00000000000E+00  0.00000000000E+00  0.87082264005E+03  0.87082264005E+03  0.00000000000E+00 0.  1.
          2   -1    0    0  501    0  0.00000000000E+00 -0.00000000000E+00 -0.13479881508E+04  0.13479881508E+04  0.00000000000E+00 0. -1.
         24    2    1    2    0    0  0.71352064104E+03 -0.26632419437E+02 -0.74809244874E+03  0.10372299406E+04  0.79891469456E+02 0.  0.
        254    2    1    2    0    0 -0.71352064104E+03  0.26632419437E+02  0.27092693794E+03  0.11815808503E+04  0.90161572140E+03 0.  0.
         23    2    4    4    0    0  0.17503834745E+03  0.12540093932E+03 -0.27598160094E+02  0.23469054072E+03  0.89186169365E+02 0.  0.
         23    2    4    4    0    0 -0.88855898849E+03 -0.98768519882E+02  0.29852509804E+03  0.94689030955E+03  0.90508163260E+02 0.  0.
          2    1    3    3  502    0  0.17746121695E+03  0.24118026519E+02 -0.16442795173E+03  0.24312695045E+03  0.00000000000E+00 0. -1.
         -3    1    3    3    0  502  0.53605942409E+03 -0.50750445956E+02 -0.58366449701E+03  0.79410299017E+03  0.00000000000E+00 0.  1.
         13    1    5    5    0    0  0.10002927487E+03  0.29999272608E+02 -0.41837476181E+02  0.11249971822E+03  0.00000000000E+00 0. -1.
        -13    1    5    5    0    0  0.75009072579E+02  0.95401666712E+02  0.14239316087E+02  0.12219082250E+03  0.00000000000E+00 0.  1.
          1    1    6    6  503    0 -0.57324994473E+03 -0.29263590808E+02  0.21905549850E+03  0.61437542945E+03  0.00000000000E+00 0. -1.
         -1    1    6    6    0  503 -0.31530904376E+03 -0.69504929074E+02  0.79469599535E+02  0.33251488010E+03  0.00000000000E+00 0.  1.
<mgrwt>
<rscale>  0 0.21668951E+04</rscale>
<asrwt>0</asrwt>
<pdfrwt beam="1">  1        2 0.20738279E+00 0.21668951E+04</pdfrwt>
<pdfrwt beam="2">  1       -1 0.13397271E+00 0.21668951E+04</pdfrwt>
<totfact> 0.76073131E+00</totfact>
</mgrwt>
</event>
<event>
12    7  0.2466188E-007  0.2216017E+04  0.7818608E-02  0.8511791E-01
         -1   -1    0    0    0  501 -0.00000000000E+00  0.00000000000E+00  0.53036039171E+03  0.53036039171E+03  0.00000000000E+00 0.  1.
          2   -1    0    0  501    0  0.00000000000E+00 -0.00000000000E+00 -0.23148085712E+04  0.23148085712E+04  0.00000000000E+00 0. -1.
         24    2    1    2    0    0 -0.79835099029E+03 -0.46154234617E+03 -0.67278953029E+03  0.11456418643E+04  0.97282517679E+02 0.  0.
        254    2    1    2    0    0  0.79835099029E+03  0.46154234617E+03 -0.11116586493E+04  0.16995270986E+04  0.89566833454E+03 0.  0.
         23    2    4    4    0    0  0.91889123424E+03  0.51857465501E+03 -0.11145210226E+04  0.15374269585E+04  0.90795207999E+02 0.  0.
         23    2    4    4    0    0 -0.12054024396E+03 -0.57032308839E+02  0.28623733138E+01  0.16210014012E+03  0.92117466214E+02 0.  0.
          4    1    3    3  502    0 -0.21793394222E+03 -0.79177038529E+02 -0.18235288306E+03  0.29498606842E+03  0.00000000000E+00 0. -1.
         -3    1    3    3    0  502 -0.58041704807E+03 -0.38236530765E+03 -0.49043664722E+03  0.85065579591E+03  0.00000000000E+00 0.  1.
         13    1    5    5    0    0  0.69883299861E+03  0.41283893850E+03 -0.80448918118E+03  0.11428063667E+04  0.00000000000E+00 0. -1.
        -13    1    5    5    0    0  0.22005823564E+03  0.10573571651E+03 -0.31003184139E+03  0.39462059182E+03  0.00000000000E+00 0.  1.
          3    1    6    6  503    0 -0.12974450249E+02  0.20900103221E+02 -0.13837003395E+02  0.28224339441E+02  0.00000000000E+00 0. -1.
         -3    1    6    6    0  503 -0.10756579371E+03 -0.77932412060E+02  0.16699376709E+02  0.13387580068E+03  0.00000000000E+00 0.  1.
<mgrwt>
<rscale>  0 0.22160169E+04</rscale>
<asrwt>0</asrwt>
<pdfrwt beam="1">  1        2 0.35612440E+00 0.22160169E+04</pdfrwt>
<pdfrwt beam="2">  1       -1 0.81593906E-01 0.22160169E+04</pdfrwt>
<totfact> 0.69072199E+00</totfact>
</mgrwt>
</event>
<event>
12    7  0.2466188E-007  0.2069744E+04  0.7818608E-02  0.8574690E-01
          2   -1    0    0  501    0  0.00000000000E+00  0.00000000000E+00  0.10034207241E+04  0.10034207241E+04  0.00000000000E+00 0. -1.
         -1   -1    0    0    0  501 -0.00000000000E+00 -0.00000000000E+00 -0.10673088637E+04  0.10673088637E+04  0.00000000000E+00 0.  1.
         24    2    1    2    0    0  0.69057617147E+03  0.15593556812E+03  0.42151812112E+03  0.82748262253E+03  0.76410824820E+02 0.  0.
        254    2    1    2    0    0 -0.69057617147E+03 -0.15593556812E+03 -0.48540626076E+03  0.12432469653E+04  0.89935111540E+03 0.  0.
         23    2    4    4    0    0 -0.27709792406E+03 -0.87886992689E+02 -0.70048532901E+03  0.76377127541E+03  0.90329851054E+02 0.  0.
         23    2    4    4    0    0 -0.41347824741E+03 -0.68048575429E+02  0.21507906824E+03  0.47947568990E+03  0.89683119428E+02 0.  0.
          2    1    3    3  502    0  0.42397642193E+03  0.73758252567E+02  0.29089910229E+03  0.51944063557E+03  0.00000000000E+00 0. -1.
         -1    1    3    3    0  502  0.26659974955E+03  0.82177315551E+02  0.13061901883E+03  0.30804198696E+03  0.00000000000E+00 0.  1.
         13    1    5    5    0    0 -0.10557518624E+03 -0.81345444906E+01 -0.34780393043E+03  0.36356548899E+03  0.00000000000E+00 0.  1.
        -13    1    5    5    0    0 -0.17152273782E+03 -0.79752448199E+02 -0.35268139858E+03  0.40020578642E+03  0.00000000000E+00 0. -1.
          3    1    6    6  503    0 -0.10305902120E+03  0.54336347116E+01  0.89653459602E+02  0.13670562920E+03  0.00000000000E+00 0. -1.
         -3    1    6    6    0  503 -0.31041922622E+03 -0.73482210141E+02  0.12542560864E+03  0.34277006071E+03  0.00000000000E+00 0.  1.
<mgrwt>
<rscale>  0 0.20697438E+04</rscale>
<asrwt>0</asrwt>
<pdfrwt beam="1">  1        2 0.15437242E+00 0.20697438E+04</pdfrwt>
<pdfrwt beam="2">  1       -1 0.16420136E+00 0.20697438E+04</pdfrwt>
<totfact> 0.71750430E+00</totfact>
</mgrwt>
</event>
<event>
12    7  0.2466188E-007  0.2899192E+04  0.7818608E-02  0.8273118E-01
          2   -1    0    0  501    0  0.00000000000E+00  0.00000000000E+00  0.67130356700E+03  0.67130356700E+03  0.00000000000E+00 0. -1.
         -1   -1    0    0    0  501 -0.00000000000E+00 -0.00000000000E+00 -0.31302211734E+04  0.31302211734E+04  0.00000000000E+00 0.  1.
         24    2    1    2    0    0 -0.10498531678E+03 -0.81678603230E+03  0.22220450812E+03  0.85668923871E+03  0.79876586054E+02 0.  0.
        254    2    1    2    0    0  0.10498531678E+03  0.81678603230E+03 -0.26811221145E+04  0.29448355017E+04  0.89748481866E+03 0.  0.
         23    2    4    4    0    0  0.45382511213E+01  0.33117615425E+03 -0.22655040621E+04  0.22917684014E+04  0.99977544947E+02 0.  0.
         23    2    4    4    0    0  0.10044706566E+03  0.48560987805E+03 -0.41561805243E+03  0.65306710028E+03  0.88609848793E+02 0.  0.
          2    1    3    3  502    0 -0.13995838709E+02 -0.16908756150E+03  0.78908099436E+02  0.18711754357E+03  0.00000000000E+00 0. -1.
         -1    1    3    3    0  502 -0.90989478070E+02 -0.64769847080E+03  0.14329640869E+03  0.66957169514E+03  0.00000000000E+00 0.  1.
         13    1    5    5    0    0  0.14701148384E+02  0.23535245858E+03 -0.12779459530E+04  0.12995202046E+04  0.00000000000E+00 0. -1.
        -13    1    5    5    0    0 -0.10162897262E+02  0.95823695674E+02 -0.98755810907E+03  0.99224819674E+03  0.00000000000E+00 0.  1.
          2    1    6    6  503    0  0.65626470609E+02  0.43117984032E+03 -0.33620343832E+03  0.55068651725E+03  0.00000000000E+00 0. -1.
         -2    1    6    6    0  503  0.34820595049E+02  0.54430037722E+02 -0.79414614110E+02  0.10238058302E+03  0.00000000000E+00 0.  1.
<mgrwt>
<rscale>  0 0.28991921E+04</rscale>
<asrwt>0</asrwt>
<pdfrwt beam="1">  1        2 0.10327747E+00 0.28991921E+04</pdfrwt>
<pdfrwt beam="2">  1       -1 0.48157249E+00 0.28991921E+04</pdfrwt>
<totfact> 0.83615536E-02</totfact>
</mgrwt>
</event>
<event>
12    7  0.2466188E-007  0.2680288E+04  0.7818608E-02  0.8341429E-01
          2   -1    0    0  501    0  0.00000000000E+00  0.00000000000E+00  0.14875518971E+04  0.14875518971E+04  0.00000000000E+00 0. -1.
         -1   -1    0    0    0  501 -0.00000000000E+00 -0.00000000000E+00 -0.12073434780E+04  0.12073434780E+04  0.00000000000E+00 0.  1.
         24    2    1    2    0    0 -0.11598950683E+04  0.16705386419E+03 -0.69502733625E+02  0.11765872361E+04  0.79141209589E+02 0.  0.
        254    2    1    2    0    0  0.11598950683E+04 -0.16705386419E+03  0.34971115268E+03  0.15183081390E+04  0.89983229087E+03 0.  0.
         23    2    4    4    0    0  0.82009647771E+03 -0.51683560133E+03  0.15762375053E+03  0.98618037630E+03  0.89605894421E+02 0.  0.
         23    2    4    4    0    0  0.33979859059E+03  0.34978173714E+03  0.19208740214E+03  0.53212776272E+03  0.91934976975E+02 0.  0.
          2    1    3    3  502    0 -0.68895607578E+03  0.90865984044E+02 -0.79242718232E+02  0.69942584297E+03  0.00000000000E+00 0. -1.
         -1    1    3    3    0  502 -0.47093899252E+03  0.76187880145E+02  0.97399846064E+01  0.47716139309E+03  0.00000000000E+00 0.  1.
         13    1    5    5    0    0  0.62426256292E+02 -0.70132836094E+02  0.11955649475E+02  0.94649826876E+02  0.00000000000E+00 0. -1.
        -13    1    5    5    0    0  0.75767022142E+03 -0.44670276523E+03  0.14566810106E+03  0.89153054942E+03  0.00000000000E+00 0.  1.
          1    1    6    6  503    0  0.31429735783E+03  0.27656864481E+03  0.15893311273E+03  0.44780886408E+03  0.00000000000E+00 0. -1.
         -1    1    6    6    0  503  0.25501232765E+02  0.73213092331E+02  0.33154289416E+02  0.84318898640E+02  0.00000000000E+00 0.  1.
<mgrwt>
<rscale>  0 0.26802881E+04</rscale>
<asrwt>0</asrwt>
<pdfrwt beam="1">  1        2 0.22885414E+00 0.26802881E+04</pdfrwt>
<pdfrwt beam="2">  1       -1 0.18574515E+00 0.26802881E+04</pdfrwt>
<totfact> 0.24448156E+00</totfact>
</mgrwt>
</event>
<event>
12    7  0.2466188E-007  0.3502132E+04  0.7818608E-02  0.8113285E-01
         -1   -1    0    0    0  501 -0.00000000000E+00  0.00000000000E+00  0.93440051594E+03  0.93440051594E+03  0.00000000000E+00 0.  1.
          2   -1    0    0  501    0  0.00000000000E+00 -0.00000000000E+00 -0.32814959740E+04  0.32814959740E+04  0.00000000000E+00 0. -1.
         24    2    1    2    0    0  0.91108987603E+03 -0.13491782308E+04 -0.12682528800E+04  0.20652336080E+04  0.79735985940E+02 0.  0.
        254    2    1    2    0    0 -0.91108987603E+03  0.13491782308E+04 -0.10788425781E+04  0.21506628819E+04  0.90060138943E+03 0.  0.
         23    2    4    4    0    0 -0.64432423464E+01  0.72186176436E+03 -0.61404533091E+03  0.95176496269E+03  0.87629638646E+02 0.  0.
         23    2    4    4    0    0 -0.90464663368E+03  0.62731646643E+03 -0.46479724714E+03  0.11988979192E+04  0.96996179381E+02 0.  0.
          4    1    3    3  502    0  0.51311628119E+03 -0.78351026913E+03 -0.77635514167E+03  0.12165130356E+04  0.00000000000E+00 0. -1.
         -3    1    3    3    0  502  0.39797359484E+03 -0.56566796167E+03 -0.49189773831E+03  0.84872057239E+03  0.00000000000E+00 0.  1.
         13    1    5    5    0    0 -0.41158690964E+02  0.28272383441E+03 -0.21764859849E+03  0.35916252144E+03  0.00000000000E+00 0. -1.
        -13    1    5    5    0    0  0.34715448618E+02  0.43913792995E+03 -0.39639673242E+03  0.59260244124E+03  0.00000000000E+00 0.  1.
          3    1    6    6  503    0 -0.58832638374E+03  0.36893462491E+03 -0.25538883210E+03  0.73990820162E+03  0.00000000000E+00 0. -1.
         -3    1    6    6    0  503 -0.31632024994E+03  0.25838184153E+03 -0.20940841504E+03  0.45898971758E+03  0.00000000000E+00 0.  1.
<mgrwt>
<rscale>  0 0.35021317E+04</rscale>
<asrwt>0</asrwt>
<pdfrwt beam="1">  1        2 0.50484554E+00 0.35021317E+04</pdfrwt>
<pdfrwt beam="2">  1       -1 0.14375393E+00 0.35021317E+04</pdfrwt>
<totfact> 0.41736090E-01</totfact>
</mgrwt>
</event>
<event>
12    7  0.2466188E-007  0.1080226E+04  0.7818608E-02  0.9224682E-01
          2   -1    0    0  501    0  0.00000000000E+00  0.00000000000E+00  0.20299959691E+04  0.20299959691E+04  0.00000000000E+00 0. -1.
         -1   -1    0    0    0  501 -0.00000000000E+00 -0.00000000000E+00 -0.14370585662E+03  0.14370585662E+03  0.00000000000E+00 0.  1.
         24    2    1    2    0    0 -0.13301701552E+03 -0.19839338192E+02  0.35658419249E+03  0.38931783883E+03  0.79554808393E+02 0.  0.
        254    2    1    2    0    0  0.13301701552E+03  0.19839338192E+02  0.15297059200E+04  0.17843839869E+04  0.90881179861E+03 0.  0.
         23    2    4    4    0    0 -0.22738695509E+02  0.28388470098E+03  0.95634121938E+02  0.31510335446E+03  0.95061385392E+02 0.  0.
         23    2    4    4    0    0  0.15575571103E+03 -0.26404536279E+03  0.14340717980E+04  0.14692806324E+04  0.90795703445E+02 0.  0.
          4    1    3    3  502    0 -0.11321635786E+03 -0.28349970152E+02  0.34629828137E+03  0.36543694966E+03  0.00000000000E+00 0. -1.
         -3    1    3    3    0  502 -0.19800657657E+02  0.85106319602E+01  0.10285911121E+02  0.23880889171E+02  0.00000000000E+00 0.  1.
         13    1    5    5    0    0  0.13017608708E+02  0.22022961337E+03  0.99450143050E+02  0.24199353647E+03  0.00000000000E+00 0.  1.
        -13    1    5    5    0    0 -0.35756304217E+02  0.63655087607E+02 -0.38160211125E+01  0.73109817990E+02  0.00000000000E+00 0. -1.
          1    1    6    6  503    0  0.44744603932E+02 -0.16072572830E+02  0.24422302304E+03  0.24880774136E+03  0.00000000000E+00 0. -1.
         -1    1    6    6    0  503  0.11101110710E+03 -0.24797278996E+03  0.11898487750E+04  0.12204728911E+04  0.00000000000E+00 0.  1.
<mgrwt>
<rscale>  0 0.10802265E+04</rscale>
<asrwt>0</asrwt>
<pdfrwt beam="1">  1        2 0.31230705E+00 0.10802265E+04</pdfrwt>
<pdfrwt beam="2">  1       -1 0.22108595E-01 0.10802265E+04</pdfrwt>
<totfact> 0.12610467E+02</totfact>
</mgrwt>
</event>
<event>
12    7  0.2466188E-007  0.1976714E+04  0.7818608E-02  0.8617586E-01
         -1   -1    0    0    0  501 -0.00000000000E+00  0.00000000000E+00  0.66293278331E+03  0.66293278331E+03  0.00000000000E+00 0.  1.
          2   -1    0    0  501    0  0.00000000000E+00 -0.00000000000E+00 -0.14735271226E+04  0.14735271226E+04  0.00000000000E+00 0. -1.
         24    2    1    2    0    0  0.72148320267E+03  0.14665620672E+03 -0.39846422919E+02  0.74257481698E+03  0.88224524279E+02 0.  0.
        254    2    1    2    0    0 -0.72148320267E+03 -0.14665620672E+03 -0.77074791635E+03  0.13938850889E+04  0.89823005729E+03 0.  0.
         23    2    4    4    0    0 -0.38332699677E+03  0.17324682720E+03  0.62772257018E+02  0.43534614835E+03  0.92907820140E+02 0.  0.
         23    2    4    4    0    0 -0.33815620590E+03 -0.31990303393E+03 -0.83352017337E+03  0.95853894056E+03  0.85752262079E+02 0.  0.
          4    1    3    3  502    0  0.20752269539E+03  0.66843608714E+02  0.20409400329E+02  0.21897552546E+03  0.00000000000E+00 0. -1.
         -3    1    3    3    0  502  0.51396050728E+03  0.79812598010E+02 -0.60255823247E+02  0.52359929152E+03  0.00000000000E+00 0.  1.
         13    1    5    5    0    0 -0.28435691912E+03  0.17055128665E+03  0.54016737177E+02  0.33595298291E+03  0.00000000000E+00 0. -1.
        -13    1    5    5    0    0 -0.98970077650E+02  0.26955405539E+01  0.87555198406E+01  0.99393165443E+02  0.00000000000E+00 0.  1.
          3    1    6    6  503    0 -0.27139767548E+03 -0.20381255203E+03 -0.60007038009E+03  0.68940606009E+03  0.00000000000E+00 0. -1.
         -3    1    6    6    0  503 -0.66758530424E+02 -0.11609048189E+03 -0.23344979327E+03  0.26913288047E+03  0.00000000000E+00 0.  1.
<mgrwt>
<rscale>  0 0.19767139E+04</rscale>
<asrwt>0</asrwt>
<pdfrwt beam="1">  1        2 0.22669648E+00 0.19767139E+04</pdfrwt>
<pdfrwt beam="2">  1       -1 0.10198966E+00 0.19767139E+04</pdfrwt>
<totfact> 0.12693817E+01</totfact>
</mgrwt>
</event>
<event>
12    7  0.2466188E-007  0.1893337E+04  0.7818608E-02  0.8658180E-01
         -1   -1    0    0    0  501 -0.00000000000E+00  0.00000000000E+00  0.40930765312E+03  0.40930765312E+03  0.00000000000E+00 0.  1.
          2   -1    0    0  501    0  0.00000000000E+00 -0.00000000000E+00 -0.21895062583E+04  0.21895062583E+04  0.00000000000E+00 0. -1.
         24    2    1    2    0    0 -0.37925790312E+03 -0.55666843548E+03 -0.10784796592E+04  0.12740585313E+04  0.79940364139E+02 0.  0.
        254    2    1    2    0    0  0.37925790312E+03  0.55666843548E+03 -0.70171894599E+03  0.13247553801E+04  0.89936145892E+03 0.  0.
         23    2    4    4    0    0  0.70796521063E+02  0.73129247200E+03 -0.57622116127E+03  0.93786905112E+03  0.88128901984E+02 0.  0.
         23    2    4    4    0    0  0.30846138206E+03 -0.17462403652E+03 -0.12549778473E+03  0.38688632898E+03  0.91045918224E+02 0.  0.
          2    1    3    3  502    0 -0.19426381575E+03 -0.23852490112E+03 -0.54764182865E+03  0.62812747994E+03  0.00000000000E+00 0. -1.
         -1    1    3    3    0  502 -0.18499408737E+03 -0.31814353436E+03 -0.53083783055E+03  0.64593105140E+03  0.00000000000E+00 0.  1.
         13    1    5    5    0    0 -0.14831258580E+02  0.21867008356E+03 -0.14810941560E+03  0.26452404553E+03  0.00000000000E+00 0. -1.
        -13    1    5    5    0    0  0.85627779643E+02  0.51262238844E+03 -0.42811174567E+03  0.67334500559E+03  0.00000000000E+00 0.  1.
          2    1    6    6  503    0  0.12229097319E+02  0.92031737572E+01 -0.14304658861E+02  0.20949283844E+02  0.00000000000E+00 0. -1.
         -2    1    6    6    0  503  0.29623228474E+03 -0.18382721027E+03 -0.11119312586E+03  0.36593704513E+03  0.00000000000E+00 0.  1.
<mgrwt>
<rscale>  0 0.18933374E+04</rscale>
<asrwt>0</asrwt>
<pdfrwt beam="1">  1        2 0.33684712E+00 0.18933374E+04</pdfrwt>
<pdfrwt beam="2">  1       -1 0.62970408E-01 0.18933374E+04</pdfrwt>
<totfact> 0.14287524E+01</totfact>
</mgrwt>
</event>
<event>
12    7  0.2466188E-007  0.2019123E+04  0.7818608E-02  0.8597732E-01
          2   -1    0    0  501    0  0.00000000000E+00  0.00000000000E+00  0.73153479205E+03  0.73153479205E+03  0.00000000000E+00 0. -1.
         -1   -1    0    0    0  501 -0.00000000000E+00 -0.00000000000E+00 -0.13932547201E+04  0.13932547201E+04  0.00000000000E+00 0.  1.
         24    2    1    2    0    0  0.45766500875E+03  0.52579997979E+03  0.16532880945E+03  0.72064663251E+03  0.77942765743E+02 0.  0.
        254    2    1    2    0    0 -0.45766500875E+03 -0.52579997979E+03 -0.82704873752E+03  0.14041428796E+04  0.89536849020E+03 0.  0.
         23    2    4    4    0    0 -0.71686816186E+03 -0.38010123847E+03 -0.53034187037E+03  0.97354200872E+03  0.90247605546E+02 0.  0.
         23    2    4    4    0    0  0.25920315311E+03 -0.14569874132E+03 -0.29670686715E+03  0.43060087092E+03  0.94698190174E+02 0.  0.
          2    1    3    3  502    0  0.15926179045E+03  0.14730499278E+03  0.79722940859E+02  0.23112513082E+03  0.00000000000E+00 0. -1.
         -1    1    3    3    0  502  0.29840321830E+03  0.37849498701E+03  0.85605868593E+02  0.48952150170E+03  0.00000000000E+00 0.  1.
         13    1    5    5    0    0 -0.66456365729E+03 -0.37672319434E+03 -0.49958335610E+03  0.91276982282E+03  0.00000000000E+00 0. -1.
        -13    1    5    5    0    0 -0.52304504565E+02 -0.33780441313E+01 -0.30758514266E+02  0.60772185906E+02  0.00000000000E+00 0.  1.
          2    1    6    6  503    0  0.24808447910E+03 -0.12230632222E+03 -0.29538163755E+03  0.40466659984E+03  0.00000000000E+00 0. -1.
         -2    1    6    6    0  503  0.11118674010E+02 -0.23392419103E+02 -0.13252296017E+01  0.25934271085E+02  0.00000000000E+00 0.  1.
<mgrwt>
<rscale>  0 0.20191229E+04</rscale>
<asrwt>0</asrwt>
<pdfrwt beam="1">  1        2 0.11254382E+00 0.20191229E+04</pdfrwt>
<pdfrwt beam="2">  1       -1 0.21434688E+00 0.20191229E+04</pdfrwt>
<totfact> 0.49255127E+00</totfact>
</mgrwt>
</event>
<event>
12    7  0.2466188E-007  0.2250263E+04  0.7818608E-02  0.8497794E-01
         -1   -1    0    0    0  501 -0.00000000000E+00  0.00000000000E+00  0.22023921656E+04  0.22023921656E+04  0.00000000000E+00 0.  1.
          2   -1    0    0  501    0  0.00000000000E+00 -0.00000000000E+00 -0.57479352657E+03  0.57479352657E+03  0.00000000000E+00 0. -1.
         24    2    1    2    0    0  0.63559664438E+03 -0.68280333092E+03  0.86211669800E+03  0.12736333506E+04  0.93237480545E+02 0.  0.
        254    2    1    2    0    0 -0.63559664438E+03  0.68280333092E+03  0.76548194103E+03  0.15035523416E+04  0.89694122366E+03 0.  0.
         23    2    4    4    0    0 -0.20009641618E+03  0.32558250262E+03  0.84061863456E+03  0.92821577085E+03  0.94351930112E+02 0.  0.
         23    2    4    4    0    0 -0.43550022819E+03  0.35722082831E+03 -0.75136693528E+02  0.57533657071E+03  0.89997099663E+02 0.  0.
          2    1    3    3  502    0  0.35021652047E+03 -0.31582425763E+03  0.40439366855E+03  0.62123329924E+03  0.00000000000E+00 0. -1.
         -1    1    3    3    0  502  0.28538012391E+03 -0.36697907329E+03  0.45772302945E+03  0.65240005138E+03  0.00000000000E+00 0.  1.
         13    1    5    5    0    0 -0.71615940710E+02  0.44629505793E+02  0.19584769867E+03  0.21325326920E+03  0.00000000000E+00 0. -1.
        -13    1    5    5    0    0 -0.12848047547E+03  0.28095299682E+03  0.64477093589E+03  0.71496250165E+03  0.00000000000E+00 0.  1.
          1    1    6    6  503    0 -0.28365767468E+02  0.59615618307E+02 -0.56139721434E+01  0.66258247739E+02  0.00000000000E+00 0. -1.
         -1    1    6    6    0  503 -0.40713446072E+03  0.29760521000E+03 -0.69522721384E+02  0.50907832297E+03  0.00000000000E+00 0.  1.
<mgrwt>
<rscale>  0 0.22502629E+04</rscale>
<asrwt>0</asrwt>
<pdfrwt beam="1">  1        2 0.88429775E-01 0.22502629E+04</pdfrwt>
<pdfrwt beam="2">  1       -1 0.33882956E+00 0.22502629E+04</pdfrwt>
<totfact> 0.10003510E+00</totfact>
</mgrwt>
</event>
<event>
12    7  0.2466188E-007  0.2977966E+04  0.7818608E-02  0.8250051E-01
         -1   -1    0    0    0  501 -0.00000000000E+00  0.00000000000E+00  0.72651948712E+03  0.72651948712E+03  0.00000000000E+00 0.  1.
          2   -1    0    0  501    0  0.00000000000E+00 -0.00000000000E+00 -0.30516318938E+04  0.30516318938E+04  0.00000000000E+00 0. -1.
         24    2    1    2    0    0 -0.42338207864E+03 -0.12754062744E+04 -0.12397491335E+04  0.18300886895E+04  0.79581078464E+02 0.  0.
        254    2    1    2    0    0  0.42338207864E+03  0.12754062744E+04 -0.10853632731E+04  0.19480626914E+04  0.90056719101E+03 0.  0.
         23    2    4    4    0    0  0.50777381657E+03  0.13597848086E+04 -0.90444929997E+03  0.17126873758E+04  0.91763482082E+02 0.  0.
         23    2    4    4    0    0 -0.84391737931E+02 -0.84378534161E+02 -0.18091397315E+03  0.23537531555E+03  0.91814873673E+02 0.  0.
          4    1    3    3  502    0 -0.11920402974E+03 -0.46205326821E+03 -0.46692077897E+03  0.66762102813E+03  0.00000000000E+00 0. -1.
         -3    1    3    3    0  502 -0.30417804890E+03 -0.81335300622E+03 -0.77282835455E+03  0.11624676614E+04  0.00000000000E+00 0.  1.
         13    1    5    5    0    0  0.35235171825E+03  0.10104919146E+04 -0.70461974597E+03  0.12813019274E+04  0.00000000000E+00 0.  1.
        -13    1    5    5    0    0  0.15542209832E+03  0.34929289402E+03 -0.19982955400E+03  0.43138544843E+03  0.00000000000E+00 0. -1.
          3    1    6    6  503    0 -0.49564753600E+02 -0.86436768223E+02 -0.17293651577E+03  0.19958711929E+03  0.00000000000E+00 0. -1.
         -3    1    6    6    0  503 -0.34826984331E+02  0.20582340620E+01 -0.79774573886E+01  0.35788196258E+02  0.00000000000E+00 0.  1.
<mgrwt>
<rscale>  0 0.29779658E+04</rscale>
<asrwt>0</asrwt>
<pdfrwt beam="1">  1        2 0.46948184E+00 0.29779658E+04</pdfrwt>
<pdfrwt beam="2">  1       -1 0.11177223E+00 0.29779658E+04</pdfrwt>
<totfact> 0.11558011E+00</totfact>
</mgrwt>
</event>
<event>
12    7  0.2466188E-007  0.1765550E+04  0.7818608E-02  0.8724837E-01
          2   -1    0    0  501    0  0.00000000000E+00  0.00000000000E+00  0.17267813782E+04  0.17267813782E+04  0.00000000000E+00 0. -1.
         -1   -1    0    0    0  501 -0.00000000000E+00 -0.00000000000E+00 -0.45129734435E+03  0.45129734435E+03  0.00000000000E+00 0.  1.
         24    2    1    2    0    0  0.61820008102E+03  0.16916594341E+03  0.60749706013E+03  0.88669826598E+03  0.79954238394E+02 0.  0.
        254    2    1    2    0    0 -0.61820008102E+03 -0.16916594341E+03  0.66798697370E+03  0.12913804565E+04  0.90037127339E+03 0.  0.
         23    2    4    4    0    0 -0.40300252510E+03 -0.10786523035E+03 -0.14020495190E+03  0.44784442362E+03  0.82832699336E+02 0.  0.
         23    2    4    4    0    0 -0.21519755592E+03 -0.61300713060E+02  0.80819192560E+03  0.84353603292E+03  0.91165150924E+02 0.  0.
          4    1    3    3  502    0  0.27069096753E+03  0.90637914014E+02  0.32060887451E+03  0.42927716195E+03  0.00000000000E+00 0. -1.
         -3    1    3    3    0  502  0.34750911349E+03  0.78528029397E+02  0.28688818562E+03  0.45742110403E+03  0.00000000000E+00 0.  1.
         13    1    5    5    0    0 -0.33864527545E+03 -0.11058435048E+03 -0.14175525978E+03  0.38341110420E+03  0.00000000000E+00 0.  1.
        -13    1    5    5    0    0 -0.64357249652E+02  0.27191201249E+01  0.15503078756E+01  0.64433319421E+02  0.00000000000E+00 0. -1.
          3    1    6    6  503    0  0.68037279340E+01 -0.11682612041E+02  0.33155375627E+02  0.35805768681E+02  0.00000000000E+00 0. -1.
         -3    1    6    6    0  503 -0.22200128386E+03 -0.49618101019E+02  0.77503654997E+03  0.80773026424E+03  0.00000000000E+00 0.  1.
<mgrwt>
<rscale>  0 0.17655502E+04</rscale>
<asrwt>0</asrwt>
<pdfrwt beam="1">  1        2 0.26565867E+00 0.17655502E+04</pdfrwt>
<pdfrwt beam="2">  1       -1 0.69430361E-01 0.17655502E+04</pdfrwt>
<totfact> 0.21438866E+01</totfact>
</mgrwt>
</event>
<event>
12    7  0.2466188E-007  0.2220708E+04  0.7818608E-02  0.8509858E-01
          2   -1    0    0  501    0  0.00000000000E+00  0.00000000000E+00  0.66337958463E+03  0.66337958463E+03  0.00000000000E+00 0. -1.
         -1   -1    0    0    0  501 -0.00000000000E+00 -0.00000000000E+00 -0.18584924130E+04  0.18584924130E+04  0.00000000000E+00 0.  1.
         24    2    1    2    0    0 -0.55525501076E+03  0.35451581808E+03  0.23846306932E+03  0.70537086037E+03  0.81815786839E+02 0.  0.
        254    2    1    2    0    0  0.55525501076E+03 -0.35451581808E+03 -0.14335758977E+04  0.18165011373E+04  0.90030380149E+03 0.  0.
         23    2    4    4    0    0  0.46377201604E+03  0.19076663155E+03 -0.43253014437E+03  0.66940155460E+03  0.97671515494E+02 0.  0.
         23    2    4    4    0    0  0.91482994722E+02 -0.54528244963E+03 -0.10010457533E+04  0.11470995827E+04  0.89681459020E+02 0.  0.
          4    1    3    3  502    0 -0.21919155712E+03  0.10326569474E+03  0.11344227676E+03  0.26754045036E+03  0.00000000000E+00 0. -1.
         -3    1    3    3    0  502 -0.33606345364E+03  0.25125012334E+03  0.12502079257E+03  0.43783041001E+03  0.00000000000E+00 0.  1.
         13    1    5    5    0    0  0.34442064108E+03  0.14779193990E+03 -0.26386981442E+03  0.45836155430E+03  0.00000000000E+00 0. -1.
        -13    1    5    5    0    0  0.11935137496E+03  0.42974691658E+02 -0.16866032995E+03  0.21104000030E+03  0.00000000000E+00 0.  1.
          4    1    6    6  503    0 -0.83775420776E+01 -0.18235904522E+02 -0.67403407019E+02  0.70327453407E+02  0.00000000000E+00 0.  1.
         -4    1    6    6    0  503  0.99860536800E+02 -0.52704654511E+03 -0.93364234630E+03  0.10767721292E+04  0.00000000000E+00 0. -1.
<mgrwt>
<rscale>  0 0.22207079E+04</rscale>
<asrwt>0</asrwt>
<pdfrwt beam="1">  1        2 0.10205840E+00 0.22207079E+04</pdfrwt>
<pdfrwt beam="2">  1       -1 0.28592191E+00 0.22207079E+04</pdfrwt>
<totfact> 0.18605870E+00</totfact>
</mgrwt>
</event>
<event>
12    7  0.2466188E-007  0.2445872E+04  0.7818608E-02  0.8422527E-01
          2   -1    0    0  501    0  0.00000000000E+00  0.00000000000E+00  0.22804230261E+04  0.22804230261E+04  0.00000000000E+00 0. -1.
         -1   -1    0    0    0  501 -0.00000000000E+00 -0.00000000000E+00 -0.65583112740E+03  0.65583112740E+03  0.00000000000E+00 0.  1.
         24    2    1    2    0    0 -0.14931222977E+03  0.90662183163E+03  0.13343939584E+04  0.16223135310E+04  0.83884855719E+02 0.  0.
        254    2    1    2    0    0  0.14931222977E+03 -0.90662183163E+03  0.29019794030E+03  0.13139406225E+04  0.89329044964E+03 0.  0.
         23    2    4    4    0    0  0.42907034487E+03 -0.21681023786E+03 -0.47375101273E+02  0.49154458839E+03  0.90904576673E+02 0.  0.
         23    2    4    4    0    0 -0.27975811510E+03 -0.68981159377E+03  0.33757304158E+03  0.82239603414E+03  0.90967250725E+02 0.  0.
          2    1    3    3  502    0 -0.10317517158E+03  0.52412424307E+03  0.70786084983E+03  0.88680230093E+03  0.00000000000E+00 0. -1.
         -1    1    3    3    0  502 -0.46137058192E+02  0.38249758856E+03  0.62653310859E+03  0.73551123006E+03  0.00000000000E+00 0.  1.
         13    1    5    5    0    0  0.41103976376E+03 -0.19481370446E+03 -0.25356286579E+02  0.45557546916E+03  0.00000000000E+00 0. -1.
        -13    1    5    5    0    0  0.18030581116E+02 -0.21996533405E+02 -0.22018814694E+02  0.35969119224E+02  0.00000000000E+00 0.  1.
          3    1    6    6  503    0 -0.20162362603E+03 -0.45065507409E+03  0.17980567628E+03  0.52542569750E+03  0.00000000000E+00 0. -1.
         -3    1    6    6    0  503 -0.78134489074E+02 -0.23915651968E+03  0.15776736530E+03  0.29697033664E+03  0.00000000000E+00 0.  1.
<mgrwt>
<rscale>  0 0.24458720E+04</rscale>
<asrwt>0</asrwt>
<pdfrwt beam="1">  1        2 0.35083431E+00 0.24458720E+04</pdfrwt>
<pdfrwt beam="2">  1       -1 0.10089710E+00 0.24458720E+04</pdfrwt>
<totfact> 0.44253653E+00</totfact>
</mgrwt>
</event>
<event>
12    7  0.2466188E-007  0.2096585E+04  0.7818608E-02  0.8562749E-01
         -1   -1    0    0    0  501 -0.00000000000E+00  0.00000000000E+00  0.33991069471E+03  0.33991069471E+03  0.00000000000E+00 0.  1.
          2   -1    0    0  501    0  0.00000000000E+00 -0.00000000000E+00 -0.32329570951E+04  0.32329570951E+04  0.00000000000E+00 0. -1.
         24    2    1    2    0    0  0.65221208859E+03  0.52604884574E+03 -0.90782891315E+03  0.12380061601E+04  0.79987000966E+02 0.  0.
        254    2    1    2    0    0 -0.65221208859E+03 -0.52604884574E+03 -0.19852174872E+04  0.23348616297E+04  0.89910086283E+03 0.  0.
         23    2    4    4    0    0 -0.74632559479E+03 -0.66092068137E+03 -0.14076809269E+04  0.17273489603E+04  0.91382703148E+02 0.  0.
         23    2    4    4    0    0  0.94113506193E+02  0.13487183564E+03 -0.57753656036E+03  0.60751266933E+03  0.92061939763E+02 0.  0.
          4    1    3    3  502    0  0.63515441808E+03  0.50835407637E+03 -0.89750965906E+03  0.12113499040E+04  0.00000000000E+00 0. -1.
         -3    1    3    3    0  502  0.17057670514E+02  0.17694769364E+02 -0.10319254097E+02  0.26656256138E+02  0.00000000000E+00 0.  1.
         13    1    5    5    0    0 -0.64199398673E+02 -0.72137455341E+02 -0.18262447079E+03  0.20658429898E+03  0.00000000000E+00 0. -1.
        -13    1    5    5    0    0 -0.68212619611E+03 -0.58878322603E+03 -0.12250564561E+04  0.15207646614E+04  0.00000000000E+00 0.  1.
          4    1    6    6  503    0  0.16394671222E+02 -0.84473767839E+01 -0.22861131670E+02  0.29373027767E+02  0.00000000000E+00 0. -1.
         -4    1    6    6    0  503  0.77718834971E+02  0.14331921242E+03 -0.55467542869E+03  0.57813964157E+03  0.00000000000E+00 0.  1.
<mgrwt>
<rscale>  0 0.20965845E+04</rscale>
<asrwt>0</asrwt>
<pdfrwt beam="1">  1        2 0.49737801E+00 0.20965845E+04</pdfrwt>
<pdfrwt beam="2">  1       -1 0.52293954E-01 0.20965845E+04</pdfrwt>
<totfact> 0.47816661E+00</totfact>
</mgrwt>
</event>
<event>
12    7  0.2466188E-007  0.2018214E+04  0.7818608E-02  0.8598152E-01
          2   -1    0    0  501    0  0.00000000000E+00  0.00000000000E+00  0.57560598196E+03  0.57560598196E+03  0.00000000000E+00 0. -1.
         -1   -1    0    0    0  501 -0.00000000000E+00 -0.00000000000E+00 -0.17690865828E+04  0.17690865828E+04  0.00000000000E+00 0.  1.
         24    2    1    2    0    0 -0.34967330910E+03  0.71888952355E+03 -0.59790536536E+03  0.10014214361E+04  0.79249584150E+02 0.  0.
        254    2    1    2    0    0  0.34967330910E+03 -0.71888952355E+03 -0.59557523548E+03  0.13432711287E+04  0.90032988055E+03 0.  0.
         23    2    4    4    0    0  0.55539427504E+03 -0.60397383165E+03 -0.16154117012E+03  0.84116763446E+03  0.90665591922E+02 0.  0.
         23    2    4    4    0    0 -0.20572096594E+03 -0.11491569190E+03 -0.43403406536E+03  0.50210349420E+03  0.90529646628E+02 0.  0.
          2    1    3    3  502    0 -0.18069967051E+03  0.42131338004E+03 -0.30142770275E+03  0.54864924598E+03  0.00000000000E+00 0. -1.
         -1    1    3    3    0  502 -0.16897363859E+03  0.29757614351E+03 -0.29647766261E+03  0.45277219012E+03  0.00000000000E+00 0.  1.
         13    1    5    5    0    0  0.23670539393E+03 -0.21200250052E+03 -0.30206046531E+02  0.31919728851E+03  0.00000000000E+00 0.  1.
        -13    1    5    5    0    0  0.31868888111E+03 -0.39197133113E+03 -0.13133512359E+03  0.52197034596E+03  0.00000000000E+00 0. -1.
          4    1    6    6  503    0 -0.77584389951E+02 -0.66999982764E+01 -0.19611781026E+03  0.21101285042E+03  0.00000000000E+00 0. -1.
         -4    1    6    6    0  503 -0.12813657599E+03 -0.10821569363E+03 -0.23791625510E+03  0.29109064378E+03  0.00000000000E+00 0.  1.
<mgrwt>
<rscale>  0 0.20182139E+04</rscale>
<asrwt>0</asrwt>
<pdfrwt beam="1">  1        2 0.88554767E-01 0.20182139E+04</pdfrwt>
<pdfrwt beam="2">  1       -1 0.27216716E+00 0.20182139E+04</pdfrwt>
<totfact> 0.27639761E+00</totfact>
</mgrwt>
</event>
<event>
12    7  0.2466188E-007  0.1739907E+04  0.7818608E-02  0.8738926E-01
         -1   -1    0    0    0  501 -0.00000000000E+00  0.00000000000E+00  0.53510755371E+03  0.53510755371E+03  0.00000000000E+00 0.  1.
          2   -1    0    0  501    0  0.00000000000E+00 -0.00000000000E+00 -0.14143305761E+04  0.14143305761E+04  0.00000000000E+00 0. -1.
         24    2    1    2    0    0  0.25038520865E+03  0.57059100447E+03 -0.45388022361E+03  0.77499814306E+03  0.79674445594E+02 0.  0.
        254    2    1    2    0    0 -0.25038520865E+03 -0.57059100447E+03 -0.42534279877E+03  0.11744399867E+04  0.90006996334E+03 0.  0.
         23    2    4    4    0    0  0.11472194363E+02 -0.59574681010E+03 -0.59508846538E+03  0.84714613103E+03  0.92089156306E+02 0.  0.
         23    2    4    4    0    0 -0.26185740301E+03  0.25155805637E+02  0.16974566661E+03  0.32729385571E+03  0.95423071542E+02 0.  0.
          2    1    3    3  502    0  0.13607557262E+03  0.21300802943E+03 -0.18494306061E+03  0.31319788909E+03  0.00000000000E+00 0. -1.
         -1    1    3    3    0  502  0.11430963603E+03  0.35758297503E+03 -0.26893716300E+03  0.46180025397E+03  0.00000000000E+00 0.  1.
         13    1    5    5    0    0 -0.34240435217E+02 -0.18026293301E+03 -0.20918320479E+03  0.27825302439E+03  0.00000000000E+00 0. -1.
        -13    1    5    5    0    0  0.45712629580E+02 -0.41548387710E+03 -0.38590526059E+03  0.56889310664E+03  0.00000000000E+00 0.  1.
          2    1    6    6  503    0  0.68683458759E+01  0.79097071537E+01  0.78985112533E+01  0.13119608315E+02  0.00000000000E+00 0. -1.
         -2    1    6    6    0  503 -0.26872574889E+03  0.17246098484E+02  0.16184715535E+03  0.31417424739E+03  0.00000000000E+00 0.  1.
<mgrwt>
<rscale>  0 0.17399069E+04</rscale>
<asrwt>0</asrwt>
<pdfrwt beam="1">  1        2 0.21758931E+00 0.17399069E+04</pdfrwt>
<pdfrwt beam="2">  1       -1 0.82324241E-01 0.17399069E+04</pdfrwt>
<totfact> 0.22522084E+01</totfact>
</mgrwt>
</event>
<event>
12    7  0.2466188E-007  0.2292615E+04  0.7818608E-02  0.8480839E-01
          2   -1    0    0  501    0  0.00000000000E+00  0.00000000000E+00  0.15061207653E+04  0.15061207653E+04  0.00000000000E+00 0. -1.
         -1   -1    0    0    0  501 -0.00000000000E+00 -0.00000000000E+00 -0.87245377970E+03  0.87245377970E+03  0.00000000000E+00 0.  1.
         24    2    1    2    0    0  0.26281155592E+03 -0.86389942334E+03  0.62924489632E+03  0.11034655331E+04  0.79340504146E+02 0.  0.
        254    2    1    2    0    0 -0.26281155592E+03  0.86389942334E+03  0.44220892854E+01  0.12751090119E+04  0.90027290851E+03 0.  0.
         23    2    4    4    0    0 -0.40037439930E+03  0.29991394543E+03  0.32685772651E+03  0.60481362560E+03  0.93356917575E+02 0.  0.
         23    2    4    4    0    0  0.13756284339E+03  0.56398547792E+03 -0.32243563722E+03  0.67029538630E+03  0.91257928785E+02 0.  0.
          2    1    3    3  502    0  0.25607214690E+03 -0.77505809663E+03  0.58298809975E+03  0.10030768276E+04  0.00000000000E+00 0. -1.
         -1    1    3    3    0  502  0.67394090222E+01 -0.88841326714E+02  0.46256796565E+02  0.10038870551E+03  0.00000000000E+00 0.  1.
         13    1    5    5    0    0 -0.13150872253E+03  0.46975024268E+02  0.94941491621E+02  0.16886409872E+03  0.00000000000E+00 0.  1.
        -13    1    5    5    0    0 -0.26886567678E+03  0.25293892116E+03  0.23191623489E+03  0.43594952688E+03  0.00000000000E+00 0. -1.
          2    1    6    6  503    0  0.12545992445E+03  0.37162678943E+03 -0.24575376239E+03  0.46286237154E+03  0.00000000000E+00 0. -1.
         -2    1    6    6    0  503  0.12102918937E+02  0.19235868849E+03 -0.76681874836E+02  0.20743301476E+03  0.00000000000E+00 0.  1.
<mgrwt>
<rscale>  0 0.22926149E+04</rscale>
<asrwt>0</asrwt>
<pdfrwt beam="1">  1        2 0.23171089E+00 0.22926149E+04</pdfrwt>
<pdfrwt beam="2">  1       -1 0.13422366E+00 0.22926149E+04</pdfrwt>
<totfact> 0.60841042E+00</totfact>
</mgrwt>
</event>
<event>
12    7  0.2466188E-007  0.1530649E+04  0.7818608E-02  0.8864324E-01
         -1   -1    0    0    0  501 -0.00000000000E+00  0.00000000000E+00  0.48833475567E+03  0.48833475567E+03  0.00000000000E+00 0.  1.
          2   -1    0    0  501    0  0.00000000000E+00 -0.00000000000E+00 -0.11994265029E+04  0.11994265029E+04  0.00000000000E+00 0. -1.
         24    2    1    2    0    0  0.31136302590E+03 -0.19081922265E+03 -0.60571186305E+03  0.71160445877E+03  0.78327103064E+02 0.  0.
        254    2    1    2    0    0 -0.31136302590E+03  0.19081922265E+03 -0.10537988415E+03  0.97615679977E+03  0.89912083066E+03 0.  0.
         23    2    4    4    0    0 -0.13496872913E+02  0.41321707190E+03 -0.32654244414E+03  0.53422164135E+03  0.88500170442E+02 0.  0.
         23    2    4    4    0    0 -0.29786615299E+03 -0.22239784926E+03  0.22116255998E+03  0.44193515843E+03  0.90602195691E+02 0.  0.
          4    1    3    3  502    0  0.62543504713E+02 -0.43418691939E+02 -0.19456669316E+03  0.20893317324E+03  0.00000000000E+00 0. -1.
         -3    1    3    3    0  502  0.24881952119E+03 -0.14740053071E+03 -0.41114516988E+03  0.50267128553E+03  0.00000000000E+00 0.  1.
         13    1    5    5    0    0  0.93741545166E+01  0.15938602632E+03 -0.17849058612E+03  0.23947999810E+03  0.00000000000E+00 0.  1.
        -13    1    5    5    0    0 -0.22871027429E+02  0.25383104559E+03 -0.14805185802E+03  0.29474164324E+03  0.00000000000E+00 0. -1.
          4    1    6    6  503    0 -0.24831500491E+02 -0.49661996730E+02  0.11272411959E+02  0.56656726054E+02  0.00000000000E+00 0. -1.
         -4    1    6    6    0  503 -0.27303465250E+03 -0.17273585253E+03  0.20989014802E+03  0.38527843237E+03  0.00000000000E+00 0.  1.
<mgrwt>
<rscale>  0 0.15306491E+04</rscale>
<asrwt>0</asrwt>
<pdfrwt beam="1">  1        2 0.18452715E+00 0.15306491E+04</pdfrwt>
<pdfrwt beam="2">  1       -1 0.75128425E-01 0.15306491E+04</pdfrwt>
<totfact> 0.37122874E+01</totfact>
</mgrwt>
</event>
<event>
12    7  0.2466188E-007  0.2667691E+04  0.7818608E-02  0.8345565E-01
          2   -1    0    0  501    0  0.00000000000E+00  0.00000000000E+00  0.18468434813E+04  0.18468434813E+04  0.00000000000E+00 0. -1.
         -1   -1    0    0    0  501 -0.00000000000E+00 -0.00000000000E+00 -0.96334330075E+03  0.96334330075E+03  0.00000000000E+00 0.  1.
         24    2    1    2    0    0  0.79459585312E+03  0.85139755272E+03  0.18977227600E+03  0.11826331059E+04  0.79669215127E+02 0.  0.
        254    2    1    2    0    0 -0.79459585312E+03 -0.85139755272E+03  0.69372790454E+03  0.16275536761E+04  0.90078421425E+03 0.  0.
         23    2    4    4    0    0 -0.70488979809E+03 -0.15969002862E+03  0.54300751541E+03  0.90818234124E+03  0.86991209040E+02 0.  0.
         23    2    4    4    0    0 -0.89706055026E+02 -0.69170752410E+03  0.15072038912E+03  0.71937133491E+03  0.90950572180E+02 0.  0.
          2    1    3    3  502    0  0.46789963501E+03  0.44892308126E+03  0.88271762979E+02  0.65441111349E+03  0.00000000000E+00 0. -1.
         -1    1    3    3    0  502  0.32669621811E+03  0.40247447147E+03  0.10150051302E+03  0.52822199240E+03  0.00000000000E+00 0.  1.
         13    1    5    5    0    0 -0.65190100046E+03 -0.13110935466E+03  0.47399817788E+03  0.81660201440E+03  0.00000000000E+00 0. -1.
        -13    1    5    5    0    0 -0.52988797632E+02 -0.28580673960E+02  0.69009337527E+02  0.91580326842E+02  0.00000000000E+00 0.  1.
          1    1    6    6  503    0 -0.24564264820E+01 -0.35615537141E+03  0.90346911477E+02  0.36744420941E+03  0.00000000000E+00 0. -1.
         -1    1    6    6    0  503 -0.87249628544E+02 -0.33555215269E+03  0.60373477647E+02  0.35192712550E+03  0.00000000000E+00 0.  1.
<mgrwt>
<rscale>  0 0.26676914E+04</rscale>
<asrwt>0</asrwt>
<pdfrwt beam="1">  1        2 0.28412977E+00 0.26676914E+04</pdfrwt>
<pdfrwt beam="2">  1       -1 0.14820666E+00 0.26676914E+04</pdfrwt>
<totfact> 0.29320957E+00</totfact>
</mgrwt>
</event>
<event>
12    7  0.2466188E-007  0.3444205E+04  0.7818608E-02  0.8127142E-01
          2   -1    0    0  501    0  0.00000000000E+00  0.00000000000E+00  0.25362914970E+04  0.25362914970E+04  0.00000000000E+00 0. -1.
         -1   -1    0    0    0  501 -0.00000000000E+00 -0.00000000000E+00 -0.11692805481E+04  0.11692805481E+04  0.00000000000E+00 0.  1.
         24    2    1    2    0    0 -0.12797657944E+04 -0.32919484172E+03  0.16129774630E+04  0.20867142447E+04  0.80686497108E+02 0.  0.
        254    2    1    2    0    0  0.12797657944E+04  0.32919484172E+03 -0.24596651403E+03  0.16188578004E+04  0.90223684230E+03 0.  0.
         23    2    4    4    0    0 -0.90406631756E+01 -0.11773815626E+03  0.12961496180E+03  0.20114317013E+03  0.98562312971E+02 0.  0.
         23    2    4    4    0    0  0.12888064576E+04  0.44693299799E+03 -0.37558147583E+03  0.14177146303E+04  0.89900712800E+02 0.  0.
          2    1    3    3  502    0 -0.58280633096E+03 -0.15173019636E+03  0.79864795484E+03  0.10002618795E+04  0.00000000000E+00 0. -1.
         -1    1    3    3    0  502 -0.69695946343E+03 -0.17746464537E+03  0.81432950813E+03  0.10864523652E+04  0.00000000000E+00 0.  1.
         13    1    5    5    0    0 -0.35582942956E+02 -0.26558626774E+01  0.31704783775E+02  0.47732512506E+02  0.00000000000E+00 0. -1.
        -13    1    5    5    0    0  0.26542279780E+02 -0.11508229359E+03  0.97910178022E+02  0.15341065763E+03  0.00000000000E+00 0.  1.
          1    1    6    6  503    0  0.88509558795E+03  0.27989184137E+03 -0.22070743506E+03  0.95417263352E+03  0.00000000000E+00 0. -1.
         -1    1    6    6    0  503  0.40371086961E+03  0.16704115662E+03 -0.15487404077E+03  0.46354199675E+03  0.00000000000E+00 0.  1.
<mgrwt>
<rscale>  0 0.34442046E+04</rscale>
<asrwt>0</asrwt>
<pdfrwt beam="1">  1        2 0.39019869E+00 0.34442046E+04</pdfrwt>
<pdfrwt beam="2">  1       -1 0.17988932E+00 0.34442046E+04</pdfrwt>
<totfact> 0.64839315E-01</totfact>
</mgrwt>
</event>
<event>
12    7  0.2466188E-007  0.2136567E+04  0.7818608E-02  0.8545304E-01
          2   -1    0    0  501    0  0.00000000000E+00  0.00000000000E+00  0.13541699717E+04  0.13541699717E+04  0.00000000000E+00 0. -1.
         -1   -1    0    0    0  501 -0.00000000000E+00 -0.00000000000E+00 -0.84275208549E+03  0.84275208549E+03  0.00000000000E+00 0.  1.
         24    2    1    2    0    0 -0.47196325201E+03  0.60978669941E+03 -0.21872385870E+03  0.80536665787E+03  0.78652382165E+02 0.  0.
        254    2    1    2    0    0  0.47196325201E+03 -0.60978669941E+03  0.73014174486E+03  0.13915553993E+04  0.89929435206E+03 0.  0.
         23    2    4    4    0    0  0.43099319639E+03 -0.53816919847E+03  0.46130706033E+02  0.69693316764E+03  0.90590157276E+02 0.  0.
         23    2    4    4    0    0  0.40970055613E+02 -0.71617500941E+02  0.68401103883E+03  0.69462223164E+03  0.88438292345E+02 0.  0.
          4    1    3    3  502    0 -0.14264273124E+03  0.20730750090E+03 -0.36232673743E+02  0.25423641626E+03  0.00000000000E+00 0. -1.
         -3    1    3    3    0  502 -0.32932052077E+03  0.40247919851E+03 -0.18249118495E+03  0.55113024161E+03  0.00000000000E+00 0.  1.
         13    1    5    5    0    0  0.27251833180E+03 -0.28079237830E+03  0.51256460913E+02  0.39463632076E+03  0.00000000000E+00 0. -1.
        -13    1    5    5    0    0  0.15847486460E+03 -0.25737682017E+03 -0.51257548806E+01  0.30229684688E+03  0.00000000000E+00 0.  1.
          1    1    6    6  503    0 -0.14560909816E+02 -0.51831756217E+02  0.45383145564E+03  0.45701372099E+03  0.00000000000E+00 0. -1.
         -1    1    6    6    0  503  0.55530965429E+02 -0.19785744724E+02  0.23017958319E+03  0.23760851065E+03  0.00000000000E+00 0.  1.
<mgrwt>
<rscale>  0 0.21365669E+04</rscale>
<asrwt>0</asrwt>
<pdfrwt beam="1">  1        2 0.20833384E+00 0.21365669E+04</pdfrwt>
<pdfrwt beam="2">  1       -1 0.12965417E+00 0.21365669E+04</pdfrwt>
<totfact> 0.82210579E+00</totfact>
</mgrwt>
</event>
<event>
12    7  0.2466188E-007  0.1351080E+04  0.7818608E-02  0.8990011E-01
         -1   -1    0    0    0  501 -0.00000000000E+00  0.00000000000E+00  0.21631652516E+03  0.21631652516E+03  0.00000000000E+00 0.  1.
          2   -1    0    0  501    0  0.00000000000E+00 -0.00000000000E+00 -0.21096606265E+04  0.21096606265E+04  0.00000000000E+00 0. -1.
         24    2    1    2    0    0  0.35706306896E+03 -0.89004488050E+02 -0.57836939394E+03  0.68982289572E+03  0.76997646092E+02 0.  0.
        254    2    1    2    0    0 -0.35706306896E+03  0.89004488050E+02 -0.13149747074E+04  0.16361542559E+04  0.90134701088E+03 0.  0.
         23    2    4    4    0    0 -0.30685514699E+03 -0.37357132003E+03 -0.56771562259E+03  0.75115332122E+03  0.90634824717E+02 0.  0.
         23    2    4    4    0    0 -0.50207921963E+02  0.46257580808E+03 -0.74725908480E+03  0.88500093472E+03  0.91286915787E+02 0.  0.
          4    1    3    3  502    0  0.21037036062E+03 -0.15113399133E+02 -0.34722785534E+03  0.40626504524E+03  0.00000000000E+00 0. -1.
         -3    1    3    3    0  502  0.14669270833E+03 -0.73891088917E+02 -0.23114153861E+03  0.28355785048E+03  0.00000000000E+00 0.  1.
         13    1    5    5    0    0 -0.91188563690E+02 -0.18039109369E+03 -0.22291272910E+03  0.30090926477E+03  0.00000000000E+00 0.  1.
        -13    1    5    5    0    0 -0.21566658330E+03 -0.19318022634E+03 -0.34480289349E+03  0.45024405644E+03  0.00000000000E+00 0. -1.
          1    1    6    6  503    0 -0.87082555616E+01  0.18550554868E+02 -0.78902218553E+02  0.81520039828E+02  0.00000000000E+00 0. -1.
         -1    1    6    6    0  503 -0.41499666401E+02  0.44402525321E+03 -0.66835686624E+03  0.80348089489E+03  0.00000000000E+00 0.  1.
<mgrwt>
<rscale>  0 0.13510802E+04</rscale>
<asrwt>0</asrwt>
<pdfrwt beam="1">  1        2 0.32456319E+00 0.13510802E+04</pdfrwt>
<pdfrwt beam="2">  1       -1 0.33279464E-01 0.13510802E+04</pdfrwt>
<totfact> 0.54896616E+01</totfact>
</mgrwt>
</event>
<event>
12    7  0.2466188E-007  0.1731194E+04  0.7818608E-02  0.8743771E-01
          2   -1    0    0  501    0  0.00000000000E+00  0.00000000000E+00  0.19305649351E+04  0.19305649351E+04  0.00000000000E+00 0. -1.
         -1   -1    0    0    0  501 -0.00000000000E+00 -0.00000000000E+00 -0.38810295001E+03  0.38810295001E+03  0.00000000000E+00 0.  1.
         24    2    1    2    0    0  0.42635970540E+03  0.16741936408E+03 -0.11496938988E+02  0.46479632760E+03  0.78048732760E+02 0.  0.
        254    2    1    2    0    0 -0.42635970540E+03 -0.16741936408E+03  0.15539589241E+04  0.18538715575E+04  0.90124334790E+03 0.  0.
         23    2    4    4    0    0 -0.69800339802E+03 -0.17413648600E+03  0.11371998611E+04  0.13487003771E+04  0.90757499348E+02 0.  0.
         23    2    4    4    0    0  0.27164369262E+03  0.67171219169E+01  0.41675906294E+03  0.50517118038E+03  0.87603592832E+02 0.  0.
          4    1    3    3  502    0  0.21434902048E+03  0.52874848285E+02  0.20421018722E+02  0.22171664387E+03  0.00000000000E+00 0. -1.
         -3    1    3    3    0  502  0.21201068492E+03  0.11454451579E+03 -0.31917957710E+02  0.24307968373E+03  0.00000000000E+00 0.  1.
         13    1    5    5    0    0 -0.18585608000E+03 -0.80489016272E+02  0.36393616830E+03  0.41649789772E+03  0.00000000000E+00 0. -1.
        -13    1    5    5    0    0 -0.51214731801E+03 -0.93647469723E+02  0.77326369285E+03  0.93220247940E+03  0.00000000000E+00 0.  1.
          1    1    6    6  503    0  0.16021375645E+03 -0.25777090145E+01  0.16655601185E+03  0.23111901138E+03  0.00000000000E+00 0. -1.
         -1    1    6    6    0  503  0.11142993617E+03  0.92948309314E+01  0.25020305109E+03  0.27405216899E+03  0.00000000000E+00 0.  1.
<mgrwt>
<rscale>  0 0.17311937E+04</rscale>
<asrwt>0</asrwt>
<pdfrwt beam="1">  1        2 0.29700998E+00 0.17311937E+04</pdfrwt>
<pdfrwt beam="2">  1       -1 0.59708147E-01 0.17311937E+04</pdfrwt>
<totfact> 0.22452116E+01</totfact>
</mgrwt>
</event>
<event>
12    7  0.2466188E-007  0.3551510E+04  0.7818608E-02  0.8101690E-01
         -1   -1    0    0    0  501 -0.00000000000E+00  0.00000000000E+00  0.10827527248E+04  0.10827527248E+04  0.00000000000E+00 0.  1.
          2   -1    0    0  501    0  0.00000000000E+00 -0.00000000000E+00 -0.29123038611E+04  0.29123038611E+04  0.00000000000E+00 0. -1.
         24    2    1    2    0    0 -0.13565484679E+04 -0.88963272475E+03 -0.12498567079E+04  0.20494089944E+04  0.79153681466E+02 0.  0.
        254    2    1    2    0    0  0.13565484679E+04  0.88963272475E+03 -0.57969442839E+03  0.19456475915E+04  0.90433886862E+03 0.  0.
         23    2    4    4    0    0  0.95411751967E+03  0.24125989801E+03 -0.63599568526E+03  0.11753908580E+04  0.92231109536E+02 0.  0.
         23    2    4    4    0    0  0.40243094824E+03  0.64837282674E+03  0.56301256868E+02  0.77025673355E+03  0.88247456048E+02 0.  0.
          2    1    3    3  502    0 -0.54613264213E+03 -0.33531343518E+03 -0.45137941205E+03  0.78386180940E+03  0.00000000000E+00 0. -1.
         -3    1    3    3    0  502 -0.81041582578E+03 -0.55431928958E+03 -0.79847729582E+03  0.12655471850E+04  0.00000000000E+00 0.  1.
         13    1    5    5    0    0  0.93767558519E+03  0.23243377346E+03 -0.63620745606E+03  0.11567285288E+04  0.00000000000E+00 0. -1.
        -13    1    5    5    0    0  0.16441934479E+02  0.88261245533E+01  0.21177079918E+00  0.18662329193E+02  0.00000000000E+00 0.  1.
          4    1    6    6  503    0  0.35744804294E+03  0.60365704182E+03  0.31822966885E+02  0.70227033880E+03  0.00000000000E+00 0. -1.
         -4    1    6    6    0  503  0.44982905305E+02  0.44715784920E+02  0.24478289983E+02  0.67986394750E+02  0.00000000000E+00 0.  1.
<mgrwt>
<rscale>  0 0.35515095E+04</rscale>
<asrwt>0</asrwt>
<pdfrwt beam="1">  1        2 0.44804674E+00 0.35515095E+04</pdfrwt>
<pdfrwt beam="2">  1       -1 0.16657734E+00 0.35515095E+04</pdfrwt>
<totfact> 0.47828680E-01</totfact>
</mgrwt>
</event>
<event>
12    7  0.3320888E-007  0.1940656E+04  0.7818608E-02  0.8634880E-01
         -1   -1    0    0    0  501 -0.00000000000E+00  0.00000000000E+00  0.53551851585E+03  0.53551851585E+03  0.00000000000E+00 0.  1.
          2   -1    0    0  501    0  0.00000000000E+00 -0.00000000000E+00 -0.17581763111E+04  0.17581763111E+04  0.00000000000E+00 0. -1.
         24    2    1    2    0    0  0.57525166074E+03  0.49164303012E+03 -0.53139438733E+03  0.92815391653E+03  0.80388777966E+02 0.  0.
        254    2    1    2    0    0 -0.57525166074E+03 -0.49164303012E+03 -0.69126340792E+03  0.13655409104E+04  0.90234668319E+03 0.  0.
         23    2    4    4    0    0 -0.72024975917E+03 -0.83147328267E+02 -0.37354233359E+03  0.82053349772E+03  0.89822893070E+02 0.  0.
         23    2    4    4    0    0  0.14499809843E+03 -0.40849570185E+03 -0.31772107433E+03  0.54500741270E+03  0.90516362281E+02 0.  0.
          2    1    3    3  502    0  0.16952470103E+03  0.15900786418E+03 -0.20751536083E+03  0.31158425844E+03  0.00000000000E+00 0. -1.
         -1    1    3    3    0  502  0.40572695971E+03  0.33263516595E+03 -0.32387902650E+03  0.61656965808E+03  0.00000000000E+00 0.  1.
         13    1    5    5    0    0 -0.20593918301E+03 -0.86724152428E+01 -0.14945370328E+03  0.25460276375E+03  0.00000000000E+00 0. -1.
        -13    1    5    5    0    0 -0.51431057617E+03 -0.74474913025E+02 -0.22408863030E+03  0.56593073398E+03  0.00000000000E+00 0.  1.
          4    1    6    6  503    0  0.43962196355E+02 -0.21591055968E+03 -0.11905651480E+03  0.25044859394E+03  0.00000000000E+00 0. -1.
         -4    1    6    6    0  503  0.10103590208E+03 -0.19258514217E+03 -0.19866455954E+03  0.29455881876E+03  0.00000000000E+00 0.  1.
<mgrwt>
<rscale>  0 0.19406555E+04</rscale>
<asrwt>0</asrwt>
<pdfrwt beam="1">  1        2 0.27048866E+00 0.19406555E+04</pdfrwt>
<pdfrwt beam="2">  1       -1 0.82387465E-01 0.19406555E+04</pdfrwt>
<totfact> 0.14174466E+01</totfact>
</mgrwt>
</event>
<event>
12    7  0.2466188E-007  0.1196179E+04  0.7818608E-02  0.9116207E-01
          2   -1    0    0  501    0  0.00000000000E+00  0.00000000000E+00  0.30125458677E+04  0.30125458677E+04  0.00000000000E+00 0. -1.
         -1   -1    0    0    0  501 -0.00000000000E+00 -0.00000000000E+00 -0.11874048911E+03  0.11874048911E+03  0.00000000000E+00 0.  1.
         24    2    1    2    0    0  0.25606799331E+02  0.13570700044E+03  0.87942692111E+02  0.18157428961E+03  0.78506097928E+02 0.  0.
        254    2    1    2    0    0 -0.25606799331E+02 -0.13570700044E+03  0.28058626864E+04  0.29497120672E+04  0.89936853726E+03 0.  0.
         23    2    4    4    0    0 -0.33833449511E+03  0.18844625224E+03  0.18047377804E+04  0.18480463462E+04  0.90634546991E+02 0.  0.
         23    2    4    4    0    0  0.31272769578E+03 -0.32415325269E+03  0.10011249061E+04  0.11016657210E+04  0.92424781922E+02 0.  0.
          2    1    3    3  502    0  0.17222830321E+02 -0.85432613747E+00  0.26444194735E+02  0.31569782904E+02  0.00000000000E+00 0. -1.
         -1    1    3    3    0  502  0.83839690097E+01  0.13656132658E+03  0.61498497376E+02  0.15000450671E+03  0.00000000000E+00 0.  1.
         13    1    5    5    0    0 -0.11901284862E+03  0.11196807598E+03  0.83948587110E+03  0.85524115660E+03  0.00000000000E+00 0. -1.
        -13    1    5    5    0    0 -0.21932164650E+03  0.76478176263E+02  0.96525190928E+03  0.99280518957E+03  0.00000000000E+00 0.  1.
          4    1    6    6  503    0  0.13404458737E+03 -0.90405420864E+02  0.42602967047E+03  0.45567792534E+03  0.00000000000E+00 0.  1.
         -4    1    6    6    0  503  0.17868310841E+03 -0.23374783182E+03  0.57509523560E+03  0.64598779564E+03  0.00000000000E+00 0. -1.
<mgrwt>
<rscale>  0 0.11961792E+04</rscale>
<asrwt>0</asrwt>
<pdfrwt beam="1">  1        2 0.46346854E+00 0.11961792E+04</pdfrwt>
<pdfrwt beam="2">  1       -1 0.18267770E-01 0.11961792E+04</pdfrwt>
<totfact> 0.46420464E+01</totfact>
</mgrwt>
</event>
<event>
12    7  0.2466188E-007  0.2145921E+04  0.7818608E-02  0.8541280E-01
          2   -1    0    0  501    0  0.00000000000E+00  0.00000000000E+00  0.27397038905E+04  0.27397038905E+04  0.00000000000E+00 0. -1.
         -1   -1    0    0    0  501 -0.00000000000E+00 -0.00000000000E+00 -0.42020758665E+03  0.42020758665E+03  0.00000000000E+00 0.  1.
         24    2    1    2    0    0  0.50881521653E+03 -0.33395072940E+03  0.18327410295E+02  0.61439447048E+03  0.82028392324E+02 0.  0.
        254    2    1    2    0    0 -0.50881521653E+03  0.33395072940E+03  0.23011688935E+04  0.25455170066E+04  0.90214330367E+03 0.  0.
         23    2    4    4    0    0 -0.89459533127E+02 -0.28400200831E+03  0.94900057716E+03  0.99812499946E+03  0.83613816493E+02 0.  0.
         23    2    4    4    0    0 -0.41935568340E+03  0.61795273771E+03  0.13521683164E+04  0.15473920072E+04  0.91313158322E+02 0.  0.
          2    1    3    3  502    0  0.15042850189E+03 -0.59197441343E+02 -0.96258744310E+01  0.16194359728E+03  0.00000000000E+00 0. -1.
         -1    1    3    3    0  502  0.35838671464E+03 -0.27475328806E+03  0.27953284726E+02  0.45245087319E+03  0.00000000000E+00 0.  1.
         13    1    5    5    0    0 -0.99226538664E+02 -0.20794347980E+03  0.76009366547E+03  0.79424730220E+03  0.00000000000E+00 0.  1.
        -13    1    5    5    0    0  0.97670055362E+01 -0.76058528502E+02  0.18890691169E+03  0.20387769726E+03  0.00000000000E+00 0. -1.
          3    1    6    6  503    0 -0.29744971950E+03  0.48952941761E+03  0.10839987429E+04  0.12260377894E+04  0.00000000000E+00 0. -1.
         -3    1    6    6    0  503 -0.12190596390E+03  0.12842332010E+03  0.26816957340E+03  0.32135421777E+03  0.00000000000E+00 0.  1.
<mgrwt>
<rscale>  0 0.21459211E+04</rscale>
<asrwt>0</asrwt>
<pdfrwt beam="1">  1        2 0.42149290E+00 0.21459211E+04</pdfrwt>
<pdfrwt beam="2">  1       -1 0.64647323E-01 0.21459211E+04</pdfrwt>
<totfact> 0.63777961E+00</totfact>
</mgrwt>
</event>
<event>
12    7  0.2466188E-007  0.1220170E+04  0.7818608E-02  0.9095383E-01
         -1   -1    0    0    0  501 -0.00000000000E+00  0.00000000000E+00  0.32631623064E+03  0.32631623064E+03  0.00000000000E+00 0.  1.
          2   -1    0    0  501    0  0.00000000000E+00 -0.00000000000E+00 -0.11406219160E+04  0.11406219160E+04  0.00000000000E+00 0. -1.
         24    2    1    2    0    0 -0.19176523224E+02 -0.13087482885E+03 -0.46914743646E+03  0.49364424552E+03  0.78034377854E+02 0.  0.
        254    2    1    2    0    0  0.19176523224E+02  0.13087482885E+03 -0.34515824892E+03  0.97329390114E+03  0.90037261250E+03 0.  0.
         23    2    4    4    0    0 -0.15333583217E+03 -0.30994136051E+03 -0.33639225490E+03  0.49087239513E+03  0.90666613284E+02 0.  0.
         23    2    4    4    0    0  0.17251235540E+03  0.44081618936E+03 -0.87659940205E+01  0.48242150601E+03  0.92597198899E+02 0.  0.
          2    1    3    3  502    0  0.16558318310E+02 -0.11131183881E+03 -0.35763739199E+03  0.37492533592E+03  0.00000000000E+00 0. -1.
         -1    1    3    3    0  502 -0.35734841534E+02 -0.19562990040E+02 -0.11151004448E+03  0.11871890960E+03  0.00000000000E+00 0.  1.
         13    1    5    5    0    0 -0.11458811710E+03 -0.14688119595E+03 -0.14223697951E+03  0.23438404520E+03  0.00000000000E+00 0. -1.
        -13    1    5    5    0    0 -0.38747715069E+02 -0.16306016456E+03 -0.19415527538E+03  0.25648834993E+03  0.00000000000E+00 0.  1.
          2    1    6    6  503    0  0.45493498952E+02  0.36201248172E+02  0.24274301204E+01  0.58190044106E+02  0.00000000000E+00 0. -1.
         -2    1    6    6    0  503  0.12701885644E+03  0.40461494119E+03 -0.11193424141E+02  0.42423146191E+03  0.00000000000E+00 0.  1.
<mgrwt>
<rscale>  0 0.12201696E+04</rscale>
<asrwt>0</asrwt>
<pdfrwt beam="1">  1        2 0.17548029E+00 0.12201696E+04</pdfrwt>
<pdfrwt beam="2">  1       -1 0.50202497E-01 0.12201696E+04</pdfrwt>
<totfact> 0.92037135E+01</totfact>
</mgrwt>
</event>
<event>
12    7  0.2466188E-007  0.2661555E+04  0.7818608E-02  0.8347588E-01
          2   -1    0    0  501    0  0.00000000000E+00  0.00000000000E+00  0.89507123096E+03  0.89507123096E+03  0.00000000000E+00 0. -1.
         -1   -1    0    0    0  501 -0.00000000000E+00 -0.00000000000E+00 -0.19785788581E+04  0.19785788581E+04  0.00000000000E+00 0.  1.
         24    2    1    2    0    0  0.11504527976E+04  0.62042521401E+02 -0.22030122020E+03  0.11760949930E+04  0.85298832704E+02 0.  0.
        254    2    1    2    0    0 -0.11504527976E+04 -0.62042521401E+02 -0.86320640695E+03  0.16975550961E+04  0.89954271124E+03 0.  0.
         23    2    4    4    0    0 -0.83329671230E+03 -0.39021515428E+03 -0.31190074625E+03  0.97617037341E+03  0.94737769970E+02 0.  0.
         23    2    4    4    0    0 -0.31715608531E+03  0.32817263288E+03 -0.55130566071E+03  0.72138472270E+03  0.90403137117E+02 0.  0.
          2    1    3    3  502    0  0.70227706489E+03  0.51510093450E+02 -0.94481429135E+02  0.71047386022E+03  0.00000000000E+00 0. -1.
         -1    1    3    3    0  502  0.44817573272E+03  0.10532427951E+02 -0.12581979106E+03  0.46562113275E+03  0.00000000000E+00 0.  1.
         13    1    5    5    0    0 -0.79362607869E+03 -0.36682890015E+03 -0.31664405755E+03  0.92987593470E+03  0.00000000000E+00 0.  1.
        -13    1    5    5    0    0 -0.39670633608E+02 -0.23386254131E+02  0.47433112993E+01  0.46294438707E+02  0.00000000000E+00 0. -1.
          3    1    6    6  503    0 -0.13070290952E+03  0.74605759280E+02 -0.18098355054E+03  0.23538121302E+03  0.00000000000E+00 0. -1.
         -3    1    6    6    0  503 -0.18645317579E+03  0.25356687360E+03 -0.37032211016E+03  0.48600350969E+03  0.00000000000E+00 0.  1.
<mgrwt>
<rscale>  0 0.26615552E+04</rscale>
<asrwt>0</asrwt>
<pdfrwt beam="1">  1        2 0.13770327E+00 0.26615552E+04</pdfrwt>
<pdfrwt beam="2">  1       -1 0.30439675E+00 0.26615552E+04</pdfrwt>
<totfact> 0.91689148E-01</totfact>
</mgrwt>
</event>
<event>
12    7  0.2466188E-007  0.1266932E+04  0.7818608E-02  0.9056207E-01
         -1   -1    0    0    0  501 -0.00000000000E+00  0.00000000000E+00  0.14708428211E+03  0.14708428211E+03  0.00000000000E+00 0.  1.
          2   -1    0    0  501    0  0.00000000000E+00 -0.00000000000E+00 -0.27282257494E+04  0.27282257494E+04  0.00000000000E+00 0. -1.
         24    2    1    2    0    0  0.46793447671E+02 -0.74173771696E+02  0.20982336139E+02  0.12025706163E+03  0.79562097068E+02 0.  0.
        254    2    1    2    0    0 -0.46793447671E+02  0.74173771696E+02 -0.26021238034E+04  0.27550529699E+04  0.90087579795E+03 0.  0.
         23    2    4    4    0    0  0.20783331153E+02 -0.96358974149E+02 -0.25375333349E+04  0.25410411510E+04  0.89987258740E+02 0.  0.
         23    2    4    4    0    0 -0.67576778824E+02  0.17053274585E+03 -0.64590468543E+02  0.21401181887E+03  0.89336955103E+02 0.  0.
          2    1    3    3  502    0  0.26059147587E+02 -0.55026255232E+02 -0.25393710833E+02  0.65968238477E+02  0.00000000000E+00 0. -1.
         -1    1    3    3    0  502  0.20734300084E+02 -0.19147516464E+02  0.46376046973E+02  0.54288823155E+02  0.00000000000E+00 0.  1.
         13    1    5    5    0    0  0.37997494992E+02 -0.27906453028E+02 -0.48291269950E+03  0.48520846559E+03  0.00000000000E+00 0. -1.
        -13    1    5    5    0    0 -0.17214163840E+02 -0.68452521122E+02 -0.20546206354E+04  0.20558326854E+04  0.00000000000E+00 0.  1.
          1    1    6    6  503    0 -0.53802259518E+02  0.60641909149E+02  0.81993568539E+01  0.81482229519E+02  0.00000000000E+00 0. -1.
         -1    1    6    6    0  503 -0.13774519305E+02  0.10989083670E+03 -0.72789825397E+02  0.13252958935E+03  0.00000000000E+00 0.  1.
<mgrwt>
<rscale>  0 0.12669319E+04</rscale>
<asrwt>0</asrwt>
<pdfrwt beam="1">  1        2 0.41972707E+00 0.12669319E+04</pdfrwt>
<pdfrwt beam="2">  1       -1 0.22628349E-01 0.12669319E+04</pdfrwt>
<totfact> 0.47850824E+01</totfact>
</mgrwt>
</event>
<event>
12    7  0.2466188E-007  0.1567653E+04  0.7818608E-02  0.8840670E-01
          2   -1    0    0  501    0  0.00000000000E+00  0.00000000000E+00  0.22348469888E+04  0.22348469888E+04  0.00000000000E+00 0. -1.
         -1   -1    0    0    0  501 -0.00000000000E+00 -0.00000000000E+00 -0.27491083367E+03  0.27491083367E+03  0.00000000000E+00 0.  1.
         24    2    1    2    0    0 -0.80578839609E+02 -0.41539839318E+03  0.17111176977E+03  0.46283037600E+03  0.76706875496E+02 0.  0.
        254    2    1    2    0    0  0.80578839609E+02  0.41539839318E+03  0.17888243854E+04  0.20469274465E+04  0.90053901360E+03 0.  0.
         23    2    4    4    0    0  0.46089136862E+03  0.37025824812E+03  0.10089447946E+04  0.11729432179E+04  0.91182070437E+02 0.  0.
         23    2    4    4    0    0 -0.38031252901E+03  0.45140145056E+02  0.77987959078E+03  0.87398422856E+03  0.94662575697E+02 0.  0.
          4    1    3    3  502    0 -0.14778875925E+02 -0.21205769660E+03  0.11579921164E+03  0.24206680747E+03  0.00000000000E+00 0. -1.
         -3    1    3    3    0  502 -0.65799963684E+02 -0.20334069657E+03  0.55312558134E+02  0.22076356853E+03  0.00000000000E+00 0.  1.
         13    1    5    5    0    0  0.22189110056E+03  0.12209222512E+03  0.44828647958E+03  0.51488148124E+03  0.00000000000E+00 0.  1.
        -13    1    5    5    0    0  0.23900026806E+03  0.24816602300E+03  0.56065831502E+03  0.65806173670E+03  0.00000000000E+00 0. -1.
          1    1    6    6  503    0 -0.23048764854E+03  0.11187459069E+02  0.56069357623E+03  0.60632252291E+03  0.00000000000E+00 0. -1.
         -1    1    6    6    0  503 -0.14982488047E+03  0.33952685987E+02  0.21918601455E+03  0.26766170565E+03  0.00000000000E+00 0.  1.
<mgrwt>
<rscale>  0 0.15676526E+04</rscale>
<asrwt>0</asrwt>
<pdfrwt beam="1">  1        2 0.34382260E+00 0.15676526E+04</pdfrwt>
<pdfrwt beam="2">  1       -1 0.42293976E-01 0.15676526E+04</pdfrwt>
<totfact> 0.29729077E+01</totfact>
</mgrwt>
</event>
<event>
12    7  0.2466188E-007  0.2016079E+04  0.7818608E-02  0.8599140E-01
         -1   -1    0    0    0  501 -0.00000000000E+00  0.00000000000E+00  0.53766945865E+03  0.53766945865E+03  0.00000000000E+00 0.  1.
          2   -1    0    0  501    0  0.00000000000E+00 -0.00000000000E+00 -0.18899044147E+04  0.18899044147E+04  0.00000000000E+00 0. -1.
         24    2    1    2    0    0 -0.28797707082E+03  0.55518381305E+03 -0.11535412496E+04  0.13145148027E+04  0.78306400496E+02 0.  0.
        254    2    1    2    0    0  0.28797707082E+03 -0.55518381305E+03 -0.19869370642E+03  0.11130590706E+04  0.89903361792E+03 0.  0.
         23    2    4    4    0    0 -0.64831678184E+02 -0.23425775798E+02  0.28553471587E+03  0.30685479668E+03  0.88757415541E+02 0.  0.
         23    2    4    4    0    0  0.35280874900E+03 -0.53175803725E+03 -0.48422842229E+03  0.80620427395E+03  0.90815983310E+02 0.  0.
          4    1    3    3  502    0 -0.25653625359E+03  0.42850178641E+03 -0.93218058404E+03  0.10575373618E+04  0.00000000000E+00 0. -1.
         -3    1    3    3    0  502 -0.31440817224E+02  0.12668202664E+03 -0.22136066561E+03  0.25697744091E+03  0.00000000000E+00 0.  1.
         13    1    5    5    0    0 -0.77665151437E+02 -0.15412231555E+02  0.14248618113E+03  0.16300835697E+03  0.00000000000E+00 0. -1.
        -13    1    5    5    0    0  0.12833473253E+02 -0.80135442423E+01  0.14304853474E+03  0.14384643972E+03  0.00000000000E+00 0.  1.
          4    1    6    6  503    0  0.33301038735E+03 -0.52378374115E+03 -0.45313431494E+03  0.76848944882E+03  0.00000000000E+00 0. -1.
         -4    1    6    6    0  503  0.19798361652E+02 -0.79742961059E+01 -0.31094107353E+02  0.37714825130E+02  0.00000000000E+00 0.  1.
<mgrwt>
<rscale>  0 0.20160792E+04</rscale>
<asrwt>0</asrwt>
<pdfrwt beam="1">  1        2 0.29075453E+00 0.20160792E+04</pdfrwt>
<pdfrwt beam="2">  1       -1 0.82718377E-01 0.20160792E+04</pdfrwt>
<totfact> 0.11799946E+01</totfact>
</mgrwt>
</event>
<event>
12    7  0.2466188E-007  0.1579898E+04  0.7818608E-02  0.8832994E-01
          2   -1    0    0  501    0  0.00000000000E+00  0.00000000000E+00  0.10489718710E+04  0.10489718710E+04  0.00000000000E+00 0. -1.
         -1   -1    0    0    0  501 -0.00000000000E+00 -0.00000000000E+00 -0.59488662256E+03  0.59488662256E+03  0.00000000000E+00 0.  1.
         24    2    1    2    0    0 -0.14899782541E+03  0.44248248020E+03 -0.10840726576E+03  0.48536112786E+03  0.76368788791E+02 0.  0.
        254    2    1    2    0    0  0.14899782541E+03 -0.44248248020E+03  0.56249251423E+03  0.11584973657E+04  0.89873645778E+03 0.  0.
         23    2    4    4    0    0  0.22405849261E+03 -0.95545310942E+02 -0.18948211852E+03  0.32200379695E+03  0.91933984207E+02 0.  0.
         23    2    4    4    0    0 -0.75060667201E+02 -0.34693716926E+03  0.75197463275E+03  0.83649356877E+03  0.90863299076E+02 0.  0.
          2    1    3    3  502    0 -0.13085886631E+03  0.38311228915E+03 -0.66022749496E+02  0.41019272597E+03  0.00000000000E+00 0. -1.
         -1    1    3    3    0  502 -0.18138959103E+02  0.59370191059E+02 -0.42384516267E+02  0.75168401892E+02  0.00000000000E+00 0.  1.
         13    1    5    5    0    0  0.36768251879E+02 -0.40193093345E+02 -0.73676148989E+01  0.54969726652E+02  0.00000000000E+00 0.  1.
        -13    1    5    5    0    0  0.18729024074E+03 -0.55352217597E+02 -0.18211450362E+03  0.26703407029E+03  0.00000000000E+00 0. -1.
          3    1    6    6  503    0 -0.44458778079E+02 -0.31971286007E+03  0.63093174227E+03  0.70870851501E+03  0.00000000000E+00 0. -1.
         -3    1    6    6    0  503 -0.30601889122E+02 -0.27224309188E+02  0.12104289048E+03  0.12778505376E+03  0.00000000000E+00 0.  1.
<mgrwt>
<rscale>  0 0.15798979E+04</rscale>
<asrwt>0</asrwt>
<pdfrwt beam="1">  1        2 0.16138029E+00 0.15798979E+04</pdfrwt>
<pdfrwt beam="2">  1       -1 0.91521019E-01 0.15798979E+04</pdfrwt>
<totfact> 0.29899891E+01</totfact>
</mgrwt>
</event>
<event>
12    7  0.2466188E-007  0.1308203E+04  0.7818608E-02  0.9023085E-01
         -1   -1    0    0    0  501 -0.00000000000E+00  0.00000000000E+00  0.21236689322E+03  0.21236689322E+03  0.00000000000E+00 0.  1.
          2   -1    0    0  501    0  0.00000000000E+00 -0.00000000000E+00 -0.20146687213E+04  0.20146687213E+04  0.00000000000E+00 0. -1.
         24    2    1    2    0    0 -0.93852030868E+02  0.58302342814E+02  0.64882247562E+02  0.15102754666E+03  0.79951528597E+02 0.  0.
        254    2    1    2    0    0  0.93852030868E+02 -0.58302342814E+02 -0.18671840756E+04  0.20760080678E+04  0.90068071956E+03 0.  0.
         23    2    4    4    0    0 -0.74384277776E+01  0.38993089026E+03 -0.56873321045E+03  0.69549989526E+03  0.90339416951E+02 0.  0.
         23    2    4    4    0    0  0.10129045865E+03 -0.44823323307E+03 -0.12984508652E+04  0.13805081726E+04  0.93034278807E+02 0.  0.
          2    1    3    3  502    0 -0.19313294384E+02 -0.30986784572E+01 -0.15833818408E+02  0.25165749612E+02  0.00000000000E+00 0. -1.
         -1    1    3    3    0  502 -0.74538736484E+02  0.61401021271E+02  0.80716065970E+02  0.12586179705E+03  0.00000000000E+00 0.  1.
         13    1    5    5    0    0 -0.41095818780E+02  0.31457586210E+03 -0.46561894849E+03  0.56342510108E+03  0.00000000000E+00 0.  1.
        -13    1    5    5    0    0  0.33657391003E+02  0.75355028162E+02 -0.10311426195E+03  0.13207479418E+03  0.00000000000E+00 0. -1.
          2    1    6    6  503    0  0.60448610827E+00 -0.20562200256E+03 -0.53681528468E+03  0.57484904384E+03  0.00000000000E+00 0. -1.
         -2    1    6    6    0  503  0.10068597254E+03 -0.24261123051E+03 -0.76163558051E+03  0.80565912875E+03  0.00000000000E+00 0.  1.
<mgrwt>
<rscale>  0 0.13082033E+04</rscale>
<asrwt>0</asrwt>
<pdfrwt beam="1">  1        2 0.30994904E+00 0.13082033E+04</pdfrwt>
<pdfrwt beam="2">  1       -1 0.32671829E-01 0.13082033E+04</pdfrwt>
<totfact> 0.64266760E+01</totfact>
</mgrwt>
</event>
<event>
12    7  0.2466188E-007  0.2709293E+04  0.7818608E-02  0.8331996E-01
         -1   -1    0    0    0  501 -0.00000000000E+00  0.00000000000E+00  0.16955317199E+04  0.16955317199E+04  0.00000000000E+00 0.  1.
          2   -1    0    0  501    0  0.00000000000E+00 -0.00000000000E+00 -0.10822962397E+04  0.10822962397E+04  0.00000000000E+00 0. -1.
         24    2    1    2    0    0 -0.20324209372E+03  0.33750712057E+03 -0.89290737166E+03  0.97934010827E+03  0.81271570678E+02 0.  0.
        254    2    1    2    0    0  0.20324209372E+03 -0.33750712057E+03  0.15061428519E+04  0.17984878513E+04  0.90048534458E+03 0.  0.
         23    2    4    4    0    0  0.36224977131E+03  0.16820754139E+03  0.89450444641E+03  0.98395738414E+03  0.92278141341E+02 0.  0.
         23    2    4    4    0    0 -0.15900767759E+03 -0.50571466196E+03  0.61163840554E+03  0.81453046719E+03  0.91255586055E+02 0.  0.
          4    1    3    3  502    0 -0.16790120224E+03  0.23808260251E+03 -0.72096247054E+03  0.77759952627E+03  0.00000000000E+00 0. -1.
         -3    1    3    3    0  502 -0.35340891477E+02  0.99424518066E+02 -0.17194490112E+03  0.20174058200E+03  0.00000000000E+00 0.  1.
         13    1    5    5    0    0  0.26061001567E+03  0.74244883925E+02  0.56822336250E+03  0.62952972349E+03  0.00000000000E+00 0. -1.
        -13    1    5    5    0    0  0.10163975564E+03  0.93962657466E+02  0.32628108391E+03  0.35442766066E+03  0.00000000000E+00 0.  1.
          1    1    6    6  503    0 -0.11708844662E+03 -0.34596776983E+03  0.48097815124E+03  0.60393988448E+03  0.00000000000E+00 0. -1.
         -1    1    6    6    0  503 -0.41919230969E+02 -0.15974689214E+03  0.13066025430E+03  0.21059058271E+03  0.00000000000E+00 0.  1.
<mgrwt>
<rscale>  0 0.27092933E+04</rscale>
<asrwt>0</asrwt>
<pdfrwt beam="1">  1        2 0.16650711E+00 0.27092933E+04</pdfrwt>
<pdfrwt beam="2">  1       -1 0.26085104E+00 0.27092933E+04</pdfrwt>
<totfact> 0.13224569E+00</totfact>
</mgrwt>
</event>
<event>
12    7  0.2466188E-007  0.1736673E+04  0.7818608E-02  0.8740721E-01
          2   -1    0    0  501    0  0.00000000000E+00  0.00000000000E+00  0.58569928778E+03  0.58569928778E+03  0.00000000000E+00 0. -1.
         -1   -1    0    0    0  501 -0.00000000000E+00 -0.00000000000E+00 -0.12873638554E+04  0.12873638554E+04  0.00000000000E+00 0.  1.
         24    2    1    2    0    0 -0.32259314696E+03 -0.34889671943E+03  0.19232751461E+03  0.51824599392E+03  0.76116870999E+02 0.  0.
        254    2    1    2    0    0  0.32259314696E+03  0.34889671943E+03 -0.89399208220E+03  0.13548171492E+04  0.90028462475E+03 0.  0.
         23    2    4    4    0    0  0.34757296382E+03  0.45315011241E+03 -0.15033365821E+03  0.59760596139E+03  0.91546090801E+02 0.  0.
         23    2    4    4    0    0 -0.24979816866E+02 -0.10425339298E+03 -0.74365842400E+03  0.75721118786E+03  0.94064713051E+02 0.  0.
          4    1    3    3  502    0 -0.23346686387E+03 -0.25796470988E+03  0.17590160225E+03  0.38986400417E+03  0.00000000000E+00 0. -1.
         -3    1    3    3    0  502 -0.89126283081E+02 -0.90932009542E+02  0.16425912351E+02  0.12838198975E+03  0.00000000000E+00 0.  1.
         13    1    5    5    0    0  0.23917923186E+03  0.37137428609E+03 -0.12882453511E+03  0.46013185737E+03  0.00000000000E+00 0.  1.
        -13    1    5    5    0    0  0.10839373196E+03  0.81775826317E+02 -0.21509123091E+02  0.13747410401E+03  0.00000000000E+00 0. -1.
          1    1    6    6  503    0 -0.47216116437E+02 -0.13391869312E+02 -0.25653058568E+03  0.26118316409E+03  0.00000000000E+00 0. -1.
         -1    1    6    6    0  503  0.22236299571E+02 -0.90861523669E+02 -0.48712783832E+03  0.49602802377E+03  0.00000000000E+00 0.  1.
<mgrwt>
<rscale>  0 0.17366728E+04</rscale>
<asrwt>0</asrwt>
<pdfrwt beam="1">  1        2 0.90107583E-01 0.17366728E+04</pdfrwt>
<pdfrwt beam="2">  1       -1 0.19805598E+00 0.17366728E+04</pdfrwt>
<totfact> 0.85909610E+00</totfact>
</mgrwt>
</event>
<event>
12    7  0.2466188E-007  0.3883377E+04  0.7818608E-02  0.8028495E-01
          2   -1    0    0  501    0  0.00000000000E+00  0.00000000000E+00  0.43203932741E+04  0.43203932741E+04  0.00000000000E+00 0. -1.
         -1   -1    0    0    0  501 -0.00000000000E+00 -0.00000000000E+00 -0.87264140845E+03  0.87264140845E+03  0.00000000000E+00 0.  1.
         24    2    1    2    0    0 -0.16454591359E+04 -0.61164738635E+03  0.91121997919E+03  0.19795934881E+04  0.82584712299E+02 0.  0.
        254    2    1    2    0    0  0.16454591359E+04  0.61164738635E+03  0.25365318864E+04  0.32134411944E+04  0.90031217126E+03 0.  0.
         23    2    4    4    0    0  0.77632196483E+03  0.73639294387E+03  0.11845334206E+04  0.15988584811E+04  0.90987125336E+02 0.  0.
         23    2    4    4    0    0  0.86913717106E+03 -0.12474555751E+03  0.13519984658E+04  0.16145827133E+04  0.89535525992E+02 0.  0.
          2    1    3    3  502    0 -0.67861815494E+03 -0.28594205220E+03  0.35304521762E+03  0.81665560864E+03  0.00000000000E+00 0. -1.
         -1    1    3    3    0  502 -0.96684098095E+03 -0.32570533415E+03  0.55817476157E+03  0.11629378795E+04  0.00000000000E+00 0.  1.
         13    1    5    5    0    0  0.78901813610E+02  0.10911752440E+03  0.17494006659E+03  0.22076267171E+03  0.00000000000E+00 0.  1.
        -13    1    5    5    0    0  0.69742015122E+03  0.62727541947E+03  0.10095933541E+04  0.13780958094E+04  0.00000000000E+00 0. -1.
          4    1    6    6  503    0  0.39119509040E+03 -0.73465632688E+02  0.68823663741E+03  0.79504746211E+03  0.00000000000E+00 0. -1.
         -4    1    6    6    0  503  0.47794208066E+03 -0.51279924826E+02  0.66376182837E+03  0.81953525120E+03  0.00000000000E+00 0.  1.
<mgrwt>
<rscale>  0 0.38833769E+04</rscale>
<asrwt>0</asrwt>
<pdfrwt beam="1">  1        2 0.66467588E+00 0.38833769E+04</pdfrwt>
<pdfrwt beam="2">  1       -1 0.13425253E+00 0.38833769E+04</pdfrwt>
<totfact> 0.76311284E-02</totfact>
</mgrwt>
</event>
<event>
12    7  0.2466188E-007  0.1631451E+04  0.7818608E-02  0.8801456E-01
         -1   -1    0    0    0  501 -0.00000000000E+00  0.00000000000E+00  0.78044210988E+03  0.78044210988E+03  0.00000000000E+00 0.  1.
          2   -1    0    0  501    0  0.00000000000E+00 -0.00000000000E+00 -0.85260380231E+03  0.85260380231E+03  0.00000000000E+00 0. -1.
         24    2    1    2    0    0 -0.34705800447E+03 -0.19858454517E+03 -0.42195846677E+03  0.58678099897E+03  0.79861837122E+02 0.  0.
        254    2    1    2    0    0  0.34705800447E+03  0.19858454517E+03  0.34979677434E+03  0.10462649132E+04  0.90134754964E+03 0.  0.
         23    2    4    4    0    0  0.28534565634E+03 -0.26606495285E+03  0.40174171937E+03  0.56736386107E+03  0.91063928288E+02 0.  0.
         23    2    4    4    0    0  0.61712348124E+02  0.46464949802E+03 -0.51944945023E+02  0.47890105215E+03  0.83308886175E+02 0.  0.
          2    1    3    3  502    0 -0.24776677621E+03 -0.11248252156E+03 -0.32255572461E+03  0.42199868309E+03  0.00000000000E+00 0. -1.
         -1    1    3    3    0  502 -0.99291228261E+02 -0.86102023608E+02 -0.99402742159E+02  0.16478231588E+03  0.00000000000E+00 0.  1.
         13    1    5    5    0    0  0.13705988325E+03 -0.12956094228E+03  0.25897183427E+03  0.32037144116E+03  0.00000000000E+00 0. -1.
        -13    1    5    5    0    0  0.14828577310E+03 -0.13650401057E+03  0.14276988509E+03  0.24699241991E+03  0.00000000000E+00 0.  1.
          2    1    6    6  503    0  0.68513849738E+02  0.31646698154E+03 -0.64038610190E+02  0.33007035857E+03  0.00000000000E+00 0. -1.
         -2    1    6    6    0  503 -0.68015016134E+01  0.14818251648E+03  0.12093665168E+02  0.14883069358E+03  0.00000000000E+00 0.  1.
<mgrwt>
<rscale>  0 0.16314508E+04</rscale>
<asrwt>0</asrwt>
<pdfrwt beam="1">  1        2 0.13116982E+00 0.16314508E+04</pdfrwt>
<pdfrwt beam="2">  1       -1 0.12006802E+00 0.16314508E+04</pdfrwt>
<totfact> 0.21340760E+01</totfact>
</mgrwt>
</event>
<event>
12    7  0.2466188E-007  0.1099597E+04  0.7818608E-02  0.9205585E-01
         -1   -1    0    0    0  501 -0.00000000000E+00  0.00000000000E+00  0.31949549742E+03  0.31949549742E+03  0.00000000000E+00 0.  1.
          2   -1    0    0  501    0  0.00000000000E+00 -0.00000000000E+00 -0.94611131578E+03  0.94611131578E+03  0.00000000000E+00 0. -1.
         24    2    1    2    0    0 -0.60524694069E+02  0.14122864343E+02  0.73008632742E+02  0.12504615870E+03  0.80271959369E+02 0.  0.
        254    2    1    2    0    0  0.60524694069E+02 -0.14122864343E+02 -0.69962445110E+03  0.11405606545E+04  0.89863315104E+03 0.  0.
         23    2    4    4    0    0 -0.14382168832E+03 -0.11651132835E+03 -0.83344580215E+03  0.85836787049E+03  0.88904039868E+02 0.  0.
         23    2    4    4    0    0  0.20434638239E+03  0.10238846401E+03  0.13382135105E+03  0.28219278402E+03  0.97384658938E+02 0.  0.
          4    1    3    3  502    0 -0.28600052172E+02  0.15713666746E+01 -0.13734986716E+02  0.31766051651E+02  0.00000000000E+00 0. -1.
         -3    1    3    3    0  502 -0.31924641897E+02  0.12551497668E+02  0.86743619458E+02  0.93280107047E+02  0.00000000000E+00 0.  1.
         13    1    5    5    0    0 -0.10064488478E+03 -0.38208159247E+02 -0.57231040535E+03  0.58234736742E+03  0.00000000000E+00 0. -1.
        -13    1    5    5    0    0 -0.43176803539E+02 -0.78303169102E+02 -0.26113539680E+03  0.27602050307E+03  0.00000000000E+00 0.  1.
          1    1    6    6  503    0  0.15685232789E+03  0.75431425338E+02  0.14489945661E+03  0.22646943551E+03  0.00000000000E+00 0. -1.
         -1    1    6    6    0  503  0.47494054498E+02  0.26957038668E+02 -0.11078105557E+02  0.55723348509E+02  0.00000000000E+00 0.  1.
<mgrwt>
<rscale>  0 0.10995968E+04</rscale>
<asrwt>0</asrwt>
<pdfrwt beam="1">  1        2 0.14555559E+00 0.10995968E+04</pdfrwt>
<pdfrwt beam="2">  1       -1 0.49153154E-01 0.10995968E+04</pdfrwt>
<totfact> 0.12821625E+02</totfact>
</mgrwt>
</event>
<event>
12    7  0.2466188E-007  0.2684896E+04  0.7818608E-02  0.8339922E-01
          2   -1    0    0  501    0  0.00000000000E+00  0.00000000000E+00  0.11911982986E+04  0.11911982986E+04  0.00000000000E+00 0. -1.
         -1   -1    0    0    0  501 -0.00000000000E+00 -0.00000000000E+00 -0.15129028156E+04  0.15129028156E+04  0.00000000000E+00 0.  1.
         24    2    1    2    0    0 -0.11670261629E+04 -0.18451565654E+03  0.21036791134E+01  0.11842311991E+04  0.80018842451E+02 0.  0.
        254    2    1    2    0    0  0.11670261629E+04  0.18451565654E+03 -0.32380819612E+03  0.15198699152E+04  0.89953138842E+03 0.  0.
         23    2    4    4    0    0  0.55262463589E+03  0.53164898030E+03 -0.20064968858E+03  0.79802045120E+03  0.92367291558E+02 0.  0.
         23    2    4    4    0    0  0.61440152699E+03 -0.34713332376E+03 -0.12315850754E+03  0.72184946396E+03  0.88926091801E+02 0.  0.
          4    1    3    3  502    0 -0.60326494307E+03 -0.13507764732E+03 -0.66611758076E+01  0.61823857337E+03  0.00000000000E+00 0. -1.
         -3    1    3    3    0  502 -0.56376121982E+03 -0.49438009217E+02  0.87648549210E+01  0.56599262575E+03  0.00000000000E+00 0.  1.
         13    1    5    5    0    0  0.43526605648E+02  0.82812209468E+02 -0.29073939816E+02  0.97967961154E+02  0.00000000000E+00 0.  1.
        -13    1    5    5    0    0  0.50909803024E+03  0.44883677083E+03 -0.17157574877E+03  0.70005249004E+03  0.00000000000E+00 0. -1.
          2    1    6    6  503    0  0.35371376924E+03 -0.24832284225E+03 -0.64589423934E+02  0.43697764041E+03  0.00000000000E+00 0. -1.
         -2    1    6    6    0  503  0.26068775775E+03 -0.98810481507E+02 -0.58569083604E+02  0.28487182354E+03  0.00000000000E+00 0.  1.
<mgrwt>
<rscale>  0 0.26848965E+04</rscale>
<asrwt>0</asrwt>
<pdfrwt beam="1">  1        2 0.18326128E+00 0.26848965E+04</pdfrwt>
<pdfrwt beam="2">  1       -1 0.23275428E+00 0.26848965E+04</pdfrwt>
<totfact> 0.17368041E+00</totfact>
</mgrwt>
</event>
<event>
12    7  0.2466188E-007  0.2856358E+04  0.7818608E-02  0.8285982E-01
         -1   -1    0    0    0  501 -0.00000000000E+00  0.00000000000E+00  0.81002041035E+03  0.81002041035E+03  0.00000000000E+00 0.  1.
          2   -1    0    0  501    0  0.00000000000E+00 -0.00000000000E+00 -0.25180782043E+04  0.25180782043E+04  0.00000000000E+00 0. -1.
         24    2    1    2    0    0  0.45782490545E+03  0.85201814059E+03  0.21512258779E+03  0.99413300606E+03  0.80524220067E+02 0.  0.
        254    2    1    2    0    0 -0.45782490545E+03 -0.85201814059E+03 -0.19231803817E+04  0.23339656085E+04  0.90179494644E+03 0.  0.
         23    2    4    4    0    0 -0.31649088210E+03  0.77591942074E+02 -0.78630637301E+03  0.85581850292E+03  0.89222249319E+02 0.  0.
         23    2    4    4    0    0 -0.14133402334E+03 -0.92961008267E+03 -0.11368740087E+04  0.14781471056E+04  0.91028250073E+02 0.  0.
          2    1    3    3  502    0  0.45301337130E+03  0.80968220888E+03  0.20178683485E+03  0.94948634570E+03  0.00000000000E+00 0. -1.
         -1    1    3    3    0  502  0.48115341438E+01  0.42335931712E+02  0.13335752939E+02  0.44646660359E+02  0.00000000000E+00 0.  1.
         13    1    5    5    0    0 -0.14294068868E+03  0.70898873759E+02 -0.30648114901E+03  0.34552769133E+03  0.00000000000E+00 0. -1.
        -13    1    5    5    0    0 -0.17355019342E+03  0.66930683146E+01 -0.47982522400E+03  0.51029081159E+03  0.00000000000E+00 0.  1.
          3    1    6    6  503    0  0.46784591909E+01 -0.10719183295E+03 -0.16287866335E+03  0.19504213906E+03  0.00000000000E+00 0. -1.
         -3    1    6    6    0  503 -0.14601248253E+03 -0.82241824971E+03 -0.97399534532E+03  0.12831049666E+04  0.00000000000E+00 0.  1.
<mgrwt>
<rscale>  0 0.28563576E+04</rscale>
<asrwt>0</asrwt>
<pdfrwt beam="1">  1        2 0.38739664E+00 0.28563576E+04</pdfrwt>
<pdfrwt beam="2">  1       -1 0.12461853E+00 0.28563576E+04</pdfrwt>
<totfact> 0.18861745E+00</totfact>
</mgrwt>
</event>
<event>
12    7  0.2466188E-007  0.1834991E+04  0.7818608E-02  0.8687910E-01
          2   -1    0    0  501    0  0.00000000000E+00  0.00000000000E+00  0.95923257057E+03  0.95923257057E+03  0.00000000000E+00 0. -1.
         -1   -1    0    0    0  501 -0.00000000000E+00 -0.00000000000E+00 -0.87757433429E+03  0.87757433429E+03  0.00000000000E+00 0.  1.
         24    2    1    2    0    0 -0.10013600429E+03 -0.37591972404E+03 -0.54404452859E+03  0.67361140721E+03  0.80156225937E+02 0.  0.
        254    2    1    2    0    0  0.10013600429E+03  0.37591972404E+03  0.62570276487E+03  0.11631954976E+04  0.90009830435E+03 0.  0.
         23    2    4    4    0    0  0.28988303857E+03  0.55589836927E+03  0.61812986389E+03  0.88519363066E+03  0.91804477680E+02 0.  0.
         23    2    4    4    0    0 -0.18974703428E+03 -0.17997864523E+03  0.75729009851E+01  0.27800186698E+03  0.93975738678E+02 0.  0.
          2    1    3    3  502    0 -0.23536753662E+02 -0.95138820286E+02 -0.83208099753E+02  0.12856500987E+03  0.00000000000E+00 0. -1.
         -1    1    3    3    0  502 -0.76599250627E+02 -0.28078090376E+03 -0.46083642884E+03  0.54504639734E+03  0.00000000000E+00 0.  1.
         13    1    5    5    0    0  0.21116669613E+03  0.33353199123E+03  0.42769767801E+03  0.58203115596E+03  0.00000000000E+00 0. -1.
        -13    1    5    5    0    0  0.78716342444E+02  0.22236637804E+03  0.19043218587E+03  0.30316247470E+03  0.00000000000E+00 0.  1.
          4    1    6    6  503    0 -0.42386700200E+02 -0.50472930572E+02 -0.38708298796E+02  0.76436126733E+02  0.00000000000E+00 0. -1.
         -4    1    6    6    0  503 -0.14736033408E+03 -0.12950571466E+03  0.46281199781E+02  0.20156574025E+03  0.00000000000E+00 0.  1.
<mgrwt>
<rscale>  0 0.18349909E+04</rscale>
<asrwt>0</asrwt>
<pdfrwt beam="1">  1        2 0.14757424E+00 0.18349909E+04</pdfrwt>
<pdfrwt beam="2">  1       -1 0.13501144E+00 0.18349909E+04</pdfrwt>
<totfact> 0.13245515E+01</totfact>
</mgrwt>
</event>
<event>
12    7  0.2466188E-007  0.1297265E+04  0.7818608E-02  0.9031737E-01
         -1   -1    0    0    0  501 -0.00000000000E+00  0.00000000000E+00  0.21898528932E+03  0.21898528932E+03  0.00000000000E+00 0.  1.
          2   -1    0    0  501    0  0.00000000000E+00 -0.00000000000E+00 -0.19212441760E+04  0.19212441760E+04  0.00000000000E+00 0. -1.
         24    2    1    2    0    0 -0.23407292042E+03  0.13237259238E+03 -0.13015850190E+03  0.30856146021E+03  0.77177093874E+02 0.  0.
        254    2    1    2    0    0  0.23407292042E+03 -0.13237259238E+03 -0.15721003848E+04  0.18316680051E+04  0.90066388061E+03 0.  0.
         23    2    4    4    0    0 -0.33820532504E+02  0.15178524372E+03 -0.13714531019E+04  0.13837582739E+04  0.98593920302E+02 0.  0.
         23    2    4    4    0    0  0.26789345293E+03 -0.28415783610E+03 -0.20064728290E+03  0.44790973128E+03  0.88607095068E+02 0.  0.
          4    1    3    3  502    0 -0.76916707597E+02  0.75397976302E+02 -0.23419252171E+02  0.11022475271E+03  0.00000000000E+00 0. -1.
         -3    1    3    3    0  502 -0.15715621282E+03  0.56974616077E+02 -0.10673924973E+03  0.19833670749E+03  0.00000000000E+00 0.  1.
         13    1    5    5    0    0 -0.19524024790E+02  0.11898290494E+03 -0.12782220282E+04  0.12838962858E+04  0.00000000000E+00 0.  1.
        -13    1    5    5    0    0 -0.14296507714E+02  0.32802338786E+02 -0.93231073661E+02  0.99861988057E+02  0.00000000000E+00 0. -1.
          2    1    6    6  503    0  0.66435775107E+02 -0.54958193419E+02 -0.86429122441E+02  0.12208238384E+03  0.00000000000E+00 0. -1.
         -2    1    6    6    0  503  0.20145767782E+03 -0.22919964268E+03 -0.11421816046E+03  0.32582734744E+03  0.00000000000E+00 0.  1.
<mgrwt>
<rscale>  0 0.12972651E+04</rscale>
<asrwt>0</asrwt>
<pdfrwt beam="1">  1        2 0.29557601E+00 0.12972651E+04</pdfrwt>
<pdfrwt beam="2">  1       -1 0.33690046E-01 0.12972651E+04</pdfrwt>
<totfact> 0.68605930E+01</totfact>
</mgrwt>
</event>
<event>
12    7  0.3543989E-007  0.2871456E+04  0.7818608E-02  0.8281421E-01
          2   -1    0    0  501    0  0.00000000000E+00  0.00000000000E+00  0.20884555228E+04  0.20884555228E+04  0.00000000000E+00 0. -1.
         -1   -1    0    0    0  501 -0.00000000000E+00 -0.00000000000E+00 -0.98700449055E+03  0.98700449055E+03  0.00000000000E+00 0.  1.
         24    2    1    2    0    0  0.81413403669E+03 -0.94651666236E+03  0.85856518280E+03  0.15172588582E+04  0.78944586697E+02 0.  0.
        254    2    1    2    0    0 -0.81413403669E+03  0.94651666236E+03  0.24288584944E+03  0.15582011552E+04  0.90016069802E+03 0.  0.
         23    2    4    4    0    0 -0.50992815340E+03  0.83962462105E+03  0.52794117283E+03  0.11186545608E+04  0.87578071601E+02 0.  0.
         23    2    4    4    0    0 -0.30420588330E+03  0.10689204131E+03 -0.28505532339E+03  0.43954659432E+03  0.89317093867E+02 0.  0.
          4    1    3    3  502    0  0.35502053375E+03 -0.42892402887E+03  0.42885657343E+03  0.70280392892E+03  0.00000000000E+00 0. -1.
         -3    1    3    3    0  502  0.45911350294E+03 -0.51759263349E+03  0.42970860937E+03  0.81445492926E+03  0.00000000000E+00 0.  1.
         13    1    5    5    0    0 -0.37409174419E+03  0.63028246930E+03  0.43532203700E+03  0.85247046874E+03  0.00000000000E+00 0. -1.
        -13    1    5    5    0    0 -0.13583640920E+03  0.20934215176E+03  0.92619135823E+02  0.26618409210E+03  0.00000000000E+00 0.  1.
          1    1    6    6  503    0 -0.30405019685E+03  0.11446878899E+03 -0.28467280500E+03  0.43195859959E+03  0.00000000000E+00 0. -1.
         -1    1    6    6    0  503 -0.15568644567E+00 -0.75767476792E+01 -0.38251839564E+00  0.75879947276E+01  0.00000000000E+00 0.  1.
<mgrwt>
<rscale>  0 0.28714561E+04</rscale>
<asrwt>0</asrwt>
<pdfrwt beam="1">  1        2 0.32130085E+00 0.28714561E+04</pdfrwt>
<pdfrwt beam="2">  1       -1 0.15184685E+00 0.28714561E+04</pdfrwt>
<totfact> 0.19805971E+00</totfact>
</mgrwt>
</event>
<event>
12    7  0.2466188E-007  0.3731591E+04  0.7818608E-02  0.8060997E-01
         -1   -1    0    0    0  501 -0.00000000000E+00  0.00000000000E+00  0.11739342594E+04  0.11739342594E+04  0.00000000000E+00 0.  1.
          2   -1    0    0  501    0  0.00000000000E+00 -0.00000000000E+00 -0.29654077469E+04  0.29654077469E+04  0.00000000000E+00 0. -1.
         24    2    1    2    0    0 -0.15535901759E+04 -0.39771389550E+03 -0.48444830177E+02  0.16058888215E+04  0.68652953724E+02 0.  0.
        254    2    1    2    0    0  0.15535901759E+04  0.39771389550E+03 -0.17430286574E+04  0.25334531848E+04  0.89912032650E+03 0.  0.
         23    2    4    4    0    0  0.67306975163E+03  0.60164800812E+03 -0.67276694583E+03  0.11298321438E+04  0.94350906857E+02 0.  0.
         23    2    4    4    0    0  0.88052042430E+03 -0.20393411263E+03 -0.10702617115E+04  0.14036210409E+04  0.88241460749E+02 0.  0.
          2    1    3    3  502    0 -0.11452050456E+04 -0.32404362462E+03 -0.33027654067E+02  0.11906257569E+04  0.00000000000E+00 0. -1.
         -1    1    3    3    0  502 -0.40838513035E+03 -0.73670270879E+02 -0.15417176110E+02  0.41526306460E+03  0.00000000000E+00 0.  1.
         13    1    5    5    0    0  0.61749658658E+03  0.55431669527E+03 -0.58299060569E+03  0.10141237989E+04  0.00000000000E+00 0. -1.
        -13    1    5    5    0    0  0.55573165049E+02  0.47331312853E+02 -0.89776340136E+02  0.11570834498E+03  0.00000000000E+00 0.  1.
          3    1    6    6  503    0  0.63649924909E+03 -0.15326186956E+03 -0.83333167010E+03  0.10597462749E+04  0.00000000000E+00 0. -1.
         -3    1    6    6    0  503  0.24402117521E+03 -0.50672243063E+02 -0.23693004144E+03  0.34387476602E+03  0.00000000000E+00 0.  1.
<mgrwt>
<rscale>  0 0.37315915E+04</rscale>
<asrwt>0</asrwt>
<pdfrwt beam="1">  1        2 0.45621657E+00 0.37315915E+04</pdfrwt>
<pdfrwt beam="2">  1       -1 0.18060527E+00 0.37315915E+04</pdfrwt>
<totfact> 0.34505683E-01</totfact>
</mgrwt>
</event>
<event>
12    7  0.2466188E-007  0.3794858E+04  0.7818608E-02  0.8047259E-01
         -1   -1    0    0    0  501 -0.00000000000E+00  0.00000000000E+00  0.11879810806E+04  0.11879810806E+04  0.00000000000E+00 0.  1.
          2   -1    0    0  501    0  0.00000000000E+00 -0.00000000000E+00 -0.30305499938E+04  0.30305499938E+04  0.00000000000E+00 0. -1.
         24    2    1    2    0    0 -0.11922928535E+04 -0.31397305155E+03  0.57198868439E+03  0.13614875180E+04  0.79598248695E+02 0.  0.
        254    2    1    2    0    0  0.11922928535E+04  0.31397305155E+03 -0.24145575976E+04  0.28570435564E+04  0.90137016000E+03 0.  0.
         23    2    4    4    0    0  0.86698210399E+03 -0.20220555847E+03 -0.16248517340E+04  0.18549453277E+04  0.90188439049E+02 0.  0.
         23    2    4    4    0    0  0.32531074946E+03  0.51617861002E+03 -0.78970586358E+03  0.10020982287E+04  0.91093731102E+02 0.  0.
          2    1    3    3  502    0 -0.12774292451E+03 -0.59640714276E+02  0.62972140203E+02  0.15440453362E+03  0.00000000000E+00 0. -1.
         -3    1    3    3    0  502 -0.10645499289E+04 -0.25433233728E+03  0.50901654419E+03  0.12070829844E+04  0.00000000000E+00 0.  1.
         13    1    5    5    0    0  0.49677650427E+02  0.78178316575E+01 -0.10889926676E+03  0.11995014691E+03  0.00000000000E+00 0. -1.
        -13    1    5    5    0    0  0.81730445357E+03 -0.21002339012E+03 -0.15159524673E+04  0.17349951807E+04  0.00000000000E+00 0.  1.
          1    1    6    6  503    0  0.15771841424E+03  0.31195037050E+03 -0.39908340625E+03  0.53052398343E+03  0.00000000000E+00 0. -1.
         -1    1    6    6    0  503  0.16759233522E+03  0.20422823952E+03 -0.39062245733E+03  0.47157424528E+03  0.00000000000E+00 0.  1.
<mgrwt>
<rscale>  0 0.37948576E+04</rscale>
<asrwt>0</asrwt>
<pdfrwt beam="1">  1        2 0.46623845E+00 0.37948576E+04</pdfrwt>
<pdfrwt beam="2">  1       -1 0.18276632E+00 0.37948576E+04</pdfrwt>
<totfact> 0.30146432E-01</totfact>
</mgrwt>
</event>
<event>
12    7  0.2466188E-007  0.1732522E+04  0.7818608E-02  0.8743030E-01
         -1   -1    0    0    0  501 -0.00000000000E+00  0.00000000000E+00  0.89906635796E+03  0.89906635796E+03  0.00000000000E+00 0.  1.
          2   -1    0    0  501    0  0.00000000000E+00 -0.00000000000E+00 -0.83465238628E+03  0.83465238628E+03  0.00000000000E+00 0. -1.
         24    2    1    2    0    0  0.28148535331E+03  0.48155190925E+03 -0.26898395911E+03  0.62499750077E+03  0.84517810416E+02 0.  0.
        254    2    1    2    0    0 -0.28148535331E+03 -0.48155190925E+03  0.33339793079E+03  0.11087212435E+04  0.89832197459E+03 0.  0.
         23    2    4    4    0    0  0.23218491308E+03 -0.35634400919E+03  0.36988370144E+03  0.57109121626E+03  0.91871311874E+02 0.  0.
         23    2    4    4    0    0 -0.51367026639E+03 -0.12520790006E+03 -0.36485770654E+02  0.53763002721E+03  0.90447077824E+02 0.  0.
          2    1    3    3  502    0  0.21044513430E+03  0.34042784728E+03 -0.23246080974E+03  0.46283506978E+03  0.00000000000E+00 0. -1.
         -1    1    3    3    0  502  0.71040219013E+02  0.14112406197E+03 -0.36523149371E+02  0.16216243099E+03  0.00000000000E+00 0.  1.
         13    1    5    5    0    0  0.17843636754E+03 -0.20076177613E+03  0.20293298890E+03  0.33664020259E+03  0.00000000000E+00 0. -1.
        -13    1    5    5    0    0  0.53748545544E+02 -0.15558223306E+03  0.16695071254E+03  0.23445101367E+03  0.00000000000E+00 0.  1.
          1    1    6    6  503    0 -0.42817322631E+03 -0.69544878726E+02 -0.19642202853E+02  0.43422876231E+03  0.00000000000E+00 0. -1.
         -1    1    6    6    0  503 -0.85497040081E+02 -0.55663021332E+02 -0.16843567800E+02  0.10340126490E+03  0.00000000000E+00 0.  1.
<mgrwt>
<rscale>  0 0.17325217E+04</rscale>
<asrwt>0</asrwt>
<pdfrwt beam="1">  1        2 0.12840806E+00 0.17325217E+04</pdfrwt>
<pdfrwt beam="2">  1       -1 0.13831790E+00 0.17325217E+04</pdfrwt>
<totfact> 0.15250973E+01</totfact>
</mgrwt>
</event>
<event>
12    7  0.2466188E-007  0.1917345E+04  0.7818608E-02  0.8646270E-01
         -1   -1    0    0    0  501 -0.00000000000E+00  0.00000000000E+00  0.62258456648E+03  0.62258456648E+03  0.00000000000E+00 0.  1.
          2   -1    0    0  501    0  0.00000000000E+00 -0.00000000000E+00 -0.14761901436E+04  0.14761901436E+04  0.00000000000E+00 0. -1.
         24    2    1    2    0    0  0.56378887297E+03  0.41170958019E+03 -0.62338922322E+03  0.93939713130E+03  0.80561622130E+02 0.  0.
        254    2    1    2    0    0 -0.56378887297E+03 -0.41170958019E+03 -0.23021635385E+03  0.11593775787E+04  0.89654566464E+03 0.  0.
         23    2    4    4    0    0 -0.65729434754E+03 -0.51673065645E+03  0.38831294128E+02  0.84209715460E+03  0.92592212175E+02 0.  0.
         23    2    4    4    0    0  0.93505474563E+02  0.10502107626E+03 -0.26904764797E+03  0.31728042413E+03  0.92236275002E+02 0.  0.
          4    1    3    3  502    0  0.33945387670E+03  0.25526995613E+03 -0.32636293488E+03  0.53563462376E+03  0.00000000000E+00 0. -1.
         -3    1    3    3    0  502  0.22433499627E+03  0.15643962406E+03 -0.29702628834E+03  0.40376250754E+03  0.00000000000E+00 0.  1.
         13    1    5    5    0    0 -0.41221851311E+03 -0.37593169885E+03  0.41552890815E+02  0.55944203228E+03  0.00000000000E+00 0.  1.
        -13    1    5    5    0    0 -0.24507583443E+03 -0.14079895761E+03 -0.27215966871E+01  0.28265512232E+03  0.00000000000E+00 0. -1.
          3    1    6    6  503    0 -0.62884807979E+01 -0.58835960710E+01  0.10915055853E+01  0.86806150655E+01  0.00000000000E+00 0. -1.
         -3    1    6    6    0  503  0.99793955360E+02  0.11090467233E+03 -0.27013915356E+03  0.30859980907E+03  0.00000000000E+00 0.  1.
<mgrwt>
<rscale>  0 0.19173452E+04</rscale>
<asrwt>0</asrwt>
<pdfrwt beam="1">  1        2 0.22710617E+00 0.19173452E+04</pdfrwt>
<pdfrwt beam="2">  1       -1 0.95782242E-01 0.19173452E+04</pdfrwt>
<totfact> 0.14668546E+01</totfact>
</mgrwt>
</event>
<event>
12    7  0.2466188E-007  0.2352961E+04  0.7818608E-02  0.8457327E-01
          2   -1    0    0  501    0  0.00000000000E+00  0.00000000000E+00  0.95855876608E+03  0.95855876608E+03  0.00000000000E+00 0. -1.
         -1   -1    0    0    0  501 -0.00000000000E+00 -0.00000000000E+00 -0.14439458521E+04  0.14439458521E+04  0.00000000000E+00 0.  1.
         24    2    1    2    0    0  0.38075598418E+02 -0.93382811149E+03  0.16349911220E+03  0.95206360019E+03  0.78793693339E+02 0.  0.
        254    2    1    2    0    0 -0.38075598418E+02  0.93382811149E+03 -0.64888619822E+03  0.14504410180E+04  0.89957832087E+03 0.  0.
         23    2    4    4    0    0  0.22345705288E+03  0.48898191563E+03  0.81514246186E+02  0.55159464037E+03  0.92605111454E+02 0.  0.
         23    2    4    4    0    0 -0.26153265129E+03  0.44484619586E+03 -0.73040044440E+03  0.89884637760E+03  0.90291393144E+02 0.  0.
          2    1    3    3  502    0  0.96645380593E+01 -0.72805329468E+03  0.15333758024E+03  0.74408831244E+03  0.00000000000E+00 0. -1.
         -1    1    3    3    0  502  0.28411060358E+02 -0.20577481681E+03  0.10161531960E+02  0.20797528775E+03  0.00000000000E+00 0.  1.
         13    1    5    5    0    0  0.12657471943E+03  0.19384191625E+03  0.65283172357E+02  0.24053636042E+03  0.00000000000E+00 0. -1.
        -13    1    5    5    0    0  0.96882333449E+02  0.29513999938E+03  0.16231073829E+02  0.31105827995E+03  0.00000000000E+00 0.  1.
          4    1    6    6  503    0 -0.75975555595E+02  0.15230689868E+03 -0.17393104591E+03  0.24335505987E+03  0.00000000000E+00 0. -1.
         -4    1    6    6    0  503 -0.18555709570E+03  0.29253929719E+03 -0.55646939850E+03  0.65549131774E+03  0.00000000000E+00 0.  1.
<mgrwt>
<rscale>  0 0.23529615E+04</rscale>
<asrwt>0</asrwt>
<pdfrwt beam="1">  1        2 0.14747058E+00 0.23529615E+04</pdfrwt>
<pdfrwt beam="2">  1       -1 0.22214552E+00 0.23529615E+04</pdfrwt>
<totfact> 0.29371689E+00</totfact>
</mgrwt>
</event>
<event>
12    7  0.2466188E-007  0.2398585E+04  0.7818608E-02  0.8440033E-01
         -1   -1    0    0    0  501 -0.00000000000E+00  0.00000000000E+00  0.52405392116E+03  0.52405392116E+03  0.00000000000E+00 0.  1.
          2   -1    0    0  501    0  0.00000000000E+00 -0.00000000000E+00 -0.27445707202E+04  0.27445707202E+04  0.00000000000E+00 0. -1.
         24    2    1    2    0    0 -0.69672901043E+03  0.64282377715E+03 -0.41195944057E+03  0.10367336376E+04  0.80326409889E+02 0.  0.
        254    2    1    2    0    0  0.69672901043E+03 -0.64282377715E+03 -0.18085573585E+04  0.22318910038E+04  0.90100167120E+03 0.  0.
         23    2    4    4    0    0  0.40626702577E+03 -0.39074383422E+03 -0.17387572786E+04  0.18301412967E+04  0.91687796401E+02 0.  0.
         23    2    4    4    0    0  0.29046198466E+03 -0.25207994293E+03 -0.69800079883E+02  0.40174970705E+03  0.92834873858E+02 0.  0.
          2    1    3    3  502    0 -0.21919761885E+03  0.15471366094E+03 -0.12627479426E+03  0.29652864391E+03  0.00000000000E+00 0. -1.
         -1    1    3    3    0  502 -0.47753139158E+03  0.48811011621E+03 -0.28568464630E+03  0.74020499365E+03  0.00000000000E+00 0.  1.
         13    1    5    5    0    0  0.35922086369E+03 -0.37974906042E+03 -0.15976400073E+04  0.16809826205E+04  0.00000000000E+00 0.  1.
        -13    1    5    5    0    0  0.47046162082E+02 -0.10994773802E+02 -0.14111727133E+03  0.14915867620E+03  0.00000000000E+00 0. -1.
          1    1    6    6  503    0  0.10698914847E+03 -0.91526224509E+02  0.19430121940E+02  0.14213112714E+03  0.00000000000E+00 0. -1.
         -1    1    6    6    0  503  0.18347283618E+03 -0.16055371842E+03 -0.89230201823E+02  0.25961857991E+03  0.00000000000E+00 0.  1.
<mgrwt>
<rscale>  0 0.23985855E+04</rscale>
<asrwt>0</asrwt>
<pdfrwt beam="1">  1        2 0.42224164E+00 0.23985855E+04</pdfrwt>
<pdfrwt beam="2">  1       -1 0.80623682E-01 0.23985855E+04</pdfrwt>
<totfact> 0.39199838E+00</totfact>
</mgrwt>
</event>
<event>
12    7  0.2466188E-007  0.2200343E+04  0.7818608E-02  0.8518285E-01
          2   -1    0    0  501    0  0.00000000000E+00  0.00000000000E+00  0.89486561616E+03  0.89486561616E+03  0.00000000000E+00 0. -1.
         -1   -1    0    0    0  501 -0.00000000000E+00 -0.00000000000E+00 -0.13525801635E+04  0.13525801635E+04  0.00000000000E+00 0.  1.
         24    2    1    2    0    0 -0.14848461014E+02  0.82699497874E+03  0.20600530220E+03  0.85629882070E+03  0.81659746191E+02 0.  0.
        254    2    1    2    0    0  0.14848461014E+02 -0.82699497874E+03 -0.66371984949E+03  0.13911469589E+04  0.90034696146E+03 0.  0.
         23    2    4    4    0    0 -0.33020911336E+03 -0.45701873825E+03 -0.66569970254E+03  0.87717303737E+03  0.91500042999E+02 0.  0.
         23    2    4    4    0    0  0.34505757437E+03 -0.36997624049E+03  0.19798530428E+01  0.51397392154E+03  0.90653869491E+02 0.  0.
          4    1    3    3  502    0 -0.41860518152E+02  0.70216611440E+03  0.17227587515E+03  0.72420199693E+03  0.00000000000E+00 0. -1.
         -3    1    3    3    0  502  0.27012057138E+02  0.12482886434E+03  0.33729427051E+02  0.13209682378E+03  0.00000000000E+00 0.  1.
         13    1    5    5    0    0 -0.11901422001E+03 -0.15509069373E+03 -0.29973201960E+03  0.35785023602E+03  0.00000000000E+00 0. -1.
        -13    1    5    5    0    0 -0.21119489335E+03 -0.30192804452E+03 -0.36596768294E+03  0.51932280135E+03  0.00000000000E+00 0.  1.
          3    1    6    6  503    0  0.13246759859E+03 -0.20841968492E+03 -0.12696437774E+00  0.24695433962E+03  0.00000000000E+00 0. -1.
         -3    1    6    6    0  503  0.21258997578E+03 -0.16155655556E+03  0.21068174205E+01  0.26701958192E+03  0.00000000000E+00 0.  1.
<mgrwt>
<rscale>  0 0.22003431E+04</rscale>
<asrwt>0</asrwt>
<pdfrwt beam="1">  1        2 0.13767163E+00 0.22003431E+04</pdfrwt>
<pdfrwt beam="2">  1       -1 0.20808926E+00 0.22003431E+04</pdfrwt>
<totfact> 0.40819465E+00</totfact>
</mgrwt>
</event>
<event>
12    7  0.2466188E-007  0.2289140E+04  0.7818608E-02  0.8482215E-01
         -1   -1    0    0    0  501 -0.00000000000E+00  0.00000000000E+00  0.27666999934E+04  0.27666999934E+04  0.00000000000E+00 0.  1.
          2   -1    0    0  501    0  0.00000000000E+00 -0.00000000000E+00 -0.47350293522E+03  0.47350293522E+03  0.00000000000E+00 0. -1.
         24    2    1    2    0    0  0.41556859941E+03 -0.43168775365E+03 -0.10143227552E+03  0.61302931737E+03  0.80404352924E+02 0.  0.
        254    2    1    2    0    0 -0.41556859941E+03  0.43168775365E+03  0.23946293337E+04  0.26271736112E+04  0.89929970553E+03 0.  0.
         23    2    4    4    0    0  0.26165338095E+03  0.18637194155E+02  0.73182774012E+03  0.78259178998E+03  0.89823336409E+02 0.  0.
         23    2    4    4    0    0 -0.67722198035E+03  0.41305055950E+03  0.16628015935E+04  0.18445818212E+04  0.91282968763E+02 0.  0.
          4    1    3    3  502    0  0.18650944272E+03 -0.20325489626E+03 -0.86837642314E+02  0.28920425515E+03  0.00000000000E+00 0. -1.
         -3    1    3    3    0  502  0.22905915669E+03 -0.22843285740E+03 -0.14594633205E+02  0.32382506222E+03  0.00000000000E+00 0.  1.
         13    1    5    5    0    0  0.18337019188E+03 -0.67603262717E+01  0.59765149514E+03  0.62518608344E+03  0.00000000000E+00 0. -1.
        -13    1    5    5    0    0  0.78283189065E+02  0.25397520426E+02  0.13417624498E+03  0.15740570654E+03  0.00000000000E+00 0.  1.
          3    1    6    6  503    0 -0.58629137006E+03  0.35152058061E+03  0.13527276000E+04  0.15156438398E+04  0.00000000000E+00 0. -1.
         -3    1    6    6    0  503 -0.90930610295E+02  0.61529978886E+02  0.31007399351E+03  0.32893798145E+03  0.00000000000E+00 0.  1.
<mgrwt>
<rscale>  0 0.22891401E+04</rscale>
<asrwt>0</asrwt>
<pdfrwt beam="1">  1        2 0.72846607E-01 0.22891401E+04</pdfrwt>
<pdfrwt beam="2">  1       -1 0.42564615E+00 0.22891401E+04</pdfrwt>
<totfact> 0.32403093E-01</totfact>
</mgrwt>
</event>
<event>
12    7  0.2466188E-007  0.1459728E+04  0.7818608E-02  0.8911684E-01
         -1   -1    0    0    0  501 -0.00000000000E+00  0.00000000000E+00  0.34526608907E+03  0.34526608907E+03  0.00000000000E+00 0.  1.
          2   -1    0    0  501    0  0.00000000000E+00 -0.00000000000E+00 -0.15428721615E+04  0.15428721615E+04  0.00000000000E+00 0. -1.
         24    2    1    2    0    0  0.35118806343E+03 -0.17025225019E+03 -0.79191448590E+02  0.40630924557E+03  0.80604174300E+02 0.  0.
        254    2    1    2    0    0 -0.35118806343E+03  0.17025225019E+03 -0.11184146238E+04  0.14818290050E+04  0.89030727540E+03 0.  0.
         23    2    4    4    0    0 -0.28939840347E+03 -0.33062858559E+03 -0.62531553785E+03  0.76955732161E+03  0.90178998801E+02 0.  0.
         23    2    4    4    0    0 -0.61789659957E+02  0.50088083578E+03 -0.49309908594E+03  0.71227168335E+03  0.97389263310E+02 0.  0.
          2    1    3    3  502    0  0.73878608190E+02 -0.41417329405E+02 -0.51864649463E+02  0.99314579932E+02  0.00000000000E+00 0. -1.
         -1    1    3    3    0  502  0.27730945524E+03 -0.12883492079E+03 -0.27326799127E+02  0.30699466564E+03  0.00000000000E+00 0.  1.
         13    1    5    5    0    0 -0.20949620962E+03 -0.20837844381E+03 -0.47913779658E+03  0.56292385435E+03  0.00000000000E+00 0. -1.
        -13    1    5    5    0    0 -0.79902193852E+02 -0.12225014178E+03 -0.14617774128E+03  0.20663346726E+03  0.00000000000E+00 0.  1.
          1    1    6    6  503    0  0.69827199140E+01  0.32575936768E+03 -0.31015476499E+03  0.44984875486E+03  0.00000000000E+00 0. -1.
         -1    1    6    6    0  503 -0.68772379871E+02  0.17512146811E+03 -0.18294432096E+03  0.26242292849E+03  0.00000000000E+00 0.  1.
<mgrwt>
<rscale>  0 0.14597280E+04</rscale>
<asrwt>0</asrwt>
<pdfrwt beam="1">  1        2 0.23736495E+00 0.14597280E+04</pdfrwt>
<pdfrwt beam="2">  1       -1 0.53117860E-01 0.14597280E+04</pdfrwt>
<totfact> 0.47380479E+01</totfact>
</mgrwt>
</event>
<event>
12    7  0.2466188E-007  0.2020061E+04  0.7818608E-02  0.8597298E-01
          2   -1    0    0  501    0  0.00000000000E+00  0.00000000000E+00  0.65277297261E+03  0.65277297261E+03  0.00000000000E+00 0. -1.
         -1   -1    0    0    0  501 -0.00000000000E+00 -0.00000000000E+00 -0.15628128585E+04  0.15628128585E+04  0.00000000000E+00 0.  1.
         24    2    1    2    0    0 -0.73346473273E+03  0.17201903140E+03 -0.68454839769E+03  0.10211044701E+04  0.80540478668E+02 0.  0.
        254    2    1    2    0    0  0.73346473273E+03 -0.17201903140E+03 -0.22549148816E+03  0.11944813610E+04  0.89909857593E+03 0.  0.
         23    2    4    4    0    0  0.85362020576E+03 -0.34072700875E+03 -0.27037294286E+03  0.96316231074E+03  0.99084602358E+02 0.  0.
         23    2    4    4    0    0 -0.12015547304E+03  0.16870797734E+03  0.44881454696E+02  0.23131905027E+03  0.92706195699E+02 0.  0.
          4    1    3    3  502    0 -0.44757941380E+03  0.13877254482E+03 -0.39536133237E+03  0.61310336322E+03  0.00000000000E+00 0. -1.
         -3    1    3    3    0  502 -0.28588531892E+03  0.33246486583E+02 -0.28918706532E+03  0.40800110686E+03  0.00000000000E+00 0.  1.
         13    1    5    5    0    0  0.59562745853E+03 -0.24367328246E+03 -0.23568643589E+03  0.68534431784E+03  0.00000000000E+00 0. -1.
        -13    1    5    5    0    0  0.25799274724E+03 -0.97053726289E+02 -0.34686506971E+02  0.27781799290E+03  0.00000000000E+00 0.  1.
          4    1    6    6  503    0 -0.13532629325E+03  0.14651573018E+03  0.34041359275E+02  0.20233358341E+03  0.00000000000E+00 0. -1.
         -4    1    6    6    0  503  0.15170820213E+02  0.22192247167E+02  0.10840095421E+02  0.28985466858E+02  0.00000000000E+00 0.  1.
<mgrwt>
<rscale>  0 0.20200614E+04</rscale>
<asrwt>0</asrwt>
<pdfrwt beam="1">  1        2 0.10042661E+00 0.20200614E+04</pdfrwt>
<pdfrwt beam="2">  1       -1 0.24043274E+00 0.20200614E+04</pdfrwt>
<totfact> 0.38147109E+00</totfact>
</mgrwt>
</event>
<event>
12    7  0.2466188E-007  0.3016692E+04  0.7818608E-02  0.8238980E-01
          2   -1    0    0  501    0  0.00000000000E+00  0.00000000000E+00  0.32563646272E+04  0.32563646272E+04  0.00000000000E+00 0. -1.
         -1   -1    0    0    0  501 -0.00000000000E+00 -0.00000000000E+00 -0.69866499077E+03  0.69866499077E+03  0.00000000000E+00 0.  1.
         24    2    1    2    0    0  0.12308315336E+04 -0.30673577783E+03  0.47349281269E+03  0.13561182530E+04  0.76342457472E+02 0.  0.
        254    2    1    2    0    0 -0.12308315336E+04  0.30673577783E+03  0.20842068237E+04  0.25989113650E+04  0.89520338323E+03 0.  0.
         23    2    4    4    0    0 -0.48882755542E+03 -0.27006537616E+03  0.10871585261E+04  0.12257279786E+04  0.92777854967E+02 0.  0.
         23    2    4    4    0    0 -0.74200397821E+03  0.57680115400E+03  0.99704829760E+03  0.13731833863E+04  0.90872602058E+02 0.  0.
          4    1    3    3  502    0  0.72161300079E+02  0.86656737923E-01  0.27716099351E+02  0.77300989009E+02  0.00000000000E+00 0. -1.
         -1    1    3    3    0  502  0.11586702335E+04 -0.30682243457E+03  0.44577671333E+03  0.12788172640E+04  0.00000000000E+00 0.  1.
         13    1    5    5    0    0 -0.45808501280E+03 -0.22845928372E+03  0.10169632510E+04  0.11385296558E+04  0.00000000000E+00 0. -1.
        -13    1    5    5    0    0 -0.30742542613E+02 -0.41606092445E+02  0.70195275071E+02  0.87198322789E+02  0.00000000000E+00 0.  1.
          1    1    6    6  503    0 -0.65814732940E+03  0.51539063761E+03  0.84171972902E+03  0.11862872834E+04  0.00000000000E+00 0. -1.
         -1    1    6    6    0  503 -0.83856648811E+02  0.61410516385E+02  0.15532856858E+03  0.18689610293E+03  0.00000000000E+00 0.  1.
<mgrwt>
<rscale>  0 0.30166922E+04</rscale>
<asrwt>0</asrwt>
<pdfrwt beam="1">  1        2 0.50097917E+00 0.30166922E+04</pdfrwt>
<pdfrwt beam="2">  1       -1 0.10748692E+00 0.30166922E+04</pdfrwt>
<totfact> 0.93126802E-01</totfact>
</mgrwt>
</event>
<event>
12    7  0.2466188E-007  0.2584020E+04  0.7818608E-02  0.8373650E-01
         -1   -1    0    0    0  501 -0.00000000000E+00  0.00000000000E+00  0.62720478637E+03  0.62720478637E+03  0.00000000000E+00 0.  1.
          2   -1    0    0  501    0  0.00000000000E+00 -0.00000000000E+00 -0.26614747628E+04  0.26614747628E+04  0.00000000000E+00 0. -1.
         24    2    1    2    0    0  0.82713286082E+03 -0.10655453218E+03  0.82180611196E+02  0.84185991617E+03  0.80447671324E+02 0.  0.
        254    2    1    2    0    0 -0.82713286082E+03  0.10655453218E+03 -0.21164505877E+04  0.24468196330E+04  0.90114404443E+03 0.  0.
         23    2    4    4    0    0  0.13712718103E+03  0.58856934738E+02 -0.83156535837E+02  0.19410885502E+03  0.92169602363E+02 0.  0.
         23    2    4    4    0    0 -0.96426004186E+03  0.47697597441E+02 -0.20332940518E+04  0.22527107780E+04  0.91370996931E+02 0.  0.
          2    1    3    3  502    0  0.67566787801E+03 -0.95799263913E+02  0.97030640570E+02  0.68928914509E+03  0.00000000000E+00 0. -1.
         -1    1    3    3    0  502  0.15146498282E+03 -0.10755268266E+02 -0.14850029373E+02  0.15257077108E+03  0.00000000000E+00 0.  1.
         13    1    5    5    0    0  0.66399000789E+02  0.93705294246E+01 -0.84377982536E+02  0.10777883867E+03  0.00000000000E+00 0.  1.
        -13    1    5    5    0    0  0.70728180245E+02  0.49486405313E+02  0.12214466987E+01  0.86330016354E+02  0.00000000000E+00 0. -1.
          4    1    6    6  503    0 -0.96040949577E+03  0.54429668284E+02 -0.20149559332E+04  0.22328001256E+04  0.00000000000E+00 0. -1.
         -4    1    6    6    0  503 -0.38505460829E+01 -0.67320708422E+01 -0.18338118633E+02  0.19910652374E+02  0.00000000000E+00 0.  1.
<mgrwt>
<rscale>  0 0.25840199E+04</rscale>
<asrwt>0</asrwt>
<pdfrwt beam="1">  1        2 0.40945765E+00 0.25840199E+04</pdfrwt>
<pdfrwt beam="2">  1       -1 0.96493045E-01 0.25840199E+04</pdfrwt>
<totfact> 0.29139708E+00</totfact>
</mgrwt>
</event>
<event>
12    7  0.2466188E-007  0.2332192E+04  0.7818608E-02  0.8465335E-01
          2   -1    0    0  501    0  0.00000000000E+00  0.00000000000E+00  0.30672770243E+04  0.30672770243E+04  0.00000000000E+00 0. -1.
         -1   -1    0    0    0  501 -0.00000000000E+00 -0.00000000000E+00 -0.44331816457E+03  0.44331816457E+03  0.00000000000E+00 0.  1.
         24    2    1    2    0    0 -0.38345553950E+03  0.91059671024E+03  0.11998948728E+04  0.15569428129E+04  0.89992763364E+02 0.  0.
        254    2    1    2    0    0  0.38345553950E+03 -0.91059671024E+03  0.14240639870E+04  0.19536523760E+04  0.90142933595E+03 0.  0.
         23    2    4    4    0    0  0.15987461792E+02 -0.35952259315E+03 -0.10056383368E+02  0.37131007796E+03  0.90873259138E+02 0.  0.
         23    2    4    4    0    0  0.36746807770E+03 -0.55107411709E+03  0.14341203704E+04  0.15823422980E+04  0.91599349452E+02 0.  0.
          2    1    3    3  502    0 -0.31277140899E+03  0.65830623643E+03  0.91696278217E+03  0.11713299275E+04  0.00000000000E+00 0. -1.
         -1    1    3    3    0  502 -0.70684130502E+02  0.25229047382E+03  0.28293209059E+03  0.38561288538E+03  0.00000000000E+00 0.  1.
         13    1    5    5    0    0  0.50295991594E+02 -0.28026688451E+03 -0.47360906672E+01  0.28478350352E+03  0.00000000000E+00 0. -1.
        -13    1    5    5    0    0 -0.34308529802E+02 -0.79255708644E+02 -0.53202927006E+01  0.86526574440E+02  0.00000000000E+00 0.  1.
          2    1    6    6  503    0  0.15479648656E+03 -0.19324421218E+03  0.62907780691E+03  0.67605041597E+03  0.00000000000E+00 0. -1.
         -2    1    6    6    0  503  0.21267159114E+03 -0.35782990491E+03  0.80504256345E+03  0.90629188206E+03  0.00000000000E+00 0.  1.
<mgrwt>
<rscale>  0 0.23321918E+04</rscale>
<asrwt>0</asrwt>
<pdfrwt beam="1">  1        2 0.47188876E+00 0.23321918E+04</pdfrwt>
<pdfrwt beam="2">  1       -1 0.68202797E-01 0.23321918E+04</pdfrwt>
<totfact> 0.35376611E+00</totfact>
</mgrwt>
</event>
<event>
12    7  0.2466188E-007  0.3462869E+04  0.7818608E-02  0.8122646E-01
          2   -1    0    0  501    0  0.00000000000E+00  0.00000000000E+00  0.15055343492E+04  0.15055343492E+04  0.00000000000E+00 0. -1.
         -1   -1    0    0    0  501 -0.00000000000E+00 -0.00000000000E+00 -0.19912307191E+04  0.19912307191E+04  0.00000000000E+00 0.  1.
         24    2    1    2    0    0  0.14253540381E+04  0.75594532872E+03 -0.24735838839E+03  0.16343226481E+04  0.82078448786E+02 0.  0.
        254    2    1    2    0    0 -0.14253540381E+04 -0.75594532872E+03 -0.23833798151E+03  0.18624424202E+04  0.89933269780E+03 0.  0.
         23    2    4    4    0    0 -0.92288485766E+03 -0.10229143283E+02 -0.24230879654E+03  0.95860585523E+03  0.91599874063E+02 0.  0.
         23    2    4    4    0    0 -0.50246918043E+03 -0.74571618543E+03  0.39708150267E+01  0.90383656501E+03  0.91306420173E+02 0.  0.
          4    1    3    3  502    0  0.34580796453E+03  0.14430940102E+03 -0.59899505978E+02  0.37946844714E+03  0.00000000000E+00 0. -1.
         -3    1    3    3    0  502  0.10795460736E+04  0.61163592770E+03 -0.18745888242E+03  0.12548542009E+04  0.00000000000E+00 0.  1.
         13    1    5    5    0    0 -0.42189165066E+03 -0.45560077482E+02 -0.13195388874E+03  0.44438734715E+03  0.00000000000E+00 0.  1.
        -13    1    5    5    0    0 -0.50099320700E+03  0.35330934199E+02 -0.11035490780E+03  0.51421850808E+03  0.00000000000E+00 0. -1.
          2    1    6    6  503    0 -0.38209047635E+03 -0.55720734747E+03 -0.36175891388E+02  0.67659578428E+03  0.00000000000E+00 0. -1.
         -2    1    6    6    0  503 -0.12037870409E+03 -0.18850883797E+03  0.40146706414E+02  0.22724078073E+03  0.00000000000E+00 0.  1.
<mgrwt>
<rscale>  0 0.34628695E+04</rscale>
<asrwt>0</asrwt>
<pdfrwt beam="1">  1        2 0.23162067E+00 0.34628695E+04</pdfrwt>
<pdfrwt beam="2">  1       -1 0.30634319E+00 0.34628695E+04</pdfrwt>
<totfact> 0.35516750E-01</totfact>
</mgrwt>
</event>
<event>
12    7  0.2466188E-007  0.1819507E+04  0.7818608E-02  0.8695994E-01
          2   -1    0    0  501    0  0.00000000000E+00  0.00000000000E+00  0.31632742569E+04  0.31632742569E+04  0.00000000000E+00 0. -1.
         -1   -1    0    0    0  501 -0.00000000000E+00 -0.00000000000E+00 -0.26164380374E+03  0.26164380374E+03  0.00000000000E+00 0.  1.
         24    2    1    2    0    0  0.56577062316E+03 -0.31751809880E+03  0.15000021371E+04  0.16362230724E+04  0.79406488165E+02 0.  0.
        254    2    1    2    0    0 -0.56577062316E+03  0.31751809880E+03  0.14016283160E+04  0.17886949882E+04  0.90219381696E+03 0.  0.
         23    2    4    4    0    0 -0.49468455581E+03 -0.19145607537E+03  0.43796561926E+03  0.69277212971E+03  0.82165086887E+02 0.  0.
         23    2    4    4    0    0 -0.71086067341E+02  0.50897417417E+03  0.96366269676E+03  0.10959228585E+04  0.91066896366E+02 0.  0.
          2    1    3    3  502    0  0.21073852465E+03 -0.78207236260E+02  0.55239296303E+03  0.59637662864E+03  0.00000000000E+00 0. -1.
         -1    1    3    3    0  502  0.35503209850E+03 -0.23931086254E+03  0.94760917407E+03  0.10398464438E+04  0.00000000000E+00 0.  1.
         13    1    5    5    0    0 -0.33117641105E+03 -0.99131385299E+02  0.31966426540E+03  0.47083977037E+03  0.00000000000E+00 0. -1.
        -13    1    5    5    0    0 -0.16350814476E+03 -0.92324690070E+02  0.11830135385E+03  0.22193235934E+03  0.00000000000E+00 0.  1.
          1    1    6    6  503    0 -0.34138418860E+02  0.36117089042E+03  0.75418481416E+03  0.83690177299E+03  0.00000000000E+00 0. -1.
         -1    1    6    6    0  503 -0.36947648481E+02  0.14780328375E+03  0.20947788261E+03  0.25902108547E+03  0.00000000000E+00 0.  1.
<mgrwt>
<rscale>  0 0.18195066E+04</rscale>
<asrwt>0</asrwt>
<pdfrwt beam="1">  1        2 0.48665755E+00 0.18195066E+04</pdfrwt>
<pdfrwt beam="2">  1       -1 0.40252895E-01 0.18195066E+04</pdfrwt>
<totfact> 0.88955706E+00</totfact>
</mgrwt>
</event>
<event>
12    7  0.2466188E-007  0.2791226E+04  0.7818608E-02  0.8305997E-01
         -1   -1    0    0    0  501 -0.00000000000E+00  0.00000000000E+00  0.10258887396E+04  0.10258887396E+04  0.00000000000E+00 0.  1.
          2   -1    0    0  501    0  0.00000000000E+00 -0.00000000000E+00 -0.18985840852E+04  0.18985840852E+04  0.00000000000E+00 0. -1.
         24    2    1    2    0    0  0.12087801982E+04 -0.21532810328E+03 -0.15059897159E+03  0.12395759954E+04  0.79704696379E+02 0.  0.
        254    2    1    2    0    0 -0.12087801982E+04  0.21532810328E+03 -0.72209637403E+03  0.16848968293E+04  0.89996577291E+03 0.  0.
         23    2    4    4    0    0 -0.13134614702E+04  0.23678741810E+03 -0.76310999201E+03  0.15400889844E+04  0.91037931961E+02 0.  0.
         23    2    4    4    0    0  0.10468127198E+03 -0.21459314819E+02  0.41013617983E+02  0.14480784487E+03  0.88704702133E+02 0.  0.
          4    1    3    3  502    0  0.52053193393E+03 -0.13161574363E+03 -0.75627292907E+02  0.54221369002E+03  0.00000000000E+00 0. -1.
         -3    1    3    3    0  502  0.68824826426E+03 -0.83712359655E+02 -0.74971678686E+02  0.69736230542E+03  0.00000000000E+00 0.  1.
         13    1    5    5    0    0 -0.36120114755E+03  0.73668275490E+02 -0.25738705766E+03  0.44960135816E+03  0.00000000000E+00 0. -1.
        -13    1    5    5    0    0 -0.95226032262E+03  0.16311914261E+03 -0.50572293435E+03  0.10904876263E+04  0.00000000000E+00 0.  1.
          3    1    6    6  503    0 -0.11761851829E+02  0.39225994817E+01 -0.92455278761E+01  0.15466341870E+02  0.00000000000E+00 0. -1.
         -3    1    6    6    0  503  0.11644312381E+03 -0.25381914301E+02  0.50259145859E+02  0.12934150300E+03  0.00000000000E+00 0.  1.
<mgrwt>
<rscale>  0 0.27912263E+04</rscale>
<asrwt>0</asrwt>
<pdfrwt beam="1">  1        2 0.29208986E+00 0.27912263E+04</pdfrwt>
<pdfrwt beam="2">  1       -1 0.15782904E+00 0.27912263E+04</pdfrwt>
<totfact> 0.22881792E+00</totfact>
</mgrwt>
</event>
<event>
12    7  0.2466188E-007  0.1849181E+04  0.7818608E-02  0.8680574E-01
          2   -1    0    0  501    0  0.00000000000E+00  0.00000000000E+00  0.34418174520E+04  0.34418174520E+04  0.00000000000E+00 0. -1.
         -1   -1    0    0    0  501 -0.00000000000E+00 -0.00000000000E+00 -0.24837670409E+03  0.24837670409E+03  0.00000000000E+00 0.  1.
         24    2    1    2    0    0 -0.40877987523E+03 -0.17909818848E+02  0.81811197431E+02  0.42440744832E+03  0.77503949321E+02 0.  0.
        254    2    1    2    0    0  0.40877987523E+03  0.17909818848E+02  0.31116295504E+04  0.32657867077E+04  0.90316256185E+03 0.  0.
         23    2    4    4    0    0  0.41111065801E+03  0.34260908264E+03  0.25748522607E+04  0.26314902859E+04  0.92108653201E+02 0.  0.
         23    2    4    4    0    0 -0.23307827781E+01 -0.32469926379E+03  0.53677728976E+03  0.63429642178E+03  0.93632512701E+02 0.  0.
          2    1    3    3  502    0 -0.61410896381E+02  0.14618743803E+02  0.35595736257E+02  0.72471113586E+02  0.00000000000E+00 0. -1.
         -1    1    3    3    0  502 -0.34736897885E+03 -0.32528562651E+02  0.46215461175E+02  0.35193633474E+03  0.00000000000E+00 0.  1.
         13    1    5    5    0    0  0.25500230921E+03  0.20758237112E+03  0.13568044973E+04  0.13960784585E+04  0.00000000000E+00 0. -1.
        -13    1    5    5    0    0  0.15610834880E+03  0.13502671151E+03  0.12180477634E+04  0.12354118274E+04  0.00000000000E+00 0.  1.
          1    1    6    6  503    0  0.38878001934E+01 -0.16192524672E+03  0.35504483679E+03  0.39024573879E+03  0.00000000000E+00 0. -1.
         -1    1    6    6    0  503 -0.62185829715E+01 -0.16277401706E+03  0.18173245297E+03  0.24405068299E+03  0.00000000000E+00 0.  1.
<mgrwt>
<rscale>  0 0.18491807E+04</rscale>
<asrwt>0</asrwt>
<pdfrwt beam="1">  1        2 0.52951034E+00 0.18491807E+04</pdfrwt>
<pdfrwt beam="2">  1       -1 0.38211803E-01 0.18491807E+04</pdfrwt>
<totfact> 0.63693583E+00</totfact>
</mgrwt>
</event>
<event>
12    7  0.2466188E-007  0.1251976E+04  0.7818608E-02  0.9068540E-01
         -1   -1    0    0    0  501 -0.00000000000E+00  0.00000000000E+00  0.34253697205E+03  0.34253697205E+03  0.00000000000E+00 0.  1.
          2   -1    0    0  501    0  0.00000000000E+00 -0.00000000000E+00 -0.11439958627E+04  0.11439958627E+04  0.00000000000E+00 0. -1.
         24    2    1    2    0    0 -0.16924267506E+03  0.19279813937E+03 -0.16077648604E+02  0.26904252338E+03  0.79442954342E+02 0.  0.
        254    2    1    2    0    0  0.16924267506E+03 -0.19279813937E+03 -0.78538124202E+03  0.12174903114E+04  0.89422858225E+03 0.  0.
         23    2    4    4    0    0  0.13957069561E+03  0.28198994026E+03 -0.62775023195E+03  0.70797985479E+03  0.90370435448E+02 0.  0.
         23    2    4    4    0    0  0.29671979448E+02 -0.47478807963E+03 -0.15763101008E+03  0.50951045656E+03  0.91919655603E+02 0.  0.
          4    1    3    3  502    0 -0.29986064041E+02  0.64721289531E+02 -0.33957986927E+02  0.79000976142E+02  0.00000000000E+00 0. -1.
         -3    1    3    3    0  502 -0.13925661102E+03  0.12807684984E+03  0.17880338323E+02  0.19004154724E+03  0.00000000000E+00 0.  1.
         13    1    5    5    0    0  0.18488344578E+02  0.13797392239E+03 -0.26768423273E+03  0.30171753446E+03  0.00000000000E+00 0.  1.
        -13    1    5    5    0    0  0.12108235103E+03  0.14401601786E+03 -0.36006599921E+03  0.40626232033E+03  0.00000000000E+00 0. -1.
          1    1    6    6  503    0 -0.31644649906E+02 -0.14101805081E+03 -0.59083445646E+02  0.15613560795E+03  0.00000000000E+00 0. -1.
         -1    1    6    6    0  503  0.61316629354E+02 -0.33377002882E+03 -0.98547564433E+02  0.35337484861E+03  0.00000000000E+00 0.  1.
<mgrwt>
<rscale>  0 0.12519758E+04</rscale>
<asrwt>0</asrwt>
<pdfrwt beam="1">  1        2 0.17599936E+00 0.12519758E+04</pdfrwt>
<pdfrwt beam="2">  1       -1 0.52697996E-01 0.12519758E+04</pdfrwt>
<totfact> 0.83299505E+01</totfact>
</mgrwt>
</event>
<event>
12    7  0.2466188E-007  0.1437296E+04  0.7818608E-02  0.8927256E-01
         -1   -1    0    0    0  501 -0.00000000000E+00  0.00000000000E+00  0.25063683792E+03  0.25063683792E+03  0.00000000000E+00 0.  1.
          2   -1    0    0  501    0  0.00000000000E+00 -0.00000000000E+00 -0.20605707292E+04  0.20605707292E+04  0.00000000000E+00 0. -1.
         24    2    1    2    0    0 -0.13595354095E+03  0.40469711330E+03 -0.64113883293E+03  0.77445620417E+03  0.80375930945E+02 0.  0.
        254    2    1    2    0    0  0.13595354095E+03 -0.40469711330E+03 -0.11687950584E+04  0.15367513630E+04  0.90180915070E+03 0.  0.
         23    2    4    4    0    0 -0.11266714077E+03 -0.37820129008E+03 -0.75775615290E+02  0.41186228444E+03  0.90324398951E+02 0.  0.
         23    2    4    4    0    0  0.24862068171E+03 -0.26495823215E+02 -0.10930194431E+04  0.11248890785E+04  0.90386193665E+02 0.  0.
          2    1    3    3  502    0 -0.14449086736E+03  0.37880244164E+03 -0.61551403204E+03  0.73703895703E+03  0.00000000000E+00 0. -1.
         -1    1    3    3    0  502  0.85373264129E+01  0.25894671661E+02 -0.25624800885E+02  0.37417247134E+02  0.00000000000E+00 0.  1.
         13    1    5    5    0    0 -0.32421271707E+01 -0.15166452597E+03 -0.11118479401E+02  0.15210608276E+03  0.00000000000E+00 0.  1.
        -13    1    5    5    0    0 -0.10942501360E+03 -0.22653676411E+03 -0.64657135889E+02  0.25975620169E+03  0.00000000000E+00 0. -1.
          1    1    6    6  503    0  0.20782038299E+03  0.85555252141E+01 -0.93858379599E+03  0.96135427948E+03  0.00000000000E+00 0. -1.
         -1    1    6    6    0  503  0.40800298729E+02 -0.35051348429E+02 -0.15443564708E+03  0.16353479903E+03  0.00000000000E+00 0.  1.
<mgrwt>
<rscale>  0 0.14372960E+04</rscale>
<asrwt>0</asrwt>
<pdfrwt beam="1">  1        2 0.31701088E+00 0.14372960E+04</pdfrwt>
<pdfrwt beam="2">  1       -1 0.38559513E-01 0.14372960E+04</pdfrwt>
<totfact> 0.44548898E+01</totfact>
</mgrwt>
</event>
<event>
12    7  0.2466188E-007  0.1578158E+04  0.7818608E-02  0.8834080E-01
         -1   -1    0    0    0  501 -0.00000000000E+00  0.00000000000E+00  0.24342322758E+03  0.24342322758E+03  0.00000000000E+00 0.  1.
          2   -1    0    0  501    0  0.00000000000E+00 -0.00000000000E+00 -0.25578732702E+04  0.25578732702E+04  0.00000000000E+00 0. -1.
         24    2    1    2    0    0  0.34575294841E+03 -0.27427453626E+03 -0.26780327059E+03  0.52245358909E+03  0.80421007461E+02 0.  0.
        254    2    1    2    0    0 -0.34575294841E+03  0.27427453626E+03 -0.20466467721E+04  0.22788429087E+04  0.89977239926E+03 0.  0.
         23    2    4    4    0    0 -0.54908697785E+03  0.24852421223E+03 -0.76721847045E+03  0.97986985323E+03  0.90884292198E+02 0.  0.
         23    2    4    4    0    0  0.20333402944E+03  0.25750324031E+02 -0.12794283016E+04  0.12989730555E+04  0.91577361855E+02 0.  0.
          4    1    3    3  502    0  0.29442701556E+03 -0.19179013128E+03 -0.21339440353E+03  0.41110569615E+03  0.00000000000E+00 0. -1.
         -3    1    3    3    0  502  0.51325932849E+02 -0.82484404985E+02 -0.54408867062E+02  0.11134789295E+03  0.00000000000E+00 0.  1.
         13    1    5    5    0    0 -0.98064424654E+02  0.71606483353E+02 -0.11365160750E+03  0.16631538632E+03  0.00000000000E+00 0.  1.
        -13    1    5    5    0    0 -0.45102255319E+03  0.17691772888E+03 -0.65356686295E+03  0.81355446691E+03  0.00000000000E+00 0. -1.
          4    1    6    6  503    0  0.17765441300E+03 -0.48432379298E+01 -0.11458677229E+04  0.11595677581E+04  0.00000000000E+00 0. -1.
         -4    1    6    6    0  503  0.25679616440E+02  0.30593561961E+02 -0.13356057875E+03  0.13940529735E+03  0.00000000000E+00 0.  1.
<mgrwt>
<rscale>  0 0.15781581E+04</rscale>
<asrwt>0</asrwt>
<pdfrwt beam="1">  1        2 0.39351898E+00 0.15781581E+04</pdfrwt>
<pdfrwt beam="2">  1       -1 0.37449726E-01 0.15781581E+04</pdfrwt>
<totfact> 0.24263917E+01</totfact>
</mgrwt>
</event>
<event>
12    7  0.2466188E-007  0.1673321E+04  0.7818608E-02  0.8776728E-01
         -1   -1    0    0    0  501 -0.00000000000E+00  0.00000000000E+00  0.50764311564E+03  0.50764311564E+03  0.00000000000E+00 0.  1.
          2   -1    0    0  501    0  0.00000000000E+00 -0.00000000000E+00 -0.13789232003E+04  0.13789232003E+04  0.00000000000E+00 0. -1.
         24    2    1    2    0    0  0.35054540624E+03  0.46991162394E+03 -0.39128907353E+03  0.70965470541E+03  0.82484214824E+02 0.  0.
        254    2    1    2    0    0 -0.35054540624E+03 -0.46991162394E+03 -0.47999101113E+03  0.11769116105E+04  0.90057234694E+03 0.  0.
         23    2    4    4    0    0 -0.27192215053E+03  0.91358450605E+02 -0.52195151751E+03  0.60251954905E+03  0.91150413620E+02 0.  0.
         23    2    4    4    0    0 -0.78623255719E+02 -0.56127007454E+03  0.41960506381E+02  0.57439206149E+03  0.83425675200E+02 0.  0.
          2    1    3    3  502    0  0.27168482265E+03  0.41451482458E+03 -0.32439450791E+03  0.59234025646E+03  0.00000000000E+00 0. -1.
         -1    1    3    3    0  502  0.78860583593E+02  0.55396799355E+02 -0.66894565624E+02  0.11731444895E+03  0.00000000000E+00 0.  1.
         13    1    5    5    0    0 -0.15131650292E+03  0.90502563473E+01 -0.31083548585E+03  0.34582841188E+03  0.00000000000E+00 0. -1.
        -13    1    5    5    0    0 -0.12060564761E+03  0.82308194258E+02 -0.21111603166E+03  0.25669113717E+03  0.00000000000E+00 0.  1.
          3    1    6    6  503    0 -0.30217983017E+02 -0.10585041826E+03  0.37799446594E+02  0.11638829712E+03  0.00000000000E+00 0. -1.
         -3    1    6    6    0  503 -0.48405272702E+02 -0.45541965628E+03  0.41610597877E+01  0.45800376436E+03  0.00000000000E+00 0.  1.
<mgrwt>
<rscale>  0 0.16733211E+04</rscale>
<asrwt>0</asrwt>
<pdfrwt beam="1">  1        2 0.21214203E+00 0.16733211E+04</pdfrwt>
<pdfrwt beam="2">  1       -1 0.78098941E-01 0.16733211E+04</pdfrwt>
<totfact> 0.26549586E+01</totfact>
</mgrwt>
</event>
<event>
12    7  0.2466188E-007  0.2233073E+04  0.7818608E-02  0.8504787E-01
         -1   -1    0    0    0  501 -0.00000000000E+00  0.00000000000E+00  0.10559836643E+04  0.10559836643E+04  0.00000000000E+00 0.  1.
          2   -1    0    0  501    0  0.00000000000E+00 -0.00000000000E+00 -0.11805610662E+04  0.11805610662E+04  0.00000000000E+00 0. -1.
         24    2    1    2    0    0  0.53844424898E+03  0.51405062093E+03  0.51153994577E+03  0.90683439922E+03  0.80655200466E+02 0.  0.
        254    2    1    2    0    0 -0.53844424898E+03 -0.51405062093E+03 -0.63611734762E+03  0.13297103312E+04  0.89961882758E+03 0.  0.
         23    2    4    4    0    0 -0.67178862707E+03 -0.16509016828E+03 -0.63730815990E+03  0.94483111859E+03  0.89383605039E+02 0.  0.
         23    2    4    4    0    0  0.13334437810E+03 -0.34896045265E+03  0.11908122778E+01  0.38487921266E+03  0.92609230717E+02 0.  0.
          4    1    3    3  502    0  0.49622808345E+03  0.49048502348E+03  0.45758756562E+03  0.83438854815E+03  0.00000000000E+00 0. -1.
         -3    1    3    3    0  502  0.42216165523E+02  0.23565597449E+02  0.53952380146E+02  0.72445851075E+02  0.00000000000E+00 0.  1.
         13    1    5    5    0    0 -0.28095551095E+03 -0.10962136238E+03 -0.24878818814E+03  0.39095831592E+03  0.00000000000E+00 0.  1.
        -13    1    5    5    0    0 -0.39083311613E+03 -0.55468805893E+02 -0.38851997176E+03  0.55387280267E+03  0.00000000000E+00 0. -1.
          4    1    6    6  503    0  0.38806670552E+02 -0.20516068141E+03  0.28151500393E+02  0.21068784932E+03  0.00000000000E+00 0. -1.
         -4    1    6    6    0  503  0.94537707546E+02 -0.14379977125E+03 -0.26960688115E+02  0.17419136334E+03  0.00000000000E+00 0.  1.
<mgrwt>
<rscale>  0 0.22330725E+04</rscale>
<asrwt>0</asrwt>
<pdfrwt beam="1">  1        2 0.18162478E+00 0.22330725E+04</pdfrwt>
<pdfrwt beam="2">  1       -1 0.16245903E+00 0.22330725E+04</pdfrwt>
<totfact> 0.56616558E+00</totfact>
</mgrwt>
</event>
<event>
12    7  0.2466188E-007  0.2347013E+04  0.7818608E-02  0.8459612E-01
          2   -1    0    0  501    0  0.00000000000E+00  0.00000000000E+00  0.37027449270E+04  0.37027449270E+04  0.00000000000E+00 0. -1.
         -1   -1    0    0    0  501 -0.00000000000E+00 -0.00000000000E+00 -0.37191801020E+03  0.37191801020E+03  0.00000000000E+00 0.  1.
         24    2    1    2    0    0 -0.61232937522E+03  0.14927005368E+03  0.77110410563E+02  0.63984838662E+03  0.78937505373E+02 0.  0.
        254    2    1    2    0    0  0.61232937522E+03 -0.14927005368E+03  0.32537165062E+04  0.34348145506E+04  0.90224779372E+03 0.  0.
         23    2    4    4    0    0  0.45318677437E+03 -0.32911144920E+03  0.30616671866E+04  0.31138403058E+04  0.92211119546E+02 0.  0.
         23    2    4    4    0    0  0.15914260085E+03  0.17984139552E+03  0.19204931969E+03  0.32097424475E+03  0.92044715507E+02 0.  0.
          4    1    3    3  502    0 -0.22582898129E+03  0.89568809358E+02  0.10803943214E+02  0.24318311123E+03  0.00000000000E+00 0. -1.
         -3    1    3    3    0  502 -0.38650039393E+03  0.59701244324E+02  0.66306467349E+02  0.39666527538E+03  0.00000000000E+00 0.  1.
         13    1    5    5    0    0  0.13769523513E+03 -0.83817649655E+02  0.67756633190E+03  0.69647793238E+03  0.00000000000E+00 0.  1.
        -13    1    5    5    0    0  0.31549153924E+03 -0.24529379955E+03  0.23841008547E+04  0.24173623735E+04  0.00000000000E+00 0. -1.
          2    1    6    6  503    0  0.10559836773E+03  0.50300217759E+02  0.90271859867E+02  0.14775024825E+03  0.00000000000E+00 0. -1.
         -2    1    6    6    0  503  0.53544233122E+02  0.12954117776E+03  0.10177745982E+03  0.17322399650E+03  0.00000000000E+00 0.  1.
<mgrwt>
<rscale>  0 0.23470130E+04</rscale>
<asrwt>0</asrwt>
<pdfrwt beam="1">  1        2 0.56965304E+00 0.23470130E+04</pdfrwt>
<pdfrwt beam="2">  1       -1 0.57218158E-01 0.23470130E+04</pdfrwt>
<totfact> 0.18523752E+00</totfact>
</mgrwt>
</event>
<event>
12    7  0.2466188E-007  0.1591512E+04  0.7818608E-02  0.8825779E-01
          2   -1    0    0  501    0  0.00000000000E+00  0.00000000000E+00  0.23002418652E+04  0.23002418652E+04  0.00000000000E+00 0. -1.
         -1   -1    0    0    0  501 -0.00000000000E+00 -0.00000000000E+00 -0.27528746121E+03  0.27528746121E+03  0.00000000000E+00 0.  1.
         24    2    1    2    0    0 -0.51287669217E+03 -0.19928733134E+02  0.95290951873E+03  0.10852754935E+04  0.79666117148E+02 0.  0.
        254    2    1    2    0    0  0.51287669217E+03  0.19928733134E+02  0.10720448852E+04  0.14902538328E+04  0.89896417868E+03 0.  0.
         23    2    4    4    0    0  0.24341329834E+03 -0.39180303613E+03  0.78216845721E+03  0.91289435550E+03  0.93962524000E+02 0.  0.
         23    2    4    4    0    0  0.26946339383E+03  0.41173176926E+03  0.28987642801E+03  0.57735947733E+03  0.84746988822E+02 0.  0.
          4    1    3    3  502    0 -0.29542497991E+03 -0.47543204103E+02  0.58273563147E+03  0.65507029486E+03  0.00000000000E+00 0. -1.
         -3    1    3    3    0  502 -0.21745171226E+03  0.27614470969E+02  0.37017388725E+03  0.43020519869E+03  0.00000000000E+00 0.  1.
         13    1    5    5    0    0  0.20273145392E+03 -0.35122085136E+03  0.73099570587E+03  0.83594907192E+03  0.00000000000E+00 0.  1.
        -13    1    5    5    0    0  0.40681844415E+02 -0.40582184764E+02  0.51172751345E+02  0.76945283582E+02  0.00000000000E+00 0. -1.
          1    1    6    6  503    0  0.10179313854E+03  0.12097116679E+03  0.13417808694E+03  0.20736350996E+03  0.00000000000E+00 0. -1.
         -1    1    6    6    0  503  0.16767025529E+03  0.29076060247E+03  0.15569834107E+03  0.36999596737E+03  0.00000000000E+00 0.  1.
<mgrwt>
<rscale>  0 0.15915122E+04</rscale>
<asrwt>0</asrwt>
<pdfrwt beam="1">  1        2 0.35388335E+00 0.15915122E+04</pdfrwt>
<pdfrwt beam="2">  1       -1 0.42351919E-01 0.15915122E+04</pdfrwt>
<totfact> 0.27185671E+01</totfact>
</mgrwt>
</event>
<event>
12    7  0.2466188E-007  0.2943433E+04  0.7818608E-02  0.8260071E-01
         -1   -1    0    0    0  501 -0.00000000000E+00  0.00000000000E+00  0.13619996034E+04  0.13619996034E+04  0.00000000000E+00 0.  1.
          2   -1    0    0  501    0  0.00000000000E+00 -0.00000000000E+00 -0.15902718399E+04  0.15902718399E+04  0.00000000000E+00 0. -1.
         24    2    1    2    0    0 -0.11586931257E+04  0.49726900959E+03  0.32930765930E+03  0.13055687754E+04  0.78867391179E+02 0.  0.
        254    2    1    2    0    0  0.11586931257E+04 -0.49726900959E+03 -0.55757989576E+03  0.16467026679E+04  0.90049325870E+03 0.  0.
         23    2    4    4    0    0  0.46993567299E+03 -0.39826840298E+03  0.16020280914E+03  0.64298781894E+03  0.91165441276E+02 0.  0.
         23    2    4    4    0    0  0.68875745271E+03 -0.99000606605E+02 -0.71778270490E+03  0.10037148490E+04  0.89685772876E+02 0.  0.
          2    1    3    3  502    0 -0.87295050613E+03  0.38600769652E+03  0.21566381259E+03  0.97854760128E+03  0.00000000000E+00 0. -1.
         -1    1    3    3    0  502 -0.28574261957E+03  0.11126131307E+03  0.11364384671E+03  0.32702117412E+03  0.00000000000E+00 0.  1.
         13    1    5    5    0    0  0.46472268712E+03 -0.39101614432E+03  0.16903857166E+03  0.63042433309E+03  0.00000000000E+00 0. -1.
        -13    1    5    5    0    0  0.52129858737E+01 -0.72522586624E+01 -0.88357625192E+01  0.12563485851E+02  0.00000000000E+00 0.  1.
          3    1    6    6  503    0  0.62362332917E+03 -0.80842570130E+02 -0.68024121336E+03  0.92637448485E+03  0.00000000000E+00 0. -1.
         -3    1    6    6    0  503  0.65134123542E+02 -0.18158036476E+02 -0.37541491542E+02  0.77340364141E+02  0.00000000000E+00 0.  1.
<mgrwt>
<rscale>  0 0.29434331E+04</rscale>
<asrwt>0</asrwt>
<pdfrwt beam="1">  1        2 0.24465721E+00 0.29434331E+04</pdfrwt>
<pdfrwt beam="2">  1       -1 0.20953840E+00 0.29434331E+04</pdfrwt>
<totfact> 0.14317767E+00</totfact>
</mgrwt>
</event>
<event>
12    7  0.2466188E-007  0.1338655E+04  0.7818608E-02  0.8999461E-01
         -1   -1    0    0    0  501 -0.00000000000E+00  0.00000000000E+00  0.21695356807E+03  0.21695356807E+03  0.00000000000E+00 0.  1.
          2   -1    0    0  501    0  0.00000000000E+00 -0.00000000000E+00 -0.20649536465E+04  0.20649536465E+04  0.00000000000E+00 0. -1.
         24    2    1    2    0    0 -0.34829816317E+03 -0.70243245603E+02 -0.38044586651E+03  0.52378889967E+03  0.58051959903E+02 0.  0.
        254    2    1    2    0    0  0.34829816317E+03  0.70243245603E+02 -0.14675542119E+04  0.17581183149E+04  0.90056588889E+03 0.  0.
         23    2    4    4    0    0  0.67174950155E+02  0.43025411711E+03 -0.42443468636E+03  0.61565005907E+03  0.96172309059E+02 0.  0.
         23    2    4    4    0    0  0.28112321302E+03 -0.36001087150E+03 -0.10431195255E+04  0.11424682558E+04  0.92180705571E+02 0.  0.
          4    1    3    3  502    0 -0.25405855571E+03 -0.34819408424E+02 -0.30181842265E+03  0.39604608468E+03  0.00000000000E+00 0. -1.
         -3    1    3    3    0  502 -0.94239607462E+02 -0.35423837179E+02 -0.78627443856E+02  0.12774281499E+03  0.00000000000E+00 0.  1.
         13    1    5    5    0    0  0.82402260222E+02  0.22115162297E+03 -0.23599871213E+03  0.33375674519E+03  0.00000000000E+00 0. -1.
        -13    1    5    5    0    0 -0.15227310067E+02  0.20910249414E+03 -0.18843597423E+03  0.28189331388E+03  0.00000000000E+00 0.  1.
          3    1    6    6  503    0  0.16256806006E+02 -0.36655502643E+02 -0.16701561818E+03  0.17176183025E+03  0.00000000000E+00 0. -1.
         -3    1    6    6    0  503  0.26486640701E+03 -0.32335536886E+03 -0.87610390737E+03  0.97070642557E+03  0.00000000000E+00 0.  1.
<mgrwt>
<rscale>  0 0.13386546E+04</rscale>
<asrwt>0</asrwt>
<pdfrwt beam="1">  1        2 0.31768520E+00 0.13386546E+04</pdfrwt>
<pdfrwt beam="2">  1       -1 0.33377470E-01 0.13386546E+04</pdfrwt>
<totfact> 0.57884221E+01</totfact>
</mgrwt>
</event>
<event>
12    7  0.2466188E-007  0.1972285E+04  0.7818608E-02  0.8619689E-01
         -1   -1    0    0    0  501 -0.00000000000E+00  0.00000000000E+00  0.81671054188E+03  0.81671054188E+03  0.00000000000E+00 0.  1.
          2   -1    0    0  501    0  0.00000000000E+00 -0.00000000000E+00 -0.11907246619E+04  0.11907246619E+04  0.00000000000E+00 0. -1.
         24    2    1    2    0    0  0.76054884357E+03  0.16399537101E+03 -0.12707042285E+03  0.79239189700E+03  0.80056235797E+02 0.  0.
        254    2    1    2    0    0 -0.76054884357E+03 -0.16399537101E+03 -0.24694369714E+03  0.12150433068E+04  0.90001112357E+03 0.  0.
         23    2    4    4    0    0 -0.51889775888E+03 -0.45509955512E+03  0.88371922892E+02  0.70177635520E+03  0.91159018895E+02 0.  0.
         23    2    4    4    0    0 -0.24165108469E+03  0.29110418410E+03 -0.33531562004E+03  0.51326695155E+03  0.88710234907E+02 0.  0.
          4    1    3    3  502    0  0.63627359116E+03  0.16107196707E+03 -0.12454464898E+03  0.66805660761E+03  0.00000000000E+00 0. -1.
         -1    1    3    3    0  502  0.12427525242E+03  0.29234039392E+01 -0.25257738723E+01  0.12433528939E+03  0.00000000000E+00 0.  1.
         13    1    5    5    0    0 -0.20214603664E+03 -0.14235908297E+03 -0.34964133457E+01  0.24726777699E+03  0.00000000000E+00 0. -1.
        -13    1    5    5    0    0 -0.31675172224E+03 -0.31274047215E+03  0.91868336238E+02  0.45450857821E+03  0.00000000000E+00 0.  1.
          3    1    6    6  503    0 -0.14510079059E+02  0.18899925992E+02  0.19986058006E+01  0.23911169397E+02  0.00000000000E+00 0. -1.
         -3    1    6    6    0  503 -0.22714100563E+03  0.27220425811E+03 -0.33731422584E+03  0.48935578215E+03  0.00000000000E+00 0.  1.
<mgrwt>
<rscale>  0 0.19722854E+04</rscale>
<asrwt>0</asrwt>
<pdfrwt beam="1">  1        2 0.18318841E+00 0.19722854E+04</pdfrwt>
<pdfrwt beam="2">  1       -1 0.12564778E+00 0.19722854E+04</pdfrwt>
<totfact> 0.11253693E+01</totfact>
</mgrwt>
</event>
<event>
12    7  0.2466188E-007  0.1724922E+04  0.7818608E-02  0.8747277E-01
         -1   -1    0    0    0  501 -0.00000000000E+00  0.00000000000E+00  0.18668985408E+04  0.18668985408E+04  0.00000000000E+00 0.  1.
          2   -1    0    0  501    0  0.00000000000E+00 -0.00000000000E+00 -0.39843575127E+03  0.39843575127E+03  0.00000000000E+00 0. -1.
         24    2    1    2    0    0  0.30412697282E+02 -0.50197247770E+03  0.10213220382E+04  0.11416189078E+04  0.85403304258E+02 0.  0.
        254    2    1    2    0    0 -0.30412697282E+02  0.50197247770E+03  0.44714075136E+03  0.11237153843E+04  0.89994450545E+03 0.  0.
         23    2    4    4    0    0  0.25257936999E+03  0.57318353918E+03  0.50873997093E+03  0.81216769598E+03  0.92001633867E+02 0.  0.
         23    2    4    4    0    0 -0.28299206727E+03 -0.71211061482E+02 -0.61599219567E+02  0.31154768834E+03  0.90066491252E+02 0.  0.
          4    1    3    3  502    0 -0.22420852480E+02 -0.16811062652E+03  0.28983565697E+03  0.33581034146E+03  0.00000000000E+00 0. -1.
         -3    1    3    3    0  502  0.52833549761E+02 -0.33386185118E+03  0.73148638122E+03  0.80580856633E+03  0.00000000000E+00 0.  1.
         13    1    5    5    0    0  0.97637954509E+02  0.33092747738E+03  0.26153420303E+03  0.43295069558E+03  0.00000000000E+00 0.  1.
        -13    1    5    5    0    0  0.15494141548E+03  0.24225606181E+03  0.24720576789E+03  0.37921700040E+03  0.00000000000E+00 0. -1.
          2    1    6    6  503    0 -0.12229293978E+03  0.11085237551E+02 -0.42737634705E+02  0.13001904103E+03  0.00000000000E+00 0. -1.
         -2    1    6    6    0  503 -0.16069912749E+03 -0.82296299032E+02 -0.18861584862E+02  0.18152864731E+03  0.00000000000E+00 0.  1.
<mgrwt>
<rscale>  0 0.17249222E+04</rscale>
<asrwt>0</asrwt>
<pdfrwt beam="1">  1        2 0.61297809E-01 0.17249222E+04</pdfrwt>
<pdfrwt beam="2">  1       -1 0.28721516E+00 0.17249222E+04</pdfrwt>
<totfact> 0.34705616E+00</totfact>
</mgrwt>
</event>
<event>
12    7  0.2466188E-007  0.1583996E+04  0.7818608E-02  0.8830441E-01
          2   -1    0    0  501    0  0.00000000000E+00  0.00000000000E+00  0.47541833013E+03  0.47541833013E+03  0.00000000000E+00 0. -1.
         -1   -1    0    0    0  501 -0.00000000000E+00 -0.00000000000E+00 -0.13193872700E+04  0.13193872700E+04  0.00000000000E+00 0.  1.
         24    2    1    2    0    0  0.19178644761E+03  0.28724418624E+03 -0.74657092825E+03  0.82638671087E+03  0.79092230809E+02 0.  0.
        254    2    1    2    0    0 -0.19178644761E+03 -0.28724418624E+03 -0.97398011607E+02  0.96841888924E+03  0.89947624113E+03 0.  0.
         23    2    4    4    0    0 -0.15679586296E+02 -0.10570865416E+03  0.38839082303E+03  0.41308859903E+03  0.91512787325E+02 0.  0.
         23    2    4    4    0    0 -0.17610686131E+03 -0.18153553208E+03 -0.48578883464E+03  0.55533029021E+03  0.91826811807E+02 0.  0.
          4    1    3    3  502    0  0.48333246514E+02  0.14246523468E+03 -0.32530299592E+03  0.35840547564E+03  0.00000000000E+00 0. -1.
         -3    1    3    3    0  502  0.14345320109E+03  0.14477895156E+03 -0.42126793233E+03  0.46798123523E+03  0.00000000000E+00 0.  1.
         13    1    5    5    0    0 -0.35412249832E+02 -0.73725637640E+02  0.14218108731E+03  0.16402731075E+03  0.00000000000E+00 0.  1.
        -13    1    5    5    0    0  0.19732663536E+02 -0.31983016523E+02  0.24620973572E+03  0.24906128828E+03  0.00000000000E+00 0. -1.
          1    1    6    6  503    0 -0.12733495154E+03 -0.78109550806E+02 -0.21930482119E+03  0.26534863181E+03  0.00000000000E+00 0. -1.
         -1    1    6    6    0  503 -0.48771909773E+02 -0.10342598127E+03 -0.26648401345E+03  0.28998165840E+03  0.00000000000E+00 0.  1.
<mgrwt>
<rscale>  0 0.15839961E+04</rscale>
<asrwt>0</asrwt>
<pdfrwt beam="1">  1        2 0.73141281E-01 0.15839961E+04</pdfrwt>
<pdfrwt beam="2">  1       -1 0.20298266E+00 0.15839961E+04</pdfrwt>
<totfact> 0.10286143E+01</totfact>
</mgrwt>
</event>
<event>
12    7  0.2466188E-007  0.2348632E+04  0.7818608E-02  0.8458989E-01
         -1   -1    0    0    0  501 -0.00000000000E+00  0.00000000000E+00  0.64426320829E+03  0.64426320829E+03  0.00000000000E+00 0.  1.
          2   -1    0    0  501    0  0.00000000000E+00 -0.00000000000E+00 -0.21404579430E+04  0.21404579430E+04  0.00000000000E+00 0. -1.
         24    2    1    2    0    0 -0.79215488385E+03 -0.18791124240E+02 -0.13610750211E+04  0.15769281748E+04  0.79465645994E+02 0.  0.
        254    2    1    2    0    0  0.79215488385E+03  0.18791124240E+02 -0.13511971358E+03  0.12077929765E+04  0.90146773140E+03 0.  0.
         23    2    4    4    0    0  0.38350221685E+03 -0.32695542635E+03  0.22259836142E+03  0.55800936216E+03  0.88603705383E+02 0.  0.
         23    2    4    4    0    0  0.40865266700E+03  0.34574655059E+03 -0.35771807500E+03  0.64978361435E+03  0.87856956421E+02 0.  0.
          4    1    3    3  502    0 -0.29730934855E+03 -0.37224693624E+02 -0.56114489622E+03  0.63613058495E+03  0.00000000000E+00 0. -1.
         -3    1    3    3    0  502 -0.49484553530E+03  0.18433569384E+02 -0.79993012492E+03  0.94079758983E+03  0.00000000000E+00 0.  1.
         13    1    5    5    0    0  0.30042701272E+03 -0.20517781064E+03  0.16912513553E+03  0.40119525847E+03  0.00000000000E+00 0. -1.
        -13    1    5    5    0    0  0.83075204124E+02 -0.12177761572E+03  0.53473225885E+02  0.15681410369E+03  0.00000000000E+00 0.  1.
          1    1    6    6  503    0  0.43131646443E+02  0.75473500474E+02 -0.71856222366E+02  0.11278255579E+03  0.00000000000E+00 0. -1.
         -1    1    6    6    0  503  0.36552102056E+03  0.27027305012E+03 -0.28586185264E+03  0.53700105855E+03  0.00000000000E+00 0.  1.
<mgrwt>
<rscale>  0 0.23486322E+04</rscale>
<asrwt>0</asrwt>
<pdfrwt beam="1">  1        2 0.32930122E+00 0.23486322E+04</pdfrwt>
<pdfrwt beam="2">  1       -1 0.99117417E-01 0.23486322E+04</pdfrwt>
<totfact> 0.55733745E+00</totfact>
</mgrwt>
</event>
<event>
12    7  0.2466188E-007  0.1410304E+04  0.7818608E-02  0.8946393E-01
         -1   -1    0    0    0  501 -0.00000000000E+00  0.00000000000E+00  0.19271258893E+03  0.19271258893E+03  0.00000000000E+00 0.  1.
          2   -1    0    0  501    0  0.00000000000E+00 -0.00000000000E+00 -0.25802136681E+04  0.25802136681E+04  0.00000000000E+00 0. -1.
         24    2    1    2    0    0 -0.22591254104E+03  0.37488827802E+01 -0.13905937042E+04  0.14110033842E+04  0.78289014239E+02 0.  0.
        254    2    1    2    0    0  0.22591254104E+03 -0.37488827802E+01 -0.99690737491E+03  0.13619228728E+04  0.89997725911E+03 0.  0.
         23    2    4    4    0    0  0.26426898692E+03  0.34596592378E+03 -0.20459234576E+03  0.48989214193E+03  0.92767262143E+02 0.  0.
         23    2    4    4    0    0 -0.38356445880E+02 -0.34971480656E+03 -0.79231502915E+03  0.87203073084E+03  0.94354794480E+02 0.  0.
          4    1    3    3  502    0 -0.21817719198E+03 -0.56842566109E+01 -0.13682401798E+04  0.13855377251E+04  0.00000000000E+00 0. -1.
         -3    1    3    3    0  502 -0.77353490568E+01  0.94331393912E+01 -0.22353524405E+02  0.25465659173E+02  0.00000000000E+00 0.  1.
         13    1    5    5    0    0  0.16501948958E+03  0.14599295556E+03 -0.12203076867E+03  0.25186679717E+03  0.00000000000E+00 0.  1.
        -13    1    5    5    0    0  0.99249497338E+02  0.19997296822E+03 -0.82561577088E+02  0.23802534477E+03  0.00000000000E+00 0. -1.
          2    1    6    6  503    0  0.11512566274E+02 -0.22092062557E+03 -0.55481661024E+03  0.59729384141E+03  0.00000000000E+00 0. -1.
         -2    1    6    6    0  503 -0.49869012154E+02 -0.12879418098E+03 -0.23749841892E+03  0.27473688943E+03  0.00000000000E+00 0.  1.
<mgrwt>
<rscale>  0 0.14103044E+04</rscale>
<asrwt>0</asrwt>
<pdfrwt beam="1">  1        2 0.39695591E+00 0.14103044E+04</pdfrwt>
<pdfrwt beam="2">  1       -1 0.29648094E-01 0.14103044E+04</pdfrwt>
<totfact> 0.36222626E+01</totfact>
</mgrwt>
</event>
<event>
12    7  0.2466188E-007  0.1604163E+04  0.7818608E-02  0.8817995E-01
         -1   -1    0    0    0  501 -0.00000000000E+00  0.00000000000E+00  0.70236223923E+03  0.70236223923E+03  0.00000000000E+00 0.  1.
          2   -1    0    0  501    0  0.00000000000E+00 -0.00000000000E+00 -0.91595845792E+03  0.91595845792E+03  0.00000000000E+00 0. -1.
         24    2    1    2    0    0  0.26248375498E+03  0.44278200537E+03 -0.26225781667E+03  0.58330608962E+03  0.80704435317E+02 0.  0.
        254    2    1    2    0    0 -0.26248375498E+03 -0.44278200537E+03  0.48661597979E+02  0.10350146075E+04  0.89662347770E+03 0.  0.
         23    2    4    4    0    0 -0.32607578504E+03  0.19332630190E+03  0.37585468461E+02  0.38902530483E+03  0.78914787991E+02 0.  0.
         23    2    4    4    0    0  0.63592030060E+02 -0.63610830727E+03  0.11076129518E+02  0.64598930269E+03  0.92205063190E+02 0.  0.
          2    1    3    3  502    0  0.68366560823E+02  0.86814950526E+02 -0.91066383615E+02  0.14319185905E+03  0.00000000000E+00 0. -1.
         -1    1    3    3    0  502  0.19411719415E+03  0.35596705485E+03 -0.17119143305E+03  0.44011423057E+03  0.00000000000E+00 0.  1.
         13    1    5    5    0    0 -0.11354945552E+03  0.73857451217E+02 -0.23994165045E+02  0.13756497339E+03  0.00000000000E+00 0.  1.
        -13    1    5    5    0    0 -0.21252632952E+03  0.11946885068E+03  0.61579633507E+02  0.25146033143E+03  0.00000000000E+00 0. -1.
          2    1    6    6  503    0  0.83672845156E+02 -0.54925995587E+03 -0.38421090067E+01  0.55560994046E+03  0.00000000000E+00 0. -1.
         -2    1    6    6    0  503 -0.20080815096E+02 -0.86848351408E+02  0.14918238524E+02  0.90379362234E+02  0.00000000000E+00 0.  1.
<mgrwt>
<rscale>  0 0.16041629E+04</rscale>
<asrwt>0</asrwt>
<pdfrwt beam="1">  1        2 0.14091669E+00 0.16041629E+04</pdfrwt>
<pdfrwt beam="2">  1       -1 0.10805573E+00 0.16041629E+04</pdfrwt>
<totfact> 0.24915281E+01</totfact>
</mgrwt>
</event>
<event>
12    7  0.2466188E-007  0.2423816E+04  0.7818608E-02  0.8430641E-01
          2   -1    0    0  501    0  0.00000000000E+00  0.00000000000E+00  0.74094606210E+03  0.74094606210E+03  0.00000000000E+00 0. -1.
         -3   -1    0    0    0  501 -0.00000000000E+00 -0.00000000000E+00 -0.19822244238E+04  0.19822244238E+04  0.00000000000E+00 0.  1.
         24    2    1    2    0    0 -0.31462765300E+03  0.99510560482E+03 -0.51716761945E+03  0.11674386369E+04  0.78898032716E+02 0.  0.
        254    2    1    2    0    0  0.31462765300E+03 -0.99510560482E+03 -0.72411074226E+03  0.15557318490E+04  0.89818678133E+03 0.  0.
         23    2    4    4    0    0  0.59623147017E+03 -0.50149604819E+03 -0.29640154170E+03  0.83858408689E+03  0.91537667075E+02 0.  0.
         23    2    4    4    0    0 -0.28160381717E+03 -0.49360955663E+03 -0.42770920055E+03  0.71714776210E+03  0.91731391629E+02 0.  0.
          4    1    3    3  502    0 -0.19281548006E+03  0.71727448574E+03 -0.35010371733E+03  0.82111698931E+03  0.00000000000E+00 0. -1.
         -3    1    3    3    0  502 -0.12181217293E+03  0.27783111908E+03 -0.16706390212E+03  0.34632164760E+03  0.00000000000E+00 0.  1.
         13    1    5    5    0    0  0.79942932165E+02 -0.11227168643E+03 -0.56112667863E+02  0.14881006509E+03  0.00000000000E+00 0. -1.
        -13    1    5    5    0    0  0.51628853800E+03 -0.38922436175E+03 -0.24028887384E+03  0.68977402180E+03  0.00000000000E+00 0.  1.
          4    1    6    6  503    0 -0.12194238853E+03 -0.30046317530E+03 -0.22262708388E+03  0.39333304503E+03  0.00000000000E+00 0.  1.
         -4    1    6    6    0  503 -0.15966142864E+03 -0.19314638133E+03 -0.20508211667E+03  0.32381471708E+03  0.00000000000E+00 0. -1.
<mgrwt>
<rscale>  0 0.24238163E+04</rscale>
<asrwt>0</asrwt>
<pdfrwt beam="1">  1        2 0.11399170E+00 0.24238163E+04</pdfrwt>
<pdfrwt beam="2">  1       -3 0.30495760E+00 0.24238163E+04</pdfrwt>
<totfact> 0.76145154E-01</totfact>
</mgrwt>
</event>
<event>
12    7  0.2466188E-007  0.3055156E+04  0.7818608E-02  0.8228154E-01
         -1   -1    0    0    0  501 -0.00000000000E+00  0.00000000000E+00  0.15087121683E+04  0.15087121683E+04  0.00000000000E+00 0.  1.
          2   -1    0    0  501    0  0.00000000000E+00 -0.00000000000E+00 -0.15466795291E+04  0.15466795291E+04  0.00000000000E+00 0. -1.
         24    2    1    2    0    0  0.93380339466E+03  0.52068939568E+03  0.87822192363E+03  0.13858521006E+04  0.78778619808E+02 0.  0.
        254    2    1    2    0    0 -0.93380339466E+03 -0.52068939568E+03 -0.91618928440E+03  0.16695395968E+04  0.89713624042E+03 0.  0.
         23    2    4    4    0    0 -0.79543757264E+03  0.32586976028E+02 -0.40481213662E+03  0.89810675302E+03  0.94551736634E+02 0.  0.
         23    2    4    4    0    0 -0.13836582202E+03 -0.55327637171E+03 -0.51137714778E+03  0.77143284380E+03  0.91335650411E+02 0.  0.
          4    1    3    3  502    0  0.24962406069E+03  0.10079928873E+03  0.21232759642E+03  0.34286393290E+03  0.00000000000E+00 0. -1.
         -3    1    3    3    0  502  0.68417933397E+03  0.41989010695E+03  0.66589432720E+03  0.10429881677E+04  0.00000000000E+00 0.  1.
         13    1    5    5    0    0 -0.13556912732E+03  0.84763891575E+00 -0.31082675834E+02  0.13908932206E+03  0.00000000000E+00 0. -1.
        -13    1    5    5    0    0 -0.65986844531E+03  0.31739337113E+02 -0.37372946079E+03  0.75901743096E+03  0.00000000000E+00 0.  1.
          2    1    6    6  503    0 -0.40290482054E+02 -0.25718979058E+03 -0.28523079076E+03  0.38616902429E+03  0.00000000000E+00 0. -1.
         -2    1    6    6    0  503 -0.98075339970E+02 -0.29608658113E+03 -0.22614635701E+03  0.38526381951E+03  0.00000000000E+00 0.  1.
<mgrwt>
<rscale>  0 0.30551558E+04</rscale>
<asrwt>0</asrwt>
<pdfrwt beam="1">  1        2 0.23795070E+00 0.30551558E+04</pdfrwt>
<pdfrwt beam="2">  1       -1 0.23210956E+00 0.30551558E+04</pdfrwt>
<totfact> 0.10594528E+00</totfact>
</mgrwt>
</event>
<event>
12    7  0.2466188E-007  0.4125335E+04  0.7818608E-02  0.7979729E-01
         -1   -1    0    0    0  501 -0.00000000000E+00  0.00000000000E+00  0.13658757692E+04  0.13658757692E+04  0.00000000000E+00 0.  1.
          2   -1    0    0  501    0  0.00000000000E+00 -0.00000000000E+00 -0.31149226060E+04  0.31149226060E+04  0.00000000000E+00 0. -1.
         24    2    1    2    0    0  0.40878613485E+02  0.12109735144E+04 -0.25119425770E+04  0.27900244719E+04  0.79076737232E+02 0.  0.
        254    2    1    2    0    0 -0.40878613485E+02 -0.12109735144E+04  0.76289574014E+03  0.16907739032E+04  0.89920996868E+03 0.  0.
         23    2    4    4    0    0 -0.34654251154E+03 -0.11173578186E+04  0.60616380120E+03  0.13208033971E+04  0.92232600715E+02 0.  0.
         23    2    4    4    0    0  0.30566389805E+03 -0.93615695806E+02  0.15673193894E+03  0.36997050616E+03  0.10059302994E+03 0.  0.
          4    1    3    3  502    0  0.20095410020E+02  0.91538681439E+03 -0.19694179281E+04  0.21718526242E+04  0.00000000000E+00 0. -1.
         -3    1    3    3    0  502  0.20783203465E+02  0.29558670004E+03 -0.54252464884E+03  0.61817184778E+03  0.00000000000E+00 0.  1.
         13    1    5    5    0    0 -0.75724712628E+02 -0.22099166060E+03  0.16295652103E+03  0.28482691920E+03  0.00000000000E+00 0. -1.
        -13    1    5    5    0    0 -0.27081779891E+03 -0.89636615803E+03  0.44320728017E+03  0.10359764779E+04  0.00000000000E+00 0.  1.
          3    1    6    6  503    0  0.23203891953E+02 -0.12987474387E+02 -0.14168147976E+02  0.30130242445E+02  0.00000000000E+00 0. -1.
         -3    1    6    6    0  503  0.28246000610E+03 -0.80628221419E+02  0.17090008692E+03  0.33984026372E+03  0.00000000000E+00 0.  1.
<mgrwt>
<rscale>  0 0.41253350E+04</rscale>
<asrwt>0</asrwt>
<pdfrwt beam="1">  1        2 0.47921886E+00 0.41253350E+04</pdfrwt>
<pdfrwt beam="2">  1       -1 0.21013474E+00 0.41253350E+04</pdfrwt>
<totfact> 0.16733876E-01</totfact>
</mgrwt>
</event>
<event>
12    7  0.2466188E-007  0.1566529E+04  0.7818608E-02  0.8841378E-01
          2   -1    0    0  501    0  0.00000000000E+00  0.00000000000E+00  0.11547503428E+04  0.11547503428E+04  0.00000000000E+00 0. -1.
         -1   -1    0    0    0  501 -0.00000000000E+00 -0.00000000000E+00 -0.53128684598E+03  0.53128684598E+03  0.00000000000E+00 0.  1.
         24    2    1    2    0    0 -0.31513748684E+03  0.33299905531E+03  0.47663521415E+03  0.66596624394E+03  0.78293705040E+02 0.  0.
        254    2    1    2    0    0  0.31513748684E+03 -0.33299905531E+03  0.14682828270E+03  0.10200709449E+04  0.89932540356E+03 0.  0.
         23    2    4    4    0    0  0.18560407126E+03 -0.54430628151E+03  0.35720049609E+03  0.68280293965E+03  0.88935148441E+02 0.  0.
         23    2    4    4    0    0  0.12953341558E+03  0.21130722619E+03 -0.21037221338E+03  0.33726800522E+03  0.89797492104E+02 0.  0.
          2    1    3    3  502    0 -0.98624284549E+02  0.72319667132E+02  0.16659664354E+03  0.20666718510E+03  0.00000000000E+00 0. -1.
         -1    1    3    3    0  502 -0.21651320230E+03  0.26067938818E+03  0.31003857061E+03  0.45929905885E+03  0.00000000000E+00 0.  1.
         13    1    5    5    0    0  0.70596559632E+02 -0.13744975221E+03  0.58899673559E+02  0.16536468837E+03  0.00000000000E+00 0.  1.
        -13    1    5    5    0    0  0.11500751163E+03 -0.40685652929E+03  0.29830082253E+03  0.51743825127E+03  0.00000000000E+00 0. -1.
          4    1    6    6  503    0  0.11928231022E+03  0.19024156367E+03 -0.14367447346E+03  0.26657546099E+03  0.00000000000E+00 0. -1.
         -4    1    6    6    0  503  0.10251105361E+02  0.21065662522E+02 -0.66697739922E+02  0.70692544228E+02  0.00000000000E+00 0.  1.
<mgrwt>
<rscale>  0 0.15665295E+04</rscale>
<asrwt>0</asrwt>
<pdfrwt beam="1">  1        2 0.17765390E+00 0.15665295E+04</pdfrwt>
<pdfrwt beam="2">  1       -1 0.81736438E-01 0.15665295E+04</pdfrwt>
<totfact> 0.32947277E+01</totfact>
</mgrwt>
</event>
<event>
12    7  0.2466188E-007  0.1770617E+04  0.7818608E-02  0.8722083E-01
         -1   -1    0    0    0  501 -0.00000000000E+00  0.00000000000E+00  0.22072926540E+03  0.22072926540E+03  0.00000000000E+00 0.  1.
          2   -1    0    0  501    0  0.00000000000E+00 -0.00000000000E+00 -0.35508240546E+04  0.35508240546E+04  0.00000000000E+00 0. -1.
         24    2    1    2    0    0  0.45142299516E+02 -0.64360744381E+03 -0.14566874021E+04  0.15951975867E+04  0.80304323150E+02 0.  0.
        254    2    1    2    0    0 -0.45142299516E+02  0.64360744381E+03 -0.18734073871E+04  0.21763557333E+04  0.90033364418E+03 0.  0.
         23    2    4    4    0    0 -0.36447743385E+03 -0.27327319714E+01 -0.73920049730E+03  0.82926121937E+03  0.91681661883E+02 0.  0.
         23    2    4    4    0    0  0.31933513434E+03  0.64634017578E+03 -0.11342068898E+04  0.13470945139E+04  0.92237788954E+02 0.  0.
          2    1    3    3  502    0 -0.76826167807E+01 -0.42652582435E+03 -0.93932430397E+03  0.10316556836E+04  0.00000000000E+00 0. -1.
         -1    1    3    3    0  502  0.52824916297E+02 -0.21708161946E+03 -0.51736309813E+03  0.56354190314E+03  0.00000000000E+00 0.  1.
         13    1    5    5    0    0 -0.27663893225E+03 -0.64683922177E+01 -0.46281891706E+03  0.53923305622E+03  0.00000000000E+00 0. -1.
        -13    1    5    5    0    0 -0.87838501607E+02  0.37356602462E+01 -0.27638158025E+03  0.29002816315E+03  0.00000000000E+00 0.  1.
          3    1    6    6  503    0  0.30125566064E+03  0.61902939347E+03 -0.11107931587E+04  0.13068335030E+04  0.00000000000E+00 0. -1.
         -3    1    6    6    0  503  0.18079473694E+02  0.27310782310E+02 -0.23413731110E+02  0.40261010965E+02  0.00000000000E+00 0.  1.
<mgrwt>
<rscale>  0 0.17706166E+04</rscale>
<asrwt>0</asrwt>
<pdfrwt beam="1">  1        2 0.54628061E+00 0.17706166E+04</pdfrwt>
<pdfrwt beam="2">  1       -1 0.33958349E-01 0.17706166E+04</pdfrwt>
<totfact> 0.66676514E+00</totfact>
</mgrwt>
</event>
<event>
12    7  0.2466188E-007  0.2407038E+04  0.7818608E-02  0.8436873E-01
          2   -1    0    0  501    0  0.00000000000E+00  0.00000000000E+00  0.18557865046E+04  0.18557865046E+04  0.00000000000E+00 0. -1.
         -1   -1    0    0    0  501 -0.00000000000E+00 -0.00000000000E+00 -0.78050927480E+03  0.78050927480E+03  0.00000000000E+00 0.  1.
         24    2    1    2    0    0  0.63176884505E+03  0.80581711252E+03  0.61752641928E+03  0.11983820461E+04  0.79420133457E+02 0.  0.
        254    2    1    2    0    0 -0.63176884505E+03 -0.80581711252E+03  0.45775081048E+03  0.14379137332E+04  0.89977053034E+03 0.  0.
         23    2    4    4    0    0 -0.81549772202E+03 -0.41552647783E+03  0.28576186733E+03  0.96319334202E+03  0.91557527821E+02 0.  0.
         23    2    4    4    0    0  0.18372887696E+03 -0.39029063469E+03  0.17198894316E+03  0.47472039120E+03  0.98469149961E+02 0.  0.
          4    1    3    3  502    0  0.19287875499E+03  0.28006193630E+03  0.16920447797E+03  0.37982503558E+03  0.00000000000E+00 0. -1.
         -3    1    3    3    0  502  0.43889009006E+03  0.52575517623E+03  0.44832194131E+03  0.81855701056E+03  0.00000000000E+00 0.  1.
         13    1    5    5    0    0 -0.59332638465E+03 -0.30402040862E+03  0.16483468661E+03  0.68675693042E+03  0.00000000000E+00 0.  1.
        -13    1    5    5    0    0 -0.22217133737E+03 -0.11150606921E+03  0.12092718072E+03  0.27643641160E+03  0.00000000000E+00 0. -1.
          1    1    6    6  503    0 -0.77614186488E+01 -0.44439624589E+02  0.32132445608E+02  0.55386044395E+02  0.00000000000E+00 0. -1.
         -1    1    6    6    0  503  0.19149029561E+03 -0.34585101010E+03  0.13985649755E+03  0.41933434680E+03  0.00000000000E+00 0.  1.
<mgrwt>
<rscale>  0 0.24070385E+04</rscale>
<asrwt>0</asrwt>
<pdfrwt beam="1">  1        2 0.28550561E+00 0.24070385E+04</pdfrwt>
<pdfrwt beam="2">  1       -1 0.12007835E+00 0.24070385E+04</pdfrwt>
<totfact> 0.50802352E+00</totfact>
</mgrwt>
</event>
<event>
12    7  0.2466188E-007  0.2399575E+04  0.7818608E-02  0.8439663E-01
         -1   -1    0    0    0  501 -0.00000000000E+00  0.00000000000E+00  0.57533850852E+03  0.57533850852E+03  0.00000000000E+00 0.  1.
          2   -1    0    0  501    0  0.00000000000E+00 -0.00000000000E+00 -0.25019874283E+04  0.25019874283E+04  0.00000000000E+00 0. -1.
         24    2    1    2    0    0  0.30933579647E+03 -0.86343667029E+03 -0.14283409751E+04  0.16993573871E+04  0.80287418832E+02 0.  0.
        254    2    1    2    0    0 -0.30933579647E+03  0.86343667029E+03 -0.49830794468E+03  0.13779685496E+04  0.89959713067E+03 0.  0.
         23    2    4    4    0    0  0.71353351427E+02  0.48501906960E+03 -0.64369820852E+03  0.81434774879E+03  0.92087315443E+02 0.  0.
         23    2    4    4    0    0 -0.38068914789E+03  0.37841760069E+03  0.14539026384E+03  0.56362080086E+03  0.91684079891E+02 0.  0.
          4    1    3    3  502    0  0.15986846644E+03 -0.42155345611E+03 -0.77456621166E+03  0.89622433529E+03  0.00000000000E+00 0. -1.
         -3    1    3    3    0  502  0.14946733003E+03 -0.44188321418E+03 -0.65377476339E+03  0.80313305185E+03  0.00000000000E+00 0.  1.
         13    1    5    5    0    0  0.70510146000E+02  0.28173354535E+03 -0.43469783951E+03  0.52278837300E+03  0.00000000000E+00 0.  1.
        -13    1    5    5    0    0  0.84320542708E+00  0.20328552425E+03 -0.20900036901E+03  0.29155937579E+03  0.00000000000E+00 0. -1.
          2    1    6    6  503    0 -0.13475358684E+03  0.80645823148E+02  0.24515181278E+02  0.15894424202E+03  0.00000000000E+00 0. -1.
         -2    1    6    6    0  503 -0.24593556105E+03  0.29777177754E+03  0.12087508256E+03  0.40467655884E+03  0.00000000000E+00 0.  1.
<mgrwt>
<rscale>  0 0.23995747E+04</rscale>
<asrwt>0</asrwt>
<pdfrwt beam="1">  1        2 0.38492114E+00 0.23995747E+04</pdfrwt>
<pdfrwt beam="2">  1       -1 0.88513617E-01 0.23995747E+04</pdfrwt>
<totfact> 0.44501405E+00</totfact>
</mgrwt>
</event>
<event>
12    7  0.2466188E-007  0.2262681E+04  0.7818608E-02  0.8492783E-01
          2   -1    0    0  501    0  0.00000000000E+00  0.00000000000E+00  0.31114882807E+04  0.31114882807E+04  0.00000000000E+00 0. -1.
         -1   -1    0    0    0  501 -0.00000000000E+00 -0.00000000000E+00 -0.41135654447E+03  0.41135654447E+03  0.00000000000E+00 0.  1.
         24    2    1    2    0    0 -0.12193994758E+03  0.86731167154E+03  0.17124406220E+04  0.19250513442E+04  0.79189062807E+02 0.  0.
        254    2    1    2    0    0  0.12193994758E+03 -0.86731167154E+03  0.98769111423E+03  0.15977934809E+04  0.90017297458E+03 0.  0.
         23    2    4    4    0    0  0.28743306973E+03 -0.98765625435E+03  0.79490467157E+03  0.13027347287E+04  0.84626769755E+02 0.  0.
         23    2    4    4    0    0 -0.16549312214E+03  0.12034458281E+03  0.19278644266E+03  0.29505875223E+03  0.89567084949E+02 0.  0.
          4    1    3    3  502    0  0.51456041339E+01  0.17426688632E+03  0.31509225510E+03  0.36010908644E+03  0.00000000000E+00 0. -1.
         -3    1    3    3    0  502 -0.12708555172E+03  0.69304478522E+03  0.13973483669E+04  0.15649422578E+04  0.00000000000E+00 0.  1.
         13    1    5    5    0    0  0.22336896867E+02 -0.69623971785E+02  0.86361520917E+02  0.11315806071E+03  0.00000000000E+00 0.  1.
        -13    1    5    5    0    0  0.26509617286E+03 -0.91803228256E+03  0.70854315065E+03  0.11895766680E+04  0.00000000000E+00 0. -1.
          1    1    6    6  503    0 -0.17217478632E+03  0.11588458755E+03  0.16211511864E+03  0.26335281728E+03  0.00000000000E+00 0. -1.
         -1    1    6    6    0  503  0.66816641788E+01  0.44599952505E+01  0.30671324020E+02  0.31705934949E+02  0.00000000000E+00 0.  1.
<mgrwt>
<rscale>  0 0.22626808E+04</rscale>
<asrwt>0</asrwt>
<pdfrwt beam="1">  1        2 0.47869049E+00 0.22626808E+04</pdfrwt>
<pdfrwt beam="2">  1       -1 0.63285624E-01 0.22626808E+04</pdfrwt>
<totfact> 0.38816444E+00</totfact>
</mgrwt>
</event>
<event>
12    7  0.2466188E-007  0.1964731E+04  0.7818608E-02  0.8623290E-01
          2   -1    0    0  501    0  0.00000000000E+00  0.00000000000E+00  0.41406310914E+04  0.41406310914E+04  0.00000000000E+00 0. -1.
         -1   -1    0    0    0  501 -0.00000000000E+00 -0.00000000000E+00 -0.23306636136E+03  0.23306636136E+03  0.00000000000E+00 0.  1.
         24    2    1    2    0    0 -0.67491568005E+03 -0.37705181997E+03  0.15716190153E+04  0.17535903013E+04  0.86100902131E+02 0.  0.
        254    2    1    2    0    0  0.67491568005E+03  0.37705181997E+03  0.23359457147E+04  0.26201071514E+04  0.90035540368E+03 0.  0.
         23    2    4    4    0    0 -0.86717185866E+02 -0.17335351951E+03  0.24021151812E+03  0.32192121617E+03  0.91435129664E+02 0.  0.
         23    2    4    4    0    0  0.76163286591E+03  0.55040533948E+03  0.20957341966E+04  0.22981859353E+04  0.80784343844E+02 0.  0.
          4    1    3    3  502    0 -0.29327640315E+03 -0.11649536881E+03  0.65775762499E+03  0.72953910987E+03  0.00000000000E+00 0. -1.
         -3    1    3    3    0  502 -0.38163927689E+03 -0.26055645116E+03  0.91386139035E+03  0.10240511914E+04  0.00000000000E+00 0.  1.
         13    1    5    5    0    0 -0.16327778761E+02 -0.12733145503E+03  0.12409278874E+03  0.17854667741E+03  0.00000000000E+00 0. -1.
        -13    1    5    5    0    0 -0.70389407105E+02 -0.46022064476E+02  0.11611872938E+03  0.14337453876E+03  0.00000000000E+00 0.  1.
          4    1    6    6  503    0  0.11769711386E+03  0.12313651806E+03  0.37152451398E+03  0.40871221804E+03  0.00000000000E+00 0. -1.
         -4    1    6    6    0  503  0.64393575206E+03  0.42726882142E+03  0.17242096826E+04  0.18894737172E+04  0.00000000000E+00 0.  1.
<mgrwt>
<rscale>  0 0.19647308E+04</rscale>
<asrwt>0</asrwt>
<pdfrwt beam="1">  1        2 0.63702011E+00 0.19647308E+04</pdfrwt>
<pdfrwt beam="2">  1       -1 0.35856366E-01 0.19647308E+04</pdfrwt>
<totfact> 0.20872105E+00</totfact>
</mgrwt>
</event>
<event>
12    7  0.2466188E-007  0.1440313E+04  0.7818608E-02  0.8925144E-01
          2   -1    0    0  501    0  0.00000000000E+00  0.00000000000E+00  0.12386787505E+04  0.12386787505E+04  0.00000000000E+00 0. -1.
         -1   -1    0    0    0  501 -0.00000000000E+00 -0.00000000000E+00 -0.41869213540E+03  0.41869213540E+03  0.00000000000E+00 0.  1.
         24    2    1    2    0    0  0.96385130374E+01 -0.41199191929E+03  0.40657799620E+03  0.58437575609E+03  0.79744058188E+02 0.  0.
        254    2    1    2    0    0 -0.96385130374E+01  0.41199191929E+03  0.41340861889E+03  0.10729951298E+04  0.90032306418E+03 0.  0.
         23    2    4    4    0    0 -0.12505772782E+03  0.73215734085E+02  0.62469719902E+03  0.64751272683E+03  0.89588849440E+02 0.  0.
         23    2    4    4    0    0  0.11541921478E+03  0.33877618520E+03 -0.21128858013E+03  0.42548240296E+03  0.91112635418E+02 0.  0.
          2    1    3    3  502    0  0.40686054951E+02 -0.19567780488E+03  0.21771611628E+03  0.29554266304E+03  0.00000000000E+00 0. -1.
         -1    1    3    3    0  502 -0.31047541914E+02 -0.21631411441E+03  0.18886187993E+03  0.28883309305E+03  0.00000000000E+00 0.  1.
         13    1    5    5    0    0 -0.93596969085E+02  0.91651859111E+02  0.43315025691E+03  0.45252580143E+03  0.00000000000E+00 0. -1.
        -13    1    5    5    0    0 -0.31460758733E+02 -0.18436125026E+02  0.19154694211E+03  0.19498692540E+03  0.00000000000E+00 0.  1.
          1    1    6    6  503    0  0.15434915728E+02  0.74601062909E+00 -0.21437234609E+01  0.15600920026E+02  0.00000000000E+00 0. -1.
         -1    1    6    6    0  503  0.99984299052E+02  0.33803017458E+03 -0.20914485667E+03  0.40988148293E+03  0.00000000000E+00 0.  1.
<mgrwt>
<rscale>  0 0.14403125E+04</rscale>
<asrwt>0</asrwt>
<pdfrwt beam="1">  1        2 0.19056596E+00 0.14403125E+04</pdfrwt>
<pdfrwt beam="2">  1       -1 0.64414175E-01 0.14403125E+04</pdfrwt>
<totfact> 0.48572663E+01</totfact>
</mgrwt>
</event>
<event>
12    7  0.2466188E-007  0.1375914E+04  0.7818608E-02  0.8971440E-01
          2   -1    0    0  501    0  0.00000000000E+00  0.00000000000E+00  0.19470676729E+03  0.19470676729E+03  0.00000000000E+00 0. -1.
         -1   -1    0    0    0  501 -0.00000000000E+00 -0.00000000000E+00 -0.24307554935E+04  0.24307554935E+04  0.00000000000E+00 0.  1.
         24    2    1    2    0    0 -0.42855714939E+02  0.38067162475E+03 -0.72843269329E+03  0.82689440979E+03  0.79954225038E+02 0.  0.
        254    2    1    2    0    0  0.42855714939E+02 -0.38067162475E+03 -0.15076160330E+04  0.17985678510E+04  0.90288023224E+03 0.  0.
         23    2    4    4    0    0 -0.22494701192E+02 -0.54426421765E+03 -0.42189609666E+03  0.69496351755E+03  0.90820835495E+02 0.  0.
         23    2    4    4    0    0  0.65350416131E+02  0.16359259290E+03 -0.10857199363E+04  0.11036043335E+04  0.90119539905E+02 0.  0.
          2    1    3    3  502    0 -0.64962429901E+02  0.23903466813E+03 -0.47619746253E+03  0.53676970219E+03  0.00000000000E+00 0. -1.
         -1    1    3    3    0  502  0.22106714961E+02  0.14163695662E+03 -0.25223523076E+03  0.29012470760E+03  0.00000000000E+00 0.  1.
         13    1    5    5    0    0 -0.57068140924E+02 -0.31675691502E+03 -0.23521693136E+03  0.39864610962E+03  0.00000000000E+00 0. -1.
        -13    1    5    5    0    0  0.34573439733E+02 -0.22750730263E+03 -0.18667916530E+03  0.29631740793E+03  0.00000000000E+00 0.  1.
          3    1    6    6  503    0  0.63782033323E+02  0.46560968412E+02 -0.51355458746E+03  0.51959059446E+03  0.00000000000E+00 0. -1.
         -3    1    6    6    0  503  0.15683828080E+01  0.11703162449E+03 -0.57216534884E+03  0.58401373902E+03  0.00000000000E+00 0.  1.
<mgrwt>
<rscale>  0 0.13759136E+04</rscale>
<asrwt>0</asrwt>
<pdfrwt beam="1">  1        2 0.29954887E-01 0.13759136E+04</pdfrwt>
<pdfrwt beam="2">  1       -1 0.37396238E+00 0.13759136E+04</pdfrwt>
<totfact> 0.21618520E+00</totfact>
</mgrwt>
</event>
<event>
12    7  0.2466188E-007  0.1872624E+04  0.7818608E-02  0.8668604E-01
          2   -1    0    0  501    0  0.00000000000E+00  0.00000000000E+00  0.34710362981E+04  0.34710362981E+04  0.00000000000E+00 0. -1.
         -1   -1    0    0    0  501 -0.00000000000E+00 -0.00000000000E+00 -0.25257013762E+03  0.25257013762E+03  0.00000000000E+00 0.  1.
         24    2    1    2    0    0  0.39097135376E+03  0.53240290264E+03  0.18002197035E+04  0.19192114189E+04  0.79183581577E+02 0.  0.
        254    2    1    2    0    0 -0.39097135376E+03 -0.53240290264E+03  0.14182464570E+04  0.18043950168E+04  0.89894767010E+03 0.  0.
         23    2    4    4    0    0 -0.34590722364E+03 -0.56344475745E+03  0.39487010147E+03  0.77546877099E+03  0.91146122662E+02 0.  0.
         23    2    4    4    0    0 -0.45064130118E+02  0.31041854808E+02  0.10233763556E+04  0.10289262458E+04  0.91627952293E+02 0.  0.
          4    1    3    3  502    0  0.30276743088E+03  0.35711327117E+03  0.13118951206E+04  0.13929346047E+04  0.00000000000E+00 0. -1.
         -3    1    3    3    0  502  0.88203922874E+02  0.17528963147E+03  0.48832458289E+03  0.52627681420E+03  0.00000000000E+00 0.  1.
         13    1    5    5    0    0 -0.73712942261E+02 -0.13078127375E+03  0.13566284832E+03  0.20234067272E+03  0.00000000000E+00 0.  1.
        -13    1    5    5    0    0 -0.27219428138E+03 -0.43266348370E+03  0.25920725315E+03  0.57312809827E+03  0.00000000000E+00 0. -1.
          4    1    6    6  503    0 -0.78294336080E+01  0.31645336580E+02  0.88577791578E+03  0.88637759642E+03  0.00000000000E+00 0. -1.
         -4    1    6    6    0  503 -0.37234696510E+02 -0.60348177203E+00  0.13759843978E+03  0.14254864939E+03  0.00000000000E+00 0.  1.
<mgrwt>
<rscale>  0 0.18726240E+04</rscale>
<asrwt>0</asrwt>
<pdfrwt beam="1">  1        2 0.53400555E+00 0.18726240E+04</pdfrwt>
<pdfrwt beam="2">  1       -1 0.38856947E-01 0.18726240E+04</pdfrwt>
<totfact> 0.58853790E+00</totfact>
</mgrwt>
</event>
<event>
12    7  0.2466188E-007  0.6379375E+04  0.7818608E-02  0.7645064E-01
          2   -1    0    0  501    0  0.00000000000E+00  0.00000000000E+00  0.36615776646E+04  0.36615776646E+04  0.00000000000E+00 0. -1.
         -1   -1    0    0    0  501 -0.00000000000E+00 -0.00000000000E+00 -0.27786130525E+04  0.27786130525E+04  0.00000000000E+00 0.  1.
         24    2    1    2    0    0 -0.18488001066E+04  0.19369132164E+04 -0.11951822595E+04  0.29333233878E+04  0.78935553123E+02 0.  0.
        254    2    1    2    0    0  0.18488001066E+04 -0.19369132164E+04  0.20781468715E+04  0.35068673293E+04  0.89984965600E+03 0.  0.
         23    2    4    4    0    0  0.54787209151E+03 -0.43965460287E+03  0.10615989570E+04  0.12761589443E+04  0.90162670859E+02 0.  0.
         23    2    4    4    0    0  0.13009280151E+04 -0.14972586136E+04  0.10165479146E+04  0.22307083850E+04  0.92158450013E+02 0.  0.
          4    1    3    3  502    0 -0.84004367940E+03  0.90403747565E+03 -0.51174119841E+03  0.13359776176E+04  0.00000000000E+00 0. -1.
         -3    1    3    3    0  502 -0.10087564272E+04  0.10328757408E+04 -0.68344106109E+03  0.15973457701E+04  0.00000000000E+00 0.  1.
         13    1    5    5    0    0  0.33439334992E+03 -0.21146483028E+03  0.58231306555E+03  0.70400624516E+03  0.00000000000E+00 0. -1.
        -13    1    5    5    0    0  0.21347874158E+03 -0.22818977259E+03  0.47928589141E+03  0.57215269913E+03  0.00000000000E+00 0.  1.
          4    1    6    6  503    0  0.40557952514E+03 -0.53171353543E+03  0.35265055247E+03  0.75602675028E+03  0.00000000000E+00 0. -1.
         -4    1    6    6    0  503  0.89534848996E+03 -0.96554507814E+03  0.66389736212E+03  0.14746816347E+04  0.00000000000E+00 0.  1.
<mgrwt>
<rscale>  0 0.63793754E+04</rscale>
<asrwt>0</asrwt>
<pdfrwt beam="1">  1        2 0.56331964E+00 0.63793754E+04</pdfrwt>
<pdfrwt beam="2">  1       -1 0.42747893E+00 0.63793754E+04</pdfrwt>
<totfact> 0.21439553E-03</totfact>
</mgrwt>
</event>
<event>
12    7  0.2466188E-007  0.2582418E+04  0.7818608E-02  0.8374198E-01
         -1   -1    0    0    0  501 -0.00000000000E+00  0.00000000000E+00  0.71526042445E+03  0.71526042445E+03  0.00000000000E+00 0.  1.
          2   -1    0    0  501    0  0.00000000000E+00 -0.00000000000E+00 -0.23309279365E+04  0.23309279365E+04  0.00000000000E+00 0. -1.
         24    2    1    2    0    0 -0.81958489636E+03  0.71416009046E+03 -0.10876204878E+04  0.15397500729E+04  0.78536133748E+02 0.  0.
        254    2    1    2    0    0  0.81958489636E+03 -0.71416009046E+03 -0.52804702424E+03  0.15064382880E+04  0.89932119888E+03 0.  0.
         23    2    4    4    0    0  0.64433116528E+03 -0.74671069053E+03 -0.72413213302E+03  0.12264743126E+04  0.84453464014E+02 0.  0.
         23    2    4    4    0    0  0.17525373108E+03  0.32550600070E+02  0.19608510878E+03  0.27996397542E+03  0.90316365205E+02 0.  0.
          4    1    3    3  502    0 -0.45666700588E+03  0.44873345260E+03 -0.63154318833E+03  0.89930710243E+03  0.00000000000E+00 0. -1.
         -3    1    3    3    0  502 -0.36291789048E+03  0.26542663785E+03 -0.45607729943E+03  0.64044297043E+03  0.00000000000E+00 0.  1.
         13    1    5    5    0    0  0.61989523105E+02 -0.64493411642E+02 -0.97403951987E+02  0.13224836854E+03  0.00000000000E+00 0.  1.
        -13    1    5    5    0    0  0.58234164217E+03 -0.68221727889E+03 -0.62672818103E+03  0.10942259441E+04  0.00000000000E+00 0. -1.
          2    1    6    6  503    0  0.40808508845E+02  0.47065779927E+02  0.82412620867E+02  0.10330712518E+03  0.00000000000E+00 0. -1.
         -2    1    6    6    0  503  0.13444522224E+03 -0.14515179857E+02  0.11367248791E+03  0.17665685024E+03  0.00000000000E+00 0.  1.
<mgrwt>
<rscale>  0 0.25824179E+04</rscale>
<asrwt>0</asrwt>
<pdfrwt beam="1">  1        2 0.35860430E+00 0.25824179E+04</pdfrwt>
<pdfrwt beam="2">  1       -1 0.11004006E+00 0.25824179E+04</pdfrwt>
<totfact> 0.33441129E+00</totfact>
</mgrwt>
</event>
<event>
12    7  0.2466188E-007  0.3486370E+04  0.7818608E-02  0.8117028E-01
         -3   -1    0    0    0  501 -0.00000000000E+00  0.00000000000E+00  0.18147580123E+04  0.18147580123E+04  0.00000000000E+00 0.  1.
          2   -1    0    0  501    0  0.00000000000E+00 -0.00000000000E+00 -0.16744352655E+04  0.16744352655E+04  0.00000000000E+00 0. -1.
         24    2    1    2    0    0  0.12521226343E+04 -0.99045008322E+03  0.37891759911E+03  0.16426756540E+04  0.77474503431E+02 0.  0.
        254    2    1    2    0    0 -0.12521226343E+04  0.99045008322E+03 -0.23859485234E+03  0.18465176238E+04  0.89660324146E+03 0.  0.
         23    2    4    4    0    0 -0.89371101968E+03  0.11193378779E+04 -0.13560594940E+03  0.14415960061E+04  0.90406856085E+02 0.  0.
         23    2    4    4    0    0 -0.35841161466E+03 -0.12888779466E+03 -0.10298890294E+03  0.40492161772E+03  0.91015675750E+02 0.  0.
          4    1    3    3  502    0  0.60913737478E+03 -0.51682458641E+03  0.16138816409E+03  0.81498597165E+03  0.00000000000E+00 0. -1.
         -3    1    3    3    0  502  0.64298525956E+03 -0.47362549680E+03  0.21752943502E+03  0.82768968239E+03  0.00000000000E+00 0.  1.
         13    1    5    5    0    0 -0.56159601899E+03  0.64551603990E+03 -0.10675678869E+03  0.86225173716E+03  0.00000000000E+00 0. -1.
        -13    1    5    5    0    0 -0.33211500069E+03  0.47382183798E+03 -0.28849160714E+02  0.57934426889E+03  0.00000000000E+00 0.  1.
          4    1    6    6  503    0 -0.70898953287E+02 -0.63704950265E+02 -0.10222155579E+02  0.95861748003E+02  0.00000000000E+00 0. -1.
         -4    1    6    6    0  503 -0.28751266138E+03 -0.65182844395E+02 -0.92766747358E+02  0.30905986972E+03  0.00000000000E+00 0.  1.
<mgrwt>
<rscale>  0 0.34863705E+04</rscale>
<asrwt>0</asrwt>
<pdfrwt beam="1">  1        2 0.25760543E+00 0.34863705E+04</pdfrwt>
<pdfrwt beam="2">  1       -3 0.27919354E+00 0.34863705E+04</pdfrwt>
<totfact> 0.26079483E-01</totfact>
</mgrwt>
</event>
<event>
12    7  0.2466188E-007  0.1705056E+04  0.7818608E-02  0.8758486E-01
          2   -1    0    0  501    0  0.00000000000E+00  0.00000000000E+00  0.85525072365E+03  0.85525072365E+03  0.00000000000E+00 0. -1.
         -1   -1    0    0    0  501 -0.00000000000E+00 -0.00000000000E+00 -0.84981434020E+03  0.84981434020E+03  0.00000000000E+00 0.  1.
         24    2    1    2    0    0 -0.40489839555E+03 -0.29223529629E+03  0.35570073366E+03  0.61830970927E+03  0.80247775895E+02 0.  0.
        254    2    1    2    0    0  0.40489839555E+03  0.29223529629E+03 -0.35026435022E+03  0.10867553546E+04  0.89944866811E+03 0.  0.
         23    2    4    4    0    0 -0.22080289618E+03  0.76413714346E+02  0.11111863137E+03  0.27438818144E+03  0.91370395522E+02 0.  0.
         23    2    4    4    0    0  0.62570129173E+03  0.21582158194E+03 -0.46138298158E+03  0.81236717313E+03  0.94789802139E+02 0.  0.
          4    1    3    3  502    0 -0.78011060781E+02 -0.54660102065E+02  0.10942649229E+03  0.14507794311E+03  0.00000000000E+00 0. -1.
         -3    1    3    3    0  502 -0.32688733477E+03 -0.23757519422E+03  0.24627424138E+03  0.47323176617E+03  0.00000000000E+00 0.  1.
         13    1    5    5    0    0 -0.15874339666E+03  0.96034742911E+02  0.76705125380E+02  0.20076307950E+03  0.00000000000E+00 0.  1.
        -13    1    5    5    0    0 -0.62059499513E+02 -0.19621028565E+02  0.34413505989E+02  0.73625101944E+02  0.00000000000E+00 0. -1.
          3    1    6    6  503    0  0.31966059124E+03  0.14320451557E+03 -0.19965459827E+03  0.40317785837E+03  0.00000000000E+00 0. -1.
         -3    1    6    6    0  503  0.30604070048E+03  0.72617066375E+02 -0.26172838331E+03  0.40918931476E+03  0.00000000000E+00 0.  1.
<mgrwt>
<rscale>  0 0.17050564E+04</rscale>
<asrwt>0</asrwt>
<pdfrwt beam="1">  1        2 0.13157703E+00 0.17050564E+04</pdfrwt>
<pdfrwt beam="2">  1       -1 0.13074067E+00 0.17050564E+04</pdfrwt>
<totfact> 0.17083394E+01</totfact>
</mgrwt>
</event>
<event>
12    7  0.2466188E-007  0.2612975E+04  0.7818608E-02  0.8363807E-01
         -1   -1    0    0    0  501 -0.00000000000E+00  0.00000000000E+00  0.15469906111E+04  0.15469906111E+04  0.00000000000E+00 0.  1.
          2   -1    0    0  501    0  0.00000000000E+00 -0.00000000000E+00 -0.11033742464E+04  0.11033742464E+04  0.00000000000E+00 0. -1.
         24    2    1    2    0    0 -0.82227528903E+03 -0.77472787585E+03 -0.22197573671E+02  0.11328481742E+04  0.80698952763E+02 0.  0.
        254    2    1    2    0    0  0.82227528903E+03  0.77472787585E+03  0.46581393842E+03  0.15175166833E+04  0.89974125513E+03 0.  0.
         23    2    4    4    0    0  0.28003605209E+03  0.73270593873E+03 -0.94715355525E+01  0.78977946136E+03  0.91562571404E+02 0.  0.
         23    2    4    4    0    0  0.54223923694E+03  0.42021937122E+02  0.47528547397E+03  0.72773722190E+03  0.88971619604E+02 0.  0.
          2    1    3    3  502    0 -0.74641605539E+03 -0.66799797126E+03 -0.18061077735E+02  0.10018405162E+04  0.00000000000E+00 0. -1.
         -1    1    3    3    0  502 -0.75859233637E+02 -0.10672990459E+03 -0.41364959352E+01  0.13100765803E+03  0.00000000000E+00 0.  1.
         13    1    5    5    0    0  0.16059172139E+03  0.40094412761E+03  0.39824025049E+02  0.43374168282E+03  0.00000000000E+00 0. -1.
        -13    1    5    5    0    0  0.11944433070E+03  0.33176181112E+03 -0.49295560602E+02  0.35603777855E+03  0.00000000000E+00 0.  1.
          1    1    6    6  503    0  0.46060348707E+03  0.49415036122E+02  0.36203262154E+03  0.58793285089E+03  0.00000000000E+00 0. -1.
         -1    1    6    6    0  503  0.81635749864E+02 -0.73930989992E+01  0.11325285243E+03  0.13980437101E+03  0.00000000000E+00 0.  1.
<mgrwt>
<rscale>  0 0.26129750E+04</rscale>
<asrwt>0</asrwt>
<pdfrwt beam="1">  1        2 0.16974988E+00 0.26129750E+04</pdfrwt>
<pdfrwt beam="2">  1       -1 0.23799856E+00 0.26129750E+04</pdfrwt>
<totfact> 0.18247996E+00</totfact>
</mgrwt>
</event>
<event>
12    7  0.2466188E-007  0.2090047E+04  0.7818608E-02  0.8565640E-01
          2   -1    0    0  501    0  0.00000000000E+00  0.00000000000E+00  0.13196672341E+04  0.13196672341E+04  0.00000000000E+00 0. -1.
         -1   -1    0    0    0  501 -0.00000000000E+00 -0.00000000000E+00 -0.82753769288E+03  0.82753769288E+03  0.00000000000E+00 0.  1.
         24    2    1    2    0    0 -0.32263044334E+03  0.51688782215E+03 -0.40617259775E+03  0.73666778643E+03  0.80248518618E+02 0.  0.
        254    2    1    2    0    0  0.32263044334E+03 -0.51688782215E+03  0.89830213902E+03  0.14105371406E+04  0.90078014431E+03 0.  0.
         23    2    4    4    0    0  0.45064802931E+03 -0.69070892126E+03  0.56692509711E+03  0.10046617535E+04  0.88197011840E+02 0.  0.
         23    2    4    4    0    0 -0.12801758597E+03  0.17382109912E+03  0.33137704190E+03  0.40587538713E+03  0.91223950602E+02 0.  0.
          4    1    3    3  502    0 -0.93948107855E+02  0.22111314935E+03 -0.14502306521E+03  0.28062245317E+03  0.00000000000E+00 0. -1.
         -3    1    3    3    0  502 -0.22868233548E+03  0.29577467280E+03 -0.26114953254E+03  0.45604533325E+03  0.00000000000E+00 0.  1.
         13    1    5    5    0    0  0.12199927545E+02 -0.17545595449E+01  0.12821515527E+02  0.17785049106E+02  0.00000000000E+00 0. -1.
        -13    1    5    5    0    0  0.43844810177E+03 -0.68895436172E+03  0.55410358159E+03  0.98687670436E+03  0.00000000000E+00 0.  1.
          2    1    6    6  503    0 -0.12677572554E+03  0.13610125171E+03  0.21898044453E+03  0.28731179995E+03  0.00000000000E+00 0.  1.
         -2    1    6    6    0  503 -0.12418604390E+01  0.37719847409E+02  0.11239659737E+03  0.11856358719E+03  0.00000000000E+00 0. -1.
<mgrwt>
<rscale>  0 0.20900473E+04</rscale>
<asrwt>0</asrwt>
<pdfrwt beam="1">  1        2 0.20302573E+00 0.20900473E+04</pdfrwt>
<pdfrwt beam="2">  1       -1 0.12731349E+00 0.20900473E+04</pdfrwt>
<totfact> 0.90479146E+00</totfact>
</mgrwt>
</event>
<event>
12    7  0.2466188E-007  0.1915743E+04  0.7818608E-02  0.8647059E-01
          2   -1    0    0  501    0  0.00000000000E+00  0.00000000000E+00  0.12251246657E+04  0.12251246657E+04  0.00000000000E+00 0. -1.
         -1   -1    0    0    0  501 -0.00000000000E+00 -0.00000000000E+00 -0.74891825462E+03  0.74891825462E+03  0.00000000000E+00 0.  1.
         24    2    1    2    0    0 -0.15710310625E+03  0.53443773022E+03 -0.32190138424E+03  0.64826264055E+03  0.79491361052E+02 0.  0.
        254    2    1    2    0    0  0.15710310625E+03 -0.53443773022E+03  0.79810779529E+03  0.13257802797E+04  0.90022898406E+03 0.  0.
         23    2    4    4    0    0  0.14916669527E+02  0.23383313149E+03  0.90153124610E+02  0.26754438660E+03  0.92476875555E+02 0.  0.
         23    2    4    4    0    0  0.14218643672E+03 -0.76827086171E+03  0.70795467068E+03  0.10582358931E+04  0.90588575513E+02 0.  0.
          2    1    3    3  502    0 -0.32375138593E+02  0.68058911638E+02 -0.16965249473E+02  0.77252732910E+02  0.00000000000E+00 0. -1.
         -1    1    3    3    0  502 -0.12472796766E+03  0.46637881858E+03 -0.30493613477E+03  0.57100990764E+03  0.00000000000E+00 0.  1.
         13    1    5    5    0    0 -0.52262429213E+01 -0.49032635479E+01 -0.60380631747E+01  0.93709025923E+01  0.00000000000E+00 0.  1.
        -13    1    5    5    0    0  0.20142912448E+02  0.23873639504E+03  0.96191187785E+02  0.25817348401E+03  0.00000000000E+00 0. -1.
          1    1    6    6  503    0  0.11236653036E+03 -0.49937136851E+03  0.41036204765E+03  0.65604497634E+03  0.00000000000E+00 0. -1.
         -1    1    6    6    0  503  0.29819906368E+02 -0.26889949321E+03  0.29759262303E+03  0.40219091678E+03  0.00000000000E+00 0.  1.
<mgrwt>
<rscale>  0 0.19157434E+04</rscale>
<asrwt>0</asrwt>
<pdfrwt beam="1">  1        2 0.18848072E+00 0.19157434E+04</pdfrwt>
<pdfrwt beam="2">  1       -1 0.11521819E+00 0.19157434E+04</pdfrwt>
<totfact> 0.13335208E+01</totfact>
</mgrwt>
</event>
<event>
12    7  0.2466188E-007  0.1996459E+04  0.7818608E-02  0.8608278E-01
         -1   -1    0    0    0  501 -0.00000000000E+00  0.00000000000E+00  0.47069782330E+03  0.47069782330E+03  0.00000000000E+00 0.  1.
          2   -1    0    0  501    0  0.00000000000E+00 -0.00000000000E+00 -0.21169881267E+04  0.21169881267E+04  0.00000000000E+00 0. -1.
         24    2    1    2    0    0 -0.16632342288E+03  0.76395333478E+03 -0.48821362763E+03  0.92528094364E+03  0.80647998956E+02 0.  0.
        254    2    1    2    0    0  0.16632342288E+03 -0.76395333478E+03 -0.11580766758E+04  0.16624050064E+04  0.90064456891E+03 0.  0.
         23    2    4    4    0    0  0.27202341794E+03  0.98172399650E+02 -0.18440538767E+03  0.35449594341E+03  0.89596132327E+02 0.  0.
         23    2    4    4    0    0 -0.10569999506E+03 -0.86212573443E+03 -0.97367128814E+03  0.13079090630E+04  0.90316492242E+02 0.  0.
          2    1    3    3  502    0 -0.99290442295E+02  0.45093705556E+03 -0.33453444609E+03  0.57018954360E+03  0.00000000000E+00 0. -1.
         -1    1    3    3    0  502 -0.67032980590E+02  0.31301627922E+03 -0.15367918154E+03  0.35509140004E+03  0.00000000000E+00 0.  1.
         13    1    5    5    0    0  0.24182034342E+03  0.61118585445E+02 -0.17763825198E+03  0.30621546098E+03  0.00000000000E+00 0. -1.
        -13    1    5    5    0    0  0.30203074521E+02  0.37053814205E+02 -0.67671356937E+01  0.48280482424E+02  0.00000000000E+00 0.  1.
          1    1    6    6  503    0 -0.34616801319E+02 -0.14353519587E+03 -0.12372283613E+03  0.19263440909E+03  0.00000000000E+00 0. -1.
         -1    1    6    6    0  503 -0.71083193738E+02 -0.71859053856E+03 -0.84994845201E+03  0.11152746539E+04  0.00000000000E+00 0.  1.
<mgrwt>
<rscale>  0 0.19964586E+04</rscale>
<asrwt>0</asrwt>
<pdfrwt beam="1">  1        2 0.32569048E+00 0.19964586E+04</pdfrwt>
<pdfrwt beam="2">  1       -1 0.72415050E-01 0.19964586E+04</pdfrwt>
<totfact> 0.11699502E+01</totfact>
</mgrwt>
</event>
<event>
12    7  0.2466188E-007  0.3753786E+04  0.7818608E-02  0.8056146E-01
          2   -1    0    0  501    0  0.00000000000E+00  0.00000000000E+00  0.21775014083E+04  0.21775014083E+04  0.00000000000E+00 0. -1.
         -1   -1    0    0    0  501 -0.00000000000E+00 -0.00000000000E+00 -0.16177837837E+04  0.16177837837E+04  0.00000000000E+00 0.  1.
         24    2    1    2    0    0  0.12666047850E+04 -0.11609187736E+04  0.68707153740E+03  0.18521658763E+04  0.80193861218E+02 0.  0.
        254    2    1    2    0    0 -0.12666047850E+04  0.11609187736E+04 -0.12735391276E+03  0.19431193158E+04  0.89859533491E+03 0.  0.
         23    2    4    4    0    0 -0.10680923142E+03  0.12614476596E+03  0.27556837118E+03  0.33487826767E+03  0.94259286370E+02 0.  0.
         23    2    4    4    0    0 -0.11597955536E+04  0.10347740077E+04 -0.40292228394E+03  0.16082410481E+04  0.90608658020E+02 0.  0.
          4    1    3    3  502    0  0.74989144612E+03 -0.72848148721E+03  0.44437562024E+03  0.11359983055E+04  0.00000000000E+00 0. -1.
         -3    1    3    3    0  502  0.51671333886E+03 -0.43243728641E+03  0.24269591716E+03  0.71616757078E+03  0.00000000000E+00 0.  1.
         13    1    5    5    0    0 -0.43247340843E+02  0.84650403686E+02  0.22337089467E+03  0.24275621500E+03  0.00000000000E+00 0. -1.
        -13    1    5    5    0    0 -0.63561890580E+02  0.41494362271E+02  0.52197476507E+02  0.92122052669E+02  0.00000000000E+00 0.  1.
          1    1    6    6  503    0 -0.38213657266E+03  0.37359048596E+03 -0.10195995033E+03  0.54405334558E+03  0.00000000000E+00 0. -1.
         -1    1    6    6    0  503 -0.77765898090E+03  0.66118352170E+03 -0.30096233361E+03  0.10641877025E+04  0.00000000000E+00 0.  1.
<mgrwt>
<rscale>  0 0.37537855E+04</rscale>
<asrwt>0</asrwt>
<pdfrwt beam="1">  1        2 0.33500022E+00 0.37537855E+04</pdfrwt>
<pdfrwt beam="2">  1       -1 0.24888981E+00 0.37537855E+04</pdfrwt>
<totfact> 0.34498022E-01</totfact>
</mgrwt>
</event>
<event>
12    7  0.2466188E-007  0.2747616E+04  0.7818608E-02  0.8319719E-01
          2   -1    0    0  501    0  0.00000000000E+00  0.00000000000E+00  0.26087561512E+04  0.26087561512E+04  0.00000000000E+00 0. -1.
         -1   -1    0    0    0  501 -0.00000000000E+00 -0.00000000000E+00 -0.72346667815E+03  0.72346667815E+03  0.00000000000E+00 0.  1.
         24    2    1    2    0    0  0.11777441139E+04 -0.29990049936E+03  0.10252621500E+04  0.15920111965E+04  0.79471166303E+02 0.  0.
        254    2    1    2    0    0 -0.11777441139E+04  0.29990049936E+03  0.86002732307E+03  0.17402116329E+04  0.90092620311E+03 0.  0.
         23    2    4    4    0    0 -0.22356102898E+03  0.38478385897E+03  0.78162486464E+01  0.45483899494E+03  0.93697736221E+02 0.  0.
         23    2    4    4    0    0 -0.95418308490E+03 -0.84883359608E+02  0.85221107443E+03  0.12853726379E+04  0.90821576293E+02 0.  0.
          4    1    3    3  502    0  0.52480195614E+03 -0.13709242419E+03  0.50926548407E+03  0.74401798312E+03  0.00000000000E+00 0. -1.
         -3    1    3    3    0  502  0.65294215773E+03 -0.16280807517E+03  0.51599666590E+03  0.84799321336E+03  0.00000000000E+00 0.  1.
         13    1    5    5    0    0 -0.28353156383E+02  0.73264838592E+02  0.35421679959E+02  0.86176176882E+02  0.00000000000E+00 0.  1.
        -13    1    5    5    0    0 -0.19520787259E+03  0.31151902038E+03 -0.27605431313E+02  0.36866281806E+03  0.00000000000E+00 0. -1.
          2    1    6    6  503    0 -0.86234431289E+03 -0.76330172399E+02  0.80317246129E+03  0.11809106705E+04  0.00000000000E+00 0. -1.
         -2    1    6    6    0  503 -0.91838772005E+02 -0.85531872091E+01  0.49038613139E+02  0.10446196740E+03  0.00000000000E+00 0.  1.
<mgrwt>
<rscale>  0 0.27476158E+04</rscale>
<asrwt>0</asrwt>
<pdfrwt beam="1">  1        2 0.40134710E+00 0.27476158E+04</pdfrwt>
<pdfrwt beam="2">  1       -1 0.11130257E+00 0.27476158E+04</pdfrwt>
<totfact> 0.22167289E+00</totfact>
</mgrwt>
</event>
<event>
12    7  0.2466188E-007  0.1532790E+04  0.7818608E-02  0.8862936E-01
          2   -1    0    0  501    0  0.00000000000E+00  0.00000000000E+00  0.32619781720E+04  0.32619781720E+04  0.00000000000E+00 0. -1.
         -1   -1    0    0    0  501 -0.00000000000E+00 -0.00000000000E+00 -0.18006291850E+03  0.18006291850E+03  0.00000000000E+00 0.  1.
         24    2    1    2    0    0  0.23980178675E+03 -0.38774935575E+03  0.55468321325E+03  0.72255557340E+03  0.80985367675E+02 0.  0.
        254    2    1    2    0    0 -0.23980178675E+03  0.38774935575E+03  0.25272320403E+04  0.27194855171E+04  0.89489956569E+03 0.  0.
         23    2    4    4    0    0 -0.30051909520E+02  0.18004141912E+02  0.21252456007E+04  0.21274622452E+04  0.90550952589E+02 0.  0.
         23    2    4    4    0    0 -0.20974987723E+03  0.36974521384E+03  0.40198643959E+03  0.59202327195E+03  0.90509241334E+02 0.  0.
          4    1    3    3  502    0  0.10715189264E+03 -0.12824021313E+03  0.15526302799E+03  0.22810893937E+03  0.00000000000E+00 0. -1.
         -3    1    3    3    0  502  0.13264989411E+03 -0.25950914263E+03  0.39942018526E+03  0.49444663403E+03  0.00000000000E+00 0.  1.
         13    1    5    5    0    0 -0.52550034344E+02  0.19880359313E+02  0.19445833928E+04  0.19453948972E+04  0.00000000000E+00 0.  1.
        -13    1    5    5    0    0  0.22498124824E+02 -0.18762174013E+01  0.18066220793E+03  0.18206734794E+03  0.00000000000E+00 0. -1.
          3    1    6    6  503    0 -0.12457604989E+03  0.14895966950E+03  0.22036768586E+03  0.29371770854E+03  0.00000000000E+00 0. -1.
         -3    1    6    6    0  503 -0.85173827348E+02  0.22078554434E+03  0.18161875373E+03  0.29830556341E+03  0.00000000000E+00 0.  1.
<mgrwt>
<rscale>  0 0.15327900E+04</rscale>
<asrwt>0</asrwt>
<pdfrwt beam="1">  1        2 0.50184275E+00 0.15327900E+04</pdfrwt>
<pdfrwt beam="2">  1       -1 0.27701990E-01 0.15327900E+04</pdfrwt>
<totfact> 0.15351021E+01</totfact>
</mgrwt>
</event>
<event>
12    7  0.2466188E-007  0.1730340E+04  0.7818608E-02  0.8744247E-01
         -1   -1    0    0    0  501 -0.00000000000E+00  0.00000000000E+00  0.27574544022E+03  0.27574544022E+03  0.00000000000E+00 0.  1.
          2   -1    0    0  501    0  0.00000000000E+00 -0.00000000000E+00 -0.27145283277E+04  0.27145283277E+04  0.00000000000E+00 0. -1.
         24    2    1    2    0    0 -0.56896140910E+03 -0.25224432128E+03 -0.10441874683E+04  0.12182534911E+04  0.80435172412E+02 0.  0.
        254    2    1    2    0    0  0.56896140910E+03  0.25224432128E+03 -0.13945954191E+04  0.17720202767E+04  0.89878540016E+03 0.  0.
         23    2    4    4    0    0  0.43612911343E+03  0.54897332816E+03 -0.11695055340E+04  0.13665931526E+04  0.90847851361E+02 0.  0.
         23    2    4    4    0    0  0.13283229567E+03 -0.29672900688E+03 -0.22508988515E+03  0.40542712416E+03  0.89516335457E+02 0.  0.
          2    1    3    3  502    0 -0.36879672395E+03 -0.15800369113E+03 -0.74476872001E+03  0.84596491435E+03  0.00000000000E+00 0. -1.
         -1    1    3    3    0  502 -0.20016468515E+03 -0.94240630148E+02 -0.29941874833E+03  0.37228857678E+03  0.00000000000E+00 0.  1.
         13    1    5    5    0    0  0.41533212002E+03  0.47942918634E+03 -0.10427223319E+04  0.12205011167E+04  0.00000000000E+00 0. -1.
        -13    1    5    5    0    0  0.20796993407E+02  0.69544141829E+02 -0.12678320211E+03  0.14609203584E+03  0.00000000000E+00 0.  1.
          3    1    6    6  503    0  0.14514743124E+03 -0.25460967636E+03 -0.19046791677E+03  0.34953095916E+03  0.00000000000E+00 0. -1.
         -3    1    6    6    0  503 -0.12315135573E+02 -0.42119330523E+02 -0.34621968376E+02  0.55896165004E+02  0.00000000000E+00 0.  1.
<mgrwt>
<rscale>  0 0.17303396E+04</rscale>
<asrwt>0</asrwt>
<pdfrwt beam="1">  1        2 0.41761972E+00 0.17303396E+04</pdfrwt>
<pdfrwt beam="2">  1       -1 0.42422377E-01 0.17303396E+04</pdfrwt>
<totfact> 0.15417568E+01</totfact>
</mgrwt>
</event>
<event>
12    7  0.2475972E-007  0.1875225E+04  0.7818608E-02  0.8667288E-01
          2   -1    0    0  501    0  0.00000000000E+00  0.00000000000E+00  0.83965772828E+03  0.83965772828E+03  0.00000000000E+00 0. -1.
         -1   -1    0    0    0  501 -0.00000000000E+00 -0.00000000000E+00 -0.10469949371E+04  0.10469949371E+04  0.00000000000E+00 0.  1.
         24    2    1    2    0    0  0.79890502426E+02 -0.71393884039E+03 -0.33719630669E+02  0.72379015993E+03  0.81510869922E+02 0.  0.
        254    2    1    2    0    0 -0.79890502426E+02  0.71393884039E+03 -0.17361757816E+03  0.11628625055E+04  0.89778337196E+03 0.  0.
         23    2    4    4    0    0  0.28737269830E+03  0.71008991241E+03 -0.11841407051E+03  0.78010329350E+03  0.87911916238E+02 0.  0.
         23    2    4    4    0    0 -0.36726320072E+03  0.38489279861E+01 -0.55203507652E+02  0.38275921196E+03  0.92520885380E+02 0.  0.
          4    1    3    3  502    0  0.73638163927E+01 -0.29998901793E+03  0.16570126565E+02  0.30053652984E+03  0.00000000000E+00 0. -1.
         -3    1    3    3    0  502  0.72526686033E+02 -0.41394982246E+03 -0.50289757234E+02  0.42325363009E+03  0.00000000000E+00 0.  1.
         13    1    5    5    0    0  0.67566612321E+02  0.11608272470E+03 -0.48854291094E+02  0.14292371334E+03  0.00000000000E+00 0.  1.
        -13    1    5    5    0    0  0.21980608598E+03  0.59400718770E+03 -0.69559779411E+02  0.63717958017E+03  0.00000000000E+00 0. -1.
          1    1    6    6  503    0 -0.34745750716E+03 -0.32069266223E+00 -0.73872803940E+02  0.35522389177E+03  0.00000000000E+00 0. -1.
         -1    1    6    6    0  503 -0.19805693566E+02  0.41696206483E+01  0.18669296288E+02  0.27535320189E+02  0.00000000000E+00 0.  1.
<mgrwt>
<rscale>  0 0.18752252E+04</rscale>
<asrwt>0</asrwt>
<pdfrwt beam="1">  1        2 0.12917811E+00 0.18752252E+04</pdfrwt>
<pdfrwt beam="2">  1       -1 0.16107614E+00 0.18752252E+04</pdfrwt>
<totfact> 0.99136244E+00</totfact>
</mgrwt>
</event>
<event>
12    7  0.2466188E-007  0.2000695E+04  0.7818608E-02  0.8606296E-01
         -1   -1    0    0    0  501 -0.00000000000E+00  0.00000000000E+00  0.31007659381E+03  0.31007659381E+03  0.00000000000E+00 0.  1.
          2   -1    0    0  501    0  0.00000000000E+00 -0.00000000000E+00 -0.32272498480E+04  0.32272498480E+04  0.00000000000E+00 0. -1.
         24    2    1    2    0    0 -0.15568617215E+03 -0.76874324556E+03 -0.14437361812E+04  0.16450024908E+04  0.80340973455E+02 0.  0.
        254    2    1    2    0    0  0.15568617215E+03  0.76874324556E+03 -0.14734370729E+04  0.18923239509E+04  0.89144195866E+03 0.  0.
         23    2    4    4    0    0 -0.96444718973E+02  0.11551739764E+03 -0.10591324191E+04  0.10736712187E+04  0.91446988380E+02 0.  0.
         23    2    4    4    0    0  0.25213089112E+03  0.65322584792E+03 -0.41430465383E+03  0.81865273226E+03  0.90939294037E+02 0.  0.
          2    1    3    3  502    0 -0.31523319859E+02 -0.28987145740E+03 -0.59528221243E+03  0.66285752160E+03  0.00000000000E+00 0. -1.
         -1    1    3    3    0  502 -0.12416285229E+03 -0.47887178816E+03 -0.84845396881E+03  0.98214496923E+03  0.00000000000E+00 0.  1.
         13    1    5    5    0    0 -0.21374017207E+02  0.86343249405E+02 -0.40845230183E+03  0.41802546357E+03  0.00000000000E+00 0. -1.
        -13    1    5    5    0    0 -0.75070701766E+02  0.29174148239E+02 -0.65068011727E+03  0.65564575511E+03  0.00000000000E+00 0.  1.
          3    1    6    6  503    0  0.76494928375E+00  0.46716873144E+00  0.36863272649E+01  0.37937320325E+01  0.00000000000E+00 0. -1.
         -3    1    6    6    0  503  0.25136594184E+03  0.65275867919E+03 -0.41799098109E+03  0.81485900022E+03  0.00000000000E+00 0.  1.
<mgrwt>
<rscale>  0 0.20006945E+04</rscale>
<asrwt>0</asrwt>
<pdfrwt beam="1">  1        2 0.49649998E+00 0.20006945E+04</pdfrwt>
<pdfrwt beam="2">  1       -1 0.47704091E-01 0.20006945E+04</pdfrwt>
<totfact> 0.57964878E+00</totfact>
</mgrwt>
</event>
<event>
12    7  0.2466188E-007  0.3085170E+04  0.7818608E-02  0.8219820E-01
         -1   -1    0    0    0  501 -0.00000000000E+00  0.00000000000E+00  0.86362137439E+03  0.86362137439E+03  0.00000000000E+00 0.  1.
          2   -1    0    0  501    0  0.00000000000E+00 -0.00000000000E+00 -0.27553380163E+04  0.27553380163E+04  0.00000000000E+00 0. -1.
         24    2    1    2    0    0 -0.10228277890E+04 -0.81783872561E+03 -0.14824438985E+04  0.19798069212E+04  0.83418617720E+02 0.  0.
        254    2    1    2    0    0  0.10228277890E+04  0.81783872561E+03 -0.40927274338E+03  0.16391524695E+04  0.89681646544E+03 0.  0.
         23    2    4    4    0    0  0.31062211515E+03 -0.12622173657E+03  0.79699946546E+02  0.35688081072E+03  0.92702785175E+02 0.  0.
         23    2    4    4    0    0  0.71220567386E+03  0.94406046219E+03 -0.48897268992E+03  0.12822716588E+04  0.81481514796E+02 0.  0.
          2    1    3    3  502    0 -0.75031143053E+03 -0.63524659838E+03 -0.10757204274E+04  0.14572851202E+04  0.00000000000E+00 0. -1.
         -1    1    3    3    0  502 -0.27251635848E+03 -0.18259212723E+03 -0.40672347108E+03  0.52252180098E+03  0.00000000000E+00 0.  1.
         13    1    5    5    0    0  0.21393368910E+03 -0.69528228988E+02  0.10578197921E+02  0.22519701648E+03  0.00000000000E+00 0. -1.
        -13    1    5    5    0    0  0.96688426047E+02 -0.56693507584E+02  0.69121748626E+02  0.13168379424E+03  0.00000000000E+00 0.  1.
          4    1    6    6  503    0  0.51712241767E+03  0.70056098839E+03 -0.32186987131E+03  0.92833264909E+03  0.00000000000E+00 0. -1.
         -4    1    6    6    0  503  0.19508325619E+03  0.24349947379E+03 -0.16710281861E+03  0.35393900968E+03  0.00000000000E+00 0.  1.
<mgrwt>
<rscale>  0 0.30851702E+04</rscale>
<asrwt>0</asrwt>
<pdfrwt beam="1">  1        2 0.42389815E+00 0.30851702E+04</pdfrwt>
<pdfrwt beam="2">  1       -1 0.13286483E+00 0.30851702E+04</pdfrwt>
<totfact> 0.11397949E+00</totfact>
</mgrwt>
</event>
<event>
12    7  0.2466188E-007  0.3234888E+04  0.7818608E-02  0.8179664E-01
         -1   -1    0    0    0  501 -0.00000000000E+00  0.00000000000E+00  0.13306779754E+04  0.13306779754E+04  0.00000000000E+00 0.  1.
          2   -1    0    0  501    0  0.00000000000E+00 -0.00000000000E+00 -0.19660092441E+04  0.19660092441E+04  0.00000000000E+00 0. -1.
         24    2    1    2    0    0 -0.29922676172E+03  0.14554135610E+04 -0.16474944444E+03  0.14970762774E+04  0.79559491211E+02 0.  0.
        254    2    1    2    0    0  0.29922676172E+03 -0.14554135610E+04 -0.47058182424E+03  0.17996109420E+04  0.89965938043E+03 0.  0.
         23    2    4    4    0    0  0.16930127286E+03 -0.14422665092E+04 -0.17732056204E+03  0.14657352668E+04  0.90231292589E+02 0.  0.
         23    2    4    4    0    0  0.12992548886E+03 -0.13147051799E+02 -0.29326126220E+03  0.33387567517E+03  0.91745958711E+02 0.  0.
          4    1    3    3  502    0 -0.18396300006E+03  0.10698347171E+04 -0.12248503689E+03  0.10924245016E+04  0.00000000000E+00 0. -1.
         -3    1    3    3    0  502 -0.11526376166E+03  0.38557884386E+03 -0.42264407548E+02  0.40465177589E+03  0.00000000000E+00 0.  1.
         13    1    5    5    0    0 -0.51392138042E+00 -0.25940842546E+03 -0.15889305290E+02  0.25989510449E+03  0.00000000000E+00 0. -1.
        -13    1    5    5    0    0  0.16981519424E+03 -0.11828580837E+04 -0.16143125675E+03  0.12058401623E+04  0.00000000000E+00 0.  1.
          4    1    6    6  503    0  0.99095754866E+02 -0.49969502934E+02 -0.19108715595E+03  0.22097787451E+03  0.00000000000E+00 0. -1.
         -4    1    6    6    0  503  0.30829733991E+02  0.36822451136E+02 -0.10217410625E+03  0.11289780066E+03  0.00000000000E+00 0.  1.
<mgrwt>
<rscale>  0 0.32348881E+04</rscale>
<asrwt>0</asrwt>
<pdfrwt beam="1">  1        2 0.30246296E+00 0.32348881E+04</pdfrwt>
<pdfrwt beam="2">  1       -1 0.20471969E+00 0.32348881E+04</pdfrwt>
<totfact> 0.93096188E-01</totfact>
</mgrwt>
</event>
<event>
12    7  0.2466188E-007  0.2565134E+04  0.7818608E-02  0.8380142E-01
          2   -1    0    0  501    0  0.00000000000E+00  0.00000000000E+00  0.55165019492E+03  0.55165019492E+03  0.00000000000E+00 0. -1.
         -1   -1    0    0    0  501 -0.00000000000E+00 -0.00000000000E+00 -0.29819232579E+04  0.29819232579E+04  0.00000000000E+00 0.  1.
         24    2    1    2    0    0 -0.11013325314E+04 -0.16256022319E+03 -0.85703264514E+03  0.14067302334E+04  0.70893046782E+02 0.  0.
        254    2    1    2    0    0  0.11013325314E+04  0.16256022319E+03 -0.15732404178E+04  0.21268432194E+04  0.89945399921E+03 0.  0.
         23    2    4    4    0    0  0.38251064984E+03 -0.29274571531E+03 -0.94612746142E+03  0.10658007819E+04  0.93593175225E+02 0.  0.
         23    2    4    4    0    0  0.71882188151E+03  0.45530593850E+03 -0.62711295642E+03  0.10610424374E+04  0.92368820303E+02 0.  0.
          2    1    3    3  502    0 -0.54948869803E+03 -0.52811152438E+02 -0.39701556949E+03  0.67996191768E+03  0.00000000000E+00 0. -1.
         -1    1    3    3    0  502 -0.55184383332E+03 -0.10974907075E+03 -0.46001707566E+03  0.72676831577E+03  0.00000000000E+00 0.  1.
         13    1    5    5    0    0  0.16947370088E+03 -0.75456438061E+02 -0.32791408633E+03  0.37675278014E+03  0.00000000000E+00 0. -1.
        -13    1    5    5    0    0  0.21303694897E+03 -0.21728927725E+03 -0.61821337510E+03  0.68904800180E+03  0.00000000000E+00 0.  1.
          3    1    6    6  503    0  0.30035469665E+03  0.23081876330E+03 -0.24061975802E+03  0.44876286972E+03  0.00000000000E+00 0. -1.
         -3    1    6    6    0  503  0.41846718486E+03  0.22448717520E+03 -0.38649319840E+03  0.61227956772E+03  0.00000000000E+00 0.  1.
<mgrwt>
<rscale>  0 0.25651343E+04</rscale>
<asrwt>0</asrwt>
<pdfrwt beam="1">  1        2 0.84869259E-01 0.25651343E+04</pdfrwt>
<pdfrwt beam="2">  1       -1 0.45875743E+00 0.25651343E+04</pdfrwt>
<totfact> 0.15619802E-01</totfact>
</mgrwt>
</event>
<event>
12    7  0.2466188E-007  0.1588897E+04  0.7818608E-02  0.8827398E-01
         -1   -1    0    0    0  501 -0.00000000000E+00  0.00000000000E+00  0.39307212672E+03  0.39307212672E+03  0.00000000000E+00 0.  1.
          2   -1    0    0  501    0  0.00000000000E+00 -0.00000000000E+00 -0.16056800242E+04  0.16056800242E+04  0.00000000000E+00 0. -1.
         24    2    1    2    0    0 -0.23138873662E+03  0.27711514955E+03  0.85759408605E+02  0.37830062502E+03  0.73641925438E+02 0.  0.
        254    2    1    2    0    0  0.23138873662E+03 -0.27711514955E+03 -0.12983673061E+04  0.16204515260E+04  0.89987328706E+03 0.  0.
         23    2    4    4    0    0 -0.35271603015E+02 -0.33213907088E+03 -0.63522459328E+02  0.35228429798E+03  0.92242481432E+02 0.  0.
         23    2    4    4    0    0  0.26666033963E+03  0.55023921331E+02 -0.12348448468E+04  0.12681672280E+04  0.96285792078E+02 0.  0.
          4    1    3    3  502    0 -0.35459830573E+02  0.42889976715E+02 -0.13392117640E+02  0.57238959649E+02  0.00000000000E+00 0. -1.
         -3    1    3    3    0  502 -0.19592890604E+03  0.23422517283E+03  0.99151526245E+02  0.32106166537E+03  0.00000000000E+00 0.  1.
         13    1    5    5    0    0 -0.50337029942E+02 -0.32553025165E+03 -0.65055445830E+02  0.33576177917E+03  0.00000000000E+00 0.  1.
        -13    1    5    5    0    0  0.15065426927E+02 -0.66088192308E+01  0.15329865020E+01  0.16522518807E+02  0.00000000000E+00 0. -1.
          1    1    6    6  503    0  0.19971156254E+03  0.72720747276E+01 -0.98724302122E+03  0.10072667840E+04  0.00000000000E+00 0. -1.
         -1    1    6    6    0  503  0.66948777086E+02  0.47751846603E+02 -0.24760182559E+03  0.26090044393E+03  0.00000000000E+00 0.  1.
<mgrwt>
<rscale>  0 0.15888966E+04</rscale>
<asrwt>0</asrwt>
<pdfrwt beam="1">  1        2 0.24702770E+00 0.15888966E+04</pdfrwt>
<pdfrwt beam="2">  1       -1 0.60472633E-01 0.15888966E+04</pdfrwt>
<totfact> 0.33566597E+01</totfact>
</mgrwt>
</event>
<event>
12    7  0.2466188E-007  0.1312192E+04  0.7818608E-02  0.9019952E-01
          2   -1    0    0  501    0  0.00000000000E+00  0.00000000000E+00  0.10666763352E+04  0.10666763352E+04  0.00000000000E+00 0. -1.
         -1   -1    0    0    0  501 -0.00000000000E+00 -0.00000000000E+00 -0.40355438733E+03  0.40355438733E+03  0.00000000000E+00 0.  1.
         24    2    1    2    0    0 -0.33795378123E+03 -0.21092404920E+02  0.21190649941E+03  0.40694629925E+03  0.77738524487E+02 0.  0.
        254    2    1    2    0    0  0.33795378123E+03  0.21092404920E+02  0.45121544850E+03  0.10632844233E+04  0.90128837566E+03 0.  0.
         23    2    4    4    0    0  0.57584327027E+03 -0.20909653599E+03  0.30677222347E+03  0.69123845800E+03  0.91567327432E+02 0.  0.
         23    2    4    4    0    0 -0.23788948903E+03  0.23018894091E+03  0.14444322503E+03  0.37204596531E+03  0.89308440449E+02 0.  0.
          4    1    3    3  502    0 -0.17437455519E+03 -0.45701988531E+02  0.13075569501E+03  0.22269308258E+03  0.00000000000E+00 0. -1.
         -3    1    3    3    0  502 -0.16357922604E+03  0.24609583610E+02  0.81150804401E+02  0.18425321667E+03  0.00000000000E+00 0.  1.
         13    1    5    5    0    0  0.26733321040E+03 -0.11987261919E+03  0.19155677486E+03  0.35004355188E+03  0.00000000000E+00 0.  1.
        -13    1    5    5    0    0  0.30851005986E+03 -0.89223916799E+02  0.11521544861E+03  0.34119490612E+03  0.00000000000E+00 0. -1.
          4    1    6    6  503    0 -0.22657871586E+03  0.22030777543E+03  0.15662227321E+03  0.35270946522E+03  0.00000000000E+00 0. -1.
         -4    1    6    6    0  503 -0.11310773177E+02  0.98811654869E+01 -0.12179048176E+02  0.19336500089E+02  0.00000000000E+00 0.  1.
<mgrwt>
<rscale>  0 0.13121919E+04</rscale>
<asrwt>0</asrwt>
<pdfrwt beam="1">  1        2 0.16410405E+00 0.13121919E+04</pdfrwt>
<pdfrwt beam="2">  1       -1 0.62085291E-01 0.13121919E+04</pdfrwt>
<totfact> 0.67167919E+01</totfact>
</mgrwt>
</event>
<event>
12    7  0.2466188E-007  0.2637667E+04  0.7818608E-02  0.8355518E-01
         -1   -1    0    0    0  501 -0.00000000000E+00  0.00000000000E+00  0.49186773722E+03  0.49186773722E+03  0.00000000000E+00 0.  1.
          2   -1    0    0  501    0  0.00000000000E+00 -0.00000000000E+00 -0.35361582065E+04  0.35361582065E+04  0.00000000000E+00 0. -1.
         24    2    1    2    0    0 -0.56458195677E+03  0.59237426655E+03 -0.82658061295E+02  0.82641082135E+03  0.80389259048E+02 0.  0.
        254    2    1    2    0    0  0.56458195677E+03 -0.59237426655E+03 -0.29616324080E+04  0.32016151223E+04  0.89967372650E+03 0.  0.
         23    2    4    4    0    0  0.37095172269E+03  0.40122027398E+02 -0.19628931662E+04  0.20001416768E+04  0.91663450015E+02 0.  0.
         23    2    4    4    0    0  0.19363023408E+03 -0.63249629394E+03 -0.99873924180E+03  0.12014734455E+04  0.92272085213E+02 0.  0.
          4    1    3    3  502    0 -0.10910321803E+03  0.93324463138E+02 -0.41739983291E+02  0.14951653357E+03  0.00000000000E+00 0. -1.
         -3    1    3    3    0  502 -0.45547873873E+03  0.49904980341E+03 -0.40918078004E+02  0.67689428778E+03  0.00000000000E+00 0.  1.
         13    1    5    5    0    0  0.24863665690E+03  0.84658357649E+01 -0.14917180622E+04  0.15123209430E+04  0.00000000000E+00 0.  1.
        -13    1    5    5    0    0  0.12231506579E+03  0.31656191633E+02 -0.47117510400E+03  0.48782073389E+03  0.00000000000E+00 0. -1.
          3    1    6    6  503    0  0.72276700387E+02 -0.28480605389E+03 -0.52259124577E+03  0.59953316832E+03  0.00000000000E+00 0. -1.
         -3    1    6    6    0  503  0.12135353369E+03 -0.34769024005E+03 -0.47614799603E+03  0.60194027718E+03  0.00000000000E+00 0.  1.
<mgrwt>
<rscale>  0 0.26376673E+04</rscale>
<asrwt>0</asrwt>
<pdfrwt beam="1">  1        2 0.54402435E+00 0.26376673E+04</pdfrwt>
<pdfrwt beam="2">  1       -1 0.75671958E-01 0.26376673E+04</pdfrwt>
<totfact> 0.13495948E+00</totfact>
</mgrwt>
</event>
<event>
12    7  0.2466188E-007  0.1956505E+04  0.7818608E-02  0.8627230E-01
          2   -1    0    0  501    0  0.00000000000E+00  0.00000000000E+00  0.31180260605E+04  0.31180260605E+04  0.00000000000E+00 0. -1.
         -1   -1    0    0    0  501 -0.00000000000E+00 -0.00000000000E+00 -0.30691781456E+03  0.30691781456E+03  0.00000000000E+00 0.  1.
         24    2    1    2    0    0  0.53268267733E+03 -0.47041427231E+03  0.16300448591E+04  0.17801528259E+04  0.82809532406E+02 0.  0.
        254    2    1    2    0    0 -0.53268267733E+03  0.47041427231E+03  0.11810633869E+04  0.16447910492E+04  0.89743325618E+03 0.  0.
         23    2    4    4    0    0  0.96345855543E+01  0.25960574090E+02 -0.12646899756E+03  0.15835830629E+03  0.91193032540E+02 0.  0.
         23    2    4    4    0    0 -0.54231726288E+03  0.44445369822E+03  0.13075323845E+04  0.14864327429E+04  0.90522147961E+02 0.  0.
          2    1    3    3  502    0  0.49944430664E+03 -0.41625083845E+03  0.15173374386E+04  0.16507641499E+04  0.00000000000E+00 0. -1.
         -1    1    3    3    0  502  0.33238370691E+02 -0.54163433857E+02  0.11270742046E+03  0.12938867601E+03  0.00000000000E+00 0.  1.
         13    1    5    5    0    0 -0.92190643772E+00 -0.13883875941E+02 -0.11463168270E+03  0.11547309037E+03  0.00000000000E+00 0. -1.
        -13    1    5    5    0    0  0.10556491992E+02  0.39844450031E+02 -0.11837314859E+02  0.42885215920E+02  0.00000000000E+00 0.  1.
          1    1    6    6  503    0 -0.23117133905E+03  0.19407151385E+03  0.65825414475E+03  0.72415637785E+03  0.00000000000E+00 0. -1.
         -1    1    6    6    0  503 -0.31114592383E+03  0.25038218437E+03  0.64927823970E+03  0.76227636505E+03  0.00000000000E+00 0.  1.
<mgrwt>
<rscale>  0 0.19565048E+04</rscale>
<asrwt>0</asrwt>
<pdfrwt beam="1">  1        2 0.47969629E+00 0.19565048E+04</pdfrwt>
<pdfrwt beam="2">  1       -1 0.47218128E-01 0.19565048E+04</pdfrwt>
<totfact> 0.69812023E+00</totfact>
</mgrwt>
</event>
<event>
12    7  0.2466188E-007  0.3421377E+04  0.7818608E-02  0.8132679E-01
         -1   -1    0    0    0  501 -0.00000000000E+00  0.00000000000E+00  0.11915170978E+04  0.11915170978E+04  0.00000000000E+00 0.  1.
          2   -1    0    0  501    0  0.00000000000E+00 -0.00000000000E+00 -0.24560753984E+04  0.24560753984E+04  0.00000000000E+00 0. -1.
         24    2    1    2    0    0  0.12584927782E+04  0.96299339639E+03 -0.73697588399E+03  0.17490790835E+04  0.70596265286E+02 0.  0.
        254    2    1    2    0    0 -0.12584927782E+04 -0.96299339639E+03 -0.52758241656E+03  0.18985134126E+04  0.90269021123E+03 0.  0.
         23    2    4    4    0    0 -0.13514367765E+04 -0.73914737777E+03 -0.34290784301E+03  0.15807125813E+04  0.91357917375E+02 0.  0.
         23    2    4    4    0    0  0.92943998282E+02 -0.22384601862E+03 -0.18467457355E+03  0.31780083132E+03  0.90260973874E+02 0.  0.
          4    1    3    3  502    0  0.10433658991E+04  0.82964805296E+03 -0.61148194107E+03  0.14665737129E+04  0.00000000000E+00 0. -1.
         -3    1    3    3    0  502  0.21512687909E+03  0.13334534343E+03 -0.12549394292E+03  0.28250537063E+03  0.00000000000E+00 0.  1.
         13    1    5    5    0    0 -0.91676341617E+03 -0.45578615499E+03 -0.21101884287E+03  0.10453349379E+04  0.00000000000E+00 0. -1.
        -13    1    5    5    0    0 -0.43467336029E+03 -0.28336122278E+03 -0.13188900014E+03  0.53537764343E+03  0.00000000000E+00 0.  1.
          4    1    6    6  503    0  0.55370080774E+02 -0.16594947420E+03 -0.79875812569E+02  0.19231541609E+03  0.00000000000E+00 0. -1.
         -4    1    6    6    0  503  0.37573917508E+02 -0.57896544418E+02 -0.10479876098E+03  0.12548541523E+03  0.00000000000E+00 0.  1.
<mgrwt>
<rscale>  0 0.34213774E+04</rscale>
<asrwt>0</asrwt>
<pdfrwt beam="1">  1        2 0.37785775E+00 0.34213774E+04</pdfrwt>
<pdfrwt beam="2">  1       -1 0.18331032E+00 0.34213774E+04</pdfrwt>
<totfact> 0.68349934E-01</totfact>
</mgrwt>
</event>
<event>
12    7  0.2466188E-007  0.1523351E+04  0.7818608E-02  0.8869072E-01
          2   -1    0    0  501    0  0.00000000000E+00  0.00000000000E+00  0.96373037539E+03  0.96373037539E+03  0.00000000000E+00 0. -1.
         -1   -1    0    0    0  501 -0.00000000000E+00 -0.00000000000E+00 -0.60198298739E+03  0.60198298739E+03  0.00000000000E+00 0.  1.
         24    2    1    2    0    0 -0.66442719471E+02 -0.83634045997E+02  0.61283877435E+03  0.62710163956E+03  0.79220037743E+02 0.  0.
        254    2    1    2    0    0  0.66442719471E+02  0.83634045997E+02 -0.25109138634E+03  0.93861172322E+03  0.89807337899E+03 0.  0.
         23    2    4    4    0    0  0.40247878797E+03 -0.10737870402E+03  0.63901853277E+02  0.43147794714E+03  0.92576515207E+02 0.  0.
         23    2    4    4    0    0 -0.33603606850E+03  0.19101275002E+03 -0.31499323962E+03  0.50713377608E+03  0.92508463566E+02 0.  0.
          4    1    3    3  502    0 -0.72583016746E+02 -0.94016733926E+02  0.51483520673E+03  0.52835852475E+03  0.00000000000E+00 0. -1.
         -3    1    3    3    0  502  0.61402972749E+01  0.10382687929E+02  0.98003567612E+02  0.98743114818E+02  0.00000000000E+00 0.  1.
         13    1    5    5    0    0  0.34718475464E+03 -0.57961793832E+02  0.44253096446E+02  0.35476070801E+03  0.00000000000E+00 0.  1.
        -13    1    5    5    0    0  0.55294033331E+02 -0.49416910193E+02  0.19648756830E+02  0.76717239132E+02  0.00000000000E+00 0. -1.
          2    1    6    6  503    0 -0.23835888712E+03  0.12836341783E+03 -0.27092826491E+03  0.38300685481E+03  0.00000000000E+00 0. -1.
         -2    1    6    6    0  503 -0.97677181385E+02  0.62649332194E+02 -0.44064974702E+02  0.12412692127E+03  0.00000000000E+00 0.  1.
<mgrwt>
<rscale>  0 0.15233506E+04</rscale>
<asrwt>0</asrwt>
<pdfrwt beam="1">  1        2 0.14826621E+00 0.15233506E+04</pdfrwt>
<pdfrwt beam="2">  1       -1 0.92612767E-01 0.15233506E+04</pdfrwt>
<totfact> 0.33183394E+01</totfact>
</mgrwt>
</event>
<event>
12    7  0.2466188E-007  0.3281748E+04  0.7818608E-02  0.8167555E-01
          2   -1    0    0  501    0  0.00000000000E+00  0.00000000000E+00  0.17463274513E+04  0.17463274513E+04  0.00000000000E+00 0. -1.
         -1   -1    0    0    0  501 -0.00000000000E+00 -0.00000000000E+00 -0.15417883601E+04  0.15417883601E+04  0.00000000000E+00 0.  1.
         24    2    1    2    0    0  0.81786232670E+03 -0.11402137927E+04 -0.48078188131E+03  0.14854088731E+04  0.79385290670E+02 0.  0.
        254    2    1    2    0    0 -0.81786232670E+03  0.11402137927E+04  0.68532097250E+03  0.18027069384E+04  0.90061156553E+03 0.  0.
         23    2    4    4    0    0 -0.56478871053E+03  0.59400454939E+03  0.83739231884E+03  0.11751757324E+04  0.89355549312E+02 0.  0.
         23    2    4    4    0    0 -0.25307361617E+03  0.54620924327E+03 -0.15207134634E+03  0.62753120597E+03  0.90988611650E+02 0.  0.
          2    1    3    3  502    0  0.13506026159E+03 -0.21070804226E+03 -0.57109346652E+02  0.25671118170E+03  0.00000000000E+00 0. -1.
         -1    1    3    3    0  502  0.68280206512E+03 -0.92950575040E+03 -0.42367253465E+03  0.12286976914E+04  0.00000000000E+00 0.  1.
         13    1    5    5    0    0 -0.10551246205E+03  0.87108464863E+02  0.18346829392E+03  0.22886978650E+03  0.00000000000E+00 0. -1.
        -13    1    5    5    0    0 -0.45927624848E+03  0.50689608452E+03  0.65392402491E+03  0.94630594592E+03  0.00000000000E+00 0.  1.
          1    1    6    6  503    0 -0.10004847777E+03  0.12587957935E+03 -0.26907956155E+02  0.16303191253E+03  0.00000000000E+00 0. -1.
         -1    1    6    6    0  503 -0.15302513840E+03  0.42032966392E+03 -0.12516339018E+03  0.46449929343E+03  0.00000000000E+00 0.  1.
<mgrwt>
<rscale>  0 0.32817479E+04</rscale>
<asrwt>0</asrwt>
<pdfrwt beam="1">  1        2 0.26866576E+00 0.32817479E+04</pdfrwt>
<pdfrwt beam="2">  1       -1 0.23719821E+00 0.32817479E+04</pdfrwt>
<totfact> 0.74418846E-01</totfact>
</mgrwt>
</event>
<event>
12    7  0.2466188E-007  0.2766571E+04  0.7818608E-02  0.8313722E-01
          2   -1    0    0  501    0  0.00000000000E+00  0.00000000000E+00  0.17983110083E+04  0.17983110083E+04  0.00000000000E+00 0. -1.
         -1   -1    0    0    0  501 -0.00000000000E+00 -0.00000000000E+00 -0.10640423244E+04  0.10640423244E+04  0.00000000000E+00 0.  1.
         24    2    1    2    0    0 -0.75266072294E+03  0.30779484324E+02  0.13414309285E+04  0.15407194023E+04  0.83269443006E+02 0.  0.
        254    2    1    2    0    0  0.75266072294E+03 -0.30779484324E+02 -0.60716224462E+03  0.13216339304E+04  0.90034699657E+03 0.  0.
         23    2    4    4    0    0  0.83100031822E+03  0.74159268953E+02 -0.17208969117E+03  0.85688758062E+03  0.92630113654E+02 0.  0.
         23    2    4    4    0    0 -0.78339595285E+02 -0.10493875328E+03 -0.43507255344E+03  0.46474634980E+03  0.97733355427E+02 0.  0.
          4    1    3    3  502    0 -0.31548034018E+03 -0.20182688520E+02  0.51165179669E+03  0.60143390909E+03  0.00000000000E+00 0. -1.
         -3    1    3    3    0  502 -0.43718038276E+03  0.50962172844E+02  0.82977913180E+03  0.93928549318E+03  0.00000000000E+00 0.  1.
         13    1    5    5    0    0  0.23526432592E+03  0.63005880991E+02 -0.46443448077E+02  0.24794361851E+03  0.00000000000E+00 0. -1.
        -13    1    5    5    0    0  0.59573599230E+03  0.11153387962E+02 -0.12564624309E+03  0.60894396211E+03  0.00000000000E+00 0.  1.
          2    1    6    6  503    0 -0.66606427824E+02 -0.82223369654E+02 -0.18307987774E+03  0.21146002075E+03  0.00000000000E+00 0. -1.
         -2    1    6    6    0  503 -0.11733167461E+02 -0.22715383623E+02 -0.25199267571E+03  0.25328632905E+03  0.00000000000E+00 0.  1.
<mgrwt>
<rscale>  0 0.27665712E+04</rscale>
<asrwt>0</asrwt>
<pdfrwt beam="1">  1        2 0.27666323E+00 0.27665712E+04</pdfrwt>
<pdfrwt beam="2">  1       -1 0.16369882E+00 0.27665712E+04</pdfrwt>
<totfact> 0.23535009E+00</totfact>
</mgrwt>
</event>
<event>
12    7  0.2466188E-007  0.1271544E+04  0.7818608E-02  0.9052440E-01
         -1   -1    0    0    0  501 -0.00000000000E+00  0.00000000000E+00  0.19999781386E+03  0.19999781386E+03  0.00000000000E+00 0.  1.
          2   -1    0    0  501    0  0.00000000000E+00 -0.00000000000E+00 -0.20210520989E+04  0.20210520989E+04  0.00000000000E+00 0. -1.
         24    2    1    2    0    0  0.14179848260E+03  0.15324661808E+03 -0.85637087757E+03  0.88526022356E+03  0.81995413579E+02 0.  0.
        254    2    1    2    0    0 -0.14179848260E+03 -0.15324661808E+03 -0.96468340749E+03  0.13357896892E+04  0.90007148690E+03 0.  0.
         23    2    4    4    0    0 -0.25743113132E+02 -0.51987189523E+03 -0.56566039104E+03  0.77401735600E+03  0.90563204840E+02 0.  0.
         23    2    4    4    0    0 -0.11605536947E+03  0.36662527715E+03 -0.39902301645E+03  0.56177233322E+03  0.92118641345E+02 0.  0.
          4    1    3    3  502    0  0.37898553902E+02  0.16503508868E+01 -0.20394771975E+03  0.20744564695E+03  0.00000000000E+00 0. -1.
         -3    1    3    3    0  502  0.10389992870E+03  0.15159626719E+03 -0.65242315782E+03  0.67781457661E+03  0.00000000000E+00 0.  1.
         13    1    5    5    0    0 -0.11026633483E+02 -0.50307237987E+03 -0.55537296144E+03  0.74942813687E+03  0.00000000000E+00 0. -1.
        -13    1    5    5    0    0 -0.14716479649E+02 -0.16799515366E+02 -0.10287429603E+02  0.24589219134E+02  0.00000000000E+00 0.  1.
          1    1    6    6  503    0 -0.31506191079E+02  0.14315710843E+03 -0.93285798194E+02  0.17374935371E+03  0.00000000000E+00 0. -1.
         -1    1    6    6    0  503 -0.84549178389E+02  0.22346816872E+03 -0.30573721825E+03  0.38802297950E+03  0.00000000000E+00 0.  1.
<mgrwt>
<rscale>  0 0.12715439E+04</rscale>
<asrwt>0</asrwt>
<pdfrwt beam="1">  1        2 0.31093108E+00 0.12715439E+04</pdfrwt>
<pdfrwt beam="2">  1       -1 0.30768896E-01 0.12715439E+04</pdfrwt>
<totfact> 0.71078918E+01</totfact>
</mgrwt>
</event>
<event>
12    7  0.2466188E-007  0.4226655E+04  0.7818608E-02  0.7960321E-01
          2   -1    0    0  501    0  0.00000000000E+00  0.00000000000E+00  0.27856850599E+04  0.27856850599E+04  0.00000000000E+00 0. -1.
         -1   -1    0    0    0  501 -0.00000000000E+00 -0.00000000000E+00 -0.16032516086E+04  0.16032516086E+04  0.00000000000E+00 0.  1.
         24    2    1    2    0    0 -0.10327351101E+04 -0.11727398120E+04 -0.75896055858E+03  0.17388854026E+04  0.76425386707E+02 0.  0.
        254    2    1    2    0    0  0.10327351101E+04  0.11727398120E+04  0.19413940099E+04  0.26500512659E+04  0.90105523483E+03 0.  0.
         23    2    4    4    0    0 -0.14799320492E+03  0.18651225952E+03  0.19695215049E+03  0.32233605450E+03  0.91769116793E+02 0.  0.
         23    2    4    4    0    0  0.11807283150E+04  0.98622755245E+03  0.17444418594E+04  0.23277152114E+04  0.91741842020E+02 0.  0.
          2    1    3    3  502    0 -0.78931271915E+03 -0.92655050220E+03 -0.61798990089E+03  0.13650721297E+04  0.00000000000E+00 0. -1.
         -1    1    3    3    0  502 -0.24342239097E+03 -0.24618930976E+03 -0.14097065769E+03  0.37381327290E+03  0.00000000000E+00 0.  1.
         13    1    5    5    0    0  0.72700191015E+01  0.14424523823E+02 -0.27579114934E+01  0.16386767255E+02  0.00000000000E+00 0.  1.
        -13    1    5    5    0    0 -0.15526322402E+03  0.17208773569E+03  0.19971006199E+03  0.30594928725E+03  0.00000000000E+00 0. -1.
          2    1    6    6  503    0  0.11163813285E+04  0.93372581594E+03  0.16160276677E+04  0.21747865626E+04  0.00000000000E+00 0. -1.
         -2    1    6    6    0  503  0.64346986544E+02  0.52501736514E+02  0.12841419170E+03  0.15292864887E+03  0.00000000000E+00 0.  1.
<mgrwt>
<rscale>  0 0.42266554E+04</rscale>
<asrwt>0</asrwt>
<pdfrwt beam="1">  1        2 0.42856693E+00 0.42266554E+04</pdfrwt>
<pdfrwt beam="2">  1       -1 0.24665409E+00 0.42266554E+04</pdfrwt>
<totfact> 0.15219796E-01</totfact>
</mgrwt>
</event>
<event>
12    7  0.2466188E-007  0.1478821E+04  0.7818608E-02  0.8898660E-01
         -1   -1    0    0    0  501 -0.00000000000E+00  0.00000000000E+00  0.28087182962E+03  0.28087182962E+03  0.00000000000E+00 0.  1.
          2   -1    0    0  501    0  0.00000000000E+00 -0.00000000000E+00 -0.19465395972E+04  0.19465395972E+04  0.00000000000E+00 0. -1.
         24    2    1    2    0    0  0.11520993664E+03 -0.31595283427E+03 -0.10004908305E+04  0.10585137485E+04  0.79811846086E+02 0.  0.
        254    2    1    2    0    0 -0.11520993664E+03  0.31595283427E+03 -0.66517693704E+03  0.11688976783E+04  0.90042317931E+03 0.  0.
         23    2    4    4    0    0 -0.35690547880E+03  0.44418891761E+03 -0.66547869135E+03  0.88207710505E+03  0.10253202075E+03 0.  0.
         23    2    4    4    0    0  0.24169554216E+03 -0.12823608334E+03  0.30175431270E+00  0.28682057327E+03  0.86050694520E+02 0.  0.
          2    1    3    3  502    0  0.11311921939E+03 -0.23027168422E+03 -0.68090282032E+03  0.72763291368E+03  0.00000000000E+00 0. -1.
         -1    1    3    3    0  502  0.20907172479E+01 -0.85681150045E+02 -0.31958801020E+03  0.33088083480E+03  0.00000000000E+00 0.  1.
         13    1    5    5    0    0 -0.32020574064E+02  0.50361693790E+01 -0.31203235073E+02  0.44992466530E+02  0.00000000000E+00 0. -1.
        -13    1    5    5    0    0 -0.32488490474E+03  0.43915274823E+03 -0.63427545628E+03  0.83708463852E+03  0.00000000000E+00 0.  1.
          4    1    6    6  503    0  0.14091849178E+02 -0.13532414107E+02  0.23885977547E+02  0.30858489402E+02  0.00000000000E+00 0. -1.
         -4    1    6    6    0  503  0.22760369298E+03 -0.11470366923E+03 -0.23584223234E+02  0.25596208387E+03  0.00000000000E+00 0.  1.
<mgrwt>
<rscale>  0 0.14788213E+04</rscale>
<asrwt>0</asrwt>
<pdfrwt beam="1">  1        2 0.29946763E+00 0.14788213E+04</pdfrwt>
<pdfrwt beam="2">  1       -1 0.43211051E-01 0.14788213E+04</pdfrwt>
<totfact> 0.41671012E+01</totfact>
</mgrwt>
</event>
<event>
12    7  0.2466188E-007  0.1928601E+04  0.7818608E-02  0.8640749E-01
          2   -1    0    0  501    0  0.00000000000E+00  0.00000000000E+00  0.21215237254E+04  0.21215237254E+04  0.00000000000E+00 0. -1.
         -1   -1    0    0    0  501 -0.00000000000E+00 -0.00000000000E+00 -0.43830535917E+03  0.43830535917E+03  0.00000000000E+00 0.  1.
         24    2    1    2    0    0  0.36013319018E+03 -0.64995299056E+03  0.51830223361E+03  0.91050662079E+03  0.90831142946E+02 0.  0.
        254    2    1    2    0    0 -0.36013319018E+03  0.64995299056E+03  0.11649161327E+04  0.16493224638E+04  0.90061100868E+03 0.  0.
         23    2    4    4    0    0  0.78573463778E+02 -0.11451471583E+03  0.54201347602E+03  0.56624108262E+03  0.86965200531E+02 0.  0.
         23    2    4    4    0    0 -0.43870665396E+03  0.76446770639E+03  0.62290265664E+03  0.10830813812E+04  0.90460800038E+02 0.  0.
          2    1    3    3  502    0  0.23143042804E+03 -0.42170731052E+03  0.38717740750E+03  0.61749772764E+03  0.00000000000E+00 0. -1.
         -1    1    3    3    0  502  0.12870276214E+03 -0.22824568004E+03  0.13112482611E+03  0.29300889314E+03  0.00000000000E+00 0.  1.
         13    1    5    5    0    0 -0.11234716491E+02 -0.11394875386E+02  0.15414434522E+03  0.15497271115E+03  0.00000000000E+00 0.  1.
        -13    1    5    5    0    0  0.89808180269E+02 -0.10311984044E+03  0.38786913080E+03  0.41126837146E+03  0.00000000000E+00 0. -1.
          1    1    6    6  503    0 -0.42410206185E+03  0.75764885161E+03  0.61947269798E+03  0.10666024399E+04  0.00000000000E+00 0. -1.
         -1    1    6    6    0  503 -0.14604592105E+02  0.68188547780E+01  0.34299586577E+01  0.16478941332E+02  0.00000000000E+00 0.  1.
<mgrwt>
<rscale>  0 0.19286008E+04</rscale>
<asrwt>0</asrwt>
<pdfrwt beam="1">  1        2 0.32638826E+00 0.19286008E+04</pdfrwt>
<pdfrwt beam="2">  1       -1 0.67431595E-01 0.19286008E+04</pdfrwt>
<totfact> 0.13543903E+01</totfact>
</mgrwt>
</event>
<event>
12    7  0.2466188E-007  0.2267835E+04  0.7818608E-02  0.8490712E-01
          2   -1    0    0  501    0  0.00000000000E+00  0.00000000000E+00  0.30251157881E+04  0.30251157881E+04  0.00000000000E+00 0. -1.
         -1   -1    0    0    0  501 -0.00000000000E+00 -0.00000000000E+00 -0.42503125018E+03  0.42503125018E+03  0.00000000000E+00 0.  1.
         24    2    1    2    0    0 -0.90838855700E+03  0.97331500413E+02  0.68394387429E+03  0.11440276219E+04  0.79854774548E+02 0.  0.
        254    2    1    2    0    0  0.90838855700E+03 -0.97331500413E+02  0.19161406636E+04  0.23061194163E+04  0.90108186551E+03 0.  0.
         23    2    4    4    0    0 -0.27794239300E+02  0.39272479851E+02 -0.54857631714E+02  0.11787932414E+03  0.92581466243E+02 0.  0.
         23    2    4    4    0    0  0.93618279630E+03 -0.13660398026E+03  0.19709982953E+04  0.21882400922E+04  0.91986659609E+02 0.  0.
          4    1    3    3  502    0 -0.32859913332E+03  0.73880826260E+02  0.25312495189E+03  0.42131699251E+03  0.00000000000E+00 0. -1.
         -3    1    3    3    0  502 -0.57978942368E+03  0.23450674154E+02  0.43081892241E+03  0.72271062939E+03  0.00000000000E+00 0.  1.
         13    1    5    5    0    0 -0.19200495684E+02 -0.29312046402E+02 -0.21711934041E+02  0.41222120016E+02  0.00000000000E+00 0. -1.
        -13    1    5    5    0    0 -0.85937436155E+01  0.68584526253E+02 -0.33145697673E+02  0.76657204129E+02  0.00000000000E+00 0.  1.
          3    1    6    6  503    0  0.25454238354E+03 -0.21984029579E+02  0.44807605950E+03  0.51579771003E+03  0.00000000000E+00 0. -1.
         -3    1    6    6    0  503  0.68164041276E+03 -0.11461995068E+03  0.15229222358E+04  0.16724423822E+04  0.00000000000E+00 0.  1.
<mgrwt>
<rscale>  0 0.22678349E+04</rscale>
<asrwt>0</asrwt>
<pdfrwt beam="1">  1        2 0.46540242E+00 0.22678349E+04</pdfrwt>
<pdfrwt beam="2">  1       -1 0.65389425E-01 0.22678349E+04</pdfrwt>
<totfact> 0.41209000E+00</totfact>
</mgrwt>
</event>
<event>
12    7  0.2466188E-007  0.2351377E+04  0.7818608E-02  0.8457935E-01
          2   -1    0    0  501    0  0.00000000000E+00  0.00000000000E+00  0.27881262296E+04  0.27881262296E+04  0.00000000000E+00 0. -1.
         -1   -1    0    0    0  501 -0.00000000000E+00 -0.00000000000E+00 -0.49576072621E+03  0.49576072621E+03  0.00000000000E+00 0.  1.
         24    2    1    2    0    0  0.67154232030E+03  0.48446595854E+03  0.19392048637E+03  0.85479307956E+03  0.85963369471E+02 0.  0.
        254    2    1    2    0    0 -0.67154232030E+03 -0.48446595854E+03  0.20984450170E+04  0.24290938763E+04  0.90074925325E+03 0.  0.
         23    2    4    4    0    0 -0.36617983362E+03 -0.50619898625E+03  0.51687484850E+03  0.81577706343E+03  0.89484769518E+02 0.  0.
         23    2    4    4    0    0 -0.30536248668E+03  0.21733027712E+02  0.15815701685E+04  0.16133168128E+04  0.87797310827E+02 0.  0.
          4    1    3    3  502    0  0.37069630982E+03  0.21478698664E+03  0.94853296029E+02  0.43880103864E+03  0.00000000000E+00 0. -1.
         -1    1    3    3    0  502  0.30084601048E+03  0.26967897190E+03  0.99067190336E+02  0.41599204092E+03  0.00000000000E+00 0.  1.
         13    1    5    5    0    0 -0.24044727496E+03 -0.26675184997E+03  0.26628845111E+03  0.44708050807E+03  0.00000000000E+00 0. -1.
        -13    1    5    5    0    0 -0.12573255866E+03 -0.23944713629E+03  0.25058639738E+03  0.36869655536E+03  0.00000000000E+00 0.  1.
          2    1    6    6  503    0 -0.24180010208E+02  0.32601748323E+01  0.30702856151E+03  0.30799649221E+03  0.00000000000E+00 0. -1.
         -2    1    6    6    0  503 -0.28118247647E+03  0.18472852880E+02  0.12745416070E+04  0.13053203206E+04  0.00000000000E+00 0.  1.
<mgrwt>
<rscale>  0 0.23513770E+04</rscale>
<asrwt>0</asrwt>
<pdfrwt beam="1">  1        2 0.42894249E+00 0.23513770E+04</pdfrwt>
<pdfrwt beam="2">  1       -1 0.76270882E-01 0.23513770E+04</pdfrwt>
<totfact> 0.41682457E+00</totfact>
</mgrwt>
</event>
<event>
12    7  0.2466188E-007  0.1929765E+04  0.7818608E-02  0.8640181E-01
         -1   -1    0    0    0  501 -0.00000000000E+00  0.00000000000E+00  0.34704197128E+03  0.34704197128E+03  0.00000000000E+00 0.  1.
          2   -1    0    0  501    0  0.00000000000E+00 -0.00000000000E+00 -0.26826668473E+04  0.26826668473E+04  0.00000000000E+00 0. -1.
         24    2    1    2    0    0  0.53610973662E+03 -0.66039078551E+02 -0.17372454050E+04  0.18209972559E+04  0.78959478134E+02 0.  0.
        254    2    1    2    0    0 -0.53610973662E+03  0.66039078551E+02 -0.59837947105E+03  0.12087115627E+04  0.90063912909E+03 0.  0.
         23    2    4    4    0    0 -0.15192633069E+03 -0.36896055893E+03 -0.43827013989E+03  0.59980575834E+03  0.92047423744E+02 0.  0.
         23    2    4    4    0    0 -0.38418340593E+03  0.43499963748E+03 -0.16010933116E+03  0.60890580437E+03  0.91157592473E+02 0.  0.
          2    1    3    3  502    0  0.47870130752E+03 -0.82977446405E+02 -0.15618787131E+04  0.16356971948E+04  0.00000000000E+00 0. -1.
         -1    1    3    3    0  502  0.57408429098E+02  0.16938367854E+02 -0.17536669189E+03  0.18530006115E+03  0.00000000000E+00 0.  1.
         13    1    5    5    0    0 -0.25358940286E+02 -0.84784461861E+02 -0.47851776166E+02  0.10060453920E+03  0.00000000000E+00 0. -1.
        -13    1    5    5    0    0 -0.12656739040E+03 -0.28417609707E+03 -0.39041836373E+03  0.49920121914E+03  0.00000000000E+00 0.  1.
          1    1    6    6  503    0 -0.12714532497E+03  0.14118612001E+03 -0.97446681024E+02  0.21353058280E+03  0.00000000000E+00 0. -1.
         -1    1    6    6    0  503 -0.25703808096E+03  0.29381351747E+03 -0.62662650136E+02  0.39537522157E+03  0.00000000000E+00 0.  1.
<mgrwt>
<rscale>  0 0.19297647E+04</rscale>
<asrwt>0</asrwt>
<pdfrwt beam="1">  1        2 0.41271797E+00 0.19297647E+04</pdfrwt>
<pdfrwt beam="2">  1       -1 0.53391074E-01 0.19297647E+04</pdfrwt>
<totfact> 0.10249847E+01</totfact>
</mgrwt>
</event>
<event>
12    7  0.2466188E-007  0.2321124E+04  0.7818608E-02  0.8469638E-01
          2   -1    0    0  501    0  0.00000000000E+00  0.00000000000E+00  0.28064707333E+04  0.28064707333E+04  0.00000000000E+00 0. -1.
         -1   -1    0    0    0  501 -0.00000000000E+00 -0.00000000000E+00 -0.47992817880E+03  0.47992817880E+03  0.00000000000E+00 0.  1.
         24    2    1    2    0    0  0.89414869067E+03  0.19645361874E+03  0.48649566733E+03  0.10400016991E+04  0.82641360125E+02 0.  0.
        254    2    1    2    0    0 -0.89414869067E+03 -0.19645361874E+03  0.18400468872E+04  0.22463972130E+04  0.90688035946E+03 0.  0.
         23    2    4    4    0    0 -0.62163191646E+03 -0.54764586648E+03  0.11271579292E+04  0.14013491949E+04  0.83380658030E+02 0.  0.
         23    2    4    4    0    0 -0.27251677421E+03  0.35119224774E+03  0.71288895804E+03  0.84504801815E+03  0.91071946248E+02 0.  0.
          4    1    3    3  502    0  0.36218796712E+03  0.84702753180E+02  0.24359370400E+03  0.44462632912E+03  0.00000000000E+00 0. -1.
         -3    1    3    3    0  502  0.53196072355E+03  0.11175086556E+03  0.24290196334E+03  0.59537536995E+03  0.00000000000E+00 0.  1.
         13    1    5    5    0    0 -0.20154665047E+03 -0.22660965176E+03  0.43798235992E+03  0.53273026401E+03  0.00000000000E+00 0. -1.
        -13    1    5    5    0    0 -0.42008526599E+03 -0.32103621472E+03  0.68917556924E+03  0.86861893089E+03  0.00000000000E+00 0.  1.
          3    1    6    6  503    0 -0.15556784736E+03  0.17657892362E+03  0.29570483031E+03  0.37791906285E+03  0.00000000000E+00 0. -1.
         -3    1    6    6    0  503 -0.11694892685E+03  0.17461332412E+03  0.41718412773E+03  0.46712895530E+03  0.00000000000E+00 0.  1.
<mgrwt>
<rscale>  0 0.23211242E+04</rscale>
<asrwt>0</asrwt>
<pdfrwt beam="1">  1        2 0.43176472E+00 0.23211242E+04</pdfrwt>
<pdfrwt beam="2">  1       -1 0.73835107E-01 0.23211242E+04</pdfrwt>
<totfact> 0.43603900E+00</totfact>
</mgrwt>
</event>
<event>
12    7  0.2466188E-007  0.3402681E+04  0.7818608E-02  0.8137249E-01
          2   -1    0    0  501    0  0.00000000000E+00  0.00000000000E+00  0.15487006441E+04  0.15487006441E+04  0.00000000000E+00 0. -1.
         -1   -1    0    0    0  501 -0.00000000000E+00 -0.00000000000E+00 -0.18690242868E+04  0.18690242868E+04  0.00000000000E+00 0.  1.
         24    2    1    2    0    0  0.93932453169E+03 -0.12609911269E+04  0.15824966870E+02  0.15744840640E+04  0.79501197738E+02 0.  0.
        254    2    1    2    0    0 -0.93932453169E+03  0.12609911269E+04 -0.33614860963E+03  0.18432408669E+04  0.90117246279E+03 0.  0.
         23    2    4    4    0    0 -0.47314269123E+02  0.42084032439E+03 -0.43097719378E+03  0.61102667392E+03  0.90923242281E+02 0.  0.
         23    2    4    4    0    0 -0.89201026257E+03  0.84015080250E+03  0.94828584150E+02  0.12322141930E+04  0.88451554643E+02 0.  0.
          4    1    3    3  502    0  0.54602843885E+03 -0.79474194013E+03 -0.21436505859E+01  0.96424395392E+03  0.00000000000E+00 0. -1.
         -3    1    3    3    0  502  0.39329609284E+03 -0.46624918676E+03  0.17968617456E+02  0.61024011013E+03  0.00000000000E+00 0.  1.
         13    1    5    5    0    0 -0.56691448276E+02  0.13960819581E+03 -0.17112289149E+03  0.22800748373E+03  0.00000000000E+00 0. -1.
        -13    1    5    5    0    0  0.93771791530E+01  0.28123212858E+03 -0.25985430229E+03  0.38301919019E+03  0.00000000000E+00 0.  1.
          2    1    6    6  503    0 -0.50576740624E+03  0.52929017802E+03  0.76558969814E+02  0.73607746714E+03  0.00000000000E+00 0. -1.
         -2    1    6    6    0  503 -0.38624285632E+03  0.31086062448E+03  0.18269614335E+02  0.49613672583E+03  0.00000000000E+00 0.  1.
<mgrwt>
<rscale>  0 0.34026808E+04</rscale>
<asrwt>0</asrwt>
<pdfrwt beam="1">  1        2 0.23826164E+00 0.34026808E+04</pdfrwt>
<pdfrwt beam="2">  1       -1 0.28754220E+00 0.34026808E+04</pdfrwt>
<totfact> 0.44683910E-01</totfact>
</mgrwt>
</event>
<event>
12    7  0.2466188E-007  0.1270083E+04  0.7818608E-02  0.9053632E-01
         -1   -1    0    0    0  501 -0.00000000000E+00  0.00000000000E+00  0.11801296085E+04  0.11801296085E+04  0.00000000000E+00 0.  1.
          2   -1    0    0  501    0  0.00000000000E+00 -0.00000000000E+00 -0.34172308332E+03  0.34172308332E+03  0.00000000000E+00 0. -1.
         24    2    1    2    0    0 -0.17351184008E+03 -0.51918206326E+02  0.50965373221E+03  0.54668181840E+03  0.79449512389E+02 0.  0.
        254    2    1    2    0    0  0.17351184008E+03  0.51918206326E+02  0.32875279295E+03  0.97517087339E+03  0.90004331821E+03 0.  0.
         23    2    4    4    0    0  0.16251359728E+03 -0.39457578198E+03  0.52520493241E+02  0.44133102356E+03  0.99568836107E+02 0.  0.
         23    2    4    4    0    0  0.10998242802E+02  0.44649398830E+03  0.27623229971E+03  0.53383984983E+03  0.95931532525E+02 0.  0.
          2    1    3    3  502    0 -0.72769618677E+01 -0.47887303459E+01  0.18842088259E+00  0.87133010265E+01  0.00000000000E+00 0. -1.
         -1    1    3    3    0  502 -0.16623487821E+03 -0.47129475980E+02  0.50946531133E+03  0.53796851737E+03  0.00000000000E+00 0.  1.
         13    1    5    5    0    0  0.24582464945E+02 -0.25083145737E+02  0.30170326935E+02  0.46300220412E+02  0.00000000000E+00 0.  1.
        -13    1    5    5    0    0  0.13793113233E+03 -0.36949263624E+03  0.22350166306E+02  0.39503080315E+03  0.00000000000E+00 0. -1.
          3    1    6    6  503    0  0.31210575526E+02  0.41259842771E+03  0.23130000743E+03  0.47403718843E+03  0.00000000000E+00 0. -1.
         -3    1    6    6    0  503 -0.20212332725E+02  0.33895560593E+02  0.44932292277E+02  0.59802661407E+02  0.00000000000E+00 0.  1.
<mgrwt>
<rscale>  0 0.12700827E+04</rscale>
<asrwt>0</asrwt>
<pdfrwt beam="1">  1        2 0.52572783E-01 0.12700827E+04</pdfrwt>
<pdfrwt beam="2">  1       -1 0.18155840E+00 0.12700827E+04</pdfrwt>
<totfact> 0.21651269E+01</totfact>
</mgrwt>
</event>
<event>
12    7  0.2466188E-007  0.2465176E+04  0.7818608E-02  0.8415498E-01
         -1   -1    0    0    0  501 -0.00000000000E+00  0.00000000000E+00  0.11781965683E+04  0.11781965683E+04  0.00000000000E+00 0.  1.
          2   -1    0    0  501    0  0.00000000000E+00 -0.00000000000E+00 -0.12894905789E+04  0.12894905789E+04  0.00000000000E+00 0. -1.
         24    2    1    2    0    0  0.21186478530E+03  0.84403339613E+03 -0.66591586522E+03  0.10988179914E+04  0.81718893882E+02 0.  0.
        254    2    1    2    0    0 -0.21186478530E+03 -0.84403339613E+03  0.55462185462E+03  0.13688691559E+04  0.89939885659E+03 0.  0.
         23    2    4    4    0    0  0.40819466555E+02 -0.20764157337E+03 -0.22890844055E+03  0.32405753634E+03  0.88504016103E+02 0.  0.
         23    2    4    4    0    0 -0.25268425185E+03 -0.63639182276E+03  0.78353029517E+03  0.10448116195E+04  0.94168538462E+02 0.  0.
          2    1    3    3  502    0  0.13223442467E+03  0.37731726578E+03 -0.28198494310E+03  0.48925430020E+03  0.00000000000E+00 0. -1.
         -1    1    3    3    0  502  0.79630360621E+02  0.46671613035E+03 -0.38393092212E+03  0.60956369119E+03  0.00000000000E+00 0.  1.
         13    1    5    5    0    0  0.53300047016E+01 -0.79868451525E+02 -0.31023587643E+02  0.85847780923E+02  0.00000000000E+00 0.  1.
        -13    1    5    5    0    0  0.35489461853E+02 -0.12777312184E+03 -0.19788485291E+03  0.23820975542E+03  0.00000000000E+00 0. -1.
          4    1    6    6  503    0 -0.21445543882E+03 -0.54705979939E+03  0.61716950922E+03  0.85215242913E+03  0.00000000000E+00 0. -1.
         -4    1    6    6    0  503 -0.38228813031E+02 -0.89332023372E+02  0.16636078594E+03  0.19265919040E+03  0.00000000000E+00 0.  1.
<mgrwt>
<rscale>  0 0.24651762E+04</rscale>
<asrwt>0</asrwt>
<pdfrwt beam="1">  1        2 0.19838317E+00 0.24651762E+04</pdfrwt>
<pdfrwt beam="2">  1       -1 0.18126101E+00 0.24651762E+04</pdfrwt>
<totfact> 0.34832249E+00</totfact>
</mgrwt>
</event>
<event>
12    7  0.2466188E-007  0.1151257E+04  0.7818608E-02  0.9156625E-01
          2   -1    0    0  501    0  0.00000000000E+00  0.00000000000E+00  0.13250621377E+04  0.13250621377E+04  0.00000000000E+00 0. -1.
         -1   -1    0    0    0  501 -0.00000000000E+00 -0.00000000000E+00 -0.25006217991E+03  0.25006217991E+03  0.00000000000E+00 0.  1.
         24    2    1    2    0    0  0.18492188377E+03  0.10062959508E+03  0.21515644598E+03  0.31246943296E+03  0.83799950989E+02 0.  0.
        254    2    1    2    0    0 -0.18492188377E+03 -0.10062959508E+03  0.85984351178E+03  0.12626548846E+04  0.90035774799E+03 0.  0.
         23    2    4    4    0    0  0.92991009476E+01  0.25560324500E+03 -0.36531641262E+02  0.27430253290E+03  0.92129401424E+02 0.  0.
         23    2    4    4    0    0 -0.19422098472E+03 -0.35623284008E+03  0.89637515304E+03  0.98835235171E+03  0.93425525877E+02 0.  0.
          2    1    3    3  502    0  0.32109091111E+02  0.35083443554E+02  0.98411976444E+02  0.10930122987E+03  0.00000000000E+00 0. -1.
         -1    1    3    3    0  502  0.15281279266E+03  0.65546151524E+02  0.11674446953E+03  0.20316820309E+03  0.00000000000E+00 0.  1.
         13    1    5    5    0    0  0.41492155991E+02  0.57468286606E+02 -0.14654135859E+02  0.72380568331E+02  0.00000000000E+00 0. -1.
        -13    1    5    5    0    0 -0.32193055043E+02  0.19813495840E+03 -0.21877505404E+02  0.20192196457E+03  0.00000000000E+00 0.  1.
          1    1    6    6  503    0 -0.61642739260E+02 -0.10092204001E+03  0.17003608857E+03  0.20711677112E+03  0.00000000000E+00 0. -1.
         -1    1    6    6    0  503 -0.13257824546E+03 -0.25531080007E+03  0.72633906448E+03  0.78123558059E+03  0.00000000000E+00 0.  1.
<mgrwt>
<rscale>  0 0.11512566E+04</rscale>
<asrwt>0</asrwt>
<pdfrwt beam="1">  1        2 0.20385571E+00 0.11512566E+04</pdfrwt>
<pdfrwt beam="2">  1       -1 0.38471105E-01 0.11512566E+04</pdfrwt>
<totfact> 0.11785068E+02</totfact>
</mgrwt>
</event>
<event>
12    7  0.2466188E-007  0.2096757E+04  0.7818608E-02  0.8562673E-01
          2   -1    0    0  501    0  0.00000000000E+00  0.00000000000E+00  0.10590285471E+04  0.10590285471E+04  0.00000000000E+00 0. -1.
         -1   -1    0    0    0  501 -0.00000000000E+00 -0.00000000000E+00 -0.10378351956E+04  0.10378351956E+04  0.00000000000E+00 0.  1.
         24    2    1    2    0    0  0.24023318685E+03 -0.71745137852E+03  0.40084677918E+03  0.86015218591E+03  0.82068129892E+02 0.  0.
        254    2    1    2    0    0 -0.24023318685E+03  0.71745137852E+03 -0.37965342767E+03  0.12367115568E+04  0.90159319266E+03 0.  0.
         23    2    4    4    0    0  0.20933327069E+03  0.12211746202E+02  0.11869447991E+03  0.25769037032E+03  0.91358647270E+02 0.  0.
         23    2    4    4    0    0 -0.44956645754E+03  0.70523963232E+03 -0.49834790758E+03  0.97902118651E+03  0.10324198720E+03 0.  0.
          2    1    3    3  502    0  0.22506073283E+03 -0.63438315883E+03  0.38076777612E+03  0.77335530321E+03  0.00000000000E+00 0. -1.
         -1    1    3    3    0  502  0.15172454022E+02 -0.83068219686E+02  0.20079003067E+02  0.86796882703E+02  0.00000000000E+00 0.  1.
         13    1    5    5    0    0  0.18886614593E+03 -0.19387433162E+02  0.10854889024E+03  0.21869877735E+03  0.00000000000E+00 0. -1.
        -13    1    5    5    0    0  0.20467124761E+02  0.31599179364E+02  0.10145589673E+02  0.38991592970E+02  0.00000000000E+00 0.  1.
          3    1    6    6  503    0 -0.26549641466E+03  0.46085708654E+03 -0.36627668197E+03  0.64578340654E+03  0.00000000000E+00 0. -1.
         -3    1    6    6    0  503 -0.18407004288E+03  0.24438254578E+03 -0.13207122561E+03  0.33323777997E+03  0.00000000000E+00 0.  1.
<mgrwt>
<rscale>  0 0.20967566E+04</rscale>
<asrwt>0</asrwt>
<pdfrwt beam="1">  1        2 0.16292747E+00 0.20967566E+04</pdfrwt>
<pdfrwt beam="2">  1       -1 0.15966695E+00 0.20967566E+04</pdfrwt>
<totfact> 0.71398221E+00</totfact>
</mgrwt>
</event>
<event>
12    7  0.2466188E-007  0.1048386E+04  0.7818608E-02  0.9257012E-01
         -1   -1    0    0    0  501 -0.00000000000E+00  0.00000000000E+00  0.69786443501E+03  0.69786443501E+03  0.00000000000E+00 0.  1.
          2   -1    0    0  501    0  0.00000000000E+00 -0.00000000000E+00 -0.39374147460E+03  0.39374147460E+03  0.00000000000E+00 0. -1.
         24    2    1    2    0    0  0.27375421903E+02 -0.65389858565E+02 -0.56286785697E+02  0.12094386890E+03  0.80212030599E+02 0.  0.
        254    2    1    2    0    0 -0.27375421903E+02  0.65389858565E+02  0.36040974611E+03  0.97066204071E+03  0.89847891731E+03 0.  0.
         23    2    4    4    0    0 -0.38205869390E+03 -0.12163551048E+03 -0.19732046887E+02  0.41187500570E+03  0.92128299940E+02 0.  0.
         23    2    4    4    0    0  0.35468327199E+03  0.18702536905E+03  0.38014179300E+03  0.55878703501E+03  0.83405369239E+02 0.  0.
          4    1    3    3  502    0  0.22416163937E+02  0.10941117060E+01 -0.48978833020E+02  0.53875853312E+02  0.00000000000E+00 0. -1.
         -3    1    3    3    0  502  0.49592579661E+01 -0.66483970271E+02 -0.73079526765E+01  0.67068015588E+02  0.00000000000E+00 0.  1.
         13    1    5    5    0    0 -0.62947826722E+02 -0.95483942763E+01 -0.36220309717E+02  0.73249652274E+02  0.00000000000E+00 0. -1.
        -13    1    5    5    0    0 -0.31911086717E+03 -0.11208711621E+03  0.16488262830E+02  0.33862535342E+03  0.00000000000E+00 0.  1.
          4    1    6    6  503    0  0.16105496224E+02  0.24111515462E+02  0.53806449712E+02  0.61121896380E+02  0.00000000000E+00 0. -1.
         -4    1    6    6    0  503  0.33857777577E+03  0.16291385359E+03  0.32633534328E+03  0.49766513863E+03  0.00000000000E+00 0.  1.
<mgrwt>
<rscale>  0 0.10483858E+04</rscale>
<asrwt>0</asrwt>
<pdfrwt beam="1">  1        2 0.60575612E-01 0.10483858E+04</pdfrwt>
<pdfrwt beam="2">  1       -1 0.10736376E+00 0.10483858E+04</pdfrwt>
<totfact> 0.74608505E+01</totfact>
</mgrwt>
</event>
<event>
12    7  0.2466188E-007  0.2970159E+04  0.7818608E-02  0.8252304E-01
          2   -1    0    0  501    0  0.00000000000E+00  0.00000000000E+00  0.11447593918E+04  0.11447593918E+04  0.00000000000E+00 0. -1.
         -1   -1    0    0    0  501 -0.00000000000E+00 -0.00000000000E+00 -0.19265712407E+04  0.19265712407E+04  0.00000000000E+00 0.  1.
         24    2    1    2    0    0 -0.99352660850E+03 -0.32417780663E+03  0.52433418173E+03  0.11717800911E+04  0.77174320611E+02 0.  0.
        254    2    1    2    0    0  0.99352660850E+03  0.32417780663E+03 -0.13061460307E+04  0.18995505414E+04  0.90004912848E+03 0.  0.
         23    2    4    4    0    0  0.10299087826E+04  0.50159053942E+03 -0.12292336908E+04  0.16828361678E+04  0.92827427917E+02 0.  0.
         23    2    4    4    0    0 -0.36382174079E+02 -0.17741273279E+03 -0.76912339872E+02  0.21671437357E+03  0.90833206163E+02 0.  0.
          4    1    3    3  502    0 -0.64053124133E+03 -0.17496045624E+03  0.31190908053E+03  0.73360664315E+03  0.00000000000E+00 0. -1.
         -3    1    3    3    0  502 -0.35299536718E+03 -0.14921735039E+03  0.21242510120E+03  0.43817344799E+03  0.00000000000E+00 0.  1.
         13    1    5    5    0    0  0.10472990157E+03  0.34683809790E+02 -0.15453123272E+03  0.18987159037E+03  0.00000000000E+00 0.  1.
        -13    1    5    5    0    0  0.92517888101E+03  0.46690672963E+03 -0.10747024581E+04  0.14929645774E+04  0.00000000000E+00 0. -1.
          3    1    6    6  503    0 -0.47122436596E+02 -0.13996594726E+03 -0.21892517232E+02  0.14929927238E+03  0.00000000000E+00 0. -1.
         -3    1    6    6    0  503  0.10740262517E+02 -0.37446785537E+02 -0.55019822641E+02  0.67415101197E+02  0.00000000000E+00 0.  1.
<mgrwt>
<rscale>  0 0.29701586E+04</rscale>
<asrwt>0</asrwt>
<pdfrwt beam="1">  1        2 0.17611683E+00 0.29701586E+04</pdfrwt>
<pdfrwt beam="2">  1       -1 0.29639558E+00 0.29701586E+04</pdfrwt>
<totfact> 0.69682207E-01</totfact>
</mgrwt>
</event>
<event>
12    7  0.2466188E-007  0.1581850E+04  0.7818608E-02  0.8831776E-01
          2   -1    0    0  501    0  0.00000000000E+00  0.00000000000E+00  0.70289011327E+03  0.70289011327E+03  0.00000000000E+00 0. -1.
         -1   -1    0    0    0  501 -0.00000000000E+00 -0.00000000000E+00 -0.88998651487E+03  0.88998651487E+03  0.00000000000E+00 0.  1.
         24    2    1    2    0    0 -0.48152018048E+03 -0.22135492344E+03 -0.10030818694E+03  0.54548805547E+03  0.81460419587E+02 0.  0.
        254    2    1    2    0    0  0.48152018048E+03  0.22135492344E+03 -0.86788214661E+02  0.10473885727E+04  0.89923909034E+03 0.  0.
         23    2    4    4    0    0 -0.10012898876E+03  0.17433874359E+03  0.27540004230E+03  0.35362184771E+03  0.93719880319E+02 0.  0.
         23    2    4    4    0    0  0.58164916924E+03  0.47016179849E+02 -0.36218825696E+03  0.69376672496E+03  0.98008458453E+02 0.  0.
          2    1    3    3  502    0 -0.19026759940E+03 -0.48508362639E+02 -0.19638175063E+02  0.19733341974E+03  0.00000000000E+00 0. -1.
         -1    1    3    3    0  502 -0.29125258108E+03 -0.17284656080E+03 -0.80670011874E+02  0.34815463573E+03  0.00000000000E+00 0.  1.
         13    1    5    5    0    0 -0.28096867195E+02  0.56563170381E+02  0.25476109736E+02  0.68101823449E+02  0.00000000000E+00 0. -1.
        -13    1    5    5    0    0 -0.72032121568E+02  0.11777557321E+03  0.24992393256E+03  0.28552002426E+03  0.00000000000E+00 0.  1.
          1    1    6    6  503    0  0.45561761051E+03  0.34657472703E+02 -0.23318593507E+03  0.51299534864E+03  0.00000000000E+00 0. -1.
         -1    1    6    6    0  503  0.12603155874E+03  0.12358707146E+02 -0.12900232189E+03  0.18077137631E+03  0.00000000000E+00 0.  1.
<mgrwt>
<rscale>  0 0.15818505E+04</rscale>
<asrwt>0</asrwt>
<pdfrwt beam="1">  1        2 0.10813694E+00 0.15818505E+04</pdfrwt>
<pdfrwt beam="2">  1       -1 0.13692100E+00 0.15818505E+04</pdfrwt>
<totfact> 0.19858200E+01</totfact>
</mgrwt>
</event>
<event>
12    7  0.2466188E-007  0.3006073E+04  0.7818608E-02  0.8241999E-01
          2   -1    0    0  501    0  0.00000000000E+00  0.00000000000E+00  0.20571823589E+04  0.20571823589E+04  0.00000000000E+00 0. -1.
         -1   -1    0    0    0  501 -0.00000000000E+00 -0.00000000000E+00 -0.10981615629E+04  0.10981615629E+04  0.00000000000E+00 0.  1.
         24    2    1    2    0    0 -0.82404789890E+03 -0.10766545437E+04  0.62068693578E+03  0.14932536000E+04  0.79461283160E+02 0.  0.
        254    2    1    2    0    0  0.82404789890E+03  0.10766545437E+04  0.33833386017E+03  0.16620903218E+04  0.89990804577E+03 0.  0.
         23    2    4    4    0    0 -0.22194981933E+02 -0.11089187265E+03  0.11224366131E+03  0.18364273900E+03  0.91303841313E+02 0.  0.
         23    2    4    4    0    0  0.84624288083E+03  0.11875464163E+04  0.22609019885E+03  0.14784475828E+04  0.91087720513E+02 0.  0.
          4    1    3    3  502    0 -0.42059736142E+03 -0.55584654028E+03  0.36252906430E+03  0.78568113076E+03  0.00000000000E+00 0. -1.
         -3    1    3    3    0  502 -0.40345053748E+03 -0.52080800338E+03  0.25815787148E+03  0.70757246921E+03  0.00000000000E+00 0.  1.
         13    1    5    5    0    0 -0.54831615638E+02 -0.92931875207E+02  0.87508638885E+02  0.13892660430E+03  0.00000000000E+00 0.  1.
        -13    1    5    5    0    0  0.32636633705E+02 -0.17959997446E+02  0.24735022427E+02  0.44716134698E+02  0.00000000000E+00 0. -1.
          1    1    6    6  503    0  0.75161915418E+02  0.82710756264E+02 -0.30260603710E+01  0.11180134066E+03  0.00000000000E+00 0. -1.
         -1    1    6    6    0  503  0.77108096541E+03  0.11048356601E+04  0.22911625923E+03  0.13666462422E+04  0.00000000000E+00 0.  1.
<mgrwt>
<rscale>  0 0.30060729E+04</rscale>
<asrwt>0</asrwt>
<pdfrwt beam="1">  1        2 0.31648959E+00 0.30060729E+04</pdfrwt>
<pdfrwt beam="2">  1       -1 0.16894793E+00 0.30060729E+04</pdfrwt>
<totfact> 0.15134408E+00</totfact>
</mgrwt>
</event>
<event>
12    7  0.2466188E-007  0.2568679E+04  0.7818608E-02  0.8378919E-01
         -1   -1    0    0    0  501 -0.00000000000E+00  0.00000000000E+00  0.85336694797E+03  0.85336694797E+03  0.00000000000E+00 0.  1.
          2   -1    0    0  501    0  0.00000000000E+00 -0.00000000000E+00 -0.19329649298E+04  0.19329649298E+04  0.00000000000E+00 0. -1.
         24    2    1    2    0    0 -0.45744464933E+02 -0.32005390426E+03 -0.16344081197E+04  0.16680266509E+04  0.80597448765E+02 0.  0.
        254    2    1    2    0    0  0.45744464933E+02  0.32005390426E+03  0.55481013787E+03  0.11183052268E+04  0.91556825721E+03 0.  0.
         23    2    4    4    0    0  0.35652862533E+03  0.34608741691E+03  0.60930425627E+03  0.79151245079E+03  0.91384474756E+02 0.  0.
         23    2    4    4    0    0 -0.31078416039E+03 -0.26033512644E+02 -0.54494118400E+02  0.32679277606E+03  0.80989946364E+02 0.  0.
          4    1    3    3  502    0 -0.33962911191E+02 -0.25486758949E+03 -0.14364153547E+04  0.14592463941E+04  0.00000000000E+00 0. -1.
         -3    1    3    3    0  502 -0.11781553742E+02 -0.65186314777E+02 -0.19799276498E+03  0.20878025680E+03  0.00000000000E+00 0.  1.
         13    1    5    5    0    0  0.12056245394E+03  0.65011281448E+02  0.19102575566E+03  0.23505874019E+03  0.00000000000E+00 0. -1.
        -13    1    5    5    0    0  0.23596617138E+03  0.28107613546E+03  0.41827850061E+03  0.55645371060E+03  0.00000000000E+00 0.  1.
          3    1    6    6  503    0 -0.58813005917E+02  0.25013101166E+02 -0.22324887600E+02  0.67698046511E+02  0.00000000000E+00 0. -1.
         -3    1    6    6    0  503 -0.25197115448E+03 -0.51046613810E+02 -0.32169230799E+02  0.25909472955E+03  0.00000000000E+00 0.  1.
<mgrwt>
<rscale>  0 0.25686793E+04</rscale>
<asrwt>0</asrwt>
<pdfrwt beam="1">  1        2 0.29737922E+00 0.25686793E+04</pdfrwt>
<pdfrwt beam="2">  1       -1 0.13128722E+00 0.25686793E+04</pdfrwt>
<totfact> 0.36339301E+00</totfact>
</mgrwt>
</event>
<event>
12    7  0.2466188E-007  0.3148163E+04  0.7818608E-02  0.8202643E-01
         -1   -1    0    0    0  501 -0.00000000000E+00  0.00000000000E+00  0.72737934429E+03  0.72737934429E+03  0.00000000000E+00 0.  1.
          2   -1    0    0  501    0  0.00000000000E+00 -0.00000000000E+00 -0.34063836762E+04  0.34063836762E+04  0.00000000000E+00 0. -1.
         24    2    1    2    0    0 -0.90591357753E+03 -0.10061260171E+04 -0.56958796091E+03  0.14705734642E+04  0.72020110258E+02 0.  0.
        254    2    1    2    0    0  0.90591357753E+03  0.10061260171E+04 -0.21094163710E+04  0.26631895563E+04  0.89998456326E+03 0.  0.
         23    2    4    4    0    0  0.74185194266E+03  0.99389908524E+03 -0.21364566187E+04  0.24724909435E+04  0.10288287368E+03 0.  0.
         23    2    4    4    0    0  0.16406163487E+03  0.12226931860E+02  0.27040247652E+02  0.19069861279E+03  0.92569260713E+02 0.  0.
          4    1    3    3  502    0 -0.33003999091E+03 -0.36203943071E+03 -0.24372243780E+03  0.54717416942E+03  0.00000000000E+00 0. -1.
         -3    1    3    3    0  502 -0.57587358662E+03 -0.64408658639E+03 -0.32586552311E+03  0.92339929482E+03  0.00000000000E+00 0.  1.
         13    1    5    5    0    0  0.67019156736E+03  0.85913431022E+03 -0.19198740001E+04  0.22075290884E+04  0.00000000000E+00 0.  1.
        -13    1    5    5    0    0  0.71660375301E+02  0.13476477502E+03 -0.21658261858E+03  0.26496185507E+03  0.00000000000E+00 0. -1.
          1    1    6    6  503    0  0.15844448017E+03 -0.54483695250E+01  0.76843201837E+00  0.15853999027E+03  0.00000000000E+00 0. -1.
         -1    1    6    6    0  503  0.56171547009E+01  0.17675301385E+02  0.26271815633E+02  0.32158622524E+02  0.00000000000E+00 0.  1.
<mgrwt>
<rscale>  0 0.31481634E+04</rscale>
<asrwt>0</asrwt>
<pdfrwt beam="1">  1        2 0.52405902E+00 0.31481634E+04</pdfrwt>
<pdfrwt beam="2">  1       -1 0.11190452E+00 0.31481634E+04</pdfrwt>
<totfact> 0.66348926E-01</totfact>
</mgrwt>
</event>
<event>
12    7  0.2466188E-007  0.1683331E+04  0.7818608E-02  0.8770929E-01
          2   -1    0    0  501    0  0.00000000000E+00  0.00000000000E+00  0.15041248029E+04  0.15041248029E+04  0.00000000000E+00 0. -1.
         -1   -1    0    0    0  501 -0.00000000000E+00 -0.00000000000E+00 -0.47097199660E+03  0.47097199660E+03  0.00000000000E+00 0.  1.
         24    2    1    2    0    0 -0.19999101000E+03 -0.56125853179E+03  0.42860249184E+03  0.73822533409E+03  0.79177044025E+02 0.  0.
        254    2    1    2    0    0  0.19999101000E+03  0.56125853179E+03  0.60455031449E+03  0.12368714654E+04  0.89964570563E+03 0.  0.
         23    2    4    4    0    0  0.24667878837E+03 -0.16797387830E+03  0.53197712139E+02  0.31694642793E+03  0.92516988585E+02 0.  0.
         23    2    4    4    0    0 -0.46687778373E+02  0.72923241009E+03  0.55135260235E+03  0.91992503751E+03  0.91174151694E+02 0.  0.
          2    1    3    3  502    0 -0.10076075452E+03 -0.34300061763E+03  0.29671450783E+03  0.46458761553E+03  0.00000000000E+00 0. -1.
         -1    1    3    3    0  502 -0.99230255476E+02 -0.21825791416E+03  0.13188798401E+03  0.27363771857E+03  0.00000000000E+00 0.  1.
         13    1    5    5    0    0  0.57475167254E+02 -0.82338748052E+02 -0.71686450104E+01  0.10067002410E+03  0.00000000000E+00 0. -1.
        -13    1    5    5    0    0  0.18920362112E+03 -0.85635130246E+02  0.60366357149E+02  0.21627640382E+03  0.00000000000E+00 0.  1.
          1    1    6    6  503    0  0.19967896630E+02  0.22554720798E+03  0.20090212220E+03  0.30270765208E+03  0.00000000000E+00 0. -1.
         -1    1    6    6    0  503 -0.66655675003E+02  0.50368520211E+03  0.35045048015E+03  0.61721738542E+03  0.00000000000E+00 0.  1.
<mgrwt>
<rscale>  0 0.16833308E+04</rscale>
<asrwt>0</asrwt>
<pdfrwt beam="1">  1        2 0.23140381E+00 0.16833308E+04</pdfrwt>
<pdfrwt beam="2">  1       -1 0.72457231E-01 0.16833308E+04</pdfrwt>
<totfact> 0.26335880E+01</totfact>
</mgrwt>
</event>
<event>
12    7  0.2466188E-007  0.1616553E+04  0.7818608E-02  0.8810443E-01
          2   -1    0    0  501    0  0.00000000000E+00  0.00000000000E+00  0.16359164702E+04  0.16359164702E+04  0.00000000000E+00 0. -1.
         -1   -1    0    0    0  501 -0.00000000000E+00 -0.00000000000E+00 -0.39935489666E+03  0.39935489666E+03  0.00000000000E+00 0.  1.
         24    2    1    2    0    0  0.48952928249E+03 -0.22304130862E+03  0.59213624854E+03  0.80438799580E+03  0.83835357592E+02 0.  0.
        254    2    1    2    0    0 -0.48952928249E+03  0.22304130862E+03  0.64442532503E+03  0.12308833711E+04  0.90022415538E+03 0.  0.
         23    2    4    4    0    0 -0.20747056512E+03  0.47458804950E+02  0.81399324235E+03  0.84685157516E+03  0.96313125855E+02 0.  0.
         23    2    4    4    0    0 -0.28205871737E+03  0.17558250367E+03 -0.16956791731E+03  0.38403179593E+03  0.91328013578E+02 0.  0.
          2    1    3    3  502    0  0.65923047003E+02 -0.42418073620E+02  0.13115881416E+03  0.15279978935E+03  0.00000000000E+00 0. -1.
         -1    1    3    3    0  502  0.42360623549E+03 -0.18062323500E+03  0.46097743439E+03  0.65158820645E+03  0.00000000000E+00 0.  1.
         13    1    5    5    0    0 -0.11012802047E+03 -0.24042493983E+02  0.38027183027E+03  0.39662688676E+03  0.00000000000E+00 0. -1.
        -13    1    5    5    0    0 -0.97342544656E+02  0.71501298932E+02  0.43372141208E+03  0.45022468840E+03  0.00000000000E+00 0.  1.
          3    1    6    6  503    0 -0.13430076582E+03  0.13701295334E+03 -0.95024368502E+02  0.21410015341E+03  0.00000000000E+00 0. -1.
         -3    1    6    6    0  503 -0.14775795155E+03  0.38569550333E+02 -0.74543548810E+02  0.16993164252E+03  0.00000000000E+00 0.  1.
<mgrwt>
<rscale>  0 0.16165534E+04</rscale>
<asrwt>0</asrwt>
<pdfrwt beam="1">  1        2 0.25167945E+00 0.16165534E+04</pdfrwt>
<pdfrwt beam="2">  1       -1 0.61439216E-01 0.16165534E+04</pdfrwt>
<totfact> 0.31215114E+01</totfact>
</mgrwt>
</event>
<event>
12    7  0.2466188E-007  0.3023480E+04  0.7818608E-02  0.8237058E-01
         -1   -1    0    0    0  501 -0.00000000000E+00  0.00000000000E+00  0.73794121903E+03  0.73794121903E+03  0.00000000000E+00 0.  1.
          2   -1    0    0  501    0  0.00000000000E+00 -0.00000000000E+00 -0.30969384866E+04  0.30969384866E+04  0.00000000000E+00 0. -1.
         24    2    1    2    0    0 -0.11173733554E+04  0.61361135658E+02 -0.20939902924E+04  0.23755326269E+04  0.77919911508E+02 0.  0.
        254    2    1    2    0    0  0.11173733554E+04 -0.61361135658E+02 -0.26500697524E+03  0.14593470788E+04  0.89843018373E+03 0.  0.
         23    2    4    4    0    0  0.31478877192E+03 -0.28576122760E+03  0.22375846636E+03  0.48884012456E+03  0.90251681321E+02 0.  0.
         23    2    4    4    0    0  0.80258458348E+03  0.22440009194E+03 -0.48876544160E+03  0.97050695421E+03  0.92166568510E+02 0.  0.
          4    1    3    3  502    0 -0.33335424386E+03  0.42582267278E+02 -0.68475745404E+03  0.76277852110E+03  0.00000000000E+00 0. -1.
         -3    1    3    3    0  502 -0.78401911154E+03  0.18778868380E+02 -0.14092328383E+04  0.16127541058E+04  0.00000000000E+00 0.  1.
         13    1    5    5    0    0 -0.55068167585E+01 -0.25382903865E+01  0.76775312439E+01  0.97832732201E+01  0.00000000000E+00 0. -1.
        -13    1    5    5    0    0  0.32029558868E+03 -0.28322293721E+03  0.21608093512E+03  0.47905685134E+03  0.00000000000E+00 0.  1.
          3    1    6    6  503    0  0.34187905810E+03  0.10034603876E+03 -0.26189803517E+03  0.44220040557E+03  0.00000000000E+00 0. -1.
         -3    1    6    6    0  503  0.46070552538E+03  0.12405405318E+03 -0.22686740644E+03  0.52830654864E+03  0.00000000000E+00 0.  1.
<mgrwt>
<rscale>  0 0.30234805E+04</rscale>
<asrwt>0</asrwt>
<pdfrwt beam="1">  1        2 0.47645208E+00 0.30234805E+04</pdfrwt>
<pdfrwt beam="2">  1       -1 0.11352942E+00 0.30234805E+04</pdfrwt>
<totfact> 0.10379860E+00</totfact>
</mgrwt>
</event>
<event>
12    7  0.2466188E-007  0.1741591E+04  0.7818608E-02  0.8737992E-01
          4   -1    0    0  501    0  0.00000000000E+00  0.00000000000E+00  0.17865451206E+04  0.17865451206E+04  0.00000000000E+00 0. -1.
         -3   -1    0    0    0  501 -0.00000000000E+00 -0.00000000000E+00 -0.42444218962E+03  0.42444218962E+03  0.00000000000E+00 0.  1.
         24    2    1    2    0    0  0.60846983888E+03 -0.11737532823E+03  0.67091841696E+03  0.91681852638E+03  0.80076061229E+02 0.  0.
        254    2    1    2    0    0 -0.60846983888E+03  0.11737532823E+03  0.69118451404E+03  0.12941687839E+04  0.90173404959E+03 0.  0.
         23    2    4    4    0    0  0.57151532894E+02 -0.13664855048E+03 -0.11959988470E+03  0.21094091328E+03  0.90844991133E+02 0.  0.
         23    2    4    4    0    0 -0.66562137178E+03  0.25402387871E+03  0.81078439875E+03  0.10832278706E+04  0.91822311391E+02 0.  0.
          2    1    3    3  502    0  0.55846717622E+03 -0.12791962370E+03  0.62806455967E+03  0.85012593665E+03  0.00000000000E+00 0. -1.
         -1    1    3    3    0  502  0.50002662662E+02  0.10544295471E+02  0.42853857290E+02  0.66692589730E+02  0.00000000000E+00 0.  1.
         13    1    5    5    0    0  0.22576019578E+02 -0.74364977593E+02 -0.74415283672E+01  0.78071780413E+02  0.00000000000E+00 0. -1.
        -13    1    5    5    0    0  0.34575513316E+02 -0.62283572883E+02 -0.11215835634E+03  0.13286913286E+03  0.00000000000E+00 0.  1.
          4    1    6    6  503    0 -0.15621860766E+03  0.30387445632E+02  0.22237582007E+03  0.27345686238E+03  0.00000000000E+00 0.  1.
         -4    1    6    6    0  503 -0.50940276412E+03  0.22363643308E+03  0.58840857868E+03  0.80977100822E+03  0.00000000000E+00 0. -1.
<mgrwt>
<rscale>  0 0.17415914E+04</rscale>
<asrwt>0</asrwt>
<pdfrwt beam="1">  1        4 0.27485309E+00 0.17415914E+04</pdfrwt>
<pdfrwt beam="2">  1       -3 0.65298799E-01 0.17415914E+04</pdfrwt>
<totfact> 0.21789538E-01</totfact>
</mgrwt>
</event>
<event>
12    7  0.2466188E-007  0.2231421E+04  0.7818608E-02  0.8505463E-01
         -1   -1    0    0    0  501 -0.00000000000E+00  0.00000000000E+00  0.57064839426E+03  0.57064839426E+03  0.00000000000E+00 0.  1.
          2   -1    0    0  501    0  0.00000000000E+00 -0.00000000000E+00 -0.21813956062E+04  0.21813956062E+04  0.00000000000E+00 0. -1.
         24    2    1    2    0    0  0.33738513762E+03 -0.12744090368E+03  0.38472945449E+03  0.53375673023E+03  0.82520172633E+02 0.  0.
        254    2    1    2    0    0 -0.33738513762E+03  0.12744090368E+03 -0.19954766665E+04  0.22182872703E+04  0.89933384903E+03 0.  0.
         23    2    4    4    0    0 -0.11868067284E+03  0.74304179002E+02 -0.19666956367E+04  0.19737944244E+04  0.91468515152E+02 0.  0.
         23    2    4    4    0    0 -0.21870446478E+03  0.53136724681E+02 -0.28781029747E+02  0.24449284585E+03  0.91067280470E+02 0.  0.
          4    1    3    3  502    0  0.10066287778E+03  0.95431357061E+00  0.10584262807E+03  0.14607048844E+03  0.00000000000E+00 0. -1.
         -3    1    3    3    0  502  0.23672225984E+03 -0.12839521725E+03  0.27888682642E+03  0.38768624179E+03  0.00000000000E+00 0.  1.
         13    1    5    5    0    0 -0.96968717167E+01  0.35665775968E+02 -0.91790851152E+03  0.91865233490E+03  0.00000000000E+00 0. -1.
        -13    1    5    5    0    0 -0.10898380112E+03  0.38638403034E+02 -0.10487871252E+04  0.10551420895E+04  0.00000000000E+00 0.  1.
          1    1    6    6  503    0 -0.17389901517E+03  0.70612413710E+01 -0.41630711347E+02  0.17895207385E+03  0.00000000000E+00 0. -1.
         -1    1    6    6    0  503 -0.44805449609E+02  0.46075483310E+02  0.12849681600E+02  0.65540771998E+02  0.00000000000E+00 0.  1.
<mgrwt>
<rscale>  0 0.22314210E+04</rscale>
<asrwt>0</asrwt>
<pdfrwt beam="1">  1        2 0.33559933E+00 0.22314210E+04</pdfrwt>
<pdfrwt beam="2">  1       -1 0.87792059E-01 0.22314210E+04</pdfrwt>
<totfact> 0.70015430E+00</totfact>
</mgrwt>
</event>
<event>
12    7  0.2466188E-007  0.1943402E+04  0.7818608E-02  0.8633549E-01
          2   -1    0    0  501    0  0.00000000000E+00  0.00000000000E+00  0.45173016524E+03  0.45173016524E+03  0.00000000000E+00 0. -1.
         -1   -1    0    0    0  501 -0.00000000000E+00 -0.00000000000E+00 -0.20901926825E+04  0.20901926825E+04  0.00000000000E+00 0.  1.
         24    2    1    2    0    0  0.56875795791E+01 -0.65690004784E+03 -0.11384616162E+04  0.13168493994E+04  0.80296124378E+02 0.  0.
        254    2    1    2    0    0 -0.56875795791E+01  0.65690004784E+03 -0.50000090109E+03  0.12250734484E+04  0.90512652791E+03 0.  0.
         23    2    4    4    0    0  0.21055020095E+03  0.42898746795E+02 -0.51759086023E+03  0.56769755525E+03  0.90600916344E+02 0.  0.
         23    2    4    4    0    0 -0.21623778053E+03  0.61400130105E+03  0.17589959146E+02  0.65737589317E+03  0.89873704949E+02 0.  0.
          4    1    3    3  502    0 -0.29775068858E+02 -0.31910172037E+03 -0.50604389109E+03  0.59899322398E+03  0.00000000000E+00 0. -1.
         -3    1    3    3    0  502  0.35462648437E+02 -0.33779832747E+03 -0.63241772513E+03  0.71785617538E+03  0.00000000000E+00 0.  1.
         13    1    5    5    0    0  0.39409553555E+02  0.46267648481E+02 -0.16273632907E+03  0.17371505694E+03  0.00000000000E+00 0. -1.
        -13    1    5    5    0    0  0.17114064740E+03 -0.33689016859E+01 -0.35485453116E+03  0.39398249831E+03  0.00000000000E+00 0.  1.
          2    1    6    6  503    0 -0.12407718560E+03  0.42327598377E+03  0.46733254353E+02  0.44355575015E+03  0.00000000000E+00 0. -1.
         -2    1    6    6    0  503 -0.92160594926E+02  0.19072531728E+03 -0.29143295207E+02  0.21382014303E+03  0.00000000000E+00 0.  1.
<mgrwt>
<rscale>  0 0.19434023E+04</rscale>
<asrwt>0</asrwt>
<pdfrwt beam="1">  1        2 0.69496949E-01 0.19434023E+04</pdfrwt>
<pdfrwt beam="2">  1       -1 0.32156810E+00 0.19434023E+04</pdfrwt>
<totfact> 0.17675653E+00</totfact>
</mgrwt>
</event>
<event>
12    7  0.2466188E-007  0.1519163E+04  0.7818608E-02  0.8871809E-01
         -1   -1    0    0    0  501 -0.00000000000E+00  0.00000000000E+00  0.12520724322E+03  0.12520724322E+03  0.00000000000E+00 0.  1.
          2   -1    0    0  501    0  0.00000000000E+00 -0.00000000000E+00 -0.46080739222E+04  0.46080739222E+04  0.00000000000E+00 0. -1.
         24    2    1    2    0    0  0.60123190224E+01 -0.49237378297E+03 -0.13823805570E+04  0.14696221835E+04  0.79657189172E+02 0.  0.
        254    2    1    2    0    0 -0.60123190224E+01  0.49237378297E+03 -0.31004861219E+04  0.32636589818E+04  0.89218140943E+03 0.  0.
         23    2    4    4    0    0  0.25839280351E+03  0.44629033862E+03 -0.87285914632E+03  0.10182199958E+04  0.94588389191E+02 0.  0.
         23    2    4    4    0    0 -0.26440512254E+03  0.46083444352E+02 -0.22276269756E+04  0.22454389860E+04  0.87410209401E+02 0.  0.
          4    1    3    3  502    0 -0.30281132255E+02 -0.36271162733E+03 -0.10269776493E+04  0.10895686136E+04  0.00000000000E+00 0. -1.
         -3    1    3    3    0  502  0.36293451278E+02 -0.12966215564E+03 -0.35540290772E+03  0.38005356994E+03  0.00000000000E+00 0.  1.
         13    1    5    5    0    0  0.17942628905E+03  0.31242738485E+03 -0.68867550472E+03  0.77722494479E+03  0.00000000000E+00 0.  1.
        -13    1    5    5    0    0  0.78966514465E+02  0.13386295376E+03 -0.18418364160E+03  0.24099505105E+03  0.00000000000E+00 0. -1.
          3    1    6    6  503    0 -0.99416316326E+02  0.55204435148E+02 -0.10814444818E+04  0.10874066860E+04  0.00000000000E+00 0. -1.
         -3    1    6    6    0  503 -0.16498880621E+03 -0.91209907959E+01 -0.11461824938E+04  0.11580323000E+04  0.00000000000E+00 0.  1.
<mgrwt>
<rscale>  0 0.15191632E+04</rscale>
<asrwt>0</asrwt>
<pdfrwt beam="1">  1        2 0.70893428E+00 0.15191632E+04</pdfrwt>
<pdfrwt beam="2">  1       -1 0.19262657E-01 0.15191632E+04</pdfrwt>
<totfact> 0.23822303E+00</totfact>
</mgrwt>
</event>
<event>
12    7  0.2466188E-007  0.2326093E+04  0.7818608E-02  0.8467704E-01
          2   -1    0    0  501    0  0.00000000000E+00  0.00000000000E+00  0.10129133450E+04  0.10129133450E+04  0.00000000000E+00 0. -1.
         -1   -1    0    0    0  501 -0.00000000000E+00 -0.00000000000E+00 -0.13354321886E+04  0.13354321886E+04  0.00000000000E+00 0.  1.
         24    2    1    2    0    0  0.26381877468E+03 -0.94999216929E+03 -0.88666400862E+02  0.99291869890E+03  0.77073629782E+02 0.  0.
        254    2    1    2    0    0 -0.26381877468E+03  0.94999216929E+03 -0.23385244270E+03  0.13554268346E+04  0.90022745545E+03 0.  0.
         23    2    4    4    0    0  0.22725329104E+03  0.38659969233E+03  0.18578348345E+03  0.49360487680E+03  0.89592919830E+02 0.  0.
         23    2    4    4    0    0 -0.49107206571E+03  0.56339247696E+03 -0.41963592615E+03  0.86182195784E+03  0.89888373468E+02 0.  0.
          2    1    3    3  502    0  0.74538146483E+02 -0.31690022991E+03  0.46423456797E+01  0.32558139132E+03  0.00000000000E+00 0. -1.
         -1    1    3    3    0  502  0.18928062819E+03 -0.63309193938E+03 -0.93308746542E+02  0.66733730759E+03  0.00000000000E+00 0.  1.
         13    1    5    5    0    0  0.81354545509E+02  0.17797621064E+03  0.38332933026E+02  0.19940789198E+03  0.00000000000E+00 0.  1.
        -13    1    5    5    0    0  0.14589874553E+03  0.20862348169E+03  0.14745055042E+03  0.29419698482E+03  0.00000000000E+00 0. -1.
          3    1    6    6  503    0 -0.10675563325E+03  0.17222981762E+03 -0.87541289849E+02  0.22073366924E+03  0.00000000000E+00 0. -1.
         -3    1    6    6    0  503 -0.38431643246E+03  0.39116265934E+03 -0.33209463630E+03  0.64108828860E+03  0.00000000000E+00 0.  1.
<mgrwt>
<rscale>  0 0.23260929E+04</rscale>
<asrwt>0</asrwt>
<pdfrwt beam="1">  1        2 0.15583282E+00 0.23260929E+04</pdfrwt>
<pdfrwt beam="2">  1       -1 0.20545110E+00 0.23260929E+04</pdfrwt>
<totfact> 0.35196761E+00</totfact>
</mgrwt>
</event>
<event>
12    7  0.2466188E-007  0.1415111E+04  0.7818608E-02  0.8942952E-01
          2   -1    0    0  501    0  0.00000000000E+00  0.00000000000E+00  0.87926394551E+03  0.87926394551E+03  0.00000000000E+00 0. -1.
         -1   -1    0    0    0  501 -0.00000000000E+00 -0.00000000000E+00 -0.56937941681E+03  0.56937941681E+03  0.00000000000E+00 0.  1.
         24    2    1    2    0    0 -0.31421911731E+03 -0.14521466637E+03 -0.15481419810E+03  0.38757851818E+03  0.80179291654E+02 0.  0.
        254    2    1    2    0    0  0.31421911731E+03  0.14521466637E+03  0.46469872681E+03  0.10610648441E+04  0.88887161264E+03 0.  0.
         23    2    4    4    0    0  0.20105573223E+03  0.51116210044E+03  0.31803615026E+03  0.64086325691E+03  0.88592442098E+02 0.  0.
         23    2    4    4    0    0  0.11316338508E+03 -0.36594743408E+03  0.14666257654E+03  0.42020158722E+03  0.91301622741E+02 0.  0.
          2    1    3    3  502    0 -0.30758717233E+03 -0.12166001323E+03 -0.14610596365E+03  0.36160472898E+03  0.00000000000E+00 0. -1.
         -1    1    3    3    0  502 -0.66319449761E+01 -0.23554653131E+02 -0.87082344499E+01  0.25973789202E+02  0.00000000000E+00 0.  1.
         13    1    5    5    0    0  0.50745026973E+02  0.23045417685E+03  0.10878319462E+03  0.25984219985E+03  0.00000000000E+00 0. -1.
        -13    1    5    5    0    0  0.15031070526E+03  0.28070792359E+03  0.20925295564E+03  0.38102105707E+03  0.00000000000E+00 0.  1.
          1    1    6    6  503    0  0.11405815798E+03 -0.34346455406E+03  0.15813156770E+03  0.39494652296E+03  0.00000000000E+00 0. -1.
         -1    1    6    6    0  503 -0.89477290152E+00 -0.22482880016E+02 -0.11468991160E+02  0.25255064256E+02  0.00000000000E+00 0.  1.
<mgrwt>
<rscale>  0 0.14151110E+04</rscale>
<asrwt>0</asrwt>
<pdfrwt beam="1">  1        2 0.13527138E+00 0.14151110E+04</pdfrwt>
<pdfrwt beam="2">  1       -1 0.87596833E-01 0.14151110E+04</pdfrwt>
<totfact> 0.43112409E+01</totfact>
</mgrwt>
</event>
<event>
12    7  0.2466188E-007  0.2503839E+04  0.7818608E-02  0.8401619E-01
         -1   -1    0    0    0  501 -0.00000000000E+00  0.00000000000E+00  0.11851120170E+04  0.11851120170E+04  0.00000000000E+00 0.  1.
          2   -1    0    0  501    0  0.00000000000E+00 -0.00000000000E+00 -0.13224925754E+04  0.13224925754E+04  0.00000000000E+00 0. -1.
         24    2    1    2    0    0  0.84257270681E+03  0.42447807946E+03 -0.60882743666E+03  0.11260900685E+04  0.85425924015E+02 0.  0.
        254    2    1    2    0    0 -0.84257270681E+03 -0.42447807946E+03  0.47144687831E+03  0.13815145239E+04  0.89230589740E+03 0.  0.
         23    2    4    4    0    0 -0.74562156654E+03 -0.51303098518E+03  0.67020493605E+03  0.11299273409E+04  0.91699657508E+02 0.  0.
         23    2    4    4    0    0 -0.96951140270E+02  0.88552905726E+02 -0.19875805774E+03  0.25158718301E+03  0.80933333219E+02 0.  0.
          4    1    3    3  502    0  0.71040766494E+03  0.35224233731E+03 -0.54683135623E+03  0.96321246190E+03  0.00000000000E+00 0. -1.
         -3    1    3    3    0  502  0.13216504187E+03  0.72235742152E+02 -0.61996080422E+02  0.16287760658E+03  0.00000000000E+00 0.  1.
         13    1    5    5    0    0 -0.19242566181E+03 -0.18294806818E+03  0.19525513607E+03  0.32957882082E+03  0.00000000000E+00 0.  1.
        -13    1    5    5    0    0 -0.55319590473E+03 -0.33008291701E+03  0.47494979998E+03  0.80034852009E+03  0.00000000000E+00 0. -1.
          4    1    6    6  503    0 -0.12688366280E+02  0.65675589142E+02 -0.89107064333E+02  0.11141968660E+03  0.00000000000E+00 0. -1.
         -4    1    6    6    0  503 -0.84262773990E+02  0.22877316584E+02 -0.10965099341E+03  0.14016749641E+03  0.00000000000E+00 0.  1.
<mgrwt>
<rscale>  0 0.25038385E+04</rscale>
<asrwt>0</asrwt>
<pdfrwt beam="1">  1        2 0.20346040E+00 0.25038385E+04</pdfrwt>
<pdfrwt beam="2">  1       -1 0.18232493E+00 0.25038385E+04</pdfrwt>
<totfact> 0.32635946E+00</totfact>
</mgrwt>
</event>
<event>
12    7  0.2466188E-007  0.2012996E+04  0.7818608E-02  0.8600569E-01
          2   -1    0    0  501    0  0.00000000000E+00  0.00000000000E+00  0.88574787474E+03  0.88574787474E+03  0.00000000000E+00 0. -1.
         -1   -1    0    0    0  501 -0.00000000000E+00 -0.00000000000E+00 -0.11437097188E+04  0.11437097188E+04  0.00000000000E+00 0.  1.
         24    2    1    2    0    0  0.26514337403E+03 -0.69189903920E+03 -0.42069896678E+03  0.85651941690E+03  0.87250224300E+02 0.  0.
        254    2    1    2    0    0 -0.26514337403E+03  0.69189903920E+03  0.16273712269E+03  0.11729381767E+04  0.89458107847E+03 0.  0.
         23    2    4    4    0    0  0.16203584877E+03  0.32846441836E+03  0.40652698922E+03  0.55462916191E+03  0.90580482791E+02 0.  0.
         23    2    4    4    0    0 -0.42717922280E+03  0.36343462084E+03 -0.24378986653E+03  0.61830901476E+03  0.91135759668E+02 0.  0.
          2    1    3    3  502    0  0.10200570356E+03 -0.38769005235E+03 -0.22768896733E+03  0.46103254342E+03  0.00000000000E+00 0. -1.
         -1    1    3    3    0  502  0.16313767047E+03 -0.30420898686E+03 -0.19300999945E+03  0.39548687348E+03  0.00000000000E+00 0.  1.
         13    1    5    5    0    0  0.12649401065E+03  0.26534618937E+03  0.26558636547E+03  0.39616341636E+03  0.00000000000E+00 0.  1.
        -13    1    5    5    0    0  0.35541838112E+02  0.63118228994E+02  0.14094062376E+03  0.15846574555E+03  0.00000000000E+00 0. -1.
          3    1    6    6  503    0 -0.31563444812E+03  0.23810322425E+03 -0.20803012472E+03  0.44676031944E+03  0.00000000000E+00 0.  1.
         -3    1    6    6    0  503 -0.11154477468E+03  0.12533139659E+03 -0.35759741813E+02  0.17154869532E+03  0.00000000000E+00 0. -1.
<mgrwt>
<rscale>  0 0.20129962E+04</rscale>
<asrwt>0</asrwt>
<pdfrwt beam="1">  1        2 0.13626890E+00 0.20129962E+04</pdfrwt>
<pdfrwt beam="2">  1       -1 0.17595534E+00 0.20129962E+04</pdfrwt>
<totfact> 0.70675673E+00</totfact>
</mgrwt>
</event>
<event>
12    7  0.2466188E-007  0.2421702E+04  0.7818608E-02  0.8431423E-01
         -1   -1    0    0    0  501 -0.00000000000E+00  0.00000000000E+00  0.12868782453E+04  0.12868782453E+04  0.00000000000E+00 0.  1.
          2   -1    0    0  501    0  0.00000000000E+00 -0.00000000000E+00 -0.11393153144E+04  0.11393153144E+04  0.00000000000E+00 0. -1.
         24    2    1    2    0    0 -0.89259439381E+03  0.53794315492E+03  0.56644836025E+02  0.10467733002E+04  0.80113137741E+02 0.  0.
        254    2    1    2    0    0  0.89259439381E+03 -0.53794315492E+03  0.90918094829E+02  0.13794202595E+04  0.89912544317E+03 0.  0.
         23    2    4    4    0    0  0.12632394105E+03  0.90575216274E+02  0.31176843983E+03  0.35998132282E+03  0.90693907286E+02 0.  0.
         23    2    4    4    0    0  0.76627045277E+03 -0.62851837119E+03 -0.22085034501E+03  0.10194389367E+04  0.90967692177E+02 0.  0.
          4    1    3    3  502    0 -0.28030674108E+03  0.19727720874E+03  0.47434071842E+02  0.34603490771E+03  0.00000000000E+00 0. -1.
         -3    1    3    3    0  502 -0.61228765273E+03  0.34066594618E+03  0.92107641825E+01  0.70073839252E+03  0.00000000000E+00 0.  1.
         13    1    5    5    0    0  0.46165744023E+01  0.46655878681E+02  0.53653813540E+02  0.71251775290E+02  0.00000000000E+00 0.  1.
        -13    1    5    5    0    0  0.12170736664E+03  0.43919337593E+02  0.25811462629E+03  0.28872954753E+03  0.00000000000E+00 0. -1.
          2    1    6    6  503    0  0.83331927055E+02 -0.90973858773E+02 -0.52957139845E+02  0.13425688700E+03  0.00000000000E+00 0. -1.
         -2    1    6    6    0  503  0.68293852571E+03 -0.53754451242E+03 -0.16789320516E+03  0.88518204968E+03  0.00000000000E+00 0.  1.
<mgrwt>
<rscale>  0 0.24217020E+04</rscale>
<asrwt>0</asrwt>
<pdfrwt beam="1">  1        2 0.17527928E+00 0.24217020E+04</pdfrwt>
<pdfrwt beam="2">  1       -1 0.19798127E+00 0.24217020E+04</pdfrwt>
<totfact> 0.32773924E+00</totfact>
</mgrwt>
</event>
<event>
12    7  0.2466188E-007  0.1681459E+04  0.7818608E-02  0.8772010E-01
          2   -1    0    0  501    0  0.00000000000E+00  0.00000000000E+00  0.51002939389E+03  0.51002939389E+03  0.00000000000E+00 0. -1.
         -1   -1    0    0    0  501 -0.00000000000E+00 -0.00000000000E+00 -0.13858540740E+04  0.13858540740E+04  0.00000000000E+00 0.  1.
         24    2    1    2    0    0 -0.57476414088E+03 -0.69713158726E+02 -0.14192649704E+03  0.60119894310E+03  0.77995490159E+02 0.  0.
        254    2    1    2    0    0  0.57476414088E+03  0.69713158726E+02 -0.73389818304E+03  0.12946845248E+04  0.89576098009E+03 0.  0.
         23    2    4    4    0    0  0.73708832863E+03  0.21709202373E+03 -0.72149815017E+03  0.10579643357E+04  0.91108748448E+02 0.  0.
         23    2    4    4    0    0 -0.16232418776E+03 -0.14737886500E+03 -0.12400032870E+02  0.23672018901E+03  0.88391262520E+02 0.  0.
          2    1    3    3  502    0 -0.21595934923E+03  0.11717669278E+02 -0.52317084170E+02  0.22251476713E+03  0.00000000000E+00 0. -1.
         -1    1    3    3    0  502 -0.35880479165E+03 -0.81430828004E+02 -0.89609412866E+02  0.37868417597E+03  0.00000000000E+00 0.  1.
         13    1    5    5    0    0  0.45688650156E+03  0.17337367407E+03 -0.42434316497E+03  0.64720230827E+03  0.00000000000E+00 0. -1.
        -13    1    5    5    0    0  0.28020182707E+03  0.43718349656E+02 -0.29715498520E+03  0.41076202748E+03  0.00000000000E+00 0.  1.
          2    1    6    6  503    0 -0.44119244204E+02 -0.76347561725E+02 -0.38754819472E+02  0.96319229247E+02  0.00000000000E+00 0. -1.
         -2    1    6    6    0  503 -0.11820494355E+03 -0.71031303278E+02  0.26354786602E+02  0.14040095977E+03  0.00000000000E+00 0.  1.
<mgrwt>
<rscale>  0 0.16814593E+04</rscale>
<asrwt>0</asrwt>
<pdfrwt beam="1">  1        2 0.78466061E-01 0.16814593E+04</pdfrwt>
<pdfrwt beam="2">  1       -1 0.21320832E+00 0.16814593E+04</pdfrwt>
<totfact> 0.80116944E+00</totfact>
</mgrwt>
</event>
<event>
12    7  0.2466188E-007  0.1134038E+04  0.7818608E-02  0.9172636E-01
         -1   -1    0    0    0  501 -0.00000000000E+00  0.00000000000E+00  0.14336531780E+03  0.14336531780E+03  0.00000000000E+00 0.  1.
          2   -1    0    0  501    0  0.00000000000E+00 -0.00000000000E+00 -0.22425982045E+04  0.22425982045E+04  0.00000000000E+00 0. -1.
         24    2    1    2    0    0  0.13547151123E+03 -0.12488463824E+03 -0.54042508325E+03  0.57643483304E+03  0.79177919360E+02 0.  0.
        254    2    1    2    0    0 -0.13547151123E+03  0.12488463824E+03 -0.15588078035E+04  0.18095286893E+04  0.90031305994E+03 0.  0.
         23    2    4    4    0    0  0.32516297528E+03  0.11928584274E+03 -0.30694708860E+03  0.47217959058E+03  0.93685526052E+02 0.  0.
         23    2    4    4    0    0 -0.46063448651E+03  0.55987955056E+01 -0.12518607149E+04  0.13373490987E+04  0.95560900258E+02 0.  0.
          4    1    3    3  502    0  0.96715685525E+02 -0.12712317414E+03 -0.39918361870E+03  0.42995556360E+03  0.00000000000E+00 0. -1.
         -3    1    3    3    0  502  0.38755825706E+02  0.22385358937E+01 -0.14124146455E+03  0.14647926944E+03  0.00000000000E+00 0.  1.
         13    1    5    5    0    0  0.18819289317E+03  0.66098487344E+02 -0.11429336040E+03  0.22988811909E+03  0.00000000000E+00 0. -1.
        -13    1    5    5    0    0  0.13697008211E+03  0.53187355394E+02 -0.19265372820E+03  0.24229147149E+03  0.00000000000E+00 0.  1.
          2    1    6    6  503    0 -0.36223824772E+02  0.27530049836E+02 -0.12036561541E+03  0.12867770008E+03  0.00000000000E+00 0. -1.
         -2    1    6    6    0  503 -0.42441066173E+03 -0.21931254330E+02 -0.11314950995E+04  0.12086713986E+04  0.00000000000E+00 0.  1.
<mgrwt>
<rscale>  0 0.11340385E+04</rscale>
<asrwt>0</asrwt>
<pdfrwt beam="1">  1        2 0.34501511E+00 0.11340385E+04</pdfrwt>
<pdfrwt beam="2">  1       -1 0.22056203E-01 0.11340385E+04</pdfrwt>
<totfact> 0.96065738E+01</totfact>
</mgrwt>
</event>
<event>
12    7  0.2466188E-007  0.3407439E+04  0.7818608E-02  0.8136083E-01
         -1   -1    0    0    0  501 -0.00000000000E+00  0.00000000000E+00  0.13210548018E+04  0.13210548018E+04  0.00000000000E+00 0.  1.
          2   -1    0    0  501    0  0.00000000000E+00 -0.00000000000E+00 -0.21972290308E+04  0.21972290308E+04  0.00000000000E+00 0. -1.
         24    2    1    2    0    0  0.11097125716E+04 -0.87399892157E+03  0.33322409472E+03  0.14534293602E+04  0.77990393213E+02 0.  0.
        254    2    1    2    0    0 -0.11097125716E+04  0.87399892157E+03 -0.12093983237E+04  0.20648544724E+04  0.89757650388E+03 0.  0.
         23    2    4    4    0    0 -0.10988299488E+04  0.85859014671E+03 -0.13187054607E+04  0.19214435638E+04  0.91416522473E+02 0.  0.
         23    2    4    4    0    0 -0.10882622765E+02  0.15408774856E+02  0.10930713697E+03  0.14341090854E+03  0.90899816681E+02 0.  0.
          4    1    3    3  502    0  0.25049963396E+03 -0.20886864315E+03  0.44719191048E+02  0.32920507705E+03  0.00000000000E+00 0. -1.
         -3    1    3    3    0  502  0.85921293762E+03 -0.66513027842E+03  0.28850490367E+03  0.11242242832E+04  0.00000000000E+00 0.  1.
         13    1    5    5    0    0 -0.46846313686E+03  0.30944293761E+03 -0.53582809584E+03  0.77609560656E+03  0.00000000000E+00 0.  1.
        -13    1    5    5    0    0 -0.63036681195E+03  0.54914720911E+03 -0.78287736482E+03  0.11453479573E+04  0.00000000000E+00 0. -1.
          4    1    6    6  503    0 -0.15246209536E+02  0.46803911901E+02  0.29135533706E+02  0.57200807676E+02  0.00000000000E+00 0.  1.
         -4    1    6    6    0  503  0.43635867716E+01 -0.31395137045E+02  0.80171603269E+02  0.86210100860E+02  0.00000000000E+00 0. -1.
<mgrwt>
<rscale>  0 0.34074389E+04</rscale>
<asrwt>0</asrwt>
<pdfrwt beam="1">  1        2 0.33803524E+00 0.34074389E+04</pdfrwt>
<pdfrwt beam="2">  1       -1 0.20323920E+00 0.34074389E+04</pdfrwt>
<totfact> 0.69749286E-01</totfact>
</mgrwt>
</event>
<event>
12    7  0.2466188E-007  0.4061217E+04  0.7818608E-02  0.7992310E-01
         -1   -1    0    0    0  501 -0.00000000000E+00  0.00000000000E+00  0.26015512491E+04  0.26015512491E+04  0.00000000000E+00 0.  1.
          2   -1    0    0  501    0  0.00000000000E+00 -0.00000000000E+00 -0.15849664488E+04  0.15849664488E+04  0.00000000000E+00 0. -1.
         24    2    1    2    0    0 -0.97467776466E+03  0.16327196996E+04  0.82701609472E+03  0.20751335640E+04  0.80332590825E+02 0.  0.
        254    2    1    2    0    0  0.97467776466E+03 -0.16327196996E+04  0.18956870555E+03  0.21113841339E+04  0.89790662333E+03 0.  0.
         23    2    4    4    0    0  0.44506371502E+03 -0.13834148355E+04 -0.87285973458E+02  0.14582420762E+04  0.83263401609E+02 0.  0.
         23    2    4    4    0    0  0.52961404964E+03 -0.24930486409E+03  0.27685467901E+03  0.65314205769E+03  0.85452193626E+02 0.  0.
          4    1    3    3  502    0 -0.50946990501E+03  0.93105022374E+03  0.46445372401E+03  0.11585039340E+04  0.00000000000E+00 0. -1.
         -3    1    3    3    0  502 -0.46520785965E+03  0.70166947584E+03  0.36256237071E+03  0.91662963004E+03  0.00000000000E+00 0.  1.
         13    1    5    5    0    0  0.28943732850E+03 -0.98148852213E+03 -0.32731639655E+02  0.10237993194E+04  0.00000000000E+00 0.  1.
        -13    1    5    5    0    0  0.15562638653E+03 -0.40192631336E+03 -0.54554333803E+02  0.43444275675E+03  0.00000000000E+00 0. -1.
          3    1    6    6  503    0  0.26205422990E+03 -0.15241910058E+03  0.17990263837E+03  0.35251802922E+03  0.00000000000E+00 0. -1.
         -3    1    6    6    0  503  0.26755981974E+03 -0.96885763510E+02  0.96952040644E+02  0.30062402847E+03  0.00000000000E+00 0.  1.
<mgrwt>
<rscale>  0 0.40612173E+04</rscale>
<asrwt>0</asrwt>
<pdfrwt beam="1">  1        2 0.24384099E+00 0.40612173E+04</pdfrwt>
<pdfrwt beam="2">  1       -1 0.40023865E+00 0.40612173E+04</pdfrwt>
<totfact> 0.72398615E-02</totfact>
</mgrwt>
</event>
<event>
12    7  0.2466188E-007  0.3123978E+04  0.7818608E-02  0.8209188E-01
         -1   -1    0    0    0  501 -0.00000000000E+00  0.00000000000E+00  0.75539381771E+03  0.75539381771E+03  0.00000000000E+00 0.  1.
          2   -1    0    0  501    0  0.00000000000E+00 -0.00000000000E+00 -0.32298511601E+04  0.32298511601E+04  0.00000000000E+00 0. -1.
         24    2    1    2    0    0 -0.10436565704E+04  0.72453290816E+03 -0.19745468668E+04  0.23493758188E+04  0.81021211673E+02 0.  0.
        254    2    1    2    0    0  0.10436565704E+04 -0.72453290816E+03 -0.49991047554E+03  0.16358691590E+04  0.90110512700E+03 0.  0.
         23    2    4    4    0    0 -0.11560761234E+03 -0.26547548136E+03 -0.53260148803E+02  0.30829493529E+03  0.91470063085E+02 0.  0.
         23    2    4    4    0    0  0.11592641827E+04 -0.45905742680E+03 -0.44665032673E+03  0.13275742237E+04  0.91266854073E+02 0.  0.
          4    1    3    3  502    0 -0.22603956487E+03  0.17533496680E+03 -0.50206977470E+03  0.57784971588E+03  0.00000000000E+00 0. -1.
         -3    1    3    3    0  502 -0.81761700549E+03  0.54919794136E+03 -0.14724770921E+04  0.17715261029E+04  0.00000000000E+00 0.  1.
         13    1    5    5    0    0 -0.10098377988E+03 -0.12630588712E+03 -0.46194060319E+02  0.16818083163E+03  0.00000000000E+00 0.  1.
        -13    1    5    5    0    0 -0.14623832458E+02 -0.13916959424E+03 -0.70660884842E+01  0.14011410366E+03  0.00000000000E+00 0. -1.
          3    1    6    6  503    0  0.36431326698E+03 -0.13100114712E+03 -0.18197075808E+03  0.42778360633E+03  0.00000000000E+00 0. -1.
         -3    1    6    6    0  503  0.79495091572E+03 -0.32805627968E+03 -0.26467956865E+03  0.89979061737E+03  0.00000000000E+00 0.  1.
<mgrwt>
<rscale>  0 0.31239780E+04</rscale>
<asrwt>0</asrwt>
<pdfrwt beam="1">  1        2 0.49690017E+00 0.31239780E+04</pdfrwt>
<pdfrwt beam="2">  1       -1 0.11621443E+00 0.31239780E+04</pdfrwt>
<totfact> 0.79779639E-01</totfact>
</mgrwt>
</event>
<event>
12    7  0.2466188E-007  0.1622445E+04  0.7818608E-02  0.8806877E-01
          2   -1    0    0  501    0  0.00000000000E+00  0.00000000000E+00  0.17053065908E+04  0.17053065908E+04  0.00000000000E+00 0. -1.
         -1   -1    0    0    0  501 -0.00000000000E+00 -0.00000000000E+00 -0.38590244537E+03  0.38590244537E+03  0.00000000000E+00 0.  1.
         24    2    1    2    0    0  0.10535020972E+03  0.54748790598E+03  0.43418352440E+03  0.71122092763E+03  0.80487273284E+02 0.  0.
        254    2    1    2    0    0 -0.10535020972E+03 -0.54748790598E+03  0.88522062107E+03  0.13799881086E+04  0.89994997525E+03 0.  0.
         23    2    4    4    0    0 -0.10438091650E+03  0.19656241204E+03  0.45760539570E+03  0.51702812039E+03  0.91559934151E+02 0.  0.
         23    2    4    4    0    0 -0.96929321541E+00 -0.74405031802E+03  0.42761522537E+03  0.86295998818E+03  0.90737781334E+02 0.  0.
          2    1    3    3  502    0  0.89823729838E+02  0.33625266661E+03  0.30747559674E+03  0.46440865715E+03  0.00000000000E+00 0. -1.
         -1    1    3    3    0  502  0.15526479879E+02  0.21123523937E+03  0.12670792766E+03  0.24681227048E+03  0.00000000000E+00 0.  1.
         13    1    5    5    0    0 -0.27018573552E+02  0.13756711633E+03  0.22790148535E+03  0.26757018114E+03  0.00000000000E+00 0. -1.
        -13    1    5    5    0    0 -0.77362342950E+02  0.58995295713E+02  0.22970391035E+03  0.24945793925E+03  0.00000000000E+00 0.  1.
          2    1    6    6  503    0  0.28048477552E+02 -0.60943775553E+03  0.37127781559E+03  0.71417666673E+03  0.00000000000E+00 0. -1.
         -2    1    6    6    0  503 -0.29017770767E+02 -0.13461256249E+03  0.56337409777E+02  0.14878332145E+03  0.00000000000E+00 0.  1.
<mgrwt>
<rscale>  0 0.16224450E+04</rscale>
<asrwt>0</asrwt>
<pdfrwt beam="1">  1        2 0.26235486E+00 0.16224450E+04</pdfrwt>
<pdfrwt beam="2">  1       -1 0.59369608E-01 0.16224450E+04</pdfrwt>
<totfact> 0.30549331E+01</totfact>
</mgrwt>
</event>
<event>
12    7  0.2466188E-007  0.1088267E+04  0.7818608E-02  0.9216704E-01
         -1   -1    0    0    0  501 -0.00000000000E+00  0.00000000000E+00  0.95932855524E+02  0.95932855524E+02  0.00000000000E+00 0.  1.
          2   -1    0    0  501    0  0.00000000000E+00 -0.00000000000E+00 -0.30863379624E+04  0.30863379624E+04  0.00000000000E+00 0. -1.
         24    2    1    2    0    0  0.36605588937E+02 -0.48062080421E+02 -0.90212433861E+03  0.90765381538E+03  0.79732010826E+02 0.  0.
        254    2    1    2    0    0 -0.36605588937E+02  0.48062080421E+02 -0.20882807683E+04  0.22746170025E+04  0.89961992443E+03 0.  0.
         23    2    4    4    0    0 -0.44953979830E+03 -0.58963326228E+02 -0.98145266477E+03  0.10849832595E+04  0.91523964842E+02 0.  0.
         23    2    4    4    0    0  0.41293420936E+03  0.10702540665E+03 -0.11068281035E+04  0.11896337430E+04  0.90503552057E+02 0.  0.
          4    1    3    3  502    0  0.17343403093E+02 -0.64101392180E+02 -0.45421036303E+03  0.45903903537E+03  0.00000000000E+00 0. -1.
         -3    1    3    3    0  502  0.19262185844E+02  0.16039311760E+02 -0.44791397558E+03  0.44861478001E+03  0.00000000000E+00 0.  1.
         13    1    5    5    0    0 -0.50522251356E+02  0.11494337060E+02 -0.66322096110E+02  0.84161975375E+02  0.00000000000E+00 0. -1.
        -13    1    5    5    0    0 -0.39901754695E+03 -0.70457663289E+02 -0.91513056866E+03  0.10008212841E+04  0.00000000000E+00 0.  1.
          4    1    6    6  503    0  0.35198028653E+03  0.95278806751E+02 -0.84094801270E+03  0.91660336744E+03  0.00000000000E+00 0.  1.
         -4    1    6    6    0  503  0.60953922834E+02  0.11746599897E+02 -0.26588009079E+03  0.27303037560E+03  0.00000000000E+00 0. -1.
<mgrwt>
<rscale>  0 0.10882669E+04</rscale>
<asrwt>0</asrwt>
<pdfrwt beam="1">  1        2 0.47482118E+00 0.10882669E+04</pdfrwt>
<pdfrwt beam="2">  1       -1 0.14758902E-01 0.10882669E+04</pdfrwt>
<totfact> 0.59972107E+01</totfact>
</mgrwt>
</event>
<event>
12    7  0.2466188E-007  0.1462280E+04  0.7818608E-02  0.8909931E-01
         -1   -1    0    0    0  501 -0.00000000000E+00  0.00000000000E+00  0.47323653703E+03  0.47323653703E+03  0.00000000000E+00 0.  1.
          2   -1    0    0  501    0  0.00000000000E+00 -0.00000000000E+00 -0.11295957092E+04  0.11295957092E+04  0.00000000000E+00 0. -1.
         24    2    1    2    0    0 -0.44280197996E+03 -0.41358158275E+02 -0.14803280921E+03  0.47539950261E+03  0.79415891117E+02 0.  0.
        254    2    1    2    0    0  0.44280197996E+03  0.41358158275E+02 -0.50832636297E+03  0.11274327436E+04  0.90273185909E+03 0.  0.
         23    2    4    4    0    0  0.29412667319E+03  0.39781553480E+03 -0.53115716119E+03  0.73109983722E+03  0.87243008261E+02 0.  0.
         23    2    4    4    0    0  0.14867530677E+03 -0.35645737652E+03  0.22830798226E+02  0.39633290641E+03  0.85978597561E+02 0.  0.
          2    1    3    3  502    0 -0.23709955990E+03  0.16674967003E+02 -0.87241846572E+02  0.25319043351E+03  0.00000000000E+00 0. -1.
         -1    1    3    3    0  502 -0.20570242006E+03 -0.58033125279E+02 -0.60790962640E+02  0.22220906909E+03  0.00000000000E+00 0.  1.
         13    1    5    5    0    0  0.23491154279E+03  0.36005467124E+03 -0.47891151827E+03  0.64356743357E+03  0.00000000000E+00 0.  1.
        -13    1    5    5    0    0  0.59215130397E+02  0.37760863558E+02 -0.52245642918E+02  0.87532403648E+02  0.00000000000E+00 0. -1.
          3    1    6    6  503    0  0.38862448712E+02 -0.73843121513E+02  0.40226655309E+02  0.92635200178E+02  0.00000000000E+00 0. -1.
         -3    1    6    6    0  503  0.10981285806E+03 -0.28261425501E+03 -0.17395857083E+02  0.30369770624E+03  0.00000000000E+00 0.  1.
<mgrwt>
<rscale>  0 0.14622804E+04</rscale>
<asrwt>0</asrwt>
<pdfrwt beam="1">  1        2 0.17378396E+00 0.14622804E+04</pdfrwt>
<pdfrwt beam="2">  1       -1 0.72805621E-01 0.14622804E+04</pdfrwt>
<totfact> 0.43919310E+01</totfact>
</mgrwt>
</event>
<event>
12    7  0.2466188E-007  0.1587708E+04  0.7818608E-02  0.8828135E-01
         -1   -1    0    0    0  501 -0.00000000000E+00  0.00000000000E+00  0.52417198051E+03  0.52417198051E+03  0.00000000000E+00 0.  1.
          2   -1    0    0  501    0  0.00000000000E+00 -0.00000000000E+00 -0.12022851494E+04  0.12022851494E+04  0.00000000000E+00 0. -1.
         24    2    1    2    0    0 -0.13058514508E+03 -0.46052778768E+03 -0.48968372921E+03  0.68950059465E+03  0.80514545396E+02 0.  0.
        254    2    1    2    0    0  0.13058514508E+03  0.46052778768E+03 -0.18842943972E+03  0.10369565353E+04  0.90035264149E+03 0.  0.
         23    2    4    4    0    0  0.11437930469E+03 -0.23633247102E+03 -0.18396824822E+03  0.33370422101E+03  0.92620346402E+02 0.  0.
         23    2    4    4    0    0  0.16205840391E+02  0.69686025870E+03 -0.44611915042E+01  0.70325231430E+03  0.93097077908E+02 0.  0.
          4    1    3    3  502    0 -0.10288935289E+03 -0.38646638133E+03 -0.44644709021E+03  0.59938091994E+03  0.00000000000E+00 0. -1.
         -3    1    3    3    0  502 -0.27695792196E+02 -0.74061406356E+02 -0.43236639000E+02  0.90119674704E+02  0.00000000000E+00 0.  1.
         13    1    5    5    0    0  0.66363607319E+01  0.85308112414E+01 -0.55888599403E+01  0.12167636567E+02  0.00000000000E+00 0.  1.
        -13    1    5    5    0    0  0.10774294396E+03 -0.24486328226E+03 -0.17837938828E+03  0.32153658445E+03  0.00000000000E+00 0. -1.
          4    1    6    6  503    0  0.17624232982E+02  0.69864109413E+03 -0.81576876278E+01  0.69891096705E+03  0.00000000000E+00 0. -1.
         -4    1    6    6    0  503 -0.14183925907E+01 -0.17808354258E+01  0.36964961236E+01  0.43413472502E+01  0.00000000000E+00 0.  1.
<mgrwt>
<rscale>  0 0.15877080E+04</rscale>
<asrwt>0</asrwt>
<pdfrwt beam="1">  1        2 0.18496695E+00 0.15877080E+04</pdfrwt>
<pdfrwt beam="2">  1       -1 0.80641843E-01 0.15877080E+04</pdfrwt>
<totfact> 0.31693249E+01</totfact>
</mgrwt>
</event>
<event>
12    7  0.2466188E-007  0.2037069E+04  0.7818608E-02  0.8589483E-01
         -1   -1    0    0    0  501 -0.00000000000E+00  0.00000000000E+00  0.34332531652E+03  0.34332531652E+03  0.00000000000E+00 0.  1.
          2   -1    0    0  501    0  0.00000000000E+00 -0.00000000000E+00 -0.30216606645E+04  0.30216606645E+04  0.00000000000E+00 0. -1.
         24    2    1    2    0    0  0.48739257806E+03 -0.50473594009E+03 -0.39287936432E+03  0.80811453858E+03  0.79906308884E+02 0.  0.
        254    2    1    2    0    0 -0.48739257806E+03  0.50473594009E+03 -0.22854559837E+04  0.25568714425E+04  0.90662705980E+03 0.  0.
         23    2    4    4    0    0 -0.12269410466E+03  0.29477134794E+03 -0.12652191662E+03  0.35536105221E+03  0.91267141696E+02 0.  0.
         23    2    4    4    0    0 -0.36469847339E+03  0.20996459214E+03 -0.21589340671E+04  0.22015103902E+04  0.92528838803E+02 0.  0.
          4    1    3    3  502    0  0.15615437946E+03 -0.21709383385E+03 -0.15405893543E+03  0.30862287424E+03  0.00000000000E+00 0. -1.
         -3    1    3    3    0  502  0.33123819860E+03 -0.28764210624E+03 -0.23882042890E+03  0.49949166434E+03  0.00000000000E+00 0.  1.
         13    1    5    5    0    0 -0.66802684434E+02  0.24027916161E+03 -0.12075448504E+03  0.27708901062E+03  0.00000000000E+00 0. -1.
        -13    1    5    5    0    0 -0.55891420230E+02  0.54492186336E+02 -0.57674315805E+01  0.78272041586E+02  0.00000000000E+00 0.  1.
          3    1    6    6  503    0 -0.29252639757E+03  0.12823632189E+03 -0.17055987775E+04  0.17352473706E+04  0.00000000000E+00 0. -1.
         -3    1    6    6    0  503 -0.72172075822E+02  0.81728270256E+02 -0.45333528956E+03  0.46626301960E+03  0.00000000000E+00 0.  1.
<mgrwt>
<rscale>  0 0.20370691E+04</rscale>
<asrwt>0</asrwt>
<pdfrwt beam="1">  1        2 0.46487088E+00 0.20370691E+04</pdfrwt>
<pdfrwt beam="2">  1       -1 0.52819279E-01 0.20370691E+04</pdfrwt>
<totfact> 0.64423042E+00</totfact>
</mgrwt>
</event>
<event>
12    7  0.2466188E-007  0.1552489E+04  0.7818608E-02  0.8850279E-01
          2   -1    0    0  501    0  0.00000000000E+00  0.00000000000E+00  0.13729428086E+04  0.13729428086E+04  0.00000000000E+00 0. -1.
         -1   -1    0    0    0  501 -0.00000000000E+00 -0.00000000000E+00 -0.43887902259E+03  0.43887902259E+03  0.00000000000E+00 0.  1.
         24    2    1    2    0    0 -0.40295968282E+03 -0.12280844204E+03  0.64695866340E+03  0.77637208062E+03  0.82095529758E+02 0.  0.
        254    2    1    2    0    0  0.40295968282E+03  0.12280844204E+03  0.28710512265E+03  0.10354497506E+04  0.90125934957E+03 0.  0.
         23    2    4    4    0    0  0.67941504440E+03  0.12231328536E+03  0.14213413655E+03  0.71045288037E+03  0.89307559112E+02 0.  0.
         23    2    4    4    0    0 -0.27645536158E+03  0.49515667790E+00  0.14497098610E+03  0.32499687025E+03  0.90435428546E+02 0.  0.
          4    1    3    3  502    0 -0.19986938928E+03 -0.72030506226E+02  0.39749994035E+03  0.45071317840E+03  0.00000000000E+00 0. -1.
         -3    1    3    3    0  502 -0.20309029354E+03 -0.50777935812E+02  0.24945872304E+03  0.32565890222E+03  0.00000000000E+00 0.  1.
         13    1    5    5    0    0  0.67495052998E+03  0.12342124487E+03  0.13117630869E+03  0.69856871213E+03  0.00000000000E+00 0. -1.
        -13    1    5    5    0    0  0.44645144230E+01 -0.11079595062E+01  0.10957827862E+02  0.11884168240E+02  0.00000000000E+00 0.  1.
          2    1    6    6  503    0 -0.14551440546E+03 -0.35996158478E+02  0.10599225671E+03  0.18358791928E+03  0.00000000000E+00 0. -1.
         -2    1    6    6    0  503 -0.13094095612E+03  0.36491315156E+02  0.38978729392E+02  0.14140895098E+03  0.00000000000E+00 0.  1.
<mgrwt>
<rscale>  0 0.15524894E+04</rscale>
<asrwt>0</asrwt>
<pdfrwt beam="1">  1        2 0.21122197E+00 0.15524894E+04</pdfrwt>
<pdfrwt beam="2">  1       -1 0.67519850E-01 0.15524894E+04</pdfrwt>
<totfact> 0.36545927E+01</totfact>
</mgrwt>
</event>
<event>
12    7  0.2466188E-007  0.1764241E+04  0.7818608E-02  0.8725550E-01
         -1   -1    0    0    0  501 -0.00000000000E+00  0.00000000000E+00  0.37308898346E+03  0.37308898346E+03  0.00000000000E+00 0.  1.
          2   -1    0    0  501    0  0.00000000000E+00 -0.00000000000E+00 -0.20856599781E+04  0.20856599781E+04  0.00000000000E+00 0. -1.
         24    2    1    2    0    0  0.37890624083E+03 -0.19183762371E+02  0.97676241563E+02  0.40027827029E+03  0.82122405096E+02 0.  0.
        254    2    1    2    0    0 -0.37890624083E+03  0.19183762371E+02 -0.18102472362E+04  0.20584706912E+04  0.90353116967E+03 0.  0.
         23    2    4    4    0    0 -0.39808572275E+03  0.13843034523E+03 -0.18511889220E+04  0.19006753187E+04  0.89616065832E+02 0.  0.
         23    2    4    4    0    0  0.19179481914E+02 -0.11924658286E+03  0.40941685811E+02  0.15779537250E+03  0.92927702529E+02 0.  0.
          4    1    3    3  502    0  0.20727392107E+03 -0.33281898585E+02  0.18511917113E+02  0.21074357453E+03  0.00000000000E+00 0. -1.
         -3    1    3    3    0  502  0.17163231976E+03  0.14098136214E+02  0.79164324450E+02  0.18953469576E+03  0.00000000000E+00 0.  1.
         13    1    5    5    0    0 -0.16735367812E+03  0.88092089537E+02 -0.97778098343E+03  0.99590316868E+03  0.00000000000E+00 0. -1.
        -13    1    5    5    0    0 -0.23073204463E+03  0.50338255690E+02 -0.87340793855E+03  0.90477215006E+03  0.00000000000E+00 0.  1.
          1    1    6    6  503    0 -0.30027639101E+02 -0.30864159956E+02 -0.10480823741E+02  0.44318203326E+02  0.00000000000E+00 0. -1.
         -1    1    6    6    0  503  0.49207121014E+02 -0.88382422901E+02  0.51422509551E+02  0.11347716918E+03  0.00000000000E+00 0.  1.
<mgrwt>
<rscale>  0 0.17642412E+04</rscale>
<asrwt>0</asrwt>
<pdfrwt beam="1">  1        2 0.32087076E+00 0.17642412E+04</pdfrwt>
<pdfrwt beam="2">  1       -1 0.57398306E-01 0.17642412E+04</pdfrwt>
<totfact> 0.19840212E+01</totfact>
</mgrwt>
</event>
<event>
12    7  0.2466188E-007  0.1826938E+04  0.7818608E-02  0.8692104E-01
         -1   -1    0    0    0  501 -0.00000000000E+00  0.00000000000E+00  0.79611910395E+03  0.79611910395E+03  0.00000000000E+00 0.  1.
          2   -1    0    0  501    0  0.00000000000E+00 -0.00000000000E+00 -0.10481160189E+04  0.10481160189E+04  0.00000000000E+00 0. -1.
         24    2    1    2    0    0  0.34964271041E+03 -0.14526108628E+03 -0.67723855573E+03  0.77998994088E+03  0.79883905676E+02 0.  0.
        254    2    1    2    0    0 -0.34964271041E+03  0.14526108628E+03  0.42524164074E+03  0.10642451820E+04  0.89913099505E+03 0.  0.
         23    2    4    4    0    0 -0.34938961367E+03  0.48822272305E+03  0.35062063123E+03  0.70166684357E+03  0.94694259988E+02 0.  0.
         23    2    4    4    0    0 -0.25309673377E+00 -0.34296163676E+03  0.74621009507E+02  0.36257833843E+03  0.90950580504E+02 0.  0.
          4    1    3    3  502    0  0.18199288484E+03 -0.70825332396E+02 -0.42875431172E+03  0.47113469163E+03  0.00000000000E+00 0. -1.
         -1    1    3    3    0  502  0.16764982557E+03 -0.74435753889E+02 -0.24848424401E+03  0.30885524925E+03  0.00000000000E+00 0.  1.
         13    1    5    5    0    0 -0.27168192090E+03  0.42492148050E+03  0.26438033680E+03  0.56944384554E+03  0.00000000000E+00 0. -1.
        -13    1    5    5    0    0 -0.77707692778E+02  0.63301242542E+02  0.86240294427E+02  0.13222299803E+03  0.00000000000E+00 0.  1.
          4    1    6    6  503    0  0.17396508381E+02 -0.33328147573E+03  0.76404894807E+02  0.34236952043E+03  0.00000000000E+00 0. -1.
         -4    1    6    6    0  503 -0.17649605115E+02 -0.96801610275E+01 -0.17838852998E+01  0.20208818001E+02  0.00000000000E+00 0.  1.
<mgrwt>
<rscale>  0 0.18269375E+04</rscale>
<asrwt>0</asrwt>
<pdfrwt beam="1">  1        2 0.16124862E+00 0.18269375E+04</pdfrwt>
<pdfrwt beam="2">  1       -1 0.12247986E+00 0.18269375E+04</pdfrwt>
<totfact> 0.14849566E+01</totfact>
</mgrwt>
</event>
<event>
12    7  0.2466188E-007  0.2007885E+04  0.7818608E-02  0.8602943E-01
         -1   -1    0    0    0  501 -0.00000000000E+00  0.00000000000E+00  0.32049743799E+03  0.32049743799E+03  0.00000000000E+00 0.  1.
          2   -1    0    0  501    0  0.00000000000E+00 -0.00000000000E+00 -0.31448000000E+04  0.31448000000E+04  0.00000000000E+00 0. -1.
         24    2    1    2    0    0  0.57078713375E+03 -0.14199130681E+03 -0.20667851819E+04  0.21503223272E+04  0.79533890149E+02 0.  0.
        254    2    1    2    0    0 -0.57078713375E+03  0.14199130681E+03 -0.75751738020E+03  0.13149751108E+04  0.89964853000E+03 0.  0.
         23    2    4    4    0    0  0.35940794132E+01 -0.98564003685E+02  0.15282783468E+03  0.20792336467E+03  0.10073727360E+03 0.  0.
         23    2    4    4    0    0 -0.57438121316E+03  0.24055531050E+03 -0.91034521487E+03  0.11070517462E+04  0.95155257351E+02 0.  0.
          4    1    3    3  502    0  0.28587037567E+03 -0.54454050023E+02 -0.11528260416E+04  0.11889890653E+04  0.00000000000E+00 0. -1.
         -3    1    3    3    0  502  0.28491675807E+03 -0.87537256787E+02 -0.91395914022E+03  0.96133326186E+03  0.00000000000E+00 0.  1.
         13    1    5    5    0    0  0.28267073407E+02 -0.65805843203E+02  0.28631197848E+02  0.77130940153E+02  0.00000000000E+00 0. -1.
        -13    1    5    5    0    0 -0.24672993994E+02 -0.32758160482E+02  0.12419663683E+03  0.13079242451E+03  0.00000000000E+00 0.  1.
          2    1    6    6  503    0 -0.55542438192E+03  0.21993014970E+03 -0.83517608592E+03  0.10268323180E+04  0.00000000000E+00 0. -1.
         -2    1    6    6    0  503 -0.18956831236E+02  0.20625160791E+02 -0.75169128953E+02  0.80219428169E+02  0.00000000000E+00 0.  1.
<mgrwt>
<rscale>  0 0.20078848E+04</rscale>
<asrwt>0</asrwt>
<pdfrwt beam="1">  1        2 0.48381541E+00 0.20078848E+04</pdfrwt>
<pdfrwt beam="2">  1       -1 0.49307296E-01 0.20078848E+04</pdfrwt>
<totfact> 0.61538150E+00</totfact>
</mgrwt>
</event>
<event>
12    7  0.2466188E-007  0.2254041E+04  0.7818608E-02  0.8496266E-01
         -1   -1    0    0    0  501 -0.00000000000E+00  0.00000000000E+00  0.10358402174E+04  0.10358402174E+04  0.00000000000E+00 0.  1.
          2   -1    0    0  501    0  0.00000000000E+00 -0.00000000000E+00 -0.12262272005E+04  0.12262272005E+04  0.00000000000E+00 0. -1.
         24    2    1    2    0    0 -0.66053387078E+02 -0.82074231510E+03  0.39276635311E+03  0.91577406937E+03  0.79973372139E+02 0.  0.
        254    2    1    2    0    0  0.66053387078E+02  0.82074231510E+03 -0.58315333626E+03  0.13462933485E+04  0.89132315630E+03 0.  0.
         23    2    4    4    0    0 -0.19058985723E+03  0.61367963484E+03 -0.72669053821E+03  0.97440493162E+03  0.91970889662E+02 0.  0.
         23    2    4    4    0    0  0.25664324431E+03  0.20706268026E+03  0.14353720195E+03  0.37188841691E+03  0.94643319262E+02 0.  0.
          2    1    3    3  502    0 -0.43012510221E+02 -0.38198558054E+03  0.22543162020E+03  0.44562593637E+03  0.00000000000E+00 0. -1.
         -1    1    3    3    0  502 -0.23040876857E+02 -0.43875673456E+03  0.16733473292E+03  0.47014813300E+03  0.00000000000E+00 0.  1.
         13    1    5    5    0    0 -0.16310980744E+03  0.39330867883E+03 -0.50612820196E+03  0.66140931574E+03  0.00000000000E+00 0.  1.
        -13    1    5    5    0    0 -0.27480049791E+02  0.22037095601E+03 -0.22056233624E+03  0.31299561587E+03  0.00000000000E+00 0. -1.
          3    1    6    6  503    0  0.24158605223E+03  0.20144376634E+03  0.15641291171E+03  0.35129533242E+03  0.00000000000E+00 0. -1.
         -3    1    6    6    0  503  0.15057192081E+02  0.56189139212E+01 -0.12875709761E+02  0.20593084491E+02  0.00000000000E+00 0.  1.
<mgrwt>
<rscale>  0 0.22540412E+04</rscale>
<asrwt>0</asrwt>
<pdfrwt beam="1">  1        2 0.18865034E+00 0.22540412E+04</pdfrwt>
<pdfrwt beam="2">  1       -1 0.15936003E+00 0.22540412E+04</pdfrwt>
<totfact> 0.56012056E+00</totfact>
</mgrwt>
</event>
<event>
12    7  0.2466188E-007  0.1690116E+04  0.7818608E-02  0.8767021E-01
          2   -1    0    0  501    0  0.00000000000E+00  0.00000000000E+00  0.16425801586E+04  0.16425801586E+04  0.00000000000E+00 0. -1.
         -1   -1    0    0    0  501 -0.00000000000E+00 -0.00000000000E+00 -0.43475710177E+03  0.43475710177E+03  0.00000000000E+00 0.  1.
         24    2    1    2    0    0  0.45549372677E+03 -0.23290023070E+03  0.82241395894E+03  0.97184457235E+03  0.80000627210E+02 0.  0.
        254    2    1    2    0    0 -0.45549372677E+03  0.23290023070E+03  0.38540909786E+03  0.11054926880E+04  0.90103099718E+03 0.  0.
         23    2    4    4    0    0 -0.23362038220E+03  0.53126095220E+03  0.41821401360E+03  0.72114469159E+03  0.91268958195E+02 0.  0.
         23    2    4    4    0    0 -0.22187334457E+03 -0.29836072149E+03 -0.32804915739E+02  0.38434799639E+03  0.91653252389E+02 0.  0.
          2    1    3    3  502    0  0.16638733590E+03 -0.10210290620E+03  0.38240057213E+03  0.42934828119E+03  0.00000000000E+00 0. -1.
         -1    1    3    3    0  502  0.28910639087E+03 -0.13079732451E+03  0.44001338682E+03  0.54249629116E+03  0.00000000000E+00 0.  1.
         13    1    5    5    0    0 -0.11656538589E+03  0.31694362331E+03  0.19306927280E+03  0.38899420772E+03  0.00000000000E+00 0.  1.
        -13    1    5    5    0    0 -0.11705499632E+03  0.21431732889E+03  0.22514474080E+03  0.33215048387E+03  0.00000000000E+00 0. -1.
          1    1    6    6  503    0 -0.62650219717E+02 -0.30706061635E+02 -0.20298354808E+02  0.72663164393E+02  0.00000000000E+00 0. -1.
         -1    1    6    6    0  503 -0.15922312485E+03 -0.26765465986E+03 -0.12506560932E+02  0.31168483200E+03  0.00000000000E+00 0.  1.
<mgrwt>
<rscale>  0 0.16901164E+04</rscale>
<asrwt>0</asrwt>
<pdfrwt beam="1">  1        2 0.25270464E+00 0.16901164E+04</pdfrwt>
<pdfrwt beam="2">  1       -1 0.66885709E-01 0.16901164E+04</pdfrwt>
<totfact> 0.25935287E+01</totfact>
</mgrwt>
</event>
<event>
12    7  0.2466188E-007  0.1361748E+04  0.7818608E-02  0.8981983E-01
         -1   -1    0    0    0  501 -0.00000000000E+00  0.00000000000E+00  0.21455027555E+03  0.21455027555E+03  0.00000000000E+00 0.  1.
          2   -1    0    0  501    0  0.00000000000E+00 -0.00000000000E+00 -0.21607480852E+04  0.21607480852E+04  0.00000000000E+00 0. -1.
         24    2    1    2    0    0  0.25602792129E+03 -0.10900870793E+03 -0.98616492164E+03  0.10304457696E+04  0.10892215765E+03 0.  0.
        254    2    1    2    0    0 -0.25602792129E+03  0.10900870793E+03 -0.96003288798E+03  0.13448525912E+04  0.89974004641E+03 0.  0.
         23    2    4    4    0    0 -0.32105015885E+03  0.42117673707E+03 -0.82946495289E+03  0.98821266129E+03  0.89939465869E+02 0.  0.
         23    2    4    4    0    0  0.65022237566E+02 -0.31216802914E+03 -0.13056793509E+03  0.35663992988E+03  0.92017846745E+02 0.  0.
          2    1    3    3  502    0  0.10761428551E+03  0.24908094649E+01 -0.46222372688E+03  0.47459225896E+03  0.00000000000E+00 0. -1.
         -1    1    3    3    0  502  0.14841363578E+03 -0.11149951740E+03 -0.52394119477E+03  0.55585351059E+03  0.00000000000E+00 0.  1.
         13    1    5    5    0    0 -0.17427617757E+03  0.21429677015E+03 -0.35081683964E+03  0.44650615532E+03  0.00000000000E+00 0.  1.
        -13    1    5    5    0    0 -0.14677398128E+03  0.20687996693E+03 -0.47864811325E+03  0.54170650598E+03  0.00000000000E+00 0. -1.
          1    1    6    6  503    0  0.41986521187E+02 -0.26635622203E+03 -0.72601143495E+02  0.27924797405E+03  0.00000000000E+00 0. -1.
         -1    1    6    6    0  503  0.23035716378E+02 -0.45811807110E+02 -0.57966791597E+02  0.77391955834E+02  0.00000000000E+00 0.  1.
<mgrwt>
<rscale>  0 0.13617475E+04</rscale>
<asrwt>0</asrwt>
<pdfrwt beam="1">  1        2 0.33242277E+00 0.13617475E+04</pdfrwt>
<pdfrwt beam="2">  1       -1 0.33007736E-01 0.13617475E+04</pdfrwt>
<totfact> 0.52122358E+01</totfact>
</mgrwt>
</event>
<event>
12    7  0.2466188E-007  0.1777480E+04  0.7818608E-02  0.8718368E-01
         -1   -1    0    0    0  501 -0.00000000000E+00  0.00000000000E+00  0.29553365978E+03  0.29553365978E+03  0.00000000000E+00 0.  1.
          2   -1    0    0  501    0  0.00000000000E+00 -0.00000000000E+00 -0.26726530436E+04  0.26726530436E+04  0.00000000000E+00 0. -1.
         24    2    1    2    0    0 -0.53372095129E+03 -0.91261769160E+02 -0.26359289730E+03  0.60782006677E+03  0.82324077351E+02 0.  0.
        254    2    1    2    0    0  0.53372095129E+03  0.91261769160E+02 -0.21135264865E+04  0.23603666366E+04  0.90063848773E+03 0.  0.
         23    2    4    4    0    0  0.32102910070E+02  0.28729368477E+03 -0.18301396601E+03  0.35409932661E+03  0.91235756208E+02 0.  0.
         23    2    4    4    0    0  0.50161804122E+03 -0.19603191561E+03 -0.19305125205E+04  0.20062673100E+04  0.90447532062E+02 0.  0.
          2    1    3    3  502    0 -0.45799118575E+03 -0.50113380202E+02 -0.23361261522E+03  0.51656764425E+03  0.00000000000E+00 0. -1.
         -1    1    3    3    0  502 -0.75729765539E+02 -0.41148388957E+02 -0.29980282084E+02  0.91252422522E+02  0.00000000000E+00 0.  1.
         13    1    5    5    0    0  0.48310292355E+02  0.23243469561E+03 -0.11083145718E+03  0.26199882437E+03  0.00000000000E+00 0. -1.
        -13    1    5    5    0    0 -0.16207382286E+02  0.54858989155E+02 -0.72182508834E+02  0.92100502242E+02  0.00000000000E+00 0.  1.
          4    1    6    6  503    0  0.32787922916E+03 -0.17032524951E+03 -0.13638247385E+04  0.14129874016E+04  0.00000000000E+00 0. -1.
         -4    1    6    6    0  503  0.17373881206E+03 -0.25706666097E+02 -0.56668778198E+03  0.59327990843E+03  0.00000000000E+00 0.  1.
<mgrwt>
<rscale>  0 0.17774802E+04</rscale>
<asrwt>0</asrwt>
<pdfrwt beam="1">  1        2 0.41117738E+00 0.17774802E+04</pdfrwt>
<pdfrwt beam="2">  1       -1 0.45466718E-01 0.17774802E+04</pdfrwt>
<totfact> 0.14290170E+01</totfact>
</mgrwt>
</event>
<event>
12    7  0.2466188E-007  0.1331071E+04  0.7818608E-02  0.9005282E-01
         -1   -1    0    0    0  501 -0.00000000000E+00  0.00000000000E+00  0.62305105717E+03  0.62305105717E+03  0.00000000000E+00 0.  1.
          2   -1    0    0  501    0  0.00000000000E+00 -0.00000000000E+00 -0.71091722178E+03  0.71091722178E+03  0.00000000000E+00 0. -1.
         24    2    1    2    0    0 -0.21019473487E+03  0.14894919455E+03  0.22092320762E+03  0.34832677095E+03  0.78465193351E+02 0.  0.
        254    2    1    2    0    0  0.21019473487E+03 -0.14894919455E+03 -0.30878937224E+03  0.98564150801E+03  0.89987255585E+03 0.  0.
         23    2    4    4    0    0  0.17389054197E+03 -0.51738507186E+03 -0.21153287306E+03  0.59228390026E+03  0.90160018626E+02 0.  0.
         23    2    4    4    0    0  0.36304192910E+02  0.36843587731E+03 -0.97256499174E+02  0.39335760774E+03  0.90600170103E+02 0.  0.
          4    1    3    3  502    0 -0.11722751937E+03  0.75383506577E+02  0.68702880033E+02  0.15538677578E+03  0.00000000000E+00 0. -1.
         -3    1    3    3    0  502 -0.92967215504E+02  0.73565687973E+02  0.15222032759E+03  0.19293999517E+03  0.00000000000E+00 0.  1.
         13    1    5    5    0    0  0.16075197589E+03 -0.43178389905E+03 -0.20825812426E+03  0.50561841298E+03  0.00000000000E+00 0. -1.
        -13    1    5    5    0    0  0.13138566075E+02 -0.85601172815E+02 -0.32747487976E+01  0.86665487280E+02  0.00000000000E+00 0.  1.
          2    1    6    6  503    0 -0.37357017879E+01  0.13451116996E+03  0.56481039137E+01  0.13468151837E+03  0.00000000000E+00 0. -1.
         -2    1    6    6    0  503  0.40039894698E+02  0.23392470735E+03 -0.10290460309E+03  0.25867608937E+03  0.00000000000E+00 0.  1.
<mgrwt>
<rscale>  0 0.13310713E+04</rscale>
<asrwt>0</asrwt>
<pdfrwt beam="1">  1        2 0.10937188E+00 0.13310713E+04</pdfrwt>
<pdfrwt beam="2">  1       -1 0.95854009E-01 0.13310713E+04</pdfrwt>
<totfact> 0.47118922E+01</totfact>
</mgrwt>
</event>
<event>
12    7  0.2466188E-007  0.1592814E+04  0.7818608E-02  0.8824975E-01
          2   -1    0    0  501    0  0.00000000000E+00  0.00000000000E+00  0.75583009712E+03  0.75583009712E+03  0.00000000000E+00 0. -1.
         -1   -1    0    0    0  501 -0.00000000000E+00 -0.00000000000E+00 -0.83916227472E+03  0.83916227472E+03  0.00000000000E+00 0.  1.
         24    2    1    2    0    0 -0.31843284357E+03 -0.41373132756E+03 -0.15338884500E+03  0.54928289390E+03  0.74903087345E+02 0.  0.
        254    2    1    2    0    0  0.31843284357E+03  0.41373132756E+03  0.70056667404E+02  0.10457094779E+04  0.90334228748E+03 0.  0.
         23    2    4    4    0    0 -0.22123234203E+03 -0.70081339464E+02  0.18013720858E+03  0.30693517127E+03  0.88908054448E+02 0.  0.
         23    2    4    4    0    0  0.53966518559E+03  0.48381266702E+03 -0.11008054117E+03  0.73877430668E+03  0.91414120091E+02 0.  0.
          2    1    3    3  502    0 -0.91559540513E+02 -0.69998296134E+02 -0.25615901739E+02  0.11806390364E+03  0.00000000000E+00 0. -1.
         -1    1    3    3    0  502 -0.22687330305E+03 -0.34373303142E+03 -0.12777294326E+03  0.43121899026E+03  0.00000000000E+00 0.  1.
         13    1    5    5    0    0 -0.16619765827E+03 -0.15449597016E+02  0.96167545153E+02  0.19263579211E+03  0.00000000000E+00 0.  1.
        -13    1    5    5    0    0 -0.55034683760E+02 -0.54631742448E+02  0.83969663424E+02  0.11429937915E+03  0.00000000000E+00 0. -1.
          1    1    6    6  503    0  0.64467754716E+02  0.22738763193E+02 -0.78530897939E+01  0.68809983062E+02  0.00000000000E+00 0. -1.
         -1    1    6    6    0  503  0.47519743088E+03  0.46107390383E+03 -0.10222745138E+03  0.66996432362E+03  0.00000000000E+00 0.  1.
<mgrwt>
<rscale>  0 0.15928140E+04</rscale>
<asrwt>0</asrwt>
<pdfrwt beam="1">  1        2 0.11628155E+00 0.15928140E+04</pdfrwt>
<pdfrwt beam="2">  1       -1 0.12910189E+00 0.15928140E+04</pdfrwt>
<totfact> 0.20995148E+01</totfact>
</mgrwt>
</event>
<event>
12    7  0.2466188E-007  0.3914063E+04  0.7818608E-02  0.8022111E-01
          2   -1    0    0  501    0  0.00000000000E+00  0.00000000000E+00  0.11765935445E+04  0.11765935445E+04  0.00000000000E+00 0. -1.
         -3   -1    0    0    0  501 -0.00000000000E+00 -0.00000000000E+00 -0.32551370272E+04  0.32551370272E+04  0.00000000000E+00 0.  1.
         24    2    1    2    0    0  0.76903992393E+03 -0.15351297788E+04 -0.17699204706E+04  0.24671888143E+04  0.79726599099E+02 0.  0.
        254    2    1    2    0    0 -0.76903992393E+03  0.15351297788E+04 -0.30862301214E+03  0.19645417574E+04  0.90339930844E+03 0.  0.
         23    2    4    4    0    0 -0.85110754479E+03  0.74741962945E+03 -0.96913039954E+02  0.11406668969E+04  0.93320292855E+02 0.  0.
         23    2    4    4    0    0  0.82067620858E+02  0.78771014937E+03 -0.21170997218E+03  0.82387486050E+03  0.82014020977E+02 0.  0.
          2    1    3    3  502    0  0.65166770133E+03 -0.12391744016E+04 -0.14618517793E+04  0.20241626949E+04  0.00000000000E+00 0. -1.
         -1    1    3    3    0  502  0.11737222260E+03 -0.29595537717E+03 -0.30806869132E+03  0.44302611942E+03  0.00000000000E+00 0.  1.
         13    1    5    5    0    0 -0.46288285160E+03  0.35118385996E+03 -0.70842644943E+02  0.58532838488E+03  0.00000000000E+00 0. -1.
        -13    1    5    5    0    0 -0.38822469319E+03  0.39623576949E+03 -0.26070395011E+02  0.55533851201E+03  0.00000000000E+00 0.  1.
          2    1    6    6  503    0  0.60603398893E+02  0.75169981295E+03 -0.20407709288E+03  0.78126361786E+03  0.00000000000E+00 0. -1.
         -2    1    6    6    0  503  0.21464221965E+02  0.36010336414E+02 -0.76328793070E+01  0.42611242645E+02  0.00000000000E+00 0.  1.
<mgrwt>
<rscale>  0 0.39140635E+04</rscale>
<asrwt>0</asrwt>
<pdfrwt beam="1">  1        2 0.18101439E+00 0.39140635E+04</pdfrwt>
<pdfrwt beam="2">  1       -3 0.50079032E+00 0.39140635E+04</pdfrwt>
<totfact> 0.29077349E-02</totfact>
</mgrwt>
</event>
<event>
12    7  0.2466188E-007  0.1458588E+04  0.7818608E-02  0.8912469E-01
         -1   -1    0    0    0  501 -0.00000000000E+00  0.00000000000E+00  0.99765591292E+03  0.99765591292E+03  0.00000000000E+00 0.  1.
          2   -1    0    0  501    0  0.00000000000E+00 -0.00000000000E+00 -0.53311910023E+03  0.53311910023E+03  0.00000000000E+00 0. -1.
         24    2    1    2    0    0  0.19172588401E+03  0.25322932841E+03 -0.18475311333E+03  0.37635227806E+03  0.81384377779E+02 0.  0.
        254    2    1    2    0    0 -0.19172588401E+03 -0.25322932841E+03  0.64928992603E+03  0.11544227351E+04  0.90012806638E+03 0.  0.
         23    2    4    4    0    0 -0.32786687711E+03 -0.52596852453E+03  0.34836904731E+03  0.71687868733E+03  0.91730482022E+02 0.  0.
         23    2    4    4    0    0  0.13614099309E+03  0.27273919612E+03  0.30092087872E+03  0.43754404776E+03  0.89276981242E+02 0.  0.
          4    1    3    3  502    0  0.10704178029E+03  0.18926777374E+03 -0.15195631221E+03  0.26527524144E+03  0.00000000000E+00 0. -1.
         -3    1    3    3    0  502  0.84684103719E+02  0.63961554673E+02 -0.32796801125E+02  0.11107703661E+03  0.00000000000E+00 0.  1.
         13    1    5    5    0    0 -0.28324633512E+03 -0.42292142531E+03  0.31935444013E+03  0.60089789213E+03  0.00000000000E+00 0. -1.
        -13    1    5    5    0    0 -0.44620541987E+02 -0.10304709922E+03  0.29014607183E+02  0.11598079520E+03  0.00000000000E+00 0.  1.
          1    1    6    6  503    0  0.12014212797E+03  0.25771193335E+03  0.23765889091E+03  0.37058240640E+03  0.00000000000E+00 0. -1.
         -1    1    6    6    0  503  0.15998865128E+02  0.15027262764E+02  0.63261987813E+02  0.66961641360E+02  0.00000000000E+00 0.  1.
<mgrwt>
<rscale>  0 0.14585876E+04</rscale>
<asrwt>0</asrwt>
<pdfrwt beam="1">  1        2 0.82018323E-01 0.14585876E+04</pdfrwt>
<pdfrwt beam="2">  1       -1 0.15348552E+00 0.14585876E+04</pdfrwt>
<totfact> 0.20745559E+01</totfact>
</mgrwt>
</event>
<event>
12    7  0.2466188E-007  0.1507738E+04  0.7818608E-02  0.8879324E-01
         -1   -1    0    0    0  501 -0.00000000000E+00  0.00000000000E+00  0.73167947385E+03  0.73167947385E+03  0.00000000000E+00 0.  1.
          2   -1    0    0  501    0  0.00000000000E+00 -0.00000000000E+00 -0.77673102990E+03  0.77673102990E+03  0.00000000000E+00 0. -1.
         24    2    1    2    0    0  0.37914403810E+02 -0.44951264829E+03 -0.14632076865E+03  0.48115451672E+03  0.81245176055E+02 0.  0.
        254    2    1    2    0    0 -0.37914403810E+02  0.44951264829E+03  0.10126921260E+03  0.10272559870E+04  0.91733324723E+03 0.  0.
         23    2    4    4    0    0 -0.56443274441E+02  0.72289010064E+03  0.40735511719E+02  0.73172700996E+03  0.89493543733E+02 0.  0.
         23    2    4    4    0    0  0.18528870630E+02 -0.27337745235E+03  0.60533700881E+02  0.29552897706E+03  0.92706509165E+02 0.  0.
          2    1    3    3  502    0  0.31508920109E+02 -0.32008685334E+03 -0.14176374827E+03  0.35149020762E+03  0.00000000000E+00 0. -1.
         -1    1    3    3    0  502  0.64054837010E+01 -0.12942579495E+03 -0.45570203765E+01  0.12966430910E+03  0.00000000000E+00 0.  1.
         13    1    5    5    0    0 -0.25942550031E+02  0.65784017512E+03  0.43883918396E+02  0.65981248108E+03  0.00000000000E+00 0.  1.
        -13    1    5    5    0    0 -0.30500724410E+02  0.65049925518E+02 -0.31484066764E+01  0.71914528880E+02  0.00000000000E+00 0. -1.
          3    1    6    6  503    0  0.45340522499E+02 -0.74572758998E+02  0.51831776116E+01  0.87428397533E+02  0.00000000000E+00 0. -1.
         -3    1    6    6    0  503 -0.26811651869E+02 -0.19880469335E+03  0.55350523270E+02  0.20810057953E+03  0.00000000000E+00 0.  1.
<mgrwt>
<rscale>  0 0.15077376E+04</rscale>
<asrwt>0</asrwt>
<pdfrwt beam="1">  1        2 0.11949708E+00 0.15077376E+04</pdfrwt>
<pdfrwt beam="2">  1       -1 0.11256607E+00 0.15077376E+04</pdfrwt>
<totfact> 0.28543171E+01</totfact>
</mgrwt>
</event>
<event>
12    7  0.2466188E-007  0.1134444E+04  0.7818608E-02  0.9172255E-01
          2   -1    0    0  501    0  0.00000000000E+00  0.00000000000E+00  0.81011377334E+03  0.81011377334E+03  0.00000000000E+00 0. -1.
         -1   -1    0    0    0  501 -0.00000000000E+00 -0.00000000000E+00 -0.39715538119E+03  0.39715538119E+03  0.00000000000E+00 0.  1.
         24    2    1    2    0    0  0.36249101279E+01 -0.18620340834E+03  0.12679950422E+03  0.24415742261E+03  0.94073819385E+02 0.  0.
        254    2    1    2    0    0 -0.36249101279E+01  0.18620340834E+03  0.28615888792E+03  0.96311173192E+03  0.90056229644E+03 0.  0.
         23    2    4    4    0    0 -0.38337193457E+03  0.31817409977E+03  0.13408330245E+03  0.52342072988E+03  0.88216384489E+02 0.  0.
         23    2    4    4    0    0  0.37974702444E+03 -0.13197069143E+03  0.15207558547E+03  0.43969100204E+03  0.92612783203E+02 0.  0.
          2    1    3    3  502    0 -0.43024728492E+02 -0.11700541723E+03  0.84420876016E+02  0.15055988586E+03  0.00000000000E+00 0. -1.
         -1    1    3    3    0  502  0.46649638619E+02 -0.69197991108E+02  0.42378628206E+02  0.93597536748E+02  0.00000000000E+00 0.  1.
         13    1    5    5    0    0 -0.14354408685E+03  0.96266477068E+02  0.74452672136E+01  0.17299587128E+03  0.00000000000E+00 0. -1.
        -13    1    5    5    0    0 -0.23982784772E+03  0.22190762270E+03  0.12663803524E+03  0.35042485859E+03  0.00000000000E+00 0.  1.
          4    1    6    6  503    0  0.27717174672E+03 -0.99947364595E+02  0.65836934209E+02  0.30190752686E+03  0.00000000000E+00 0.  1.
         -4    1    6    6    0  503  0.10257527772E+03 -0.32023326833E+02  0.86238651265E+02  0.13778347518E+03  0.00000000000E+00 0. -1.
<mgrwt>
<rscale>  0 0.11344444E+04</rscale>
<asrwt>0</asrwt>
<pdfrwt beam="1">  1        2 0.12463289E+00 0.11344444E+04</pdfrwt>
<pdfrwt beam="2">  1       -1 0.61100828E-01 0.11344444E+04</pdfrwt>
<totfact> 0.10408496E+02</totfact>
</mgrwt>
</event>
<event>
12    7  0.2466188E-007  0.1890100E+04  0.7818608E-02  0.8659800E-01
         -1   -1    0    0    0  501 -0.00000000000E+00  0.00000000000E+00  0.10723758043E+04  0.10723758043E+04  0.00000000000E+00 0.  1.
          2   -1    0    0  501    0  0.00000000000E+00 -0.00000000000E+00 -0.83284233945E+03  0.83284233945E+03  0.00000000000E+00 0. -1.
         24    2    1    2    0    0  0.42877391065E+03 -0.46898274828E+03 -0.26533060735E+03  0.69320357155E+03  0.79617685107E+02 0.  0.
        254    2    1    2    0    0 -0.42877391065E+03  0.46898274828E+03  0.50486407223E+03  0.12120145722E+04  0.90016648861E+03 0.  0.
         23    2    4    4    0    0  0.27376338985E+03  0.12448901989E+03  0.14876255539E+03  0.34788102104E+03  0.91907547141E+02 0.  0.
         23    2    4    4    0    0 -0.70253730050E+03  0.34449372839E+03  0.35610151684E+03  0.86413355118E+03  0.87657951590E+02 0.  0.
          2    1    3    3  502    0  0.22740087484E+03 -0.21311787964E+03 -0.16413440976E+03  0.35223641630E+03  0.00000000000E+00 0. -1.
         -1    1    3    3    0  502  0.20137303581E+03 -0.25586486864E+03 -0.10119619758E+03  0.34096715525E+03  0.00000000000E+00 0.  1.
         13    1    5    5    0    0  0.25150518686E+03  0.10484619094E+03  0.16017663171E+03  0.31607615557E+03  0.00000000000E+00 0. -1.
        -13    1    5    5    0    0  0.22258202992E+02  0.19642828951E+02 -0.11414076325E+02  0.31804865477E+02  0.00000000000E+00 0.  1.
          4    1    6    6  503    0 -0.33628670505E+03  0.17066829382E+03  0.21942728926E+03  0.43630809044E+03  0.00000000000E+00 0.  1.
         -4    1    6    6    0  503 -0.36625059546E+03  0.17382543457E+03  0.13667422758E+03  0.42782546074E+03  0.00000000000E+00 0. -1.
<mgrwt>
<rscale>  0 0.18901005E+04</rscale>
<asrwt>0</asrwt>
<pdfrwt beam="1">  1        2 0.12812959E+00 0.18901005E+04</pdfrwt>
<pdfrwt beam="2">  1       -1 0.16498089E+00 0.18901005E+04</pdfrwt>
<totfact> 0.93579885E+00</totfact>
</mgrwt>
</event>
<event>
12    7  0.2466188E-007  0.1898527E+04  0.7818608E-02  0.8655590E-01
          2   -1    0    0  501    0  0.00000000000E+00  0.00000000000E+00  0.20682752230E+04  0.20682752230E+04  0.00000000000E+00 0. -1.
         -1   -1    0    0    0  501 -0.00000000000E+00 -0.00000000000E+00 -0.43567749214E+03  0.43567749214E+03  0.00000000000E+00 0.  1.
         24    2    1    2    0    0  0.48835330333E+03 -0.53590102330E+03  0.69240943871E+03  0.10058515944E+04  0.81410954696E+02 0.  0.
        254    2    1    2    0    0 -0.48835330333E+03  0.53590102330E+03  0.94018829215E+03  0.14981011207E+04  0.91360499535E+03 0.  0.
         23    2    4    4    0    0 -0.36938985593E+03  0.61702985417E+03  0.21950683852E+03  0.75744728162E+03  0.91479099685E+02 0.  0.
         23    2    4    4    0    0 -0.11896344740E+03 -0.81128830872E+02  0.72068145364E+03  0.74065383909E+03  0.91935644492E+02 0.  0.
          2    1    3    3  502    0  0.36921004984E+03 -0.43755238255E+03  0.57856979567E+03  0.81394788337E+03  0.00000000000E+00 0. -1.
         -1    1    3    3    0  502  0.11914325349E+03 -0.98348640742E+02  0.11383964304E+03  0.19190371105E+03  0.00000000000E+00 0.  1.
         13    1    5    5    0    0 -0.23471387501E+02  0.66880769013E+02  0.47101087115E+02  0.85102618658E+02  0.00000000000E+00 0. -1.
        -13    1    5    5    0    0 -0.34591846843E+03  0.55014908515E+03  0.17240575140E+03  0.67234466296E+03  0.00000000000E+00 0.  1.
          2    1    6    6  503    0 -0.36382693727E+02 -0.39907954966E+02  0.47753715053E+03  0.48058097695E+03  0.00000000000E+00 0.  1.
         -2    1    6    6    0  503 -0.82580753672E+02 -0.41220875905E+02  0.24314430311E+03  0.26007286214E+03  0.00000000000E+00 0. -1.
<mgrwt>
<rscale>  0 0.18985268E+04</rscale>
<asrwt>0</asrwt>
<pdfrwt beam="1">  1        2 0.31819618E+00 0.18985268E+04</pdfrwt>
<pdfrwt beam="2">  1       -1 0.67027308E-01 0.18985268E+04</pdfrwt>
<totfact> 0.14719624E+01</totfact>
</mgrwt>
</event>
<event>
12    7  0.2466188E-007  0.3643231E+04  0.7818608E-02  0.8080660E-01
          2   -1    0    0  501    0  0.00000000000E+00  0.00000000000E+00  0.27993014928E+04  0.27993014928E+04  0.00000000000E+00 0. -1.
         -1   -1    0    0    0  501 -0.00000000000E+00 -0.00000000000E+00 -0.11853966135E+04  0.11853966135E+04  0.00000000000E+00 0.  1.
         24    2    1    2    0    0 -0.86138045488E+02  0.14619016528E+04 -0.20676821913E+03  0.14810235880E+04  0.78112524602E+02 0.  0.
        254    2    1    2    0    0  0.86138045488E+02 -0.14619016528E+04  0.18206730985E+04  0.25036745182E+04  0.89942167882E+03 0.  0.
         23    2    4    4    0    0 -0.21151683658E+03 -0.13192006573E+04  0.16384158606E+04  0.21160634450E+04  0.91039688564E+02 0.  0.
         23    2    4    4    0    0  0.29765488207E+03 -0.14270099553E+03  0.18225723790E+03  0.38761107319E+03  0.89792206517E+02 0.  0.
          2    1    3    3  502    0 -0.22580657414E+01  0.60750326141E+03 -0.10485069074E+03  0.61648923659E+03  0.00000000000E+00 0. -1.
         -1    1    3    3    0  502 -0.83879979747E+02  0.85439839141E+03 -0.10191752839E+03  0.86453435145E+03  0.00000000000E+00 0.  1.
         13    1    5    5    0    0 -0.17114016113E+03 -0.78671198164E+03  0.99061149737E+03  0.12765249060E+04  0.00000000000E+00 0.  1.
        -13    1    5    5    0    0 -0.40376675451E+02 -0.53248867564E+03  0.64780436323E+03  0.83953853909E+03  0.00000000000E+00 0. -1.
          3    1    6    6  503    0  0.93935168628E+02 -0.10996561943E+01  0.52995828151E+02  0.10785908840E+03  0.00000000000E+00 0. -1.
         -3    1    6    6    0  503  0.20371971344E+03 -0.14160133934E+03  0.12926140975E+03  0.27975198480E+03  0.00000000000E+00 0.  1.
<mgrwt>
<rscale>  0 0.36432307E+04</rscale>
<asrwt>0</asrwt>
<pdfrwt beam="1">  1        2 0.43066177E+00 0.36432307E+04</pdfrwt>
<pdfrwt beam="2">  1       -1 0.18236871E+00 0.36432307E+04</pdfrwt>
<totfact> 0.42718010E-01</totfact>
</mgrwt>
</event>
<event>
12    7  0.2466188E-007  0.1757315E+04  0.7818608E-02  0.8729334E-01
          2   -1    0    0  501    0  0.00000000000E+00  0.00000000000E+00  0.17290379543E+04  0.17290379543E+04  0.00000000000E+00 0. -1.
         -1   -1    0    0    0  501 -0.00000000000E+00 -0.00000000000E+00 -0.44651377439E+03  0.44651377439E+03  0.00000000000E+00 0.  1.
         24    2    1    2    0    0  0.48276991047E+03  0.30957653806E+03  0.11329568439E+03  0.59037612822E+03  0.82484188184E+02 0.  0.
        254    2    1    2    0    0 -0.48276991047E+03 -0.30957653806E+03  0.11692284955E+04  0.15851756005E+04  0.90375991845E+03 0.  0.
         23    2    4    4    0    0 -0.35164836994E+03 -0.20262690465E+03  0.12919546678E+04  0.13574863645E+04  0.94382877315E+02 0.  0.
         23    2    4    4    0    0 -0.13112154053E+03 -0.10694963341E+03 -0.12272617229E+03  0.22768923597E+03  0.90275092562E+02 0.  0.
          4    1    3    3  502    0  0.23913550978E+03  0.10603094327E+03  0.61295068936E+02  0.26867347923E+03  0.00000000000E+00 0. -1.
         -3    1    3    3    0  502  0.24363440069E+03  0.20354559479E+03  0.52000615455E+02  0.32170264899E+03  0.00000000000E+00 0.  1.
         13    1    5    5    0    0 -0.15348531906E+03 -0.67490828445E+02  0.39715535941E+03  0.43109759289E+03  0.00000000000E+00 0. -1.
        -13    1    5    5    0    0 -0.19816305089E+03 -0.13513607621E+03  0.89479930841E+03  0.92638877161E+03  0.00000000000E+00 0.  1.
          4    1    6    6  503    0 -0.83157545322E+02 -0.28211102060E+02 -0.20782937548E+02  0.90238429267E+02  0.00000000000E+00 0.  1.
         -4    1    6    6    0  503 -0.47963995206E+02 -0.78738531347E+02 -0.10194323474E+03  0.13745080671E+03  0.00000000000E+00 0. -1.
<mgrwt>
<rscale>  0 0.17573153E+04</rscale>
<asrwt>0</asrwt>
<pdfrwt beam="1">  1        2 0.26600584E+00 0.17573153E+04</pdfrwt>
<pdfrwt beam="2">  1       -1 0.68694428E-01 0.17573153E+04</pdfrwt>
<totfact> 0.21863539E+01</totfact>
</mgrwt>
</event>
<event>
12    7  0.2466188E-007  0.2658218E+04  0.7818608E-02  0.8348690E-01
         -1   -1    0    0    0  501 -0.00000000000E+00  0.00000000000E+00  0.74290047232E+03  0.74290047232E+03  0.00000000000E+00 0.  1.
          2   -1    0    0  501    0  0.00000000000E+00 -0.00000000000E+00 -0.23778835408E+04  0.23778835408E+04  0.00000000000E+00 0. -1.
         24    2    1    2    0    0  0.11436625507E+04  0.39442025032E+02 -0.41169938441E+03  0.12185807102E+04  0.76960124230E+02 0.  0.
        254    2    1    2    0    0 -0.11436625507E+04 -0.39442025032E+02 -0.12232836840E+04  0.19022033029E+04  0.90135161329E+03 0.  0.
         23    2    4    4    0    0 -0.17495735108E+03  0.35008533298E+03 -0.25924394344E+03  0.47812808978E+03  0.90715119854E+02 0.  0.
         23    2    4    4    0    0 -0.96870519966E+03 -0.38952735801E+03 -0.96403974059E+03  0.14240752131E+04  0.92175185257E+02 0.  0.
          4    1    3    3  502    0  0.13954035582E+03 -0.19959731291E+02 -0.55614834612E+02  0.15153518273E+03  0.00000000000E+00 0. -1.
         -3    1    3    3    0  502  0.10041221949E+04  0.59401756323E+02 -0.35608454980E+03  0.10670455274E+04  0.00000000000E+00 0.  1.
         13    1    5    5    0    0 -0.10043508254E+03  0.26263193512E+03 -0.21893538557E+03  0.35636419882E+03  0.00000000000E+00 0. -1.
        -13    1    5    5    0    0 -0.74522268535E+02  0.87453397857E+02 -0.40308557872E+02  0.12176389096E+03  0.00000000000E+00 0.  1.
          3    1    6    6  503    0 -0.72398580989E+02 -0.22128913179E+02 -0.41276029820E+02  0.86226179119E+02  0.00000000000E+00 0. -1.
         -3    1    6    6    0  503 -0.89630661867E+03 -0.36739844483E+03 -0.92276371077E+03  0.13378490340E+04  0.00000000000E+00 0.  1.
<mgrwt>
<rscale>  0 0.26582181E+04</rscale>
<asrwt>0</asrwt>
<pdfrwt beam="1">  1        2 0.36582823E+00 0.26582181E+04</pdfrwt>
<pdfrwt beam="2">  1       -1 0.11429238E+00 0.26582181E+04</pdfrwt>
<totfact> 0.28539999E+00</totfact>
</mgrwt>
</event>
<event>
12    7  0.2466188E-007  0.2145773E+04  0.7818608E-02  0.8541344E-01
          2   -1    0    0  501    0  0.00000000000E+00  0.00000000000E+00  0.35885547121E+04  0.35885547121E+04  0.00000000000E+00 0. -1.
         -1   -1    0    0    0  501 -0.00000000000E+00 -0.00000000000E+00 -0.32076565174E+03  0.32076565174E+03  0.00000000000E+00 0.  1.
         24    2    1    2    0    0 -0.60033499159E+03  0.59022461301E+03  0.18344087089E+04  0.20199494059E+04  0.79831668059E+02 0.  0.
        254    2    1    2    0    0  0.60033499159E+03 -0.59022461301E+03  0.14333803515E+04  0.18893709579E+04  0.89798451480E+03 0.  0.
         23    2    4    4    0    0  0.67753261925E+03 -0.55693333166E+03  0.64844077701E+03  0.10945259791E+04  0.91030168623E+02 0.  0.
         23    2    4    4    0    0 -0.77197627656E+02 -0.33291281348E+02  0.78493957446E+03  0.79484497884E+03  0.92631645238E+02 0.  0.
          2    1    3    3  502    0 -0.27184515392E+03  0.23479815151E+03  0.85865180009E+03  0.93075929942E+03  0.00000000000E+00 0. -1.
         -1    1    3    3    0  502 -0.32848983768E+03  0.35542646149E+03  0.97575690884E+03  0.10891901065E+04  0.00000000000E+00 0.  1.
         13    1    5    5    0    0  0.21086441477E+03 -0.16047158520E+03  0.14670145134E+03  0.30287992158E+03  0.00000000000E+00 0. -1.
        -13    1    5    5    0    0  0.46666820448E+03 -0.39646174646E+03  0.50173932566E+03  0.79164605753E+03  0.00000000000E+00 0.  1.
          4    1    6    6  503    0 -0.78030713479E+01 -0.52029511852E+02  0.37079357035E+03  0.37450744964E+03  0.00000000000E+00 0. -1.
         -4    1    6    6    0  503 -0.69394556308E+02  0.18738230505E+02  0.41414600411E+03  0.42033752919E+03  0.00000000000E+00 0.  1.
<mgrwt>
<rscale>  0 0.21457727E+04</rscale>
<asrwt>0</asrwt>
<pdfrwt beam="1">  1        2 0.55208531E+00 0.21457727E+04</pdfrwt>
<pdfrwt beam="2">  1       -1 0.49348564E-01 0.21457727E+04</pdfrwt>
<totfact> 0.30392686E+00</totfact>
</mgrwt>
</event>
<event>
12    7  0.2466188E-007  0.1876801E+04  0.7818608E-02  0.8666491E-01
          2   -1    0    0  501    0  0.00000000000E+00  0.00000000000E+00  0.24818615757E+04  0.24818615757E+04  0.00000000000E+00 0. -1.
         -1   -1    0    0    0  501 -0.00000000000E+00 -0.00000000000E+00 -0.35481231730E+03  0.35481231730E+03  0.00000000000E+00 0.  1.
         24    2    1    2    0    0 -0.55869945042E+03 -0.42041561978E+03  0.10773318436E+04  0.12868125590E+04  0.79676167370E+02 0.  0.
        254    2    1    2    0    0  0.55869945042E+03  0.42041561978E+03  0.10497174148E+04  0.15498613339E+04  0.90070479863E+03 0.  0.
         23    2    4    4    0    0  0.20047034172E+03  0.65813677944E+03  0.72359109769E+03  0.10024265754E+04  0.89121176261E+02 0.  0.
         23    2    4    4    0    0  0.35822910869E+03 -0.23772115966E+03  0.32612631710E+03  0.54743475854E+03  0.92124893908E+02 0.  0.
          2    1    3    3  502    0 -0.77538549942E+02 -0.96093809536E+02  0.18870583383E+03  0.22551305656E+03  0.00000000000E+00 0. -1.
         -1    1    3    3    0  502 -0.48116090048E+03 -0.32432181025E+03  0.88862600975E+03  0.10612995025E+04  0.00000000000E+00 0.  1.
         13    1    5    5    0    0  0.20974447315E+03  0.62841741162E+03  0.69472165503E+03  0.95996841886E+03  0.00000000000E+00 0. -1.
        -13    1    5    5    0    0 -0.92741314297E+01  0.29719367829E+02  0.28869442657E+02  0.42458156546E+02  0.00000000000E+00 0.  1.
          2    1    6    6  503    0  0.14321657992E+03 -0.10826627233E+03  0.82224610556E+02  0.19746762030E+03  0.00000000000E+00 0. -1.
         -2    1    6    6    0  503  0.21501252878E+03 -0.12945488734E+03  0.24390170655E+03  0.34996713823E+03  0.00000000000E+00 0.  1.
<mgrwt>
<rscale>  0 0.18768005E+04</rscale>
<asrwt>0</asrwt>
<pdfrwt beam="1">  1        2 0.38182485E+00 0.18768005E+04</pdfrwt>
<pdfrwt beam="2">  1       -1 0.54586512E-01 0.18768005E+04</pdfrwt>
<totfact> 0.12927828E+01</totfact>
</mgrwt>
</event>
<event>
12    7  0.2466188E-007  0.3252017E+04  0.7818608E-02  0.8175213E-01
          2   -1    0    0  501    0  0.00000000000E+00  0.00000000000E+00  0.20238182631E+04  0.20238182631E+04  0.00000000000E+00 0. -1.
         -1   -1    0    0    0  501 -0.00000000000E+00 -0.00000000000E+00 -0.13063935399E+04  0.13063935399E+04  0.00000000000E+00 0.  1.
         24    2    1    2    0    0 -0.24996189130E+03  0.94816870015E+03  0.14931312077E+04  0.17880805669E+04  0.79287319491E+02 0.  0.
        254    2    1    2    0    0  0.24996189130E+03 -0.94816870015E+03 -0.77570648454E+03  0.15421312361E+04  0.90274213833E+03 0.  0.
         23    2    4    4    0    0  0.17094953961E+03 -0.10704514599E+04 -0.45480589278E+03  0.11792480906E+04  0.93207220232E+02 0.  0.
         23    2    4    4    0    0  0.79012351684E+02  0.12228275974E+03 -0.32090059176E+03  0.36288314560E+03  0.86665809408E+02 0.  0.
          4    1    3    3  502    0 -0.80245560372E+02  0.28062732173E+03  0.38130946816E+03  0.48019574567E+03  0.00000000000E+00 0. -1.
         -3    1    3    3    0  502 -0.16971633092E+03  0.66754137842E+03  0.11118217396E+04  0.13078848212E+04  0.00000000000E+00 0.  1.
         13    1    5    5    0    0 -0.12020053420E+01 -0.84269934545E+00 -0.66988459844E+01  0.68578055201E+01  0.00000000000E+00 0. -1.
        -13    1    5    5    0    0  0.17215154495E+03 -0.10696087605E+04 -0.44810704680E+03  0.11723902850E+04  0.00000000000E+00 0.  1.
          3    1    6    6  503    0 -0.57658413343E+01  0.62762331836E+02 -0.15468135811E+03  0.16702897285E+03  0.00000000000E+00 0. -1.
         -3    1    6    6    0  503  0.84778193019E+02  0.59520427901E+02 -0.16621923365E+03  0.19585417275E+03  0.00000000000E+00 0.  1.
<mgrwt>
<rscale>  0 0.32520167E+04</rscale>
<asrwt>0</asrwt>
<pdfrwt beam="1">  1        2 0.31135665E+00 0.32520167E+04</pdfrwt>
<pdfrwt beam="2">  1       -1 0.20098362E+00 0.32520167E+04</pdfrwt>
<totfact> 0.91572166E-01</totfact>
</mgrwt>
</event>
<event>
12    7  0.2466188E-007  0.1376780E+04  0.7818608E-02  0.8970800E-01
         -1   -1    0    0    0  501 -0.00000000000E+00  0.00000000000E+00  0.23493506512E+03  0.23493506512E+03  0.00000000000E+00 0.  1.
          2   -1    0    0  501    0  0.00000000000E+00 -0.00000000000E+00 -0.20170714070E+04  0.20170714070E+04  0.00000000000E+00 0. -1.
         24    2    1    2    0    0 -0.27408624398E+03 -0.61957500096E+02 -0.95266816353E+03  0.99626460493E+03  0.77488917082E+02 0.  0.
        254    2    1    2    0    0  0.27408624398E+03  0.61957500096E+02 -0.82946817836E+03  0.12557418672E+04  0.89994898586E+03 0.  0.
         23    2    4    4    0    0  0.49616320065E+03  0.19378590614E+03 -0.81963447243E+03  0.98150057117E+03  0.88384408823E+02 0.  0.
         23    2    4    4    0    0 -0.22207695666E+03 -0.13182840604E+03 -0.98337059349E+01  0.27424129602E+03  0.91731583185E+02 0.  0.
          4    1    3    3  502    0 -0.13695615688E+03 -0.77982635052E+01 -0.56744240806E+03  0.58378822212E+03  0.00000000000E+00 0. -1.
         -3    1    3    3    0  502 -0.13713008711E+03 -0.54159236591E+02 -0.38522575547E+03  0.41247638281E+03  0.00000000000E+00 0.  1.
         13    1    5    5    0    0  0.22631674873E+03  0.11731974446E+03 -0.45414282546E+03  0.52079640850E+03  0.00000000000E+00 0.  1.
        -13    1    5    5    0    0  0.26984645192E+03  0.76466161682E+02 -0.36549164697E+03  0.46070416267E+03  0.00000000000E+00 0. -1.
          3    1    6    6  503    0 -0.62825423283E+02  0.46639334844E+01  0.90805502438E+01  0.63649371395E+02  0.00000000000E+00 0. -1.
         -3    1    6    6    0  503 -0.15925153338E+03 -0.13649233953E+03 -0.18914256179E+02  0.21059192463E+03  0.00000000000E+00 0.  1.
<mgrwt>
<rscale>  0 0.13767800E+04</rscale>
<asrwt>0</asrwt>
<pdfrwt beam="1">  1        2 0.31031867E+00 0.13767800E+04</pdfrwt>
<pdfrwt beam="2">  1       -1 0.36143857E-01 0.13767800E+04</pdfrwt>
<totfact> 0.53202010E+01</totfact>
</mgrwt>
</event>
<event>
12    7  0.2466188E-007  0.2924431E+04  0.7818608E-02  0.8265645E-01
          2   -1    0    0  501    0  0.00000000000E+00  0.00000000000E+00  0.42533930431E+04  0.42533930431E+04  0.00000000000E+00 0. -1.
         -1   -1    0    0    0  501 -0.00000000000E+00 -0.00000000000E+00 -0.50267493272E+03  0.50267493272E+03  0.00000000000E+00 0.  1.
         24    2    1    2    0    0  0.47545988823E+03 -0.53297192671E+03  0.35108707697E+04  0.35836388403E+04  0.78310892112E+02 0.  0.
        254    2    1    2    0    0 -0.47545988823E+03  0.53297192671E+03  0.23984734063E+03  0.11724291355E+04  0.89829958870E+03 0.  0.
         23    2    4    4    0    0 -0.45872543072E+03  0.67665775206E+02 -0.20941623056E+03  0.51843193797E+03  0.99543150269E+02 0.  0.
         23    2    4    4    0    0 -0.16734457515E+02  0.46530615150E+03  0.44926357118E+03  0.65399719756E+03  0.95313804491E+02 0.  0.
          4    1    3    3  502    0  0.43633524903E+03 -0.49333389947E+03  0.33251129692E+04  0.33897113511E+04  0.00000000000E+00 0. -1.
         -3    1    3    3    0  502  0.39124639206E+02 -0.39638027233E+02  0.18575780048E+03  0.19392748912E+03  0.00000000000E+00 0.  1.
         13    1    5    5    0    0 -0.39786458233E+03  0.66760205497E+02 -0.14220679133E+03  0.42775684964E+03  0.00000000000E+00 0.  1.
        -13    1    5    5    0    0 -0.60860848388E+02  0.90556970944E+00 -0.67209439229E+02  0.90675088335E+02  0.00000000000E+00 0. -1.
          4    1    6    6  503    0 -0.27430662457E+02  0.46195629638E+03  0.44497593672E+03  0.64199660845E+03  0.00000000000E+00 0.  1.
         -4    1    6    6    0  503  0.10696204942E+02  0.33498551213E+01  0.42876344629E+01  0.12000589101E+02  0.00000000000E+00 0. -1.
<mgrwt>
<rscale>  0 0.29244309E+04</rscale>
<asrwt>0</asrwt>
<pdfrwt beam="1">  1        2 0.65436814E+00 0.29244309E+04</pdfrwt>
<pdfrwt beam="2">  1       -1 0.77334608E-01 0.29244309E+04</pdfrwt>
<totfact> 0.34250262E-01</totfact>
</mgrwt>
</event>
<event>
12    7  0.2466188E-007  0.2417511E+04  0.7818608E-02  0.8432977E-01
         -1   -1    0    0    0  501 -0.00000000000E+00  0.00000000000E+00  0.72396816912E+03  0.72396816912E+03  0.00000000000E+00 0.  1.
          2   -1    0    0  501    0  0.00000000000E+00 -0.00000000000E+00 -0.20181691330E+04  0.20181691330E+04  0.00000000000E+00 0. -1.
         24    2    1    2    0    0  0.72516739840E+02  0.94616645906E+03 -0.10383317118E+04  0.14090039493E+04  0.81668474240E+02 0.  0.
        254    2    1    2    0    0 -0.72516739840E+02 -0.94616645906E+03 -0.25586925210E+03  0.13331333528E+04  0.90071405919E+03 0.  0.
         23    2    4    4    0    0 -0.19532580345E+03 -0.81236801674E+02 -0.38286056859E+03  0.44571537279E+03  0.85606022688E+02 0.  0.
         23    2    4    4    0    0  0.12280906361E+03 -0.86492965738E+03  0.12699131650E+03  0.88741798002E+03  0.90545560241E+02 0.  0.
          2    1    3    3  502    0 -0.26424417961E+00  0.43648398051E+03 -0.44257445411E+03  0.62160315515E+03  0.00000000000E+00 0. -1.
         -1    1    3    3    0  502  0.72780984020E+02  0.50968247855E+03 -0.59575725767E+03  0.78740079416E+03  0.00000000000E+00 0.  1.
         13    1    5    5    0    0 -0.80054206775E+02 -0.35531885907E+02 -0.80680159611E+02  0.11908181680E+03  0.00000000000E+00 0. -1.
        -13    1    5    5    0    0 -0.11527159668E+03 -0.45704915767E+02 -0.30218040898E+03  0.32663355599E+03  0.00000000000E+00 0.  1.
          1    1    6    6  503    0  0.74189880819E+02 -0.25912302935E+03  0.19579751035E+02  0.27024479533E+03  0.00000000000E+00 0. -1.
         -1    1    6    6    0  503  0.48619182794E+02 -0.60580662803E+03  0.10741156546E+03  0.61717318469E+03  0.00000000000E+00 0.  1.
<mgrwt>
<rscale>  0 0.24175113E+04</rscale>
<asrwt>0</asrwt>
<pdfrwt beam="1">  1        2 0.31048755E+00 0.24175113E+04</pdfrwt>
<pdfrwt beam="2">  1       -1 0.11137972E+00 0.24175113E+04</pdfrwt>
<totfact> 0.49415036E+00</totfact>
</mgrwt>
</event>
<event>
12    7  0.2466188E-007  0.2036890E+04  0.7818608E-02  0.8589565E-01
         -1   -1    0    0    0  501 -0.00000000000E+00  0.00000000000E+00  0.73994361441E+03  0.73994361441E+03  0.00000000000E+00 0.  1.
          2   -1    0    0  501    0  0.00000000000E+00 -0.00000000000E+00 -0.14017697985E+04  0.14017697985E+04  0.00000000000E+00 0. -1.
         24    2    1    2    0    0  0.70416871745E+03 -0.40990579120E+03 -0.20705723971E+03  0.84444871560E+03  0.79652950180E+02 0.  0.
        254    2    1    2    0    0 -0.70416871745E+03  0.40990579120E+03 -0.45476894437E+03  0.12972646973E+04  0.90122392433E+03 0.  0.
         23    2    4    4    0    0  0.85094895666E+02 -0.11366892906E+03 -0.28441753041E+03  0.33030455817E+03  0.89699514175E+02 0.  0.
         23    2    4    4    0    0 -0.78926361312E+03  0.52357472026E+03 -0.17035141396E+03  0.96696013913E+03  0.94470988847E+02 0.  0.
          4    1    3    3  502    0  0.57427675771E+03 -0.35855628049E+03 -0.19343853845E+03  0.70411282397E+03  0.00000000000E+00 0. -1.
         -3    1    3    3    0  502  0.12989195974E+03 -0.51349510710E+02 -0.13618701254E+02  0.14033589163E+03  0.00000000000E+00 0.  1.
         13    1    5    5    0    0  0.17077489979E+02 -0.51775420903E+02 -0.35796868681E+02  0.65220784119E+02  0.00000000000E+00 0.  1.
        -13    1    5    5    0    0  0.68017405686E+02 -0.61893508154E+02 -0.24862066173E+03  0.26508377405E+03  0.00000000000E+00 0. -1.
          4    1    6    6  503    0 -0.23236396973E+03  0.13719975412E+03 -0.79216479786E+01  0.26996210747E+03  0.00000000000E+00 0. -1.
         -4    1    6    6    0  503 -0.55689964339E+03  0.38637496614E+03 -0.16242976598E+03  0.69699803166E+03  0.00000000000E+00 0.  1.
<mgrwt>
<rscale>  0 0.20368904E+04</rscale>
<asrwt>0</asrwt>
<pdfrwt beam="1">  1        2 0.21565689E+00 0.20368904E+04</pdfrwt>
<pdfrwt beam="2">  1       -1 0.11383748E+00 0.20368904E+04</pdfrwt>
<totfact> 0.10719032E+01</totfact>
</mgrwt>
</event>
<event>
12    7  0.2466188E-007  0.1746880E+04  0.7818608E-02  0.8735070E-01
          2   -1    0    0  501    0  0.00000000000E+00  0.00000000000E+00  0.97766836996E+03  0.97766836996E+03  0.00000000000E+00 0. -1.
         -1   -1    0    0    0  501 -0.00000000000E+00 -0.00000000000E+00 -0.78032327196E+03  0.78032327196E+03  0.00000000000E+00 0.  1.
         24    2    1    2    0    0 -0.22507718748E+02 -0.55909761765E+03 -0.23661229346E+03  0.61278361335E+03  0.80135110334E+02 0.  0.
        254    2    1    2    0    0  0.22507718748E+02  0.55909761765E+03  0.43395739146E+03  0.11452080286E+04  0.90004759188E+03 0.  0.
         23    2    4    4    0    0  0.19323717554E+03  0.70692424932E+03  0.12132899838E+03  0.74888914718E+03  0.95035407304E+02 0.  0.
         23    2    4    4    0    0 -0.17072945679E+03 -0.14782663167E+03  0.31262839308E+03  0.39631888139E+03  0.91273671641E+02 0.  0.
          4    1    3    3  502    0 -0.21258929615E+02 -0.10398965186E+03 -0.17129127463E+02  0.10751370512E+03  0.00000000000E+00 0. -1.
         -3    1    3    3    0  502 -0.12487891331E+01 -0.45510796579E+03 -0.21948316600E+03  0.50526990822E+03  0.00000000000E+00 0.  1.
         13    1    5    5    0    0  0.13446370520E+03  0.31552464510E+03  0.47091466325E+02  0.34619921416E+03  0.00000000000E+00 0. -1.
        -13    1    5    5    0    0  0.58773470336E+02  0.39139960422E+03  0.74237532051E+02  0.40268993303E+03  0.00000000000E+00 0.  1.
          2    1    6    6  503    0 -0.11408334982E+03 -0.56720922823E+02  0.11587553780E+03  0.17221908736E+03  0.00000000000E+00 0. -1.
         -2    1    6    6    0  503 -0.56646106974E+02 -0.91105708848E+02  0.19675285528E+03  0.22409979402E+03  0.00000000000E+00 0.  1.
<mgrwt>
<rscale>  0 0.17468799E+04</rscale>
<asrwt>0</asrwt>
<pdfrwt beam="1">  1        2 0.15041052E+00 0.17468799E+04</pdfrwt>
<pdfrwt beam="2">  1       -1 0.12004973E+00 0.17468799E+04</pdfrwt>
<totfact> 0.17423201E+01</totfact>
</mgrwt>
</event>
<event>
12    7  0.2466188E-007  0.3075431E+04  0.7818608E-02  0.8222513E-01
         -1   -1    0    0    0  501 -0.00000000000E+00  0.00000000000E+00  0.10328415320E+04  0.10328415320E+04  0.00000000000E+00 0.  1.
          2   -1    0    0  501    0  0.00000000000E+00 -0.00000000000E+00 -0.22893820626E+04  0.22893820626E+04  0.00000000000E+00 0. -1.
         24    2    1    2    0    0  0.13787797654E+04  0.30282819089E+02 -0.86419705937E+03  0.16291915798E+04  0.74013213070E+02 0.  0.
        254    2    1    2    0    0 -0.13787797654E+04 -0.30282819089E+02 -0.39234347121E+03  0.16930320148E+04  0.90026291322E+03 0.  0.
         23    2    4    4    0    0 -0.77513893496E+03 -0.22025481782E+03 -0.61304749252E+03  0.10167211681E+04  0.92423764926E+02 0.  0.
         23    2    4    4    0    0 -0.60364083047E+03  0.18997199873E+03  0.22070402131E+03  0.67631084666E+03  0.90633789349E+02 0.  0.
          4    1    3    3  502    0  0.89212980285E+03 -0.15786992696E+02 -0.55953595683E+03  0.10531976554E+04  0.00000000000E+00 0. -1.
         -3    1    3    3    0  502  0.48664996258E+03  0.46069811785E+02 -0.30466110254E+03  0.57599392448E+03  0.00000000000E+00 0.  1.
         13    1    5    5    0    0 -0.69788610824E+03 -0.22395983031E+03 -0.56751793298E+03  0.92697337066E+03  0.00000000000E+00 0. -1.
        -13    1    5    5    0    0 -0.77252826722E+02  0.37050124854E+01 -0.45529559546E+02  0.89747797447E+02  0.00000000000E+00 0.  1.
          1    1    6    6  503    0 -0.59451562256E+03  0.18237800310E+03  0.20142280161E+03  0.65366788700E+03  0.00000000000E+00 0. -1.
         -1    1    6    6    0  503 -0.91252079104E+01  0.75939956321E+01  0.19281219701E+02  0.22642959661E+02  0.00000000000E+00 0.  1.
<mgrwt>
<rscale>  0 0.30754309E+04</rscale>
<asrwt>0</asrwt>
<pdfrwt beam="1">  1        2 0.35221262E+00 0.30754309E+04</pdfrwt>
<pdfrwt beam="2">  1       -1 0.15889870E+00 0.30754309E+04</pdfrwt>
<totfact> 0.13244917E+00</totfact>
</mgrwt>
</event>
<event>
12    7  0.2466188E-007  0.2201598E+04  0.7818608E-02  0.8517763E-01
          2   -1    0    0  501    0  0.00000000000E+00  0.00000000000E+00  0.40199140736E+04  0.40199140736E+04  0.00000000000E+00 0. -1.
         -1   -1    0    0    0  501 -0.00000000000E+00 -0.00000000000E+00 -0.30143899623E+03  0.30143899623E+03  0.00000000000E+00 0.  1.
         24    2    1    2    0    0  0.60904357746E+03 -0.17026956321E+02  0.20780022161E+03  0.64610995159E+03  0.55255234574E+02 0.  0.
        254    2    1    2    0    0 -0.60904357746E+03  0.17026956321E+02  0.35106748558E+04  0.36752431183E+04  0.90074970929E+03 0.  0.
         23    2    4    4    0    0 -0.73642611781E+03  0.21493014691E+03  0.20064814329E+04  0.21501074247E+04  0.92064121508E+02 0.  0.
         23    2    4    4    0    0  0.12738254034E+03 -0.19790319059E+03  0.15041934229E+04  0.15251356935E+04  0.89716473695E+02 0.  0.
          2    1    3    3  502    0  0.41849215332E+03 -0.20179666341E+02  0.16809155685E+03  0.45143955610E+03  0.00000000000E+00 0. -1.
         -1    1    3    3    0  502  0.19055142414E+03  0.31527100197E+01  0.39708664759E+02  0.19467039549E+03  0.00000000000E+00 0.  1.
         13    1    5    5    0    0 -0.13965694660E+03  0.66372746209E+02  0.33127263454E+03  0.36558304470E+03  0.00000000000E+00 0. -1.
        -13    1    5    5    0    0 -0.59676917120E+03  0.14855740070E+03  0.16752087983E+04  0.17845243800E+04  0.00000000000E+00 0.  1.
          1    1    6    6  503    0  0.25446875767E+02 -0.10031644230E+03  0.82277338999E+03  0.82925688622E+03  0.00000000000E+00 0. -1.
         -1    1    6    6    0  503  0.10193566457E+03 -0.97586748282E+02  0.68142003294E+03  0.69587880729E+03  0.00000000000E+00 0.  1.
<mgrwt>
<rscale>  0 0.22015984E+04</rscale>
<asrwt>0</asrwt>
<pdfrwt beam="1">  1        2 0.61844828E+00 0.22015984E+04</pdfrwt>
<pdfrwt beam="2">  1       -1 0.46375233E-01 0.22015984E+04</pdfrwt>
<totfact> 0.15981606E+00</totfact>
</mgrwt>
</event>
<event>
12    7  0.2466188E-007  0.4453967E+04  0.7818608E-02  0.7918746E-01
         -1   -1    0    0    0  501 -0.00000000000E+00  0.00000000000E+00  0.24798374294E+04  0.24798374294E+04  0.00000000000E+00 0.  1.
          2   -1    0    0  501    0  0.00000000000E+00 -0.00000000000E+00 -0.19999111749E+04  0.19999111749E+04  0.00000000000E+00 0. -1.
         24    2    1    2    0    0  0.20621580757E+04 -0.31779240592E+03 -0.24168286791E+03  0.21019760068E+04  0.80028633758E+02 0.  0.
        254    2    1    2    0    0 -0.20621580757E+04  0.31779240592E+03  0.72160912244E+03  0.23777725976E+04  0.88294669022E+03 0.  0.
         23    2    4    4    0    0 -0.12303483902E+04  0.46339545549E+03  0.77099260105E+03  0.15268181196E+04  0.90837603063E+02 0.  0.
         23    2    4    4    0    0 -0.83180968547E+03 -0.14560304957E+03 -0.49383478613E+02  0.85095447792E+03  0.92613145097E+02 0.  0.
          2    1    3    3  502    0  0.10026665167E+04 -0.12494735116E+03 -0.14447984605E+03  0.10206989812E+04  0.00000000000E+00 0. -1.
         -1    1    3    3    0  502  0.10594915590E+04 -0.19284505476E+03 -0.97203021856E+02  0.10812770256E+04  0.00000000000E+00 0.  1.
         13    1    5    5    0    0 -0.98997894049E+03  0.34310515219E+03  0.64065797924E+03  0.12280969402E+04  0.00000000000E+00 0.  1.
        -13    1    5    5    0    0 -0.24036944970E+03  0.12029030330E+03  0.13033462181E+03  0.29872117947E+03  0.00000000000E+00 0. -1.
          1    1    6    6  503    0 -0.41753935661E+03 -0.11994770669E+03 -0.28808300351E+02  0.43538085032E+03  0.00000000000E+00 0. -1.
         -1    1    6    6    0  503 -0.41427032887E+03 -0.25655342873E+02 -0.20575178262E+02  0.41557362760E+03  0.00000000000E+00 0.  1.
<mgrwt>
<rscale>  0 0.44539666E+04</rscale>
<asrwt>0</asrwt>
<pdfrwt beam="1">  1        2 0.30767864E+00 0.44539666E+04</pdfrwt>
<pdfrwt beam="2">  1       -1 0.38151345E+00 0.44539666E+04</pdfrwt>
<totfact> 0.55264762E-02</totfact>
</mgrwt>
</event>
<event>
12    7  0.2466188E-007  0.3451280E+04  0.7818608E-02  0.8125434E-01
          2   -1    0    0  501    0  0.00000000000E+00  0.00000000000E+00  0.22612765591E+04  0.22612765591E+04  0.00000000000E+00 0. -1.
         -1   -1    0    0    0  501 -0.00000000000E+00 -0.00000000000E+00 -0.13168812332E+04  0.13168812332E+04  0.00000000000E+00 0.  1.
         24    2    1    2    0    0  0.65015330983E+03  0.14360950582E+04  0.11984288785E+03  0.15829690539E+04  0.79751898913E+02 0.  0.
        254    2    1    2    0    0 -0.65015330983E+03 -0.14360950582E+04  0.82455243800E+03  0.19951887384E+04  0.90322922697E+03 0.  0.
         23    2    4    4    0    0 -0.39187142932E+03 -0.14812618697E+04  0.64564387086E+03  0.16652552271E+04  0.92298534515E+02 0.  0.
         23    2    4    4    0    0 -0.25828188051E+03  0.45166811556E+02  0.17890856714E+03  0.32993351134E+03  0.89990420822E+02 0.  0.
          4    1    3    3  502    0  0.11236467542E+03  0.19483279404E+03  0.34279478226E+02  0.22750982516E+03  0.00000000000E+00 0. -1.
         -3    1    3    3    0  502  0.53778863441E+03  0.12412622641E+04  0.85563409626E+02  0.13554592287E+04  0.00000000000E+00 0.  1.
         13    1    5    5    0    0 -0.28667384456E+02 -0.13671405489E+03  0.31917484344E+02  0.14328739492E+03  0.00000000000E+00 0. -1.
        -13    1    5    5    0    0 -0.36320404486E+03 -0.13445478148E+04  0.61372638652E+03  0.15219678321E+04  0.00000000000E+00 0.  1.
          1    1    6    6  503    0 -0.13617217727E+03 -0.16915701135E+02  0.65284106259E+02  0.15195728788E+03  0.00000000000E+00 0. -1.
         -1    1    6    6    0  503 -0.12210970324E+03  0.62082512691E+02  0.11362446088E+03  0.17797622346E+03  0.00000000000E+00 0.  1.
<mgrwt>
<rscale>  0 0.34512796E+04</rscale>
<asrwt>0</asrwt>
<pdfrwt beam="1">  1        2 0.34788870E+00 0.34512796E+04</pdfrwt>
<pdfrwt beam="2">  1       -1 0.20259711E+00 0.34512796E+04</pdfrwt>
<totfact> 0.64595542E-01</totfact>
</mgrwt>
</event>
<event>
12    7  0.2466188E-007  0.2902421E+04  0.7818608E-02  0.8272158E-01
         -1   -1    0    0    0  501 -0.00000000000E+00  0.00000000000E+00  0.14726297460E+04  0.14726297460E+04  0.00000000000E+00 0.  1.
          2   -1    0    0  501    0  0.00000000000E+00 -0.00000000000E+00 -0.14301026736E+04  0.14301026736E+04  0.00000000000E+00 0. -1.
         24    2    1    2    0    0  0.43353482623E+03  0.11761989245E+04  0.40394767899E+03  0.13193243968E+04  0.77761049875E+02 0.  0.
        254    2    1    2    0    0 -0.43353482623E+03 -0.11761989245E+04 -0.36142060666E+03  0.15834080229E+04  0.89730694655E+03 0.  0.
         23    2    4    4    0    0 -0.54538666079E+02 -0.58071817875E+03  0.25410844690E+03  0.64254408429E+03  0.89909555901E+02 0.  0.
         23    2    4    4    0    0 -0.37899616015E+03 -0.59548074579E+03 -0.61552905356E+03  0.94086393858E+03  0.90075119379E+02 0.  0.
          2    1    3    3  502    0  0.12680032144E+03  0.39169314528E+03  0.16706008018E+03  0.44430947769E+03  0.00000000000E+00 0. -1.
         -1    1    3    3    0  502  0.30673450478E+03  0.78450577926E+03  0.23688759881E+03  0.87501491907E+03  0.00000000000E+00 0.  1.
         13    1    5    5    0    0 -0.91012762351E+01 -0.32939868551E+03  0.18526747363E+03  0.37803487145E+03  0.00000000000E+00 0. -1.
        -13    1    5    5    0    0 -0.45437389844E+02 -0.25131949324E+03  0.68840973269E+02  0.26450921284E+03  0.00000000000E+00 0.  1.
          1    1    6    6  503    0 -0.79166135572E+02 -0.18083908700E+03 -0.13707141937E+03  0.24033024449E+03  0.00000000000E+00 0. -1.
         -1    1    6    6    0  503 -0.29983002457E+03 -0.41464165879E+03 -0.47845763419E+03  0.70053369409E+03  0.00000000000E+00 0.  1.
<mgrwt>
<rscale>  0 0.29024209E+04</rscale>
<asrwt>0</asrwt>
<pdfrwt beam="1">  1        2 0.22001580E+00 0.29024209E+04</pdfrwt>
<pdfrwt beam="2">  1       -1 0.22655842E+00 0.29024209E+04</pdfrwt>
<totfact> 0.13598952E+00</totfact>
</mgrwt>
</event>
<event>
12    7  0.2466188E-007  0.1676601E+04  0.7818608E-02  0.8774824E-01
          2   -1    0    0  501    0  0.00000000000E+00  0.00000000000E+00  0.30284870976E+04  0.30284870976E+04  0.00000000000E+00 0. -1.
         -1   -1    0    0    0  501 -0.00000000000E+00 -0.00000000000E+00 -0.23204570361E+03  0.23204570361E+03  0.00000000000E+00 0.  1.
         24    2    1    2    0    0  0.29043959457E+03  0.55218674902E+02 -0.16241211812E+01  0.30622766918E+03  0.79802803535E+02 0.  0.
        254    2    1    2    0    0 -0.29043959457E+03 -0.55218674902E+02  0.27980655152E+04  0.29543051320E+04  0.90074631599E+03 0.  0.
         23    2    4    4    0    0 -0.55041884417E+03 -0.23468865410E+03  0.15524977445E+04  0.16661719161E+04  0.88543429372E+02 0.  0.
         23    2    4    4    0    0  0.25997924961E+03  0.17946997920E+03  0.12455677707E+04  0.12881332159E+04  0.89718599064E+02 0.  0.
          4    1    3    3  502    0  0.68116503995E+02  0.45403812011E+02  0.14371950598E+02  0.83113881065E+02  0.00000000000E+00 0. -1.
         -3    1    3    3    0  502  0.22232309057E+03  0.98148628904E+01 -0.15996071779E+02  0.22311378811E+03  0.00000000000E+00 0.  1.
         13    1    5    5    0    0 -0.26802542106E+03 -0.10276271083E+03  0.86324985058E+03  0.90972419205E+03  0.00000000000E+00 0.  1.
        -13    1    5    5    0    0 -0.28239342312E+03 -0.13192594327E+03  0.68924789393E+03  0.75644772404E+03  0.00000000000E+00 0. -1.
          3    1    6    6  503    0  0.20347431810E+03  0.13924969038E+03  0.10941479983E+04  0.11215846453E+04  0.00000000000E+00 0. -1.
         -3    1    6    6    0  503  0.56504931509E+02  0.40220288818E+02  0.15141977240E+03  0.16654857067E+03  0.00000000000E+00 0.  1.
<mgrwt>
<rscale>  0 0.16766006E+04</rscale>
<asrwt>0</asrwt>
<pdfrwt beam="1">  1        2 0.46592106E+00 0.16766006E+04</pdfrwt>
<pdfrwt beam="2">  1       -1 0.35699341E-01 0.16766006E+04</pdfrwt>
<totfact> 0.13653361E+01</totfact>
</mgrwt>
</event>
<event>
12    7  0.2466188E-007  0.1865714E+04  0.7818608E-02  0.8672114E-01
         -1   -1    0    0    0  501 -0.00000000000E+00  0.00000000000E+00  0.35267648591E+03  0.35267648591E+03  0.00000000000E+00 0.  1.
          2   -1    0    0  501    0  0.00000000000E+00 -0.00000000000E+00 -0.24674795393E+04  0.24674795393E+04  0.00000000000E+00 0. -1.
         24    2    1    2    0    0 -0.37041784278E+03  0.46080081109E+03 -0.14181070622E+04  0.15384571648E+04  0.79221474528E+02 0.  0.
        254    2    1    2    0    0  0.37041784278E+03 -0.46080081109E+03 -0.69669599116E+03  0.12816988605E+04  0.89878801678E+03 0.  0.
         23    2    4    4    0    0  0.52087999978E+03  0.51492272941E+02 -0.38670051821E+03  0.65710829479E+03  0.91030719871E+02 0.  0.
         23    2    4    4    0    0 -0.15046215700E+03 -0.51229308403E+03 -0.30999547295E+03  0.62459056569E+03  0.94515167364E+02 0.  0.
          4    1    3    3  502    0 -0.27181298854E+03  0.29881025047E+03 -0.10335376912E+04  0.11096711340E+04  0.00000000000E+00 0. -1.
         -3    1    3    3    0  502 -0.98604854242E+02  0.16199056062E+03 -0.38456937104E+03  0.42878603073E+03  0.00000000000E+00 0.  1.
         13    1    5    5    0    0  0.35072287861E+03  0.76011789703E+02 -0.27460869621E+03  0.45187859629E+03  0.00000000000E+00 0. -1.
        -13    1    5    5    0    0  0.17015712117E+03 -0.24519516763E+02 -0.11209182199E+03  0.20522969850E+03  0.00000000000E+00 0.  1.
          2    1    6    6  503    0 -0.33591466177E+02 -0.28466721683E+02 -0.32455544909E+02  0.54700121011E+02  0.00000000000E+00 0.  1.
         -2    1    6    6    0  503 -0.11687069082E+03 -0.48382636235E+03 -0.27753992804E+03  0.56989044468E+03  0.00000000000E+00 0. -1.
<mgrwt>
<rscale>  0 0.18657138E+04</rscale>
<asrwt>0</asrwt>
<pdfrwt beam="1">  1        2 0.37961225E+00 0.18657138E+04</pdfrwt>
<pdfrwt beam="2">  1       -1 0.54257919E-01 0.18657138E+04</pdfrwt>
<totfact> 0.13344853E+01</totfact>
</mgrwt>
</event>
<event>
12    7  0.2466188E-007  0.1370676E+04  0.7818608E-02  0.8975323E-01
         -1   -1    0    0    0  501 -0.00000000000E+00  0.00000000000E+00  0.22323697477E+03  0.22323697477E+03  0.00000000000E+00 0.  1.
          2   -1    0    0  501    0  0.00000000000E+00 -0.00000000000E+00 -0.21039886242E+04  0.21039886242E+04  0.00000000000E+00 0. -1.
         24    2    1    2    0    0  0.73155477701E+02 -0.23546453448E+03 -0.37738304129E+02  0.26200955944E+03  0.80184529200E+02 0.  0.
        254    2    1    2    0    0 -0.73155477701E+02  0.23546453448E+03 -0.18430133453E+04  0.20652160396E+04  0.89867893494E+03 0.  0.
         23    2    4    4    0    0 -0.24707297388E+03 -0.39927590038E+02 -0.91060927823E+02  0.28104143578E+03  0.89738114441E+02 0.  0.
         23    2    4    4    0    0  0.17391749618E+03  0.27539212452E+03 -0.17519524175E+04  0.17841746038E+04  0.88620685282E+02 0.  0.
          2    1    3    3  502    0  0.32671169580E+02 -0.10001652364E+03 -0.56456257750E+02  0.11940694855E+03  0.00000000000E+00 0. -1.
         -1    1    3    3    0  502  0.40484308121E+02 -0.13544801084E+03  0.18717953622E+02  0.14260261089E+03  0.00000000000E+00 0.  1.
         13    1    5    5    0    0 -0.16625681589E+03 -0.85100634636E+01 -0.99467579819E+02  0.19392665997E+03  0.00000000000E+00 0.  1.
        -13    1    5    5    0    0 -0.80816157983E+02 -0.31417526574E+02  0.84066519960E+01  0.87114775813E+02  0.00000000000E+00 0. -1.
          2    1    6    6  503    0 -0.97517541496E+01  0.13746642021E+02 -0.12316010679E+03  0.12430799967E+03  0.00000000000E+00 0. -1.
         -2    1    6    6    0  503  0.18366925033E+03  0.26164548250E+03 -0.16287923107E+04  0.16598666041E+04  0.00000000000E+00 0.  1.
<mgrwt>
<rscale>  0 0.13706758E+04</rscale>
<asrwt>0</asrwt>
<pdfrwt beam="1">  1        2 0.32369056E+00 0.13706758E+04</pdfrwt>
<pdfrwt beam="2">  1       -1 0.34344150E-01 0.13706758E+04</pdfrwt>
<totfact> 0.52195775E+01</totfact>
</mgrwt>
</event>
<event>
12    7  0.2466188E-007  0.2784705E+04  0.7818608E-02  0.8308033E-01
         -1   -1    0    0    0  501 -0.00000000000E+00  0.00000000000E+00  0.68942370406E+03  0.68942370406E+03  0.00000000000E+00 0.  1.
          2   -1    0    0  501    0  0.00000000000E+00 -0.00000000000E+00 -0.28119795858E+04  0.28119795858E+04  0.00000000000E+00 0. -1.
         24    2    1    2    0    0  0.92682677080E+03 -0.81854314606E+03 -0.75602515827E+03  0.14515709395E+04  0.80395319231E+02 0.  0.
        254    2    1    2    0    0 -0.92682677080E+03  0.81854314606E+03 -0.13665307235E+04  0.20498323504E+04  0.89743283953E+03 0.  0.
         23    2    4    4    0    0 -0.78467809146E+03  0.97972369749E+03 -0.96708778914E+03  0.15870885867E+04  0.89516251856E+02 0.  0.
         23    2    4    4    0    0 -0.14214867934E+03 -0.16118055143E+03 -0.39944293431E+03  0.46274376372E+03  0.91606309249E+02 0.  0.
          2    1    3    3  502    0  0.41303520867E+03 -0.39095682647E+03 -0.38856443916E+03  0.68878708404E+03  0.00000000000E+00 0. -1.
         -1    1    3    3    0  502  0.51379156213E+03 -0.42758631958E+03 -0.36746071911E+03  0.76278385542E+03  0.00000000000E+00 0.  1.
         13    1    5    5    0    0 -0.46851520752E+03  0.56290476236E+03 -0.61662295523E+03  0.95738818673E+03  0.00000000000E+00 0.  1.
        -13    1    5    5    0    0 -0.31616288393E+03  0.41681893513E+03 -0.35046483391E+03  0.62970039992E+03  0.00000000000E+00 0. -1.
          3    1    6    6  503    0 -0.20197692356E+02  0.78777315668E+01 -0.66344202298E+02  0.69796551560E+02  0.00000000000E+00 0. -1.
         -3    1    6    6    0  503 -0.12195098699E+03 -0.16905828300E+03 -0.33309873202E+03  0.39294721216E+03  0.00000000000E+00 0.  1.
<mgrwt>
<rscale>  0 0.27847049E+04</rscale>
<asrwt>0</asrwt>
<pdfrwt beam="1">  1        2 0.43261224E+00 0.27847049E+04</pdfrwt>
<pdfrwt beam="2">  1       -1 0.10606519E+00 0.27847049E+04</pdfrwt>
<totfact> 0.18718922E+00</totfact>
</mgrwt>
</event>
<event>
12    7  0.2466188E-007  0.3652623E+04  0.7818608E-02  0.8078543E-01
          2   -1    0    0  501    0  0.00000000000E+00  0.00000000000E+00  0.13338906170E+04  0.13338906170E+04  0.00000000000E+00 0. -1.
         -1   -1    0    0    0  501 -0.00000000000E+00 -0.00000000000E+00 -0.25005156832E+04  0.25005156832E+04  0.00000000000E+00 0.  1.
         24    2    1    2    0    0  0.13490231160E+04 -0.26913855082E+03 -0.16230148850E+04  0.21290492264E+04  0.79839616971E+02 0.  0.
        254    2    1    2    0    0 -0.13490231160E+04  0.26913855082E+03  0.45638981885E+03  0.17053570739E+04  0.89869469551E+03 0.  0.
         23    2    4    4    0    0 -0.55734721880E+03 -0.30772851523E+03  0.66263350899E+02  0.64748079109E+03  0.97507854861E+02 0.  0.
         23    2    4    4    0    0 -0.79167589715E+03  0.57686706606E+03  0.39012646795E+03  0.10578762828E+04  0.85890806602E+02 0.  0.
          4    1    3    3  502    0  0.18744538395E+03 -0.11770324632E+02 -0.20487043546E+03  0.27793202016E+03  0.00000000000E+00 0. -1.
         -3    1    3    3    0  502  0.11615777320E+04 -0.25736822619E+03 -0.14181444495E+04  0.18511172062E+04  0.00000000000E+00 0.  1.
         13    1    5    5    0    0 -0.53551353519E+03 -0.29186415704E+03  0.42234640353E+02  0.61134539942E+03  0.00000000000E+00 0. -1.
        -13    1    5    5    0    0 -0.21833683610E+02 -0.15864358190E+02  0.24028710545E+02  0.36135391671E+02  0.00000000000E+00 0.  1.
          1    1    6    6  503    0 -0.68250588763E+03  0.52440900694E+03  0.36070333990E+03  0.93323415745E+03  0.00000000000E+00 0. -1.
         -1    1    6    6    0  503 -0.10917000952E+03  0.52458059119E+02  0.29423128042E+02  0.12464212534E+03  0.00000000000E+00 0.  1.
<mgrwt>
<rscale>  0 0.36526234E+04</rscale>
<asrwt>0</asrwt>
<pdfrwt beam="1">  1        2 0.20521394E+00 0.36526234E+04</pdfrwt>
<pdfrwt beam="2">  1       -1 0.38469472E+00 0.36526234E+04</pdfrwt>
<totfact> 0.13269111E-01</totfact>
</mgrwt>
</event>
<event>
12    7  0.2466188E-007  0.1359610E+04  0.7818608E-02  0.8983585E-01
         -1   -1    0    0    0  501 -0.00000000000E+00  0.00000000000E+00  0.34728073097E+03  0.34728073097E+03  0.00000000000E+00 0.  1.
          2   -1    0    0  501    0  0.00000000000E+00 -0.00000000000E+00 -0.13307247814E+04  0.13307247814E+04  0.00000000000E+00 0. -1.
         24    2    1    2    0    0  0.11333898381E+03  0.31047284190E+03 -0.50286303375E+03  0.60653114689E+03  0.75958479583E+02 0.  0.
        254    2    1    2    0    0 -0.11333898381E+03 -0.31047284190E+03 -0.48058101668E+03  0.10714743655E+04  0.89881037570E+03 0.  0.
         23    2    4    4    0    0  0.27313087117E+03  0.88248067730E+02  0.42067157043E+02  0.30332952986E+03  0.88605664235E+02 0.  0.
         23    2    4    4    0    0 -0.38646985499E+03 -0.39872090963E+03 -0.52264817372E+03  0.76814483561E+03  0.92455732093E+02 0.  0.
          2    1    3    3  502    0  0.40683014103E+02  0.21528718231E+03 -0.31312977465E+03  0.38217003320E+03  0.00000000000E+00 0. -1.
         -1    1    3    3    0  502  0.72655969710E+02  0.95185659598E+02 -0.18973325910E+03  0.22436111369E+03  0.00000000000E+00 0.  1.
         13    1    5    5    0    0  0.18863898854E+03  0.89139958103E+02  0.59699195228E+02  0.21701288911E+03  0.00000000000E+00 0. -1.
        -13    1    5    5    0    0  0.84491882636E+02 -0.89189037280E+00 -0.17632038185E+02  0.86316640750E+02  0.00000000000E+00 0.  1.
          1    1    6    6  503    0 -0.24089761019E+03 -0.26610194739E+03 -0.39365130934E+03  0.53273188223E+03  0.00000000000E+00 0. -1.
         -1    1    6    6    0  503 -0.14557224480E+03 -0.13261896224E+03 -0.12899686438E+03  0.23541295338E+03  0.00000000000E+00 0.  1.
<mgrwt>
<rscale>  0 0.13596103E+04</rscale>
<asrwt>0</asrwt>
<pdfrwt beam="1">  1        2 0.20472689E+00 0.13596103E+04</pdfrwt>
<pdfrwt beam="2">  1       -1 0.53427805E-01 0.13596103E+04</pdfrwt>
<totfact> 0.62372780E+01</totfact>
</mgrwt>
</event>
<event>
12    7  0.2466188E-007  0.1430552E+04  0.7818608E-02  0.8931995E-01
          2   -1    0    0  501    0  0.00000000000E+00  0.00000000000E+00  0.26507152868E+04  0.26507152868E+04  0.00000000000E+00 0. -1.
         -1   -1    0    0    0  501 -0.00000000000E+00 -0.00000000000E+00 -0.19301203209E+03  0.19301203209E+03  0.00000000000E+00 0.  1.
         24    2    1    2    0    0 -0.31412665189E+03 -0.26205813139E+03  0.10186762189E+04  0.11006167074E+04  0.79409571207E+02 0.  0.
        254    2    1    2    0    0  0.31412665189E+03  0.26205813139E+03  0.14390270358E+04  0.17431106115E+04  0.89458693062E+03 0.  0.
         23    2    4    4    0    0 -0.89762720217E+02 -0.26641493657E+03  0.30526717531E+03  0.42532873893E+03  0.93178449571E+02 0.  0.
         23    2    4    4    0    0  0.40388937211E+03  0.52847306796E+03  0.11337598605E+04  0.13177818726E+04  0.93419665585E+02 0.  0.
          4    1    3    3  502    0 -0.28060127962E+03 -0.24415055419E+03  0.96993903066E+03  0.10388110003E+04  0.00000000000E+00 0. -1.
         -1    1    3    3    0  502 -0.33525372270E+02 -0.17907577199E+02  0.48737188227E+02  0.61805707045E+02  0.00000000000E+00 0.  1.
         13    1    5    5    0    0 -0.74003484952E+02 -0.11797399831E+03  0.19554308405E+03  0.24006556975E+03  0.00000000000E+00 0. -1.
        -13    1    5    5    0    0 -0.15759235265E+02 -0.14844093826E+03  0.10972409127E+03  0.18526316917E+03  0.00000000000E+00 0.  1.
          1    1    6    6  503    0  0.34933076763E+03  0.40812106330E+03  0.95118914745E+03  0.10924081571E+04  0.00000000000E+00 0. -1.
         -1    1    6    6    0  503  0.54558604485E+02  0.12035200466E+03  0.18257071303E+03  0.22537371543E+03  0.00000000000E+00 0.  1.
<mgrwt>
<rscale>  0 0.14305523E+04</rscale>
<asrwt>0</asrwt>
<pdfrwt beam="1">  1        2 0.40780232E+00 0.14305523E+04</pdfrwt>
<pdfrwt beam="2">  1       -1 0.29694161E-01 0.14305523E+04</pdfrwt>
<totfact> 0.32795060E+01</totfact>
</mgrwt>
</event>
<event>
12    7  0.2466188E-007  0.2125443E+04  0.7818608E-02  0.8550117E-01
         -1   -1    0    0    0  501 -0.00000000000E+00  0.00000000000E+00  0.70288085320E+03  0.70288085320E+03  0.00000000000E+00 0.  1.
          2   -1    0    0  501    0  0.00000000000E+00 -0.00000000000E+00 -0.16067835830E+04  0.16067835830E+04  0.00000000000E+00 0. -1.
         24    2    1    2    0    0 -0.22789623965E+03 -0.79792979507E+03 -0.65660861263E+03  0.10612312161E+04  0.80300497510E+02 0.  0.
        254    2    1    2    0    0  0.22789623965E+03  0.79792979507E+03 -0.24729411714E+03  0.12484332201E+04  0.89933445989E+03 0.  0.
         23    2    4    4    0    0  0.18285740974E+03  0.94862089338E+03 -0.36012644559E+03  0.10350718503E+04  0.91456256711E+02 0.  0.
         23    2    4    4    0    0  0.45038829910E+02 -0.15069109831E+03  0.11283232845E+03  0.21336136975E+03  0.89753197435E+02 0.  0.
          4    1    3    3  502    0 -0.44174115777E+02 -0.69447447522E+02 -0.70141190542E+02  0.10813920234E+03  0.00000000000E+00 0. -1.
         -3    1    3    3    0  502 -0.18372212387E+03 -0.72848234755E+03 -0.58646742209E+03  0.95309201374E+03  0.00000000000E+00 0.  1.
         13    1    5    5    0    0  0.44725918544E+02  0.10982802027E+03 -0.64850148385E+02  0.13515969655E+03  0.00000000000E+00 0. -1.
        -13    1    5    5    0    0  0.13813149119E+03  0.83879287311E+03 -0.29527629721E+03  0.89991215379E+03  0.00000000000E+00 0.  1.
          4    1    6    6  503    0 -0.12284611060E+02 -0.48307069649E+01  0.36949451827E+02  0.39236582280E+02  0.00000000000E+00 0. -1.
         -4    1    6    6    0  503  0.57323440970E+02 -0.14586039135E+03  0.75882876624E+02  0.17412478747E+03  0.00000000000E+00 0.  1.
<mgrwt>
<rscale>  0 0.21254434E+04</rscale>
<asrwt>0</asrwt>
<pdfrwt beam="1">  1        2 0.24719747E+00 0.21254434E+04</pdfrwt>
<pdfrwt beam="2">  1       -1 0.10813552E+00 0.21254434E+04</pdfrwt>
<totfact> 0.92016033E+00</totfact>
</mgrwt>
</event>
<event>
12    7  0.2466188E-007  0.1404956E+04  0.7818608E-02  0.8950239E-01
         -1   -1    0    0    0  501 -0.00000000000E+00  0.00000000000E+00  0.15691603307E+03  0.15691603307E+03  0.00000000000E+00 0.  1.
          2   -1    0    0  501    0  0.00000000000E+00 -0.00000000000E+00 -0.31448351261E+04  0.31448351261E+04  0.00000000000E+00 0. -1.
         24    2    1    2    0    0 -0.25104404318E+03 -0.26991060716E+03 -0.47064137966E+03  0.60311007512E+03  0.79772219382E+02 0.  0.
        254    2    1    2    0    0  0.25104404318E+03  0.26991060716E+03 -0.25172777134E+04  0.26986410841E+04  0.90005653538E+03 0.  0.
         23    2    4    4    0    0 -0.17649282623E+03  0.27595851127E+03 -0.19696522253E+04  0.19990216477E+04  0.96202087470E+02 0.  0.
         23    2    4    4    0    0  0.42753686941E+03 -0.60479041170E+01 -0.54762548809E+03  0.69961943640E+03  0.82154298264E+02 0.  0.
          4    1    3    3  502    0 -0.41052271375E+02 -0.18058590565E+02 -0.91055364995E+02  0.10150113878E+03  0.00000000000E+00 0. -1.
         -3    1    3    3    0  502 -0.20999177180E+03 -0.25185201659E+03 -0.37958601467E+03  0.50160893634E+03  0.00000000000E+00 0.  1.
         13    1    5    5    0    0 -0.55779479799E+02  0.16626442906E+03 -0.88942638324E+03  0.90655088216E+03  0.00000000000E+00 0. -1.
        -13    1    5    5    0    0 -0.12071334643E+03  0.10969408221E+03 -0.10802258421E+04  0.10924707655E+04  0.00000000000E+00 0.  1.
          2    1    6    6  503    0  0.19092473348E+03 -0.43390682347E+02 -0.24022050562E+03  0.30990465709E+03  0.00000000000E+00 0. -1.
         -2    1    6    6    0  503  0.23661213593E+03  0.37342778230E+02 -0.30740498248E+03  0.38971477931E+03  0.00000000000E+00 0.  1.
<mgrwt>
<rscale>  0 0.14049556E+04</rscale>
<asrwt>0</asrwt>
<pdfrwt beam="1">  1        2 0.48382080E+00 0.14049556E+04</pdfrwt>
<pdfrwt beam="2">  1       -1 0.24140928E-01 0.14049556E+04</pdfrwt>
<totfact> 0.23466084E+01</totfact>
</mgrwt>
</event>
<event>
12    7  0.2466188E-007  0.2401916E+04  0.7818608E-02  0.8438787E-01
         -1   -1    0    0    0  501 -0.00000000000E+00  0.00000000000E+00  0.11922379822E+04  0.11922379822E+04  0.00000000000E+00 0.  1.
          2   -1    0    0  501    0  0.00000000000E+00 -0.00000000000E+00 -0.12097418292E+04  0.12097418292E+04  0.00000000000E+00 0. -1.
         24    2    1    2    0    0 -0.57689977331E+02 -0.94257973606E+03 -0.41988838853E+03  0.10364473006E+04  0.78307443756E+02 0.  0.
        254    2    1    2    0    0  0.57689977331E+02  0.94257973606E+03  0.40238454156E+03  0.13655325108E+04  0.90054484981E+03 0.  0.
         23    2    4    4    0    0  0.39796915630E+03  0.64488012349E+03  0.16192992547E+02  0.76358806953E+03  0.92491642199E+02 0.  0.
         23    2    4    4    0    0 -0.34027917897E+03  0.29769961257E+03  0.38619154901E+03  0.60194444130E+03  0.93692149714E+02 0.  0.
          4    1    3    3  502    0 -0.39642426044E+02 -0.25163005612E+03 -0.14067730857E+03  0.29099710004E+03  0.00000000000E+00 0. -1.
         -3    1    3    3    0  502 -0.18047551287E+02 -0.69094967994E+03 -0.27921107996E+03  0.74545020054E+03  0.00000000000E+00 0.  1.
         13    1    5    5    0    0  0.17148164504E+03  0.36544675339E+03  0.12604300536E+02  0.40387640751E+03  0.00000000000E+00 0. -1.
        -13    1    5    5    0    0  0.22648751126E+03  0.27943337010E+03  0.35886920104E+01  0.35971166202E+03  0.00000000000E+00 0.  1.
          4    1    6    6  503    0 -0.11051148832E+03  0.45815751323E+02  0.82078708941E+02  0.14508199951E+03  0.00000000000E+00 0. -1.
         -4    1    6    6    0  503 -0.22976769065E+03  0.25188386125E+03  0.30411284007E+03  0.45686244179E+03  0.00000000000E+00 0.  1.
<mgrwt>
<rscale>  0 0.24019160E+04</rscale>
<asrwt>0</asrwt>
<pdfrwt beam="1">  1        2 0.18611413E+00 0.24019160E+04</pdfrwt>
<pdfrwt beam="2">  1       -1 0.18342123E+00 0.24019160E+04</pdfrwt>
<totfact> 0.37670503E+00</totfact>
</mgrwt>
</event>
<event>
12    7  0.2466188E-007  0.1529254E+04  0.7818608E-02  0.8865229E-01
         -3   -1    0    0    0  501 -0.00000000000E+00  0.00000000000E+00  0.70934324775E+03  0.70934324775E+03  0.00000000000E+00 0.  1.
          4   -1    0    0  501    0  0.00000000000E+00 -0.00000000000E+00 -0.82421908365E+03  0.82421908365E+03  0.00000000000E+00 0. -1.
         24    2    1    2    0    0 -0.38253872872E+03  0.28210738487E+03  0.10190137176E+03  0.49281405843E+03  0.81002166946E+02 0.  0.
        254    2    1    2    0    0  0.38253872872E+03 -0.28210738487E+03 -0.21677720766E+03  0.10407482730E+04  0.90013563110E+03 0.  0.
         23    2    4    4    0    0 -0.26502065063E+03 -0.11816846914E+02  0.48796638347E+02  0.28486831763E+03  0.91614755032E+02 0.  0.
         23    2    4    4    0    0  0.64755937935E+03 -0.27029053795E+03 -0.26557384601E+03  0.75587995535E+03  0.91841790754E+02 0.  0.
          4    1    3    3  502    0 -0.26867963851E+03  0.24129919882E+03  0.72347913673E+02  0.36830459150E+03  0.00000000000E+00 0. -1.
         -3    1    3    3    0  502 -0.11385909020E+03  0.40808186045E+02  0.29553458083E+02  0.12450946693E+03  0.00000000000E+00 0.  1.
         13    1    5    5    0    0 -0.81867925627E+02  0.17018164839E+02  0.53732503705E+02  0.99393949189E+02  0.00000000000E+00 0. -1.
        -13    1    5    5    0    0 -0.18315272501E+03 -0.28835011753E+02 -0.49358653584E+01  0.18547436844E+03  0.00000000000E+00 0.  1.
          3    1    6    6  503    0  0.21936204885E+03 -0.12768139614E+03 -0.12666671824E+03  0.28366653822E+03  0.00000000000E+00 0. -1.
         -3    1    6    6    0  503  0.42819733050E+03 -0.14260914182E+03 -0.13890712777E+03  0.47221341713E+03  0.00000000000E+00 0.  1.
<mgrwt>
<rscale>  0 0.15292537E+04</rscale>
<asrwt>0</asrwt>
<pdfrwt beam="1">  1        4 0.12680294E+00 0.15292537E+04</pdfrwt>
<pdfrwt beam="2">  1       -3 0.10912973E+00 0.15292537E+04</pdfrwt>
<totfact> 0.72208485E-01</totfact>
</mgrwt>
</event>
<event>
12    7  0.2466188E-007  0.2507501E+04  0.7818608E-02  0.8400318E-01
          2   -1    0    0  501    0  0.00000000000E+00  0.00000000000E+00  0.42277720257E+04  0.42277720257E+04  0.00000000000E+00 0. -1.
         -1   -1    0    0    0  501 -0.00000000000E+00 -0.00000000000E+00 -0.37180119295E+03  0.37180119295E+03  0.00000000000E+00 0.  1.
         24    2    1    2    0    0  0.17829605536E+03  0.37556716797E+03  0.35294668509E+04  0.35547624834E+04  0.79748859547E+02 0.  0.
        254    2    1    2    0    0 -0.17829605536E+03 -0.37556716797E+03  0.32650398186E+03  0.10448107353E+04  0.90121276143E+03 0.  0.
         23    2    4    4    0    0  0.35236283703E+03 -0.64837990345E+02  0.14487029994E+03  0.39729063773E+03  0.92135297863E+02 0.  0.
         23    2    4    4    0    0 -0.53065889238E+03 -0.31072917763E+03  0.18163368191E+03  0.64752009755E+03  0.90221950938E+02 0.  0.
          2    1    3    3  502    0  0.10670591332E+03  0.25213390478E+03  0.26050719441E+04  0.26194193043E+04  0.00000000000E+00 0. -1.
         -1    1    3    3    0  502  0.71590142043E+02  0.12343326319E+03  0.92439490685E+03  0.93534317911E+03  0.00000000000E+00 0.  1.
         13    1    5    5    0    0  0.84610757160E+02 -0.56727555933E+02  0.34209028869E+02  0.10745814760E+03  0.00000000000E+00 0. -1.
        -13    1    5    5    0    0  0.26775207987E+03 -0.81104344124E+01  0.11066127107E+03  0.28983249013E+03  0.00000000000E+00 0.  1.
          4    1    6    6  503    0 -0.23979996618E+03 -0.13371101736E+03  0.12762535048E+03  0.30277200998E+03  0.00000000000E+00 0. -1.
         -4    1    6    6    0  503 -0.29085892621E+03 -0.17701816026E+03  0.54008331427E+02  0.34474808757E+03  0.00000000000E+00 0.  1.
<mgrwt>
<rscale>  0 0.25075013E+04</rscale>
<asrwt>0</asrwt>
<pdfrwt beam="1">  1        2 0.65042643E+00 0.25075013E+04</pdfrwt>
<pdfrwt beam="2">  1       -1 0.57200186E-01 0.25075013E+04</pdfrwt>
<totfact> 0.69299134E-01</totfact>
</mgrwt>
</event>
<event>
12    7  0.2466188E-007  0.1233284E+04  0.7818608E-02  0.9084212E-01
         -1   -1    0    0    0  501 -0.00000000000E+00  0.00000000000E+00  0.29719573085E+03  0.29719573085E+03  0.00000000000E+00 0.  1.
          2   -1    0    0  501    0  0.00000000000E+00 -0.00000000000E+00 -0.12794500500E+04  0.12794500500E+04  0.00000000000E+00 0. -1.
         24    2    1    2    0    0  0.12570267288E+03 -0.11931786065E+03 -0.51194533835E+03  0.54644755879E+03  0.80492181040E+02 0.  0.
        254    2    1    2    0    0 -0.12570267288E+03  0.11931786065E+03 -0.47030898075E+03  0.10301982220E+04  0.90004440193E+03 0.  0.
         23    2    4    4    0    0  0.19395526850E+03  0.25488380585E+03 -0.56656912938E+03  0.65738163242E+03  0.92550697551E+02 0.  0.
         23    2    4    4    0    0 -0.31965794138E+03 -0.13556594521E+03  0.96260148628E+02  0.37281658960E+03  0.95743763668E+02 0.  0.
          2    1    3    3  502    0  0.82068904911E+02 -0.22861550088E+02 -0.22317843351E+03  0.23888610008E+03  0.00000000000E+00 0. -1.
         -1    1    3    3    0  502  0.43633767966E+02 -0.96456310558E+02 -0.28876690484E+03  0.30756145871E+03  0.00000000000E+00 0.  1.
         13    1    5    5    0    0  0.19595601582E+03  0.24272180276E+03 -0.49743760548E+03  0.58715994841E+03  0.00000000000E+00 0.  1.
        -13    1    5    5    0    0 -0.20007473237E+01  0.12162003096E+02 -0.69131523894E+02  0.70221684009E+02  0.00000000000E+00 0. -1.
          3    1    6    6  503    0 -0.11425568598E+02 -0.30809109981E+02 -0.15411498501E+01  0.32895592691E+02  0.00000000000E+00 0. -1.
         -3    1    6    6    0  503 -0.30823237278E+03 -0.10475683522E+03  0.97801298478E+02  0.33992099691E+03  0.00000000000E+00 0.  1.
<mgrwt>
<rscale>  0 0.12332836E+04</rscale>
<asrwt>0</asrwt>
<pdfrwt beam="1">  1        2 0.19683847E+00 0.12332836E+04</pdfrwt>
<pdfrwt beam="2">  1       -1 0.45722420E-01 0.12332836E+04</pdfrwt>
<totfact> 0.90631172E+01</totfact>
</mgrwt>
</event>
<event>
12    7  0.2466188E-007  0.2595052E+04  0.7818608E-02  0.8369884E-01
         -1   -1    0    0    0  501 -0.00000000000E+00  0.00000000000E+00  0.61480335168E+03  0.61480335168E+03  0.00000000000E+00 0.  1.
          2   -1    0    0  501    0  0.00000000000E+00 -0.00000000000E+00 -0.27383948310E+04  0.27383948310E+04  0.00000000000E+00 0. -1.
         24    2    1    2    0    0  0.98429137316E+03 -0.47862471991E+03 -0.13130627319E+04  0.17112062847E+04  0.78626211380E+02 0.  0.
        254    2    1    2    0    0 -0.98429137316E+03  0.47862471991E+03 -0.81052874750E+03  0.16419918980E+04  0.91720739908E+03 0.  0.
         23    2    4    4    0    0 -0.75024881368E+03  0.24076291740E+02 -0.82947407586E+03  0.11224484674E+04  0.91708065437E+02 0.  0.
         23    2    4    4    0    0 -0.23404255948E+03  0.45454842817E+03  0.18945328364E+02  0.51954343061E+03  0.90422660990E+02 0.  0.
          4    1    3    3  502    0  0.69621630880E+03 -0.36571447299E+03 -0.90161643411E+03  0.11964014454E+04  0.00000000000E+00 0. -1.
         -3    1    3    3    0  502  0.28807506436E+03 -0.11291024692E+03 -0.41144629775E+03  0.51480483923E+03  0.00000000000E+00 0.  1.
         13    1    5    5    0    0 -0.23860385467E+03 -0.54493013388E+01 -0.32594426378E+03  0.40398163008E+03  0.00000000000E+00 0.  1.
        -13    1    5    5    0    0 -0.51164495901E+03  0.29525593079E+02 -0.50352981208E+03  0.71846683735E+03  0.00000000000E+00 0. -1.
          1    1    6    6  503    0 -0.22707186388E+03  0.45149599778E+03  0.70598937894E+01  0.50543061786E+03  0.00000000000E+00 0. -1.
         -1    1    6    6    0  503 -0.69706956009E+01  0.30524303913E+01  0.11885434575E+02  0.14112812742E+02  0.00000000000E+00 0.  1.
<mgrwt>
<rscale>  0 0.25950525E+04</rscale>
<asrwt>0</asrwt>
<pdfrwt beam="1">  1        2 0.42129151E+00 0.25950525E+04</pdfrwt>
<pdfrwt beam="2">  1       -1 0.94585131E-01 0.25950525E+04</pdfrwt>
<totfact> 0.27400336E+00</totfact>
</mgrwt>
</event>
<event>
12    7  0.2466188E-007  0.4137986E+04  0.7818608E-02  0.7977274E-01
         -1   -1    0    0    0  501 -0.00000000000E+00  0.00000000000E+00  0.11164281744E+04  0.11164281744E+04  0.00000000000E+00 0.  1.
          2   -1    0    0  501    0  0.00000000000E+00 -0.00000000000E+00 -0.38343108377E+04  0.38343108377E+04  0.00000000000E+00 0. -1.
         24    2    1    2    0    0  0.16789973072E+03  0.18266184297E+04 -0.21560187766E+04  0.28319359098E+04  0.81968438807E+02 0.  0.
        254    2    1    2    0    0 -0.16789973072E+03 -0.18266184297E+04 -0.56186388667E+03  0.21188031023E+04  0.89939443639E+03 0.  0.
         23    2    4    4    0    0  0.28272098477E+03 -0.49298941217E+03 -0.39552517224E+03  0.69846833488E+03  0.91913748762E+02 0.  0.
         23    2    4    4    0    0 -0.45062071549E+03 -0.13336290175E+04 -0.16633871442E+03  0.14203347675E+04  0.89760226316E+02 0.  0.
          4    1    3    3  502    0  0.37099181736E+02  0.57786186724E+03 -0.73450425173E+03  0.93530593000E+03  0.00000000000E+00 0. -1.
         -3    1    3    3    0  502  0.13080054898E+03  0.12487565624E+04 -0.14215145249E+04  0.18966299798E+04  0.00000000000E+00 0.  1.
         13    1    5    5    0    0  0.20979168589E+03 -0.32122321041E+03 -0.21990050188E+03  0.44221389972E+03  0.00000000000E+00 0.  1.
        -13    1    5    5    0    0  0.72929298883E+02 -0.17176620177E+03 -0.17562467036E+03  0.25625443517E+03  0.00000000000E+00 0. -1.
          1    1    6    6  503    0 -0.67581261560E+02 -0.30149064225E+03 -0.18426985514E+02  0.30952122395E+03  0.00000000000E+00 0. -1.
         -1    1    6    6    0  503 -0.38303945393E+03 -0.10321383752E+04 -0.14791172891E+03  0.11108135435E+04  0.00000000000E+00 0.  1.
<mgrwt>
<rscale>  0 0.41379863E+04</rscale>
<asrwt>0</asrwt>
<pdfrwt beam="1">  1        2 0.58989397E+00 0.41379863E+04</pdfrwt>
<pdfrwt beam="2">  1       -1 0.17175818E+00 0.41379863E+04</pdfrwt>
<totfact> 0.97437969E-02</totfact>
</mgrwt>
</event>
<event>
12    7  0.2466188E-007  0.1830388E+04  0.7818608E-02  0.8690304E-01
         -1   -1    0    0    0  501 -0.00000000000E+00  0.00000000000E+00  0.27305466669E+03  0.27305466669E+03  0.00000000000E+00 0.  1.
          2   -1    0    0  501    0  0.00000000000E+00 -0.00000000000E+00 -0.30674456737E+04  0.30674456737E+04  0.00000000000E+00 0. -1.
         24    2    1    2    0    0 -0.38300171815E+03 -0.40501589216E+03 -0.31626668562E+03  0.64591827578E+03  0.80359277897E+02 0.  0.
        254    2    1    2    0    0  0.38300171815E+03  0.40501589216E+03 -0.24781243214E+04  0.26945820646E+04  0.89941323187E+03 0.  0.
         23    2    4    4    0    0  0.20488378986E+02  0.52755519376E+03 -0.74438989544E+03  0.91682737197E+03  0.87874099853E+02 0.  0.
         23    2    4    4    0    0  0.36251333917E+03 -0.12253930160E+03 -0.17337344259E+04  0.17777546926E+04  0.90249022091E+02 0.  0.
          2    1    3    3  502    0 -0.23330627931E+03 -0.19246316518E+03 -0.18687903500E+03  0.35552449091E+03  0.00000000000E+00 0. -1.
         -1    1    3    3    0  502 -0.14969543884E+03 -0.21255272698E+03 -0.12938765062E+03  0.29039378487E+03  0.00000000000E+00 0.  1.
         13    1    5    5    0    0  0.50107112726E+02  0.38593935948E+03 -0.57081485272E+03  0.69086142462E+03  0.00000000000E+00 0. -1.
        -13    1    5    5    0    0 -0.29618733740E+02  0.14161583428E+03 -0.17357504272E+03  0.22596594735E+03  0.00000000000E+00 0.  1.
          2    1    6    6  503    0  0.24474762691E+03 -0.77008119087E+02 -0.13375757605E+04  0.13619620282E+04  0.00000000000E+00 0. -1.
         -2    1    6    6    0  503  0.11776571226E+03 -0.45531182510E+02 -0.39615866545E+03  0.41579266440E+03  0.00000000000E+00 0.  1.
<mgrwt>
<rscale>  0 0.18303883E+04</rscale>
<asrwt>0</asrwt>
<pdfrwt beam="1">  1        2 0.47191474E+00 0.18303883E+04</pdfrwt>
<pdfrwt beam="2">  1       -1 0.42008409E-01 0.18303883E+04</pdfrwt>
<totfact> 0.94576764E+00</totfact>
</mgrwt>
</event>
<event>
12    7  0.2466188E-007  0.2569909E+04  0.7818608E-02  0.8378495E-01
          2   -1    0    0  501    0  0.00000000000E+00  0.00000000000E+00  0.22356857889E+04  0.22356857889E+04  0.00000000000E+00 0. -1.
         -1   -1    0    0    0  501 -0.00000000000E+00 -0.00000000000E+00 -0.73852447950E+03  0.73852447950E+03  0.00000000000E+00 0.  1.
         24    2    1    2    0    0  0.24678454748E+03 -0.87711381974E+03 -0.10723994876E+03  0.92122297564E+03  0.83187129910E+02 0.  0.
        254    2    1    2    0    0 -0.24678454748E+03  0.87711381974E+03  0.16044012582E+04  0.20529872928E+04  0.90023450354E+03 0.  0.
         23    2    4    4    0    0  0.19916194382E+03  0.76135016005E+03  0.83704577870E+03  0.11535554100E+04  0.10356110396E+03 0.  0.
         23    2    4    4    0    0 -0.44594649130E+03  0.11576365969E+03  0.76735547947E+03  0.89943188274E+03  0.88734332834E+02 0.  0.
          2    1    3    3  502    0  0.42179732080E+02 -0.14815388989E+03  0.13066426988E+02  0.15459442552E+03  0.00000000000E+00 0. -1.
         -1    1    3    3    0  502  0.20460481540E+03 -0.72895992985E+03 -0.12030637575E+03  0.76662855012E+03  0.00000000000E+00 0.  1.
         13    1    5    5    0    0  0.10039501473E+03  0.26128733786E+03  0.24180831231E+03  0.36989389264E+03  0.00000000000E+00 0. -1.
        -13    1    5    5    0    0  0.98766929081E+02  0.50006282219E+03  0.59523746638E+03  0.78366151737E+03  0.00000000000E+00 0.  1.
          3    1    6    6  503    0 -0.10621171910E+03  0.54121261357E+02  0.25633824589E+03  0.28270008226E+03  0.00000000000E+00 0. -1.
         -3    1    6    6    0  503 -0.33973477220E+03  0.61642398334E+02  0.51101723357E+03  0.61673180048E+03  0.00000000000E+00 0.  1.
<mgrwt>
<rscale>  0 0.25699095E+04</rscale>
<asrwt>0</asrwt>
<pdfrwt beam="1">  1        2 0.34395166E+00 0.25699095E+04</pdfrwt>
<pdfrwt beam="2">  1       -1 0.11361915E+00 0.25699095E+04</pdfrwt>
<totfact> 0.35131116E+00</totfact>
</mgrwt>
</event>
<event>
12    7  0.2466188E-007  0.2411305E+04  0.7818608E-02  0.8435283E-01
          2   -1    0    0  501    0  0.00000000000E+00  0.00000000000E+00  0.38844806201E+04  0.38844806201E+04  0.00000000000E+00 0. -1.
         -1   -1    0    0    0  501 -0.00000000000E+00 -0.00000000000E+00 -0.37420658115E+03  0.37420658115E+03  0.00000000000E+00 0.  1.
         24    2    1    2    0    0  0.33999813688E+03  0.96741979610E+03  0.17602438580E+04  0.20387140607E+04  0.79979915218E+02 0.  0.
        254    2    1    2    0    0 -0.33999813688E+03 -0.96741979610E+03  0.17500301810E+04  0.22199731405E+04  0.90231663812E+03 0.  0.
         23    2    4    4    0    0 -0.17264427951E+03 -0.11095452736E+04  0.14049293872E+04  0.18008537111E+04  0.91382407783E+02 0.  0.
         23    2    4    4    0    0 -0.16735385736E+03  0.14212547748E+03  0.34510079375E+03  0.41911942941E+03  0.91430702378E+02 0.  0.
          2    1    3    3  502    0  0.32662409229E+03  0.85781285566E+03  0.15842412947E+04  0.18309414717E+04  0.00000000000E+00 0. -1.
         -1    1    3    3    0  502  0.13374044591E+02  0.10960694043E+03  0.17600256334E+03  0.20777258905E+03  0.00000000000E+00 0.  1.
         13    1    5    5    0    0 -0.12993714201E+03 -0.57012782344E+03  0.69669888463E+03  0.90957063045E+03  0.00000000000E+00 0.  1.
        -13    1    5    5    0    0 -0.42707137500E+02 -0.53941745014E+03  0.70823050260E+03  0.89128308069E+03  0.00000000000E+00 0. -1.
          1    1    6    6  503    0 -0.12914677697E+03  0.10220028826E+03  0.17519078688E+03  0.24044874865E+03  0.00000000000E+00 0. -1.
         -1    1    6    6    0  503 -0.38207080399E+02  0.39925189215E+02  0.16991000687E+03  0.17867068075E+03  0.00000000000E+00 0.  1.
<mgrwt>
<rscale>  0 0.24113052E+04</rscale>
<asrwt>0</asrwt>
<pdfrwt beam="1">  1        2 0.59761238E+00 0.24113052E+04</pdfrwt>
<pdfrwt beam="2">  1       -1 0.57570246E-01 0.24113052E+04</pdfrwt>
<totfact> 0.13251057E+00</totfact>
</mgrwt>
</event>
<event>
12    7  0.2466188E-007  0.2727011E+04  0.7818608E-02  0.8326294E-01
         -1   -1    0    0    0  501 -0.00000000000E+00  0.00000000000E+00  0.12281839252E+04  0.12281839252E+04  0.00000000000E+00 0.  1.
          2   -1    0    0  501    0  0.00000000000E+00 -0.00000000000E+00 -0.15137372938E+04  0.15137372938E+04  0.00000000000E+00 0. -1.
         24    2    1    2    0    0  0.11710703810E+04 -0.13924119523E+03 -0.41672030164E+03  0.12533647206E+04  0.80457227370E+02 0.  0.
        254    2    1    2    0    0 -0.11710703810E+04  0.13924119523E+03  0.13116693306E+03  0.14885564983E+04  0.89877791281E+03 0.  0.
         23    2    4    4    0    0 -0.37149575766E+03 -0.17987463437E+03 -0.30314460391E+03  0.52019295410E+03  0.91324019691E+02 0.  0.
         23    2    4    4    0    0 -0.79957462334E+03  0.31911582960E+03  0.43431153697E+03  0.96836354418E+03  0.89145676019E+02 0.  0.
          4    1    3    3  502    0  0.26018530644E+03 -0.51006062684E+02 -0.65287848090E+02  0.27305771409E+03  0.00000000000E+00 0. -1.
         -3    1    3    3    0  502  0.91088507456E+03 -0.88235132544E+02 -0.35143245355E+03  0.98030700655E+03  0.00000000000E+00 0.  1.
         13    1    5    5    0    0 -0.15784919862E+03 -0.48860483059E+02 -0.75694823712E+02  0.18175099077E+03  0.00000000000E+00 0.  1.
        -13    1    5    5    0    0 -0.21364655904E+03 -0.13101415131E+03 -0.22744978020E+03  0.33844196333E+03  0.00000000000E+00 0. -1.
          4    1    6    6  503    0 -0.63529241810E+03  0.21384396975E+03  0.33117458819E+03  0.74766456901E+03  0.00000000000E+00 0. -1.
         -4    1    6    6    0  503 -0.16428220524E+03  0.10527185985E+03  0.10313694879E+03  0.22069897517E+03  0.00000000000E+00 0.  1.
<mgrwt>
<rscale>  0 0.27270114E+04</rscale>
<asrwt>0</asrwt>
<pdfrwt beam="1">  1        2 0.23288266E+00 0.27270114E+04</pdfrwt>
<pdfrwt beam="2">  1       -1 0.18895137E+00 0.27270114E+04</pdfrwt>
<totfact> 0.22340506E+00</totfact>
</mgrwt>
</event>
<event>
12    7  0.2466188E-007  0.2534699E+04  0.7818608E-02  0.8390727E-01
          2   -1    0    0  501    0  0.00000000000E+00  0.00000000000E+00  0.31238131430E+04  0.31238131430E+04  0.00000000000E+00 0. -1.
         -1   -1    0    0    0  501 -0.00000000000E+00 -0.00000000000E+00 -0.51417123143E+03  0.51417123143E+03  0.00000000000E+00 0.  1.
         24    2    1    2    0    0  0.58533779099E+03  0.76800630417E+03  0.19115556120E+04  0.21432463420E+04  0.83701921791E+02 0.  0.
        254    2    1    2    0    0 -0.58533779099E+03 -0.76800630417E+03  0.69808629954E+03  0.14947380324E+04  0.90247619981E+03 0.  0.
         23    2    4    4    0    0 -0.13082621008E+03  0.49581218309E+02 -0.15293143573E+03  0.22651253462E+03  0.91357045994E+02 0.  0.
         23    2    4    4    0    0 -0.45451158091E+03 -0.81758752248E+03  0.85101773527E+03  0.12682254978E+04  0.95575067241E+02 0.  0.
          2    1    3    3  502    0  0.44198847621E+03  0.60964491648E+03  0.15519469614E+04  0.17249811907E+04  0.00000000000E+00 0. -1.
         -1    1    3    3    0  502  0.14334931479E+03  0.15836138769E+03  0.35960865061E+03  0.41826515125E+03  0.00000000000E+00 0.  1.
         13    1    5    5    0    0 -0.59380717836E+02  0.57688880867E+02 -0.12380032431E+03  0.14893151757E+03  0.00000000000E+00 0. -1.
        -13    1    5    5    0    0 -0.71445492247E+02 -0.81076625577E+01 -0.29131111425E+02  0.77581017056E+02  0.00000000000E+00 0.  1.
          1    1    6    6  503    0 -0.77679767592E+02 -0.14097368654E+03  0.19815309473E+03  0.25528880810E+03  0.00000000000E+00 0. -1.
         -1    1    6    6    0  503 -0.37683181332E+03 -0.67661383594E+03  0.65286464054E+03  0.10129366897E+04  0.00000000000E+00 0.  1.
<mgrwt>
<rscale>  0 0.25346991E+04</rscale>
<asrwt>0</asrwt>
<pdfrwt beam="1">  1        2 0.48058663E+00 0.25346991E+04</pdfrwt>
<pdfrwt beam="2">  1       -1 0.79103268E-01 0.25346991E+04</pdfrwt>
<totfact> 0.23481972E+00</totfact>
</mgrwt>
</event>
<event>
12    7  0.2466188E-007  0.1495882E+04  0.7818608E-02  0.8887196E-01
         -1   -1    0    0    0  501 -0.00000000000E+00  0.00000000000E+00  0.61575632635E+03  0.61575632635E+03  0.00000000000E+00 0.  1.
          2   -1    0    0  501    0  0.00000000000E+00 -0.00000000000E+00 -0.90850199873E+03  0.90850199873E+03  0.00000000000E+00 0. -1.
         24    2    1    2    0    0  0.88057237390E+02 -0.45702396148E+03 -0.17576001511E+03  0.50405245504E+03  0.80946377938E+02 0.  0.
        254    2    1    2    0    0 -0.88057237390E+02  0.45702396148E+03 -0.11698565727E+03  0.10202058700E+04  0.90028295264E+03 0.  0.
         23    2    4    4    0    0  0.26161624085E+03  0.87441211534E+02  0.25213066320E+03  0.38498219956E+03  0.92479185243E+02 0.  0.
         23    2    4    4    0    0 -0.34967347824E+03  0.36958274994E+03 -0.36911632047E+03  0.63522367047E+03  0.91647711658E+02 0.  0.
          4    1    3    3  502    0  0.11448138441E+02 -0.22661352325E+03 -0.11183561110E+03  0.25296630745E+03  0.00000000000E+00 0. -1.
         -3    1    3    3    0  502  0.76609098949E+02 -0.23041043822E+03 -0.63924404008E+02  0.25108614759E+03  0.00000000000E+00 0.  1.
         13    1    5    5    0    0  0.25446048910E+03  0.71022307300E+02  0.20447604686E+03  0.33407298961E+03  0.00000000000E+00 0.  1.
        -13    1    5    5    0    0  0.71557517449E+01  0.16418904234E+02  0.47654616336E+02  0.50909209947E+02  0.00000000000E+00 0. -1.
          2    1    6    6  503    0 -0.13240789652E+02 -0.30261070060E+01 -0.30742948008E+01  0.13925771890E+02  0.00000000000E+00 0. -1.
         -2    1    6    6    0  503 -0.33643268858E+03  0.37260885695E+03 -0.36604202567E+03  0.62129789858E+03  0.00000000000E+00 0.  1.
<mgrwt>
<rscale>  0 0.14958822E+04</rscale>
<asrwt>0</asrwt>
<pdfrwt beam="1">  1        2 0.13976954E+00 0.14958822E+04</pdfrwt>
<pdfrwt beam="2">  1       -1 0.94731743E-01 0.14958822E+04</pdfrwt>
<totfact> 0.34404110E+01</totfact>
</mgrwt>
</event>
<event>
12    7  0.2466188E-007  0.1346159E+04  0.7818608E-02  0.8993741E-01
         -1   -1    0    0    0  501 -0.00000000000E+00  0.00000000000E+00  0.18465744534E+03  0.18465744534E+03  0.00000000000E+00 0.  1.
          2   -1    0    0  501    0  0.00000000000E+00 -0.00000000000E+00 -0.24533865196E+04  0.24533865196E+04  0.00000000000E+00 0. -1.
         24    2    1    2    0    0 -0.24536176672E+02 -0.16359693294E+03  0.80736820047E+01  0.18393307688E+03  0.80001324970E+02 0.  0.
        254    2    1    2    0    0  0.24536176672E+02  0.16359693294E+03 -0.22768027562E+04  0.24541108880E+04  0.90081267727E+03 0.  0.
         23    2    4    4    0    0 -0.15390172976E+03  0.41512588368E+03 -0.19161246187E+04  0.19687653429E+04  0.92131316491E+02 0.  0.
         23    2    4    4    0    0  0.17843790643E+03 -0.25152895073E+03 -0.36067813755E+03  0.48534554510E+03  0.10180707114E+03 0.  0.
          2    1    3    3  502    0  0.94703146072E+01  0.54899558361E+01  0.31476354944E+01  0.11390087052E+02  0.00000000000E+00 0. -1.
         -1    1    3    3    0  502 -0.34006491280E+02 -0.16908688878E+03  0.49260465103E+01  0.17254298983E+03  0.00000000000E+00 0.  1.
         13    1    5    5    0    0 -0.10284363330E+03  0.25247755998E+03 -0.13617797848E+04  0.13888001705E+04  0.00000000000E+00 0. -1.
        -13    1    5    5    0    0 -0.51058096458E+02  0.16264832370E+03 -0.55434483389E+03  0.57996517247E+03  0.00000000000E+00 0.  1.
          4    1    6    6  503    0  0.92848156060E+02 -0.67293034515E+02 -0.84220664734E+02  0.14227527173E+03  0.00000000000E+00 0. -1.
         -4    1    6    6    0  503  0.85589750370E+02 -0.18423591622E+03 -0.27645747281E+03  0.34307027337E+03  0.00000000000E+00 0.  1.
<mgrwt>
<rscale>  0 0.13461591E+04</rscale>
<asrwt>0</asrwt>
<pdfrwt beam="1">  1        2 0.37744405E+00 0.13461591E+04</pdfrwt>
<pdfrwt beam="2">  1       -1 0.28408840E-01 0.13461591E+04</pdfrwt>
<totfact> 0.46449243E+01</totfact>
</mgrwt>
</event>
<event>
12    7  0.2466188E-007  0.3538440E+04  0.7818608E-02  0.8104740E-01
          2   -1    0    0  501    0  0.00000000000E+00  0.00000000000E+00  0.17054808266E+04  0.17054808266E+04  0.00000000000E+00 0. -1.
         -1   -1    0    0    0  501 -0.00000000000E+00 -0.00000000000E+00 -0.18353417294E+04  0.18353417294E+04  0.00000000000E+00 0.  1.
         24    2    1    2    0    0 -0.10858254270E+04 -0.11959196800E+04 -0.41495006570E+03  0.16696928323E+04  0.80311009929E+02 0.  0.
        254    2    1    2    0    0  0.10858254270E+04  0.11959196800E+04  0.28508916289E+03  0.18711297236E+04  0.90033875458E+03 0.  0.
         23    2    4    4    0    0  0.10337743568E+04  0.85637354217E+03  0.52256646560E+03  0.14434187579E+04  0.91197232530E+02 0.  0.
         23    2    4    4    0    0  0.52051070143E+02  0.33954613785E+03 -0.23747730271E+03  0.42771096572E+03  0.92413782853E+02 0.  0.
          4    1    3    3  502    0 -0.66762610908E+03 -0.78407246345E+03 -0.24317742965E+03  0.10581254707E+04  0.00000000000E+00 0. -1.
         -3    1    3    3    0  502 -0.41819931788E+03 -0.41184721658E+03 -0.17177263604E+03  0.61156736159E+03  0.00000000000E+00 0.  1.
         13    1    5    5    0    0  0.10379918523E+03  0.12241685034E+03  0.52699378616E+02  0.16893010569E+03  0.00000000000E+00 0.  1.
        -13    1    5    5    0    0  0.92997517158E+03  0.73395669183E+03  0.46986708699E+03  0.12744886522E+04  0.00000000000E+00 0. -1.
          4    1    6    6  503    0  0.30346293510E+02  0.26374449434E+03 -0.13333287009E+03  0.29708535822E+03  0.00000000000E+00 0. -1.
         -4    1    6    6    0  503  0.21704776633E+02  0.75801643509E+02 -0.10414443262E+03  0.13062560749E+03  0.00000000000E+00 0.  1.
<mgrwt>
<rscale>  0 0.35384404E+04</rscale>
<asrwt>0</asrwt>
<pdfrwt beam="1">  1        2 0.26238167E+00 0.35384404E+04</pdfrwt>
<pdfrwt beam="2">  1       -1 0.28236026E+00 0.35384404E+04</pdfrwt>
<totfact> 0.39008031E-01</totfact>
</mgrwt>
</event>
<event>
12    7  0.2466188E-007  0.1691754E+04  0.7818608E-02  0.8766081E-01
         -1   -1    0    0    0  501 -0.00000000000E+00  0.00000000000E+00  0.38625372378E+03  0.38625372378E+03  0.00000000000E+00 0.  1.
          2   -1    0    0  501    0  0.00000000000E+00 -0.00000000000E+00 -0.18524306137E+04  0.18524306137E+04  0.00000000000E+00 0. -1.
         24    2    1    2    0    0 -0.21020474338E+03  0.51287161910E+03 -0.21176962934E+03  0.59856651549E+03  0.78817293416E+02 0.  0.
        254    2    1    2    0    0  0.21020474338E+03 -0.51287161910E+03 -0.12544072606E+04  0.16401178220E+04  0.89956965421E+03 0.  0.
         23    2    4    4    0    0  0.20562722236E+03 -0.32298084346E+03 -0.13520052313E+04  0.14077780646E+04  0.85567247729E+02 0.  0.
         23    2    4    4    0    0  0.45775210241E+01 -0.18989077564E+03  0.97597970732E+02  0.23233975737E+03  0.91525617142E+02 0.  0.
          4    1    3    3  502    0 -0.33167254132E+02  0.13875271371E+03 -0.83268078117E+02  0.16518460928E+03  0.00000000000E+00 0. -1.
         -3    1    3    3    0  502 -0.17703748925E+03  0.37411890539E+03 -0.12850155122E+03  0.43338190622E+03  0.00000000000E+00 0.  1.
         13    1    5    5    0    0  0.70512114293E+02 -0.10387839463E+03 -0.59819139487E+03  0.61122469194E+03  0.00000000000E+00 0. -1.
        -13    1    5    5    0    0  0.13511510806E+03 -0.21910244883E+03 -0.75381383646E+03  0.79655337269E+03  0.00000000000E+00 0.  1.
          4    1    6    6  503    0  0.39312692889E+02 -0.44999818741E+02  0.43157210710E+02  0.73708997722E+02  0.00000000000E+00 0. -1.
         -4    1    6    6    0  503 -0.34735171865E+02 -0.14489095690E+03  0.54440760021E+02  0.15863075965E+03  0.00000000000E+00 0.  1.
<mgrwt>
<rscale>  0 0.16917544E+04</rscale>
<asrwt>0</asrwt>
<pdfrwt beam="1">  1        2 0.28498932E+00 0.16917544E+04</pdfrwt>
<pdfrwt beam="2">  1       -1 0.59423650E-01 0.16917544E+04</pdfrwt>
<totfact> 0.25125090E+01</totfact>
</mgrwt>
</event>
<event>
12    7  0.2466188E-007  0.1865322E+04  0.7818608E-02  0.8672313E-01
          2   -1    0    0  501    0  0.00000000000E+00  0.00000000000E+00  0.54321451676E+03  0.54321451676E+03  0.00000000000E+00 0. -1.
         -1   -1    0    0    0  501 -0.00000000000E+00 -0.00000000000E+00 -0.16013128056E+04  0.16013128056E+04  0.00000000000E+00 0.  1.
         24    2    1    2    0    0  0.29568811675E+03 -0.62358938150E+03 -0.20072404462E+03  0.72332946608E+03  0.81364582652E+02 0.  0.
        254    2    1    2    0    0 -0.29568811675E+03  0.62358938150E+03 -0.85737424420E+03  0.14211978563E+04  0.89912044406E+03 0.  0.
         23    2    4    4    0    0  0.72645292238E+02  0.51561234650E+03 -0.60873891644E+02  0.53234859106E+03  0.92498439799E+02 0.  0.
         23    2    4    4    0    0 -0.36833340899E+03  0.10797703500E+03 -0.79650035255E+03  0.88884926521E+03  0.91168329909E+02 0.  0.
          2    1    3    3  502    0  0.18920197913E+03 -0.44644650995E+03 -0.10783219247E+03  0.49672895717E+03  0.00000000000E+00 0. -1.
         -1    1    3    3    0  502  0.10648613762E+03 -0.17714287155E+03 -0.92891852156E+02  0.22660050892E+03  0.00000000000E+00 0.  1.
         13    1    5    5    0    0  0.48713523555E+02  0.10627455937E+03 -0.32453095664E+02  0.12132803784E+03  0.00000000000E+00 0.  1.
        -13    1    5    5    0    0  0.23931768682E+02  0.40933778713E+03 -0.28420795979E+02  0.41102055322E+03  0.00000000000E+00 0. -1.
          2    1    6    6  503    0 -0.21071660239E+03  0.20754143619E+02 -0.48104748568E+03  0.52558434573E+03  0.00000000000E+00 0. -1.
         -2    1    6    6    0  503 -0.15761680659E+03  0.87222891377E+02 -0.31545286687E+03  0.36326491947E+03  0.00000000000E+00 0.  1.
<mgrwt>
<rscale>  0 0.18653218E+04</rscale>
<asrwt>0</asrwt>
<pdfrwt beam="1">  1        2 0.83571463E-01 0.18653218E+04</pdfrwt>
<pdfrwt beam="2">  1       -1 0.24635582E+00 0.18653218E+04</pdfrwt>
<totfact> 0.44150423E+00</totfact>
</mgrwt>
</event>
<event>
12    7  0.2466188E-007  0.2233867E+04  0.7818608E-02  0.8504463E-01
         -1   -1    0    0    0  501 -0.00000000000E+00  0.00000000000E+00  0.55248626132E+03  0.55248626132E+03  0.00000000000E+00 0.  1.
          2   -1    0    0  501    0  0.00000000000E+00 -0.00000000000E+00 -0.22580488183E+04  0.22580488183E+04  0.00000000000E+00 0. -1.
         24    2    1    2    0    0  0.78816999493E+03 -0.48197627458E+03 -0.55359286689E+03  0.10803374144E+04  0.84562382298E+02 0.  0.
        254    2    1    2    0    0 -0.78816999493E+03  0.48197627458E+03 -0.11519696901E+04  0.17301976653E+04  0.90168549048E+03 0.  0.
         23    2    4    4    0    0  0.11625380049E+03  0.15589650603E+02 -0.49225449704E+03  0.51414189549E+03  0.90936326681E+02 0.  0.
         23    2    4    4    0    0 -0.90442379542E+03  0.46638662398E+03 -0.65971519309E+03  0.12160557698E+04  0.89825466670E+02 0.  0.
          2    1    3    3  502    0  0.26800183454E+03 -0.20410162546E+03 -0.22687515453E+03  0.40614626992E+03  0.00000000000E+00 0. -1.
         -1    1    3    3    0  502  0.52016816039E+03 -0.27787464912E+03 -0.32671771236E+03  0.67419114447E+03  0.00000000000E+00 0.  1.
         13    1    5    5    0    0  0.47897364570E+02 -0.15386838520E+02 -0.34717555983E+03  0.35080162725E+03  0.00000000000E+00 0. -1.
        -13    1    5    5    0    0  0.68356435919E+02  0.30976489123E+02 -0.14507893721E+03  0.16334026825E+03  0.00000000000E+00 0.  1.
          3    1    6    6  503    0 -0.23909002573E+03  0.12735227721E+03 -0.12968487845E+03  0.30033449787E+03  0.00000000000E+00 0. -1.
         -3    1    6    6    0  503 -0.66533376969E+03  0.33903434677E+03 -0.53003031463E+03  0.91572127190E+03  0.00000000000E+00 0.  1.
<mgrwt>
<rscale>  0 0.22338675E+04</rscale>
<asrwt>0</asrwt>
<pdfrwt beam="1">  1        2 0.34739213E+00 0.22338675E+04</pdfrwt>
<pdfrwt beam="2">  1       -1 0.84997886E-01 0.22338675E+04</pdfrwt>
<totfact> 0.68003025E+00</totfact>
</mgrwt>
</event>
<event>
12    7  0.2466188E-007  0.1912990E+04  0.7818608E-02  0.8648417E-01
          2   -1    0    0  501    0  0.00000000000E+00  0.00000000000E+00  0.83841683527E+03  0.83841683527E+03  0.00000000000E+00 0. -1.
         -1   -1    0    0    0  501 -0.00000000000E+00 -0.00000000000E+00 -0.10912029977E+04  0.10912029977E+04  0.00000000000E+00 0.  1.
         24    2    1    2    0    0  0.25730209469E+03 -0.42634241458E+03  0.45572043405E+03  0.67973702790E+03  0.79931787717E+02 0.  0.
        254    2    1    2    0    0 -0.25730209469E+03  0.42634241458E+03 -0.70850659643E+03  0.12498828050E+04  0.90125091217E+03 0.  0.
         23    2    4    4    0    0 -0.53931882874E+03  0.34527330277E+03 -0.23998549389E+03  0.69009556316E+03  0.92522410106E+02 0.  0.
         23    2    4    4    0    0  0.28201673405E+03  0.81069111812E+02 -0.46852110254E+03  0.55978724186E+03  0.88000530900E+02 0.  0.
          2    1    3    3  502    0  0.24456756077E+03 -0.37649386063E+03  0.43213739908E+03  0.62314015322E+03  0.00000000000E+00 0. -1.
         -1    1    3    3    0  502  0.12734533917E+02 -0.49848553954E+02  0.23583034973E+02  0.56596874683E+02  0.00000000000E+00 0.  1.
         13    1    5    5    0    0 -0.33542539119E+03  0.21480192341E+03 -0.19655159932E+03  0.44416504878E+03  0.00000000000E+00 0.  1.
        -13    1    5    5    0    0 -0.20389343755E+03  0.13047137936E+03 -0.43433894570E+02  0.24593051438E+03  0.00000000000E+00 0. -1.
          4    1    6    6  503    0  0.51120034057E+02  0.51734517525E+02 -0.94307233441E+02  0.11909480452E+03  0.00000000000E+00 0. -1.
         -4    1    6    6    0  503  0.23089670000E+03  0.29334594288E+02 -0.37421386910E+03  0.44069243733E+03  0.00000000000E+00 0.  1.
<mgrwt>
<rscale>  0 0.19129903E+04</rscale>
<asrwt>0</asrwt>
<pdfrwt beam="1">  1        2 0.12898721E+00 0.19129903E+04</pdfrwt>
<pdfrwt beam="2">  1       -1 0.16787738E+00 0.19129903E+04</pdfrwt>
<totfact> 0.88083427E+00</totfact>
</mgrwt>
</event>
<event>
12    7  0.2466188E-007  0.3036896E+04  0.7818608E-02  0.8233273E-01
         -1   -1    0    0    0  501 -0.00000000000E+00  0.00000000000E+00  0.87795184965E+03  0.87795184965E+03  0.00000000000E+00 0.  1.
          2   -1    0    0  501    0  0.00000000000E+00 -0.00000000000E+00 -0.26262086002E+04  0.26262086002E+04  0.00000000000E+00 0. -1.
         24    2    1    2    0    0 -0.54740474019E+03  0.76674182192E+03  0.37170088114E+03  0.10159591145E+04  0.80413967292E+02 0.  0.
        254    2    1    2    0    0  0.54740474019E+03 -0.76674182192E+03 -0.21199576317E+04  0.24882013354E+04  0.89965579763E+03 0.  0.
         23    2    4    4    0    0  0.13926299977E+03  0.19202132804E+03 -0.45588169608E+03  0.52258586112E+03  0.94876171385E+02 0.  0.
         23    2    4    4    0    0  0.40814174042E+03 -0.95876314996E+03 -0.16640759356E+04  0.19656154743E+04  0.93214887307E+02 0.  0.
          4    1    3    3  502    0 -0.44006959337E+03  0.56738044284E+03  0.26181429357E+03  0.76428302234E+03  0.00000000000E+00 0. -1.
         -3    1    3    3    0  502 -0.10733514682E+03  0.19936137909E+03  0.10988658757E+03  0.25167609211E+03  0.00000000000E+00 0.  1.
         13    1    5    5    0    0 -0.67353998127E+01  0.11656864278E+02 -0.31155024533E+01  0.13818626957E+02  0.00000000000E+00 0.  1.
        -13    1    5    5    0    0  0.14599839958E+03  0.18036446376E+03 -0.45276619363E+03  0.50876723417E+03  0.00000000000E+00 0. -1.
          2    1    6    6  503    0  0.25447782178E+03 -0.48630956154E+03 -0.84311342268E+03  0.10060299175E+04  0.00000000000E+00 0. -1.
         -2    1    6    6    0  503  0.15366391864E+03 -0.47245358842E+03 -0.82096251293E+03  0.95958555676E+03  0.00000000000E+00 0.  1.
<mgrwt>
<rscale>  0 0.30368962E+04</rscale>
<asrwt>0</asrwt>
<pdfrwt beam="1">  1        2 0.40403209E+00 0.30368962E+04</pdfrwt>
<pdfrwt beam="2">  1       -1 0.13506952E+00 0.30368962E+04</pdfrwt>
<totfact> 0.13099847E+00</totfact>
</mgrwt>
</event>
<event>
12    7  0.2466188E-007  0.1983808E+04  0.7818608E-02  0.8614229E-01
          2   -1    0    0  501    0  0.00000000000E+00  0.00000000000E+00  0.24697834424E+04  0.24697834424E+04  0.00000000000E+00 0. -1.
         -1   -1    0    0    0  501 -0.00000000000E+00 -0.00000000000E+00 -0.39836431138E+03  0.39836431138E+03  0.00000000000E+00 0.  1.
         24    2    1    2    0    0 -0.17790842384E+03  0.67724835872E+03  0.13396187417E+04  0.15137172715E+04  0.80279874666E+02 0.  0.
        254    2    1    2    0    0  0.17790842384E+03 -0.67724835872E+03  0.73180038930E+03  0.13544304823E+04  0.89924044327E+03 0.  0.
         23    2    4    4    0    0  0.47534986234E+03 -0.66414027197E+03  0.58772135027E+03  0.10103437322E+04  0.91314177855E+02 0.  0.
         23    2    4    4    0    0 -0.29744143850E+03 -0.13108086743E+02  0.14407903904E+03  0.34408675009E+03  0.94835071705E+02 0.  0.
          2    1    3    3  502    0 -0.10567030416E+03  0.27157527158E+03  0.60149489240E+03  0.66836774825E+03  0.00000000000E+00 0. -1.
         -1    1    3    3    0  502 -0.72238119680E+02  0.40567308714E+03  0.73812384927E+03  0.84534952323E+03  0.00000000000E+00 0.  1.
         13    1    5    5    0    0  0.27166956893E+03 -0.35856074914E+03  0.37701871190E+03  0.58695253183E+03  0.00000000000E+00 0.  1.
        -13    1    5    5    0    0  0.20368029341E+03 -0.30557952283E+03  0.21070263837E+03  0.42339120033E+03  0.00000000000E+00 0. -1.
          1    1    6    6  503    0 -0.18326931476E+03  0.31486053197E+02  0.11314549748E+03  0.21767158032E+03  0.00000000000E+00 0. -1.
         -1    1    6    6    0  503 -0.11417212373E+03 -0.44594139940E+02  0.30933541560E+02  0.12641516977E+03  0.00000000000E+00 0.  1.
<mgrwt>
<rscale>  0 0.19838080E+04</rscale>
<asrwt>0</asrwt>
<pdfrwt beam="1">  1        2 0.37996668E+00 0.19838080E+04</pdfrwt>
<pdfrwt beam="2">  1       -1 0.61286818E-01 0.19838080E+04</pdfrwt>
<totfact> 0.10368897E+01</totfact>
</mgrwt>
</event>
<event>
12    7  0.2466188E-007  0.2983458E+04  0.7818608E-02  0.8248470E-01
         -1   -1    0    0    0  501 -0.00000000000E+00  0.00000000000E+00  0.29981811371E+04  0.29981811371E+04  0.00000000000E+00 0.  1.
          2   -1    0    0  501    0  0.00000000000E+00 -0.00000000000E+00 -0.74220196054E+03  0.74220196054E+03  0.00000000000E+00 0. -1.
         24    2    1    2    0    0  0.12511707473E+04 -0.34151808869E+03  0.53114989934E+03  0.14031552814E+04  0.68276527931E+02 0.  0.
        254    2    1    2    0    0 -0.12511707473E+04  0.34151808869E+03  0.17248292772E+04  0.23372278162E+04  0.89751600852E+03 0.  0.
         23    2    4    4    0    0  0.19472119838E+01  0.29639748143E+03  0.45143924174E+03  0.54773172782E+03  0.91418805759E+02 0.  0.
         23    2    4    4    0    0 -0.12531179593E+04  0.45120607260E+02  0.12733900354E+04  0.17894960884E+04  0.91834518719E+02 0.  0.
          4    1    3    3  502    0  0.63089053520E+03 -0.14051600962E+03  0.24800232283E+03  0.69229528995E+03  0.00000000000E+00 0. -1.
         -3    1    3    3    0  502  0.62028021214E+03 -0.20100207907E+03  0.28314757651E+03  0.71085999145E+03  0.00000000000E+00 0.  1.
         13    1    5    5    0    0  0.32915031657E+02  0.11800897679E+03  0.12879242935E+03  0.17775547184E+03  0.00000000000E+00 0. -1.
        -13    1    5    5    0    0 -0.30967819673E+02  0.17838850465E+03  0.32264681239E+03  0.36997625598E+03  0.00000000000E+00 0.  1.
          1    1    6    6  503    0 -0.33084956606E+01 -0.38173710390E+01  0.12452236901E+02  0.13437881865E+02  0.00000000000E+00 0.  1.
         -1    1    6    6    0  503 -0.12498094637E+04  0.48937978299E+02  0.12609377985E+04  0.17760582065E+04  0.00000000000E+00 0. -1.
<mgrwt>
<rscale>  0 0.29834583E+04</rscale>
<asrwt>0</asrwt>
<pdfrwt beam="1">  1        2 0.11418492E+00 0.29834583E+04</pdfrwt>
<pdfrwt beam="2">  1       -1 0.46125863E+00 0.29834583E+04</pdfrwt>
<totfact> 0.10043746E-01</totfact>
</mgrwt>
</event>
<event>
12    7  0.2466188E-007  0.1652488E+04  0.7818608E-02  0.8788936E-01
         -1   -1    0    0    0  501 -0.00000000000E+00  0.00000000000E+00  0.71127342710E+03  0.71127342710E+03  0.00000000000E+00 0.  1.
          2   -1    0    0  501    0  0.00000000000E+00 -0.00000000000E+00 -0.95979834590E+03  0.95979834590E+03  0.00000000000E+00 0. -1.
         24    2    1    2    0    0 -0.50289009668E+03 -0.28235918158E+03 -0.11453522322E+03  0.59348061252E+03  0.80472127557E+02 0.  0.
        254    2    1    2    0    0  0.50289009668E+03  0.28235918158E+03 -0.13398969559E+03  0.10775911605E+04  0.90034677423E+03 0.  0.
         23    2    4    4    0    0  0.37412947841E+03 -0.26862430887E+03  0.58571440245E+02  0.47293275783E+03  0.90016075716E+02 0.  0.
         23    2    4    4    0    0  0.12876061828E+03  0.55098349044E+03 -0.19256113583E+03  0.60465840266E+03  0.91487099151E+02 0.  0.
          4    1    3    3  502    0 -0.75559359948E+02 -0.36125297229E+02 -0.45978906970E+02  0.95542209843E+02  0.00000000000E+00 0. -1.
         -1    1    3    3    0  502 -0.42733073674E+03 -0.24623388435E+03 -0.68556316246E+02  0.49793840268E+03  0.00000000000E+00 0.  1.
         13    1    5    5    0    0  0.19163417839E+03 -0.83544950086E+02  0.34755140293E+02  0.21192295012E+03  0.00000000000E+00 0.  1.
        -13    1    5    5    0    0  0.18249530002E+03 -0.18507935878E+03  0.23816299952E+02  0.26100980771E+03  0.00000000000E+00 0. -1.
          2    1    6    6  503    0  0.12424096770E+03  0.45559830518E+03 -0.12761670544E+03  0.48917446504E+03  0.00000000000E+00 0. -1.
         -2    1    6    6    0  503  0.45196505761E+01  0.95385185266E+02 -0.64944430394E+02  0.11548393762E+03  0.00000000000E+00 0.  1.
<mgrwt>
<rscale>  0 0.16524879E+04</rscale>
<asrwt>0</asrwt>
<pdfrwt beam="1">  1        2 0.14766128E+00 0.16524879E+04</pdfrwt>
<pdfrwt beam="2">  1       -1 0.10942668E+00 0.16524879E+04</pdfrwt>
<totfact> 0.22529773E+01</totfact>
</mgrwt>
</event>
<event>
12    7  0.2466188E-007  0.3740428E+04  0.7818608E-02  0.8059061E-01
          2   -1    0    0  501    0  0.00000000000E+00  0.00000000000E+00  0.20465182630E+04  0.20465182630E+04  0.00000000000E+00 0. -1.
         -1   -1    0    0    0  501 -0.00000000000E+00 -0.00000000000E+00 -0.17090977605E+04  0.17090977605E+04  0.00000000000E+00 0.  1.
         24    2    1    2    0    0  0.69769375951E+03 -0.11861329595E+04 -0.94441676427E+03  0.16706200334E+04  0.73214012799E+02 0.  0.
        254    2    1    2    0    0 -0.69769375951E+03  0.11861329595E+04  0.12818372668E+04  0.20849959901E+04  0.90022970415E+03 0.  0.
         23    2    4    4    0    0 -0.67323161048E+03  0.11062149299E+04  0.14032377010E+04  0.19117036719E+04  0.92642383938E+02 0.  0.
         23    2    4    4    0    0 -0.24462149037E+02  0.79918029636E+02 -0.12140043411E+03  0.17329231818E+03  0.91142053641E+02 0.  0.
          4    1    3    3  502    0  0.37696287792E+03 -0.67146935115E+03 -0.48836382687E+03  0.91185049666E+03  0.00000000000E+00 0. -1.
         -3    1    3    3    0  502  0.32073088159E+03 -0.51466360838E+03 -0.45605293740E+03  0.75876953676E+03  0.00000000000E+00 0.  1.
         13    1    5    5    0    0 -0.56802726303E+03  0.89388330220E+03  0.11019022332E+04  0.15283556069E+04  0.00000000000E+00 0. -1.
        -13    1    5    5    0    0 -0.10520434744E+03  0.21233162771E+03  0.30133546772E+03  0.38334806502E+03  0.00000000000E+00 0.  1.
          3    1    6    6  503    0 -0.36974291445E+02  0.89720389894E+02 -0.12371169862E+03  0.15723050266E+03  0.00000000000E+00 0. -1.
         -3    1    6    6    0  503  0.12512142408E+02 -0.98023602579E+01  0.23112645101E+01  0.16061815523E+02  0.00000000000E+00 0.  1.
<mgrwt>
<rscale>  0 0.37404277E+04</rscale>
<asrwt>0</asrwt>
<pdfrwt beam="1">  1        2 0.31484896E+00 0.37404277E+04</pdfrwt>
<pdfrwt beam="2">  1       -1 0.26293812E+00 0.37404277E+04</pdfrwt>
<totfact> 0.33124266E-01</totfact>
</mgrwt>
</event>
<event>
12    7  0.2466188E-007  0.2140194E+04  0.7818608E-02  0.8543742E-01
          2   -1    0    0  501    0  0.00000000000E+00  0.00000000000E+00  0.16730480398E+04  0.16730480398E+04  0.00000000000E+00 0. -1.
         -1   -1    0    0    0  501 -0.00000000000E+00 -0.00000000000E+00 -0.68444368375E+03  0.68444368375E+03  0.00000000000E+00 0.  1.
         24    2    1    2    0    0 -0.67737631546E+03  0.46354143724E+03  0.74966422494E+03  0.11144967024E+04  0.79981952526E+02 0.  0.
        254    2    1    2    0    0  0.67737631546E+03 -0.46354143724E+03  0.23894013111E+03  0.12429950212E+04  0.90234965483E+03 0.  0.
         23    2    4    4    0    0  0.62004921282E+03  0.95049671262E+02  0.22938471131E+03  0.67396133927E+03  0.90061505246E+02 0.  0.
         23    2    4    4    0    0  0.57327102645E+02 -0.55859110850E+03  0.95554197961E+01  0.56903368188E+03  0.91638430112E+02 0.  0.
          4    1    3    3  502    0 -0.12391187284E+03  0.68309481481E+02  0.16747878485E+03  0.21924753332E+03  0.00000000000E+00 0. -1.
         -3    1    3    3    0  502 -0.55346444262E+03  0.39523195576E+03  0.58218544009E+03  0.89524916909E+03  0.00000000000E+00 0.  1.
         13    1    5    5    0    0  0.13184967619E+03 -0.13263487369E+02  0.64739995142E+02  0.14748397940E+03  0.00000000000E+00 0. -1.
        -13    1    5    5    0    0  0.48819953662E+03  0.10831315863E+03  0.16464471617E+03  0.52647735987E+03  0.00000000000E+00 0.  1.
          3    1    6    6  503    0 -0.46385933579E+01 -0.25575089203E+02  0.19243176686E+02  0.32340401745E+02  0.00000000000E+00 0. -1.
         -3    1    6    6    0  503  0.61965696003E+02 -0.53301601930E+03 -0.96877568895E+01  0.53669328014E+03  0.00000000000E+00 0.  1.
<mgrwt>
<rscale>  0 0.21401936E+04</rscale>
<asrwt>0</asrwt>
<pdfrwt beam="1">  1        2 0.25739201E+00 0.21401936E+04</pdfrwt>
<pdfrwt beam="2">  1       -1 0.10529903E+00 0.21401936E+04</pdfrwt>
<totfact> 0.89812956E+00</totfact>
</mgrwt>
</event>
<event>
12    7  0.2466188E-007  0.2651406E+04  0.7818608E-02  0.8350947E-01
          2   -1    0    0  501    0  0.00000000000E+00  0.00000000000E+00  0.20020598844E+04  0.20020598844E+04  0.00000000000E+00 0. -1.
         -1   -1    0    0    0  501 -0.00000000000E+00 -0.00000000000E+00 -0.87783993532E+03  0.87783993532E+03  0.00000000000E+00 0.  1.
         24    2    1    2    0    0 -0.70599178847E+03  0.28606460314E+03 -0.46905565562E+03  0.89736466590E+03  0.70659556937E+02 0.  0.
        254    2    1    2    0    0  0.70599178847E+03 -0.28606460314E+03  0.15932756047E+04  0.19825351538E+04  0.90092237239E+03 0.  0.
         23    2    4    4    0    0 -0.56137129476E+02  0.18791042340E+03  0.61612149032E+03  0.65284151069E+03  0.90192254213E+02 0.  0.
         23    2    4    4    0    0  0.76212891794E+03 -0.47397502654E+03  0.97715411436E+03  0.13296936431E+04  0.88103393740E+02 0.  0.
          2    1    3    3  502    0 -0.53610630122E+03  0.21611664905E+03 -0.31939997166E+03  0.66040344798E+03  0.00000000000E+00 0. -1.
         -3    1    3    3    0  502 -0.16988548725E+03  0.69947954090E+02 -0.14965568396E+03  0.23696121792E+03  0.00000000000E+00 0.  1.
         13    1    5    5    0    0  0.12528770138E+02  0.11236577348E+03  0.29722196177E+03  0.31799989260E+03  0.00000000000E+00 0. -1.
        -13    1    5    5    0    0 -0.68665899614E+02  0.75544649919E+02  0.31889952855E+03  0.33484161809E+03  0.00000000000E+00 0.  1.
          3    1    6    6  503    0  0.43511552707E+03 -0.27389486129E+03  0.62322582321E+03  0.80793214050E+03  0.00000000000E+00 0. -1.
         -3    1    6    6    0  503  0.32701339087E+03 -0.20008016525E+03  0.35392829115E+03  0.52176150262E+03  0.00000000000E+00 0.  1.
<mgrwt>
<rscale>  0 0.26514058E+04</rscale>
<asrwt>0</asrwt>
<pdfrwt beam="1">  1        2 0.30800921E+00 0.26514058E+04</pdfrwt>
<pdfrwt beam="2">  1       -1 0.13505230E+00 0.26514058E+04</pdfrwt>
<totfact> 0.30729102E+00</totfact>
</mgrwt>
</event>
<event>
12    7  0.2466188E-007  0.1573739E+04  0.7818608E-02  0.8836845E-01
         -1   -1    0    0    0  501 -0.00000000000E+00  0.00000000000E+00  0.42609873626E+03  0.42609873626E+03  0.00000000000E+00 0.  1.
          2   -1    0    0  501    0  0.00000000000E+00 -0.00000000000E+00 -0.14530998240E+04  0.14530998240E+04  0.00000000000E+00 0. -1.
         24    2    1    2    0    0  0.17393975523E+03  0.32898433408E+03 -0.78910721243E+03  0.87588306938E+03  0.77428857707E+02 0.  0.
        254    2    1    2    0    0 -0.17393975523E+03 -0.32898433408E+03 -0.23789387536E+03  0.10033154909E+04  0.90086777492E+03 0.  0.
         23    2    4    4    0    0 -0.33104548282E+02 -0.59055083220E+03  0.20229964757E+02  0.59883571214E+03  0.91371560861E+02 0.  0.
         23    2    4    4    0    0 -0.14083520695E+03  0.26156649812E+03 -0.25812384012E+03  0.40447977879E+03  0.93404422577E+02 0.  0.
          2    1    3    3  502    0  0.57370532178E+02  0.19048949906E+03 -0.42512723086E+03  0.46937276192E+03  0.00000000000E+00 0. -1.
         -1    1    3    3    0  502  0.11656922305E+03  0.13849483501E+03 -0.36397998157E+03  0.40651030746E+03  0.00000000000E+00 0.  1.
         13    1    5    5    0    0 -0.58387132571E+02 -0.47463812017E+03  0.33883125059E+02  0.47941471455E+03  0.00000000000E+00 0. -1.
        -13    1    5    5    0    0  0.25282584289E+02 -0.11591271203E+03 -0.13653160302E+02  0.11942099759E+03  0.00000000000E+00 0.  1.
          1    1    6    6  503    0 -0.57136727453E+02  0.18726887335E+03 -0.19334671914E+03  0.27516756777E+03  0.00000000000E+00 0. -1.
         -1    1    6    6    0  503 -0.83698479495E+02  0.74297624768E+02 -0.64777120973E+02  0.12931221101E+03  0.00000000000E+00 0.  1.
<mgrwt>
<rscale>  0 0.15737395E+04</rscale>
<asrwt>0</asrwt>
<pdfrwt beam="1">  1        2 0.22355382E+00 0.15737395E+04</pdfrwt>
<pdfrwt beam="2">  1       -1 0.65553652E-01 0.15737395E+04</pdfrwt>
<totfact> 0.34856737E+01</totfact>
</mgrwt>
</event>
<event>
12    7  0.2466188E-007  0.1389784E+04  0.7818608E-02  0.8961247E-01
          2   -1    0    0  501    0  0.00000000000E+00  0.00000000000E+00  0.18744348415E+04  0.18744348415E+04  0.00000000000E+00 0. -1.
         -1   -1    0    0    0  501 -0.00000000000E+00 -0.00000000000E+00 -0.25761076437E+03  0.25761076437E+03  0.00000000000E+00 0.  1.
         24    2    1    2    0    0 -0.81601902842E+02 -0.30331295524E+03  0.85330049375E+03  0.91355081033E+03  0.88293437233E+02 0.  0.
        254    2    1    2    0    0  0.81601902842E+02  0.30331295524E+03  0.76352358335E+03  0.12184947955E+04  0.89616052413E+03 0.  0.
         23    2    4    4    0    0 -0.16848130520E+02  0.41279632037E+03  0.90253972111E+03  0.99738002803E+03  0.97490053443E+02 0.  0.
         23    2    4    4    0    0  0.98450033362E+02 -0.10948336513E+03 -0.13901613776E+03  0.22111476749E+03  0.88810120679E+02 0.  0.
          4    1    3    3  502    0 -0.67069872648E+02 -0.29865200298E+03  0.83703983397E+03  0.89125028491E+03  0.00000000000E+00 0. -1.
         -3    1    3    3    0  502 -0.14532030194E+02 -0.46609522589E+01  0.16260659781E+02  0.22300525421E+02  0.00000000000E+00 0.  1.
         13    1    5    5    0    0  0.41930304920E+01  0.26507986001E+03  0.67590169670E+03  0.72603582370E+03  0.00000000000E+00 0.  1.
        -13    1    5    5    0    0 -0.21041161012E+02  0.14771646035E+03  0.22663802441E+03  0.27134420433E+03  0.00000000000E+00 0. -1.
          1    1    6    6  503    0  0.79689826424E+02 -0.84688703310E+02 -0.49556574784E+02  0.12640608770E+03  0.00000000000E+00 0. -1.
         -1    1    6    6    0  503  0.18760206937E+02 -0.24794661818E+02 -0.89459562976E+02  0.94708679786E+02  0.00000000000E+00 0.  1.
<mgrwt>
<rscale>  0 0.13897836E+04</rscale>
<asrwt>0</asrwt>
<pdfrwt beam="1">  1        2 0.28837458E+00 0.13897836E+04</pdfrwt>
<pdfrwt beam="2">  1       -1 0.39632426E-01 0.13897836E+04</pdfrwt>
<totfact> 0.53942121E+01</totfact>
</mgrwt>
</event>
<event>
12    7  0.2466188E-007  0.1797851E+04  0.7818608E-02  0.8707443E-01
          2   -1    0    0  501    0  0.00000000000E+00  0.00000000000E+00  0.16329169286E+04  0.16329169286E+04  0.00000000000E+00 0. -1.
         -1   -1    0    0    0  501 -0.00000000000E+00 -0.00000000000E+00 -0.49486082663E+03  0.49486082663E+03  0.00000000000E+00 0.  1.
         24    2    1    2    0    0  0.28207254377E+03  0.23945116000E+03  0.10904883682E+04  0.11542215693E+04  0.78490584238E+02 0.  0.
        254    2    1    2    0    0 -0.28207254377E+03 -0.23945116000E+03  0.47567733799E+02  0.97355618599E+03  0.89924811927E+03 0.  0.
         23    2    4    4    0    0 -0.45597114926E+03 -0.19623741888E+03 -0.28890168499E+03  0.58149690291E+03  0.90860612884E+02 0.  0.
         23    2    4    4    0    0  0.17389860550E+03 -0.43213741126E+02  0.33646941879E+03  0.39205928308E+03  0.91600541763E+02 0.  0.
          2    1    3    3  502    0  0.14538924209E+03  0.13022062175E+03  0.69229747672E+03  0.71928522737E+03  0.00000000000E+00 0. -1.
         -1    1    3    3    0  502  0.13668330168E+03  0.10923053825E+03  0.39819089148E+03  0.43493634190E+03  0.00000000000E+00 0.  1.
         13    1    5    5    0    0 -0.12514524348E+03 -0.96610250811E+02 -0.73485949362E+02  0.17434178295E+03  0.00000000000E+00 0. -1.
        -13    1    5    5    0    0 -0.33082590579E+03 -0.99627168066E+02 -0.21541573563E+03  0.40715511997E+03  0.00000000000E+00 0.  1.
          3    1    6    6  503    0  0.62765030084E+02  0.16099580990E+02  0.17922299601E+03  0.19057682915E+03  0.00000000000E+00 0. -1.
         -3    1    6    6    0  503  0.11113357541E+03 -0.59313322116E+02  0.15724642278E+03  0.20148245393E+03  0.00000000000E+00 0.  1.
<mgrwt>
<rscale>  0 0.17978505E+04</rscale>
<asrwt>0</asrwt>
<pdfrwt beam="1">  1        2 0.25121799E+00 0.17978505E+04</pdfrwt>
<pdfrwt beam="2">  1       -1 0.76132436E-01 0.17978505E+04</pdfrwt>
<totfact> 0.19919795E+01</totfact>
</mgrwt>
</event>
<event>
12    7  0.2466188E-007  0.3128453E+04  0.7818608E-02  0.8207972E-01
          2   -1    0    0  501    0  0.00000000000E+00  0.00000000000E+00  0.13729971859E+04  0.13729971859E+04  0.00000000000E+00 0. -1.
         -1   -1    0    0    0  501 -0.00000000000E+00 -0.00000000000E+00 -0.17820902311E+04  0.17820902311E+04  0.00000000000E+00 0.  1.
         24    2    1    2    0    0  0.13649488558E+04  0.40702411191E+03 -0.34948997570E+03  0.14687762323E+04  0.80039807091E+02 0.  0.
        254    2    1    2    0    0 -0.13649488558E+04 -0.40702411191E+03 -0.59603069464E+02  0.16863111847E+04  0.90074351463E+03 0.  0.
         23    2    4    4    0    0 -0.18141902762E+03 -0.39371937185E+03 -0.20976491295E+03  0.48997614747E+03  0.90263497799E+02 0.  0.
         23    2    4    4    0    0 -0.11835298282E+04 -0.13304740068E+02  0.15016184348E+03  0.11963350373E+04  0.88028812147E+02 0.  0.
          4    1    3    3  502    0  0.61342251883E+03  0.17178960105E+03 -0.19581626539E+03  0.66644044252E+03  0.00000000000E+00 0. -1.
         -3    1    3    3    0  502  0.75152633702E+03  0.23523451087E+03 -0.15367371031E+03  0.80233578979E+03  0.00000000000E+00 0.  1.
         13    1    5    5    0    0 -0.85334706411E+01 -0.10233284432E+03 -0.33242525150E+02  0.10793468685E+03  0.00000000000E+00 0.  1.
        -13    1    5    5    0    0 -0.17288555698E+03 -0.29138652753E+03 -0.17652238780E+03  0.38204146062E+03  0.00000000000E+00 0. -1.
          4    1    6    6  503    0 -0.86182518498E+03  0.27630515141E+02  0.12123068219E+03  0.87074851314E+03  0.00000000000E+00 0. -1.
         -4    1    6    6    0  503 -0.32170464325E+03 -0.40935255209E+02  0.28931161297E+02  0.32558652414E+03  0.00000000000E+00 0.  1.
<mgrwt>
<rscale>  0 0.31284532E+04</rscale>
<asrwt>0</asrwt>
<pdfrwt beam="1">  1        2 0.21123034E+00 0.31284532E+04</pdfrwt>
<pdfrwt beam="2">  1       -1 0.27416773E+00 0.31284532E+04</pdfrwt>
<totfact> 0.70232564E-01</totfact>
</mgrwt>
</event>
<event>
12    7  0.2466188E-007  0.2975407E+04  0.7818608E-02  0.8250789E-01
         -3   -1    0    0    0  501 -0.00000000000E+00  0.00000000000E+00  0.81752170727E+03  0.81752170727E+03  0.00000000000E+00 0.  1.
          2   -1    0    0  501    0  0.00000000000E+00 -0.00000000000E+00 -0.27072810683E+04  0.27072810683E+04  0.00000000000E+00 0. -1.
         24    2    1    2    0    0 -0.10062111503E+04  0.59655251179E+03 -0.16583101981E+04  0.20309619751E+04  0.80486351358E+02 0.  0.
        254    2    1    2    0    0  0.10062111503E+04 -0.59655251179E+03 -0.23144916287E+03  0.14938408004E+04  0.89980878177E+03 0.  0.
         23    2    4    4    0    0 -0.14872703278E+03 -0.74573897920E+02 -0.10381759226E+03  0.21655557569E+03  0.91854386763E+02 0.  0.
         23    2    4    4    0    0  0.11549381831E+04 -0.52197861387E+03 -0.12763157061E+03  0.12772852248E+04  0.93935336675E+02 0.  0.
          4    1    3    3  502    0 -0.73503505733E+03  0.41849891659E+03 -0.12540269512E+04  0.15126141190E+04  0.00000000000E+00 0. -1.
         -3    1    3    3    0  502 -0.27117609298E+03  0.17805359520E+03 -0.40428324694E+03  0.51834785610E+03  0.00000000000E+00 0.  1.
         13    1    5    5    0    0 -0.12804726783E+02  0.11389478192E+02  0.97106504910E+01  0.19697156506E+02  0.00000000000E+00 0.  1.
        -13    1    5    5    0    0 -0.13592230600E+03 -0.85963376111E+02 -0.11352824275E+03  0.19685841918E+03  0.00000000000E+00 0. -1.
          1    1    6    6  503    0  0.74507396152E+03 -0.28946838544E+03 -0.94595737352E+02  0.80490714237E+03  0.00000000000E+00 0. -1.
         -1    1    6    6    0  503  0.40986422156E+03 -0.23251022843E+03 -0.33035833257E+02  0.47237808239E+03  0.00000000000E+00 0.  1.
<mgrwt>
<rscale>  0 0.29754066E+04</rscale>
<asrwt>0</asrwt>
<pdfrwt beam="1">  1        2 0.41650478E+00 0.29754066E+04</pdfrwt>
<pdfrwt beam="2">  1       -3 0.12577257E+00 0.29754066E+04</pdfrwt>
<totfact> 0.72417204E-01</totfact>
</mgrwt>
</event>
<event>
12    7  0.2466188E-007  0.2495455E+04  0.7818608E-02  0.8404606E-01
         -1   -1    0    0    0  501 -0.00000000000E+00  0.00000000000E+00  0.10057689242E+04  0.10057689242E+04  0.00000000000E+00 0.  1.
          2   -1    0    0  501    0  0.00000000000E+00 -0.00000000000E+00 -0.15478944840E+04  0.15478944840E+04  0.00000000000E+00 0. -1.
         24    2    1    2    0    0  0.99440168275E+02  0.10234083817E+04  0.11575237404E+03  0.10376684059E+04  0.78128393017E+02 0.  0.
        254    2    1    2    0    0 -0.99440168275E+02 -0.10234083817E+04 -0.65787793379E+03  0.15159950022E+04  0.89899077207E+03 0.  0.
         23    2    4    4    0    0 -0.26001555911E+03  0.41533711269E+02 -0.18930526384E+03  0.33811332556E+03  0.95660848094E+02 0.  0.
         23    2    4    4    0    0  0.16057539083E+03 -0.10649420930E+04 -0.46857266995E+03  0.11778816767E+04  0.89211993076E+02 0.  0.
          4    1    3    3  502    0  0.23031972965E+02  0.45025830628E+03  0.17710812019E+02  0.45119473292E+03  0.00000000000E+00 0. -1.
         -3    1    3    3    0  502  0.76408195310E+02  0.57315007543E+03  0.98041562026E+02  0.58647367303E+03  0.00000000000E+00 0.  1.
         13    1    5    5    0    0 -0.66555791832E+01 -0.17837500585E+02 -0.20266250504E+02  0.27806367452E+02  0.00000000000E+00 0. -1.
        -13    1    5    5    0    0 -0.25335997993E+03  0.59371211854E+02 -0.16903901333E+03  0.31030695811E+03  0.00000000000E+00 0.  1.
          4    1    6    6  503    0 -0.30364652282E+01 -0.15549858025E+03 -0.86495037893E+02  0.17796185030E+03  0.00000000000E+00 0. -1.
         -4    1    6    6    0  503  0.16361185606E+03 -0.90944351272E+03 -0.38207763206E+03  0.99991982638E+03  0.00000000000E+00 0.  1.
<mgrwt>
<rscale>  0 0.24954552E+04</rscale>
<asrwt>0</asrwt>
<pdfrwt beam="1">  1        2 0.23813761E+00 0.24954552E+04</pdfrwt>
<pdfrwt beam="2">  1       -1 0.15473368E+00 0.24954552E+04</pdfrwt>
<totfact> 0.38865410E+00</totfact>
</mgrwt>
</event>
<event>
12    7  0.2466188E-007  0.2028267E+04  0.7818608E-02  0.8593518E-01
         -1   -1    0    0    0  501 -0.00000000000E+00  0.00000000000E+00  0.48053646429E+03  0.48053646429E+03  0.00000000000E+00 0.  1.
          2   -1    0    0  501    0  0.00000000000E+00 -0.00000000000E+00 -0.21402476520E+04  0.21402476520E+04  0.00000000000E+00 0. -1.
         24    2    1    2    0    0 -0.27893063182E+03 -0.56554530474E+03 -0.13296929254E+04  0.14737457040E+04  0.78735855431E+02 0.  0.
        254    2    1    2    0    0  0.27893063182E+03  0.56554530474E+03 -0.33001826226E+03  0.11470384123E+04  0.89952280505E+03 0.  0.
         23    2    4    4    0    0  0.50690825667E+03  0.64528312046E+03 -0.17811583010E+03  0.84449524688E+03  0.90003815697E+02 0.  0.
         23    2    4    4    0    0 -0.22797762485E+03 -0.79737815725E+02 -0.15190243216E+03  0.30254316543E+03  0.10062853157E+03 0.  0.
          2    1    3    3  502    0 -0.14315684271E+03 -0.31989157205E+03 -0.82285754781E+03  0.89438193378E+03  0.00000000000E+00 0. -1.
         -1    1    3    3    0  502 -0.13577378912E+03 -0.24565373269E+03 -0.50683537762E+03  0.57936377018E+03  0.00000000000E+00 0.  1.
         13    1    5    5    0    0  0.16112866304E+03  0.27055835082E+03 -0.85053687570E+02  0.32618767148E+03  0.00000000000E+00 0. -1.
        -13    1    5    5    0    0  0.34577959363E+03  0.37472476964E+03 -0.93062142533E+02  0.51830757541E+03  0.00000000000E+00 0.  1.
          3    1    6    6  503    0 -0.21934014864E+03 -0.71913126609E+02 -0.10387831120E+03  0.25312507209E+03  0.00000000000E+00 0. -1.
         -3    1    6    6    0  503 -0.86374762027E+01 -0.78246891161E+01 -0.48024120958E+02  0.49418093333E+02  0.00000000000E+00 0.  1.
<mgrwt>
<rscale>  0 0.20282673E+04</rscale>
<asrwt>0</asrwt>
<pdfrwt beam="1">  1        2 0.32926887E+00 0.20282673E+04</pdfrwt>
<pdfrwt beam="2">  1       -1 0.73928687E-01 0.20282673E+04</pdfrwt>
<totfact> 0.10846616E+01</totfact>
</mgrwt>
</event>
<event>
12    7  0.2466188E-007  0.1185481E+04  0.7818608E-02  0.9125661E-01
          2   -1    0    0  501    0  0.00000000000E+00  0.00000000000E+00  0.24375927823E+04  0.24375927823E+04  0.00000000000E+00 0. -1.
         -1   -1    0    0    0  501 -0.00000000000E+00 -0.00000000000E+00 -0.14413448277E+03  0.14413448277E+03  0.00000000000E+00 0.  1.
         24    2    1    2    0    0  0.19370311719E+03  0.23457131391E+02  0.18268218382E+03  0.27867966797E+03  0.78857101341E+02 0.  0.
        254    2    1    2    0    0 -0.19370311719E+03 -0.23457131391E+02  0.21107761157E+04  0.23030475971E+04  0.90032288055E+03 0.  0.
         23    2    4    4    0    0  0.16479798987E+03  0.31520538117E+03  0.12829712333E+04  0.13350808029E+04  0.99562819997E+02 0.  0.
         23    2    4    4    0    0 -0.35850110707E+03 -0.33866251256E+03  0.82780488245E+03  0.96796679419E+03  0.92105646281E+02 0.  0.
          4    1    3    3  502    0  0.10310165601E+03 -0.27190918995E+02  0.94793609256E+02  0.14267139133E+03  0.00000000000E+00 0. -1.
         -3    1    3    3    0  502  0.90601461186E+02  0.50648050386E+02  0.87888574560E+02  0.13600827664E+03  0.00000000000E+00 0.  1.
         13    1    5    5    0    0  0.13292475305E+03  0.14881886814E+03  0.72497255111E+03  0.75193167598E+03  0.00000000000E+00 0.  1.
        -13    1    5    5    0    0  0.31873236819E+02  0.16638651303E+03  0.55799868215E+03  0.58314912691E+03  0.00000000000E+00 0. -1.
          1    1    6    6  503    0 -0.23592185593E+03 -0.21763135080E+03  0.61906041692E+03  0.69732225459E+03  0.00000000000E+00 0. -1.
         -1    1    6    6    0  503 -0.12257925114E+03 -0.12103116176E+03  0.20874446553E+03  0.27064453960E+03  0.00000000000E+00 0.  1.
<mgrwt>
<rscale>  0 0.11854808E+04</rscale>
<asrwt>0</asrwt>
<pdfrwt beam="1">  1        2 0.37501424E+00 0.11854808E+04</pdfrwt>
<pdfrwt beam="2">  1       -1 0.22174538E-01 0.11854808E+04</pdfrwt>
<totfact> 0.73572493E+01</totfact>
</mgrwt>
</event>
<event>
12    7  0.2466188E-007  0.3160839E+04  0.7818608E-02  0.8199237E-01
         -1   -1    0    0    0  501 -0.00000000000E+00  0.00000000000E+00  0.72440711722E+03  0.72440711722E+03  0.00000000000E+00 0.  1.
          2   -1    0    0  501    0  0.00000000000E+00 -0.00000000000E+00 -0.34479579947E+04  0.34479579947E+04  0.00000000000E+00 0. -1.
         24    2    1    2    0    0  0.14088358486E+04  0.34715346757E+03 -0.12424591864E+04  0.19118928908E+04  0.79344927534E+02 0.  0.
        254    2    1    2    0    0 -0.14088358486E+04 -0.34715346757E+03 -0.14810916910E+04  0.22604722211E+04  0.90042661382E+03 0.  0.
         23    2    4    4    0    0 -0.14947049923E+04 -0.27012812736E+03 -0.14647877165E+04  0.21121829284E+04  0.92743999608E+02 0.  0.
         23    2    4    4    0    0  0.85869143676E+02 -0.77025340206E+02 -0.16303974550E+02  0.14828929274E+03  0.91746835842E+02 0.  0.
          2    1    3    3  502    0  0.73949140344E+03  0.21712923026E+03 -0.68613317957E+03  0.10318775986E+04  0.00000000000E+00 0. -1.
         -1    1    3    3    0  502  0.66934444515E+03  0.13002423730E+03 -0.55632600687E+03  0.88001529217E+03  0.00000000000E+00 0.  1.
         13    1    5    5    0    0 -0.92584431810E+03 -0.21293456486E+03 -0.91237282765E+03  0.13171761488E+04  0.00000000000E+00 0. -1.
        -13    1    5    5    0    0 -0.56886067416E+03 -0.57193562500E+02 -0.55241488880E+03  0.79500677958E+03  0.00000000000E+00 0.  1.
          3    1    6    6  503    0  0.54217336602E+02  0.93944433507E+01 -0.13004768809E+01  0.55040588607E+02  0.00000000000E+00 0. -1.
         -3    1    6    6    0  503  0.31651807074E+02 -0.86419783556E+02 -0.15003497669E+02  0.93248704137E+02  0.00000000000E+00 0.  1.
<mgrwt>
<rscale>  0 0.31608387E+04</rscale>
<asrwt>0</asrwt>
<pdfrwt beam="1">  1        2 0.53045507E+00 0.31608387E+04</pdfrwt>
<pdfrwt beam="2">  1       -1 0.11144725E+00 0.31608387E+04</pdfrwt>
<totfact> 0.62656624E-01</totfact>
</mgrwt>
</event>
<event>
12    7  0.2466188E-007  0.1865519E+04  0.7818608E-02  0.8672212E-01
          2   -1    0    0  501    0  0.00000000000E+00  0.00000000000E+00  0.55641763095E+03  0.55641763095E+03  0.00000000000E+00 0. -1.
         -1   -1    0    0    0  501 -0.00000000000E+00 -0.00000000000E+00 -0.15636468550E+04  0.15636468550E+04  0.00000000000E+00 0.  1.
         24    2    1    2    0    0  0.52985145801E+03 -0.21437339500E+03 -0.87740756392E+03  0.10500899479E+04  0.78398631512E+02 0.  0.
        254    2    1    2    0    0 -0.52985145801E+03  0.21437339500E+03 -0.12982166012E+03  0.10699745380E+04  0.89514989169E+03 0.  0.
         23    2    4    4    0    0 -0.35179040431E+03 -0.18116142307E+03  0.25780584220E+03  0.48096383278E+03  0.91029700621E+02 0.  0.
         23    2    4    4    0    0 -0.17806105370E+03  0.39553481807E+03 -0.38762750232E+03  0.58901070527E+03  0.92330922324E+02 0.  0.
          4    1    3    3  502    0  0.31331919661E+03 -0.12622762549E+03 -0.58723028243E+03  0.67745238726E+03  0.00000000000E+00 0. -1.
         -3    1    3    3    0  502  0.21653226139E+03 -0.88145769505E+02 -0.29017728149E+03  0.37263756064E+03  0.00000000000E+00 0.  1.
         13    1    5    5    0    0 -0.13051656289E+03 -0.11459541055E+03  0.91873899649E+02  0.19648789974E+03  0.00000000000E+00 0. -1.
        -13    1    5    5    0    0 -0.22127384142E+03 -0.66566012524E+02  0.16593194255E+03  0.28447593304E+03  0.00000000000E+00 0.  1.
          4    1    6    6  503    0 -0.85872808359E+02  0.17763770513E+03 -0.11636053193E+03  0.22906127323E+03  0.00000000000E+00 0. -1.
         -4    1    6    6    0  503 -0.92188245336E+02  0.21789711294E+03 -0.27126697039E+03  0.35994943204E+03  0.00000000000E+00 0.  1.
<mgrwt>
<rscale>  0 0.18655194E+04</rscale>
<asrwt>0</asrwt>
<pdfrwt beam="1">  1        2 0.85602714E-01 0.18655194E+04</pdfrwt>
<pdfrwt beam="2">  1       -1 0.24056105E+00 0.18655194E+04</pdfrwt>
<totfact> 0.46826918E+00</totfact>
</mgrwt>
</event>
<event>
12    7  0.2466188E-007  0.1533336E+04  0.7818608E-02  0.8862583E-01
          2   -1    0    0  501    0  0.00000000000E+00  0.00000000000E+00  0.12226861162E+04  0.12226861162E+04  0.00000000000E+00 0. -1.
         -1   -1    0    0    0  501 -0.00000000000E+00 -0.00000000000E+00 -0.48072812145E+03  0.48072812145E+03  0.00000000000E+00 0.  1.
         24    2    1    2    0    0 -0.46560588350E+03  0.17439522840E+03  0.24910189992E+03  0.56186769026E+03  0.80255905583E+02 0.  0.
        254    2    1    2    0    0  0.46560588350E+03 -0.17439522840E+03  0.49285609487E+03  0.11415465474E+04  0.90167558206E+03 0.  0.
         23    2    4    4    0    0  0.39109234624E+03 -0.49450333580E+03  0.14215991473E+03  0.65285591851E+03  0.92328958488E+02 0.  0.
         23    2    4    4    0    0  0.74513537259E+02  0.32010810741E+03  0.35069618014E+03  0.48869062892E+03  0.88369974384E+02 0.  0.
          2    1    3    3  502    0 -0.24902973314E+03  0.98726586816E+02  0.17821804590E+03  0.32175210771E+03  0.00000000000E+00 0. -1.
         -1    1    3    3    0  502 -0.21657615036E+03  0.75668641580E+02  0.70883854017E+02  0.24011558255E+03  0.00000000000E+00 0.  1.
         13    1    5    5    0    0  0.39363158811E+03 -0.48560804779E+03  0.13158875723E+03  0.63880873841E+03  0.00000000000E+00 0. -1.
        -13    1    5    5    0    0 -0.25392418674E+01 -0.88952880101E+01  0.10571157501E+02  0.14047180107E+02  0.00000000000E+00 0.  1.
          3    1    6    6  503    0  0.93034138412E+02  0.29364952800E+03  0.31643899678E+03  0.44160959556E+03  0.00000000000E+00 0. -1.
         -3    1    6    6    0  503 -0.18520601153E+02  0.26458579401E+02  0.34257183359E+02  0.47081033364E+02  0.00000000000E+00 0.  1.
<mgrwt>
<rscale>  0 0.15333357E+04</rscale>
<asrwt>0</asrwt>
<pdfrwt beam="1">  1        2 0.18810556E+00 0.15333357E+04</pdfrwt>
<pdfrwt beam="2">  1       -1 0.73958173E-01 0.15333357E+04</pdfrwt>
<totfact> 0.37145128E+01</totfact>
</mgrwt>
</event>
<event>
12    7  0.2466188E-007  0.2386032E+04  0.7818608E-02  0.8444751E-01
          2   -1    0    0  501    0  0.00000000000E+00  0.00000000000E+00  0.34366379765E+04  0.34366379765E+04  0.00000000000E+00 0. -1.
         -1   -1    0    0    0  501 -0.00000000000E+00 -0.00000000000E+00 -0.41415108716E+03  0.41415108716E+03  0.00000000000E+00 0.  1.
         24    2    1    2    0    0  0.20221515275E+03 -0.12787986905E+03 -0.30482233548E+03  0.39622805929E+03  0.82678835618E+02 0.  0.
        254    2    1    2    0    0 -0.20221515275E+03  0.12787986905E+03  0.33273092249E+04  0.34545610044E+04  0.89764181408E+03 0.  0.
         23    2    4    4    0    0 -0.46725251324E+03  0.15573801629E+03  0.28961365789E+04  0.29391596741E+04  0.92050340810E+02 0.  0.
         23    2    4    4    0    0  0.26503736050E+03 -0.27858147243E+02  0.43117264591E+03  0.51540133027E+03  0.93315603407E+02 0.  0.
          4    1    3    3  502    0  0.32709398885E+02  0.91965051636E+01 -0.29080061868E+02  0.44722818347E+02  0.00000000000E+00 0. -1.
         -1    1    3    3    0  502  0.16950575386E+03 -0.13707637421E+03 -0.27574227361E+03  0.35150524095E+03  0.00000000000E+00 0.  1.
         13    1    5    5    0    0 -0.25135588671E+03  0.90794356244E+02  0.18330493956E+04  0.18524290765E+04  0.00000000000E+00 0. -1.
        -13    1    5    5    0    0 -0.21589662653E+03  0.64943660045E+02  0.10630871834E+04  0.10867305976E+04  0.00000000000E+00 0.  1.
          3    1    6    6  503    0  0.18804876385E+03 -0.29751402098E+02  0.22175200746E+03  0.29226945842E+03  0.00000000000E+00 0. -1.
         -3    1    6    6    0  503  0.76988596643E+02  0.18932548554E+01  0.20942063845E+03  0.22313187185E+03  0.00000000000E+00 0.  1.
<mgrwt>
<rscale>  0 0.23860321E+04</rscale>
<asrwt>0</asrwt>
<pdfrwt beam="1">  1        2 0.52871352E+00 0.23860321E+04</pdfrwt>
<pdfrwt beam="2">  1       -1 0.63715554E-01 0.23860321E+04</pdfrwt>
<totfact> 0.23058909E+00</totfact>
</mgrwt>
</event>
<event>
12    7  0.2466188E-007  0.1578008E+04  0.7818608E-02  0.8834174E-01
         -1   -1    0    0    0  501 -0.00000000000E+00  0.00000000000E+00  0.58516560993E+03  0.58516560993E+03  0.00000000000E+00 0.  1.
          2   -1    0    0  501    0  0.00000000000E+00 -0.00000000000E+00 -0.10638482141E+04  0.10638482141E+04  0.00000000000E+00 0. -1.
         24    2    1    2    0    0 -0.17469598022E+03  0.49890453775E+03 -0.17636044703E+03  0.56295783266E+03  0.79963058811E+02 0.  0.
        254    2    1    2    0    0  0.17469598022E+03 -0.49890453775E+03 -0.30232215716E+03  0.10860559914E+04  0.89927443332E+03 0.  0.
         23    2    4    4    0    0  0.19091799976E+02 -0.24031833558E+03  0.30701167028E+03  0.40087965957E+03  0.91273964128E+02 0.  0.
         23    2    4    4    0    0  0.15560418025E+03 -0.25858620217E+03 -0.60933382744E+03  0.68517633182E+03  0.84257982164E+02 0.  0.
          2    1    3    3  502    0 -0.30982500793E+02  0.17464564297E+03 -0.33078713678E+02  0.18043064391E+03  0.00000000000E+00 0. -1.
         -1    1    3    3    0  502 -0.14371347943E+03  0.32425889479E+03 -0.14328173335E+03  0.38252718875E+03  0.00000000000E+00 0.  1.
         13    1    5    5    0    0 -0.13854462489E+02 -0.14519316774E+03  0.12156626749E+03  0.18987195549E+03  0.00000000000E+00 0. -1.
        -13    1    5    5    0    0  0.32946262465E+02 -0.95125167838E+02  0.18544540278E+03  0.21100770408E+03  0.00000000000E+00 0.  1.
          1    1    6    6  503    0  0.65902504501E+02 -0.40765938468E+02 -0.13869508563E+03  0.15887519824E+03  0.00000000000E+00 0. -1.
         -1    1    6    6    0  503  0.89701675746E+02 -0.21782026371E+03 -0.47063874181E+03  0.52630113358E+03  0.00000000000E+00 0.  1.
<mgrwt>
<rscale>  0 0.15780081E+04</rscale>
<asrwt>0</asrwt>
<pdfrwt beam="1">  1        2 0.16366895E+00 0.15780081E+04</pdfrwt>
<pdfrwt beam="2">  1       -1 0.90025480E-01 0.15780081E+04</pdfrwt>
<totfact> 0.30354386E+01</totfact>
</mgrwt>
</event>
<event>
12    7  0.2466188E-007  0.2703688E+04  0.7818608E-02  0.8333809E-01
          2   -1    0    0  501    0  0.00000000000E+00  0.00000000000E+00  0.20792297514E+04  0.20792297514E+04  0.00000000000E+00 0. -1.
         -1   -1    0    0    0  501 -0.00000000000E+00 -0.00000000000E+00 -0.87892253655E+03  0.87892253655E+03  0.00000000000E+00 0.  1.
         24    2    1    2    0    0 -0.76256625340E+03  0.64728749854E+03 -0.19584372266E+03  0.10219787559E+04  0.74815889182E+02 0.  0.
        254    2    1    2    0    0  0.76256625340E+03 -0.64728749854E+03  0.13961509375E+04  0.19361735320E+04  0.89389155336E+03 0.  0.
         23    2    4    4    0    0 -0.29360856829E+02 -0.30872847716E+03  0.38482170637E+02  0.32579541197E+03  0.92121878395E+02 0.  0.
         23    2    4    4    0    0  0.79192711023E+03 -0.33855902139E+03  0.13576687669E+04  0.16103781200E+04  0.91007967353E+02 0.  0.
          4    1    3    3  502    0 -0.47565015734E+03  0.40152223299E+03 -0.84819921959E+02  0.62821779259E+03  0.00000000000E+00 0. -1.
         -3    1    3    3    0  502 -0.28691609606E+03  0.24576526555E+03 -0.11102380070E+03  0.39376096334E+03  0.00000000000E+00 0.  1.
         13    1    5    5    0    0 -0.36480845820E+02 -0.91424693133E+02  0.45099919804E+02  0.10827432472E+03  0.00000000000E+00 0. -1.
        -13    1    5    5    0    0  0.71199889904E+01 -0.21730378402E+03 -0.66177491669E+01  0.21752108725E+03  0.00000000000E+00 0.  1.
          4    1    6    6  503    0  0.55707934534E+03 -0.22353570441E+03  0.10167773080E+04  0.11807377788E+04  0.00000000000E+00 0.  1.
         -4    1    6    6    0  503  0.23484776489E+03 -0.11502331698E+03  0.34089145883E+03  0.42964034125E+03  0.00000000000E+00 0. -1.
<mgrwt>
<rscale>  0 0.27036878E+04</rscale>
<asrwt>0</asrwt>
<pdfrwt beam="1">  1        2 0.31988150E+00 0.27036878E+04</pdfrwt>
<pdfrwt beam="2">  1       -1 0.13521885E+00 0.27036878E+04</pdfrwt>
<totfact> 0.27618208E+00</totfact>
</mgrwt>
</event>
<event>
12    7  0.2466188E-007  0.1957976E+04  0.7818608E-02  0.8626524E-01
          2   -1    0    0  501    0  0.00000000000E+00  0.00000000000E+00  0.34841938618E+04  0.34841938618E+04  0.00000000000E+00 0. -1.
         -1   -1    0    0    0  501 -0.00000000000E+00 -0.00000000000E+00 -0.27507590410E+03  0.27507590410E+03  0.00000000000E+00 0.  1.
         24    2    1    2    0    0 -0.50283928786E+03  0.46730066040E+03  0.19729654016E+04  0.20904580369E+04  0.78772274625E+02 0.  0.
        254    2    1    2    0    0  0.50283928786E+03 -0.46730066040E+03  0.12361525561E+04  0.16688117290E+04  0.88636459116E+03 0.  0.
         23    2    4    4    0    0  0.17054445611E+03  0.24172750443E+03  0.51212541070E+03  0.59851021943E+03  0.91784794862E+02 0.  0.
         23    2    4    4    0    0  0.33229483175E+03 -0.70902816483E+03  0.72402714537E+03  0.10703015096E+04  0.90494311930E+02 0.  0.
          4    1    3    3  502    0 -0.22172898074E+03  0.25249460750E+03  0.10211666363E+04  0.10750342166E+04  0.00000000000E+00 0. -1.
         -3    1    3    3    0  502 -0.28111030712E+03  0.21480605290E+03  0.95179876530E+03  0.10154238203E+04  0.00000000000E+00 0.  1.
         13    1    5    5    0    0  0.15624318594E+03  0.15269790717E+03  0.33875475077E+03  0.40309225393E+03  0.00000000000E+00 0.  1.
        -13    1    5    5    0    0  0.14301270176E+02  0.89029597260E+02  0.17337065994E+03  0.19541796551E+03  0.00000000000E+00 0. -1.
          3    1    6    6  503    0  0.13162187707E+03 -0.20585012576E+03  0.26277147325E+03  0.35881393501E+03  0.00000000000E+00 0. -1.
         -3    1    6    6    0  503  0.20067295468E+03 -0.50317803908E+03  0.46125567212E+03  0.71148757460E+03  0.00000000000E+00 0.  1.
<mgrwt>
<rscale>  0 0.19579763E+04</rscale>
<asrwt>0</asrwt>
<pdfrwt beam="1">  1        2 0.53602979E+00 0.19579763E+04</pdfrwt>
<pdfrwt beam="2">  1       -1 0.42319372E-01 0.19579763E+04</pdfrwt>
<totfact> 0.48874335E+00</totfact>
</mgrwt>
</event>
<event>
12    7  0.2466188E-007  0.1712316E+04  0.7818608E-02  0.8754371E-01
          2   -1    0    0  501    0  0.00000000000E+00  0.00000000000E+00  0.11302739290E+04  0.11302739290E+04  0.00000000000E+00 0. -1.
         -1   -1    0    0    0  501 -0.00000000000E+00 -0.00000000000E+00 -0.64852133626E+03  0.64852133626E+03  0.00000000000E+00 0.  1.
         24    2    1    2    0    0 -0.26062914169E+03  0.49124336180E+03  0.45043416468E+03  0.72031950652E+03  0.81985759442E+02 0.  0.
        254    2    1    2    0    0  0.26062914169E+03 -0.49124336180E+03  0.31318428013E+02  0.10584757587E+04  0.90007916198E+03 0.  0.
         23    2    4    4    0    0  0.40408740130E+03 -0.68385783617E+03  0.56355196394E+01  0.80015775607E+03  0.96293860338E+02 0.  0.
         23    2    4    4    0    0 -0.14345825961E+03  0.19261447437E+03  0.25682908374E+02  0.25831800264E+03  0.91585865255E+02 0.  0.
          2    1    3    3  502    0 -0.24750352707E+03  0.43062536077E+03  0.42340817302E+03  0.65266429214E+03  0.00000000000E+00 0. -1.
         -1    1    3    3    0  502 -0.13125614617E+02  0.60618001027E+02  0.27025991661E+02  0.67655214380E+02  0.00000000000E+00 0.  1.
         13    1    5    5    0    0  0.98535555578E+02 -0.24375711044E+03  0.24468448725E+02  0.26405584558E+03  0.00000000000E+00 0. -1.
        -13    1    5    5    0    0  0.30555184572E+03 -0.44010072573E+03 -0.18832929086E+02  0.53610191049E+03  0.00000000000E+00 0.  1.
          1    1    6    6  503    0  0.46292923572E+01  0.40573690859E+02 -0.12419666911E+02  0.42683754097E+02  0.00000000000E+00 0. -1.
         -1    1    6    6    0  503 -0.14808755197E+03  0.15204078351E+03  0.38102575285E+02  0.21563424854E+03  0.00000000000E+00 0.  1.
<mgrwt>
<rscale>  0 0.17123163E+04</rscale>
<asrwt>0</asrwt>
<pdfrwt beam="1">  1        2 0.17388830E+00 0.17123163E+04</pdfrwt>
<pdfrwt beam="2">  1       -1 0.99772513E-01 0.17123163E+04</pdfrwt>
<totfact> 0.21684640E+01</totfact>
</mgrwt>
</event>
<event>
12    7  0.2466188E-007  0.1756010E+04  0.7818608E-02  0.8730049E-01
         -1   -1    0    0    0  501 -0.00000000000E+00  0.00000000000E+00  0.91127460356E+03  0.91127460356E+03  0.00000000000E+00 0.  1.
          2   -1    0    0  501    0  0.00000000000E+00 -0.00000000000E+00 -0.84595038846E+03  0.84595038846E+03  0.00000000000E+00 0. -1.
         24    2    1    2    0    0 -0.59041086979E+03  0.17661945997E+03 -0.16180049297E+03  0.64197881238E+03  0.78600045849E+02 0.  0.
        254    2    1    2    0    0  0.59041086979E+03 -0.17661945997E+03  0.22712470806E+03  0.11152461796E+04  0.90133732830E+03 0.  0.
         23    2    4    4    0    0  0.44291258209E+03  0.27764456008E+03 -0.84752229682E+02  0.53746724334E+03  0.91815249874E+02 0.  0.
         23    2    4    4    0    0  0.14749828770E+03 -0.45426402005E+03  0.31187693774E+03  0.57777893630E+03  0.91922413737E+02 0.  0.
          4    1    3    3  502    0 -0.31052580259E+03  0.87390320671E+02 -0.12482398432E+03  0.34589647191E+03  0.00000000000E+00 0. -1.
         -3    1    3    3    0  502 -0.27988506720E+03  0.89229139300E+02 -0.36976508652E+02  0.29608234046E+03  0.00000000000E+00 0.  1.
         13    1    5    5    0    0  0.23729309824E+03  0.17203207489E+03 -0.56364977371E+01  0.29314641286E+03  0.00000000000E+00 0.  1.
        -13    1    5    5    0    0  0.20561948385E+03  0.10561248520E+03 -0.79115731945E+02  0.24432083048E+03  0.00000000000E+00 0. -1.
          1    1    6    6  503    0  0.87042656472E+02 -0.32983149322E+03  0.26413675546E+03  0.43143187591E+03  0.00000000000E+00 0. -1.
         -1    1    6    6    0  503  0.60455631228E+02 -0.12443252683E+03  0.47740182288E+02  0.14634706039E+03  0.00000000000E+00 0.  1.
<mgrwt>
<rscale>  0 0.17560104E+04</rscale>
<asrwt>0</asrwt>
<pdfrwt beam="1">  1        2 0.13014621E+00 0.17560104E+04</pdfrwt>
<pdfrwt beam="2">  1       -1 0.14019609E+00 0.17560104E+04</pdfrwt>
<totfact> 0.14428144E+01</totfact>
</mgrwt>
</event>
<event>
12    7  0.2466188E-007  0.1393809E+04  0.7818608E-02  0.8958312E-01
         -1   -1    0    0    0  501 -0.00000000000E+00  0.00000000000E+00  0.53124887025E+03  0.53124887025E+03  0.00000000000E+00 0.  1.
          2   -1    0    0  501    0  0.00000000000E+00 -0.00000000000E+00 -0.91421598564E+03  0.91421598564E+03  0.00000000000E+00 0. -1.
         24    2    1    2    0    0  0.32066964297E+03  0.84326100351E+02 -0.34563944058E+03  0.48562168895E+03  0.80136700521E+02 0.  0.
        254    2    1    2    0    0 -0.32066964297E+03 -0.84326100351E+02 -0.37327674807E+02  0.95984316694E+03  0.89998091018E+03 0.  0.
         23    2    4    4    0    0  0.11608249709E+03 -0.23380963005E+03  0.27836624006E+03  0.39338394910E+03  0.95504337987E+02 0.  0.
         23    2    4    4    0    0 -0.43675214006E+03  0.14948352970E+03 -0.31569391486E+03  0.56645921783E+03  0.90086847469E+02 0.  0.
          2    1    3    3  502    0  0.18530218096E+03  0.89206814945E+02 -0.20981202229E+03  0.29379557314E+03  0.00000000000E+00 0. -1.
         -1    1    3    3    0  502  0.13536746200E+03 -0.48807145943E+01 -0.13582741829E+03  0.19182611580E+03  0.00000000000E+00 0.  1.
         13    1    5    5    0    0  0.73630339578E+02 -0.69538604345E+02  0.63234351822E+02  0.11939693317E+03  0.00000000000E+00 0. -1.
        -13    1    5    5    0    0  0.42452157513E+02 -0.16427102571E+03  0.21513188823E+03  0.27398701593E+03  0.00000000000E+00 0.  1.
          2    1    6    6  503    0 -0.36652763102E+03  0.88777465394E+02 -0.26226435210E+03  0.45935447428E+03  0.00000000000E+00 0. -1.
         -2    1    6    6    0  503 -0.70224509041E+02  0.60706064305E+02 -0.53429562766E+02  0.10710474355E+03  0.00000000000E+00 0.  1.
<mgrwt>
<rscale>  0 0.13938095E+04</rscale>
<asrwt>0</asrwt>
<pdfrwt beam="1">  1        2 0.14064861E+00 0.13938095E+04</pdfrwt>
<pdfrwt beam="2">  1       -1 0.81730597E-01 0.13938095E+04</pdfrwt>
<totfact> 0.47506336E+01</totfact>
</mgrwt>
</event>
<event>
12    7  0.2466188E-007  0.3281568E+04  0.7818608E-02  0.8167601E-01
          2   -1    0    0  501    0  0.00000000000E+00  0.00000000000E+00  0.32626689452E+04  0.32626689452E+04  0.00000000000E+00 0. -1.
         -1   -1    0    0    0  501 -0.00000000000E+00 -0.00000000000E+00 -0.82514390784E+03  0.82514390784E+03  0.00000000000E+00 0.  1.
         24    2    1    2    0    0 -0.12825099117E+04  0.40066187905E+03  0.25261985087E+03  0.13695396689E+04  0.80377240031E+02 0.  0.
        254    2    1    2    0    0  0.12825099117E+04 -0.40066187905E+03  0.21849051864E+04  0.27182731841E+04  0.89990933690E+03 0.  0.
         23    2    4    4    0    0  0.12202167439E+04 -0.47301186447E+03  0.13875295051E+04  0.19095471732E+04  0.91995397560E+02 0.  0.
         23    2    4    4    0    0  0.62293167765E+02  0.72349985412E+02  0.79737568138E+03  0.80872601088E+03  0.95471588874E+02 0.  0.
          4    1    3    3  502    0 -0.91016263884E+03  0.31609174746E+03  0.20106310209E+03  0.98424407185E+03  0.00000000000E+00 0. -1.
         -3    1    3    3    0  502 -0.37234727286E+03  0.84570131592E+02  0.51556748783E+02  0.38529559705E+03  0.00000000000E+00 0.  1.
         13    1    5    5    0    0  0.80403490268E+03 -0.26491542918E+03  0.88675892115E+03  0.12259664325E+04  0.00000000000E+00 0. -1.
        -13    1    5    5    0    0  0.41618184125E+03 -0.20809643529E+03  0.50077058391E+03  0.68358074072E+03  0.00000000000E+00 0.  1.
          1    1    6    6  503    0  0.10835601036E+02  0.36906472915E+02  0.60990829060E+03  0.61111997262E+03  0.00000000000E+00 0. -1.
         -1    1    6    6    0  503  0.51457566729E+02  0.35443512498E+02  0.18746739079E+03  0.19760603827E+03  0.00000000000E+00 0.  1.
<mgrwt>
<rscale>  0 0.32815676E+04</rscale>
<asrwt>0</asrwt>
<pdfrwt beam="1">  1        2 0.50194906E+00 0.32815676E+04</pdfrwt>
<pdfrwt beam="2">  1       -1 0.12694522E+00 0.32815676E+04</pdfrwt>
<totfact> 0.60253392E-01</totfact>
</mgrwt>
</event>
<event>
12    7  0.2466188E-007  0.1317914E+04  0.7818608E-02  0.9015478E-01
          2   -1    0    0  501    0  0.00000000000E+00  0.00000000000E+00  0.56482195895E+03  0.56482195895E+03  0.00000000000E+00 0. -1.
         -1   -1    0    0    0  501 -0.00000000000E+00 -0.00000000000E+00 -0.76878139189E+03  0.76878139189E+03  0.00000000000E+00 0.  1.
         24    2    1    2    0    0  0.13081341488E+03  0.24252677584E+03  0.15665656170E+03  0.32724460046E+03  0.81341033277E+02 0.  0.
        254    2    1    2    0    0 -0.13081341488E+03 -0.24252677584E+03 -0.36061599464E+03  0.10063587504E+04  0.89821080619E+03 0.  0.
         23    2    4    4    0    0  0.10541605395E+03  0.70655714981E+02 -0.54178498085E+03  0.56374456520E+03  0.90400192650E+02 0.  0.
         23    2    4    4    0    0 -0.23622946882E+03 -0.31318249082E+03  0.18116898621E+03  0.44261418518E+03  0.95903497655E+02 0.  0.
          2    1    3    3  502    0  0.67920992244E+02  0.13928680484E+03  0.13267256359E+03  0.20400020666E+03  0.00000000000E+00 0. -1.
         -1    1    3    3    0  502  0.62892422633E+02  0.10323997100E+03  0.23983998114E+02  0.12324439379E+03  0.00000000000E+00 0.  1.
         13    1    5    5    0    0  0.29739211345E+02  0.27967636955E+02 -0.50995216841E+02  0.65323208348E+02  0.00000000000E+00 0. -1.
        -13    1    5    5    0    0  0.75676842600E+02  0.42688078025E+02 -0.49078976401E+03  0.49842135685E+03  0.00000000000E+00 0.  1.
          1    1    6    6  503    0 -0.90726560885E+02 -0.17604198144E+03  0.52645762813E+02  0.20492355751E+03  0.00000000000E+00 0. -1.
         -1    1    6    6    0  503 -0.14550290794E+03 -0.13714050938E+03  0.12852322340E+03  0.23769062767E+03  0.00000000000E+00 0.  1.
<mgrwt>
<rscale>  0 0.13179144E+04</rscale>
<asrwt>0</asrwt>
<pdfrwt beam="1">  1        2 0.86895686E-01 0.13179144E+04</pdfrwt>
<pdfrwt beam="2">  1       -1 0.11827406E+00 0.13179144E+04</pdfrwt>
<totfact> 0.38296939E+01</totfact>
</mgrwt>
</event>
<event>
12    7  0.2466188E-007  0.2101129E+04  0.7818608E-02  0.8560746E-01
         -1   -1    0    0    0  501 -0.00000000000E+00  0.00000000000E+00  0.14315581668E+04  0.14315581668E+04  0.00000000000E+00 0.  1.
          2   -1    0    0  501    0  0.00000000000E+00 -0.00000000000E+00 -0.77096838017E+03  0.77096838017E+03  0.00000000000E+00 0. -1.
         24    2    1    2    0    0 -0.98208327655E+01 -0.76267242006E+03 -0.13479713941E+03  0.77883075651E+03  0.81494842925E+02 0.  0.
        254    2    1    2    0    0  0.98208327655E+01  0.76267242006E+03  0.79538692603E+03  0.14236957904E+04  0.90138985603E+03 0.  0.
         23    2    4    4    0    0 -0.39180534096E+03  0.62949688793E+03  0.53781668531E+03  0.92065555384E+03  0.92639649707E+02 0.  0.
         23    2    4    4    0    0  0.40162617372E+03  0.13317553213E+03  0.25757024071E+03  0.50304023660E+03  0.87565660885E+02 0.  0.
          4    1    3    3  502    0  0.22967869155E+02 -0.20301676668E+03 -0.61980504524E+02  0.21350623763E+03  0.00000000000E+00 0. -1.
         -3    1    3    3    0  502 -0.32788701920E+02 -0.55965565338E+03 -0.72816634889E+02  0.56532451888E+03  0.00000000000E+00 0.  1.
         13    1    5    5    0    0 -0.37644739437E+03  0.58725261344E+03  0.52747170292E+03  0.87453111442E+03  0.00000000000E+00 0. -1.
        -13    1    5    5    0    0 -0.15357946585E+02  0.42244274487E+02  0.10344982398E+02  0.46124439412E+02  0.00000000000E+00 0.  1.
          1    1    6    6  503    0  0.31765578345E+03  0.14097502555E+03  0.21371574783E+03  0.40798722463E+03  0.00000000000E+00 0. -1.
         -1    1    6    6    0  503  0.83970390270E+02 -0.77994934216E+01  0.43854492880E+02  0.95053011975E+02  0.00000000000E+00 0.  1.
<mgrwt>
<rscale>  0 0.21011293E+04</rscale>
<asrwt>0</asrwt>
<pdfrwt beam="1">  1        2 0.11861052E+00 0.21011293E+04</pdfrwt>
<pdfrwt beam="2">  1       -1 0.22023972E+00 0.21011293E+04</pdfrwt>
<totfact> 0.41702733E+00</totfact>
</mgrwt>
</event>
<event>
12    7  0.2466188E-007  0.1243068E+04  0.7818608E-02  0.9075973E-01
          2   -1    0    0  501    0  0.00000000000E+00  0.00000000000E+00  0.43276378323E+03  0.43276378323E+03  0.00000000000E+00 0. -1.
         -1   -1    0    0    0  501 -0.00000000000E+00 -0.00000000000E+00 -0.89264462014E+03  0.89264462014E+03  0.00000000000E+00 0.  1.
         24    2    1    2    0    0 -0.88420810760E+02  0.27331128443E+03 -0.10966924471E+03  0.31795364715E+03  0.80931332195E+02 0.  0.
        254    2    1    2    0    0  0.88420810760E+02 -0.27331128443E+03 -0.35021159220E+03  0.10074547562E+04  0.89988867565E+03 0.  0.
         23    2    4    4    0    0 -0.33135212078E+03 -0.35286284542E+03 -0.27374388801E+03  0.56371471953E+03  0.92369654998E+02 0.  0.
         23    2    4    4    0    0  0.41977293154E+03  0.79551560996E+02 -0.76467704191E+02  0.44374003670E+03  0.92304634097E+02 0.  0.
          2    1    3    3  502    0  0.86002746110E+01  0.91212582697E+02 -0.25370022311E+02  0.95064914652E+02  0.00000000000E+00 0. -1.
         -1    1    3    3    0  502 -0.97021085371E+02  0.18209870173E+03 -0.84299222395E+02  0.22288873250E+03  0.00000000000E+00 0.  1.
         13    1    5    5    0    0 -0.27503601797E+03 -0.32947056593E+03 -0.25790509839E+03  0.50071020038E+03  0.00000000000E+00 0. -1.
        -13    1    5    5    0    0 -0.56316102813E+02 -0.23392279496E+02 -0.15838789617E+02  0.63004519144E+02  0.00000000000E+00 0.  1.
          2    1    6    6  503    0  0.32428097988E+03  0.36434628755E+02 -0.88941761528E+02  0.33822518095E+03  0.00000000000E+00 0.  1.
         -2    1    6    6    0  503  0.95491951657E+02  0.43116932240E+02  0.12474057337E+02  0.10551485575E+03  0.00000000000E+00 0. -1.
<mgrwt>
<rscale>  0 0.12430676E+04</rscale>
<asrwt>0</asrwt>
<pdfrwt beam="1">  1        2 0.66579045E-01 0.12430676E+04</pdfrwt>
<pdfrwt beam="2">  1       -1 0.13732994E+00 0.12430676E+04</pdfrwt>
<totfact> 0.36092075E+01</totfact>
</mgrwt>
</event>
<event>
12    7  0.2466188E-007  0.1389628E+04  0.7818608E-02  0.8961361E-01
          2   -1    0    0  501    0  0.00000000000E+00  0.00000000000E+00  0.29713746232E+04  0.29713746232E+04  0.00000000000E+00 0. -1.
         -1   -1    0    0    0  501 -0.00000000000E+00 -0.00000000000E+00 -0.16247237438E+03  0.16247237438E+03  0.00000000000E+00 0.  1.
         24    2    1    2    0    0 -0.19949259431E+03 -0.11420999716E+03  0.15521458524E+04  0.15710679045E+04  0.79097374349E+02 0.  0.
        254    2    1    2    0    0  0.19949259431E+03  0.11420999716E+03  0.12567563964E+04  0.15627790931E+04  0.90000035298E+03 0.  0.
         23    2    4    4    0    0 -0.21726927076E+03  0.31250571641E+03  0.28772878143E+03  0.48562383030E+03  0.90426180329E+02 0.  0.
         23    2    4    4    0    0  0.41676186507E+03 -0.19829571925E+03  0.96902761500E+03  0.10771552628E+04  0.90759556957E+02 0.  0.
          2    1    3    3  502    0 -0.20362333281E+03 -0.97930326755E+02  0.14644494401E+04  0.14817776396E+04  0.00000000000E+00 0. -1.
         -3    1    3    3    0  502  0.41307385021E+01 -0.16279670408E+02  0.87696412312E+02  0.89290264875E+02  0.00000000000E+00 0.  1.
         13    1    5    5    0    0 -0.86385059842E+02  0.73292431234E+02  0.12220623547E+03  0.16663890011E+03  0.00000000000E+00 0.  1.
        -13    1    5    5    0    0 -0.13088421092E+03  0.23921328517E+03  0.16552254596E+03  0.31898493020E+03  0.00000000000E+00 0. -1.
          1    1    6    6  503    0  0.28628340447E+03 -0.13690911005E+03  0.75612082280E+03  0.82001279915E+03  0.00000000000E+00 0. -1.
         -1    1    6    6    0  503  0.13047846060E+03 -0.61386609198E+02  0.21290679219E+03  0.25714246369E+03  0.00000000000E+00 0.  1.
<mgrwt>
<rscale>  0 0.13896277E+04</rscale>
<asrwt>0</asrwt>
<pdfrwt beam="1">  1        2 0.45713452E+00 0.13896277E+04</pdfrwt>
<pdfrwt beam="2">  1       -1 0.24995752E-01 0.13896277E+04</pdfrwt>
<totfact> 0.28455140E+01</totfact>
</mgrwt>
</event>
<event>
12    7  0.2466188E-007  0.2779139E+04  0.7818608E-02  0.8309774E-01
          2   -1    0    0  501    0  0.00000000000E+00  0.00000000000E+00  0.63859147605E+03  0.63859147605E+03  0.00000000000E+00 0. -1.
         -1   -1    0    0    0  501 -0.00000000000E+00 -0.00000000000E+00 -0.30236909125E+04  0.30236909125E+04  0.00000000000E+00 0.  1.
         24    2    1    2    0    0 -0.15102826892E+03  0.10702769622E+04 -0.26004810188E+03  0.11142990502E+04  0.75730073904E+02 0.  0.
        254    2    1    2    0    0  0.15102826892E+03 -0.10702769622E+04 -0.21250513346E+04  0.25479833384E+04  0.89892914295E+03 0.  0.
         23    2    4    4    0    0  0.42885573624E+03 -0.18919621499E+03 -0.70188355334E+03  0.84879462085E+03  0.89996309147E+02 0.  0.
         23    2    4    4    0    0 -0.27782746732E+03 -0.88108074725E+03 -0.14231677813E+04  0.16991887175E+04  0.91347574655E+02 0.  0.
          4    1    3    3  502    0 -0.46245685496E+02  0.37179108906E+03 -0.53794622540E+02  0.37849853203E+03  0.00000000000E+00 0. -1.
         -3    1    3    3    0  502 -0.10478258342E+03  0.69848587318E+03 -0.20625347934E+03  0.73580051818E+03  0.00000000000E+00 0.  1.
         13    1    5    5    0    0  0.29669207867E+02 -0.21177565240E+01 -0.16905975139E+02  0.34213429871E+02  0.00000000000E+00 0. -1.
        -13    1    5    5    0    0  0.39918652837E+03 -0.18707845847E+03 -0.68497757820E+03  0.81458119098E+03  0.00000000000E+00 0.  1.
          2    1    6    6  503    0 -0.88751809433E+02 -0.34287566638E+03 -0.62040541168E+03  0.71438328726E+03  0.00000000000E+00 0. -1.
         -2    1    6    6    0  503 -0.18907565788E+03 -0.53820508086E+03 -0.80276236958E+03  0.98480543026E+03  0.00000000000E+00 0.  1.
<mgrwt>
<rscale>  0 0.27791389E+04</rscale>
<asrwt>0</asrwt>
<pdfrwt beam="1">  1        2 0.98244842E-01 0.27791389E+04</pdfrwt>
<pdfrwt beam="2">  1       -1 0.46518322E+00 0.27791389E+04</pdfrwt>
<totfact> 0.11609839E-01</totfact>
</mgrwt>
</event>
<event>
12    7  0.2466188E-007  0.2644674E+04  0.7818608E-02  0.8353183E-01
          2   -1    0    0  501    0  0.00000000000E+00  0.00000000000E+00  0.14127817656E+04  0.14127817656E+04  0.00000000000E+00 0. -1.
         -1   -1    0    0    0  501 -0.00000000000E+00 -0.00000000000E+00 -0.12376823762E+04  0.12376823762E+04  0.00000000000E+00 0.  1.
         24    2    1    2    0    0 -0.27428623431E+03  0.11288785290E+04 -0.35171295273E+02  0.11650137806E+04  0.80127507166E+02 0.  0.
        254    2    1    2    0    0  0.27428623431E+03 -0.11288785290E+04  0.21027068467E+03  0.14854503612E+04  0.90152611893E+03 0.  0.
         23    2    4    4    0    0  0.34818600127E+03 -0.11188816928E+04 -0.73583664621E+02  0.11776179054E+04  0.90772470834E+02 0.  0.
         23    2    4    4    0    0 -0.73899766960E+02 -0.99968362126E+01  0.28385434929E+03  0.30783245579E+03  0.92878506326E+02 0.  0.
          4    1    3    3  502    0 -0.18185284751E+03  0.72029154015E+03 -0.60387373318E+02  0.74534354215E+03  0.00000000000E+00 0. -1.
         -3    1    3    3    0  502 -0.92433386795E+02  0.40858698883E+03  0.25216078046E+02  0.41967023844E+03  0.00000000000E+00 0.  1.
         13    1    5    5    0    0 -0.47175997937E+01 -0.11855412431E+02 -0.49194679958E+01  0.13675076493E+02  0.00000000000E+00 0. -1.
        -13    1    5    5    0    0  0.35290360106E+03 -0.11070262803E+04 -0.68664196625E+02  0.11639428289E+04  0.00000000000E+00 0.  1.
          4    1    6    6  503    0  0.20210410228E+02  0.50435236976E+01  0.28718426007E+02  0.35477398513E+02  0.00000000000E+00 0. -1.
         -4    1    6    6    0  503 -0.94110177188E+02 -0.15040359910E+02  0.25513592328E+03  0.27235505728E+03  0.00000000000E+00 0.  1.
<mgrwt>
<rscale>  0 0.26446740E+04</rscale>
<asrwt>0</asrwt>
<pdfrwt beam="1">  1        2 0.21735104E+00 0.26446740E+04</pdfrwt>
<pdfrwt beam="2">  1       -1 0.19041267E+00 0.26446740E+04</pdfrwt>
<totfact> 0.25072787E+00</totfact>
</mgrwt>
</event>
<event>
12    7  0.2466188E-007  0.1716371E+04  0.7818608E-02  0.8752082E-01
          2   -1    0    0  501    0  0.00000000000E+00  0.00000000000E+00  0.33091166994E+04  0.33091166994E+04  0.00000000000E+00 0. -1.
         -1   -1    0    0    0  501 -0.00000000000E+00 -0.00000000000E+00 -0.22256172514E+03  0.22256172514E+03  0.00000000000E+00 0.  1.
         24    2    1    2    0    0  0.19177480157E+03 -0.54993856600E+03  0.15546788473E+04  0.16621612745E+04  0.80893654775E+02 0.  0.
        254    2    1    2    0    0 -0.19177480157E+03  0.54993856600E+03  0.15318761269E+04  0.18695171500E+04  0.89957762585E+03 0.  0.
         23    2    4    4    0    0  0.96021708709E+02  0.64865212963E+03  0.63257548497E+03  0.91570318912E+03  0.91601487727E+02 0.  0.
         23    2    4    4    0    0 -0.28779651027E+03 -0.98713563625E+02  0.89930064195E+03  0.95381396086E+03  0.91914244562E+02 0.  0.
          4    1    3    3  502    0  0.32318573523E+02 -0.19468727078E+03  0.57540023425E+03  0.60830342196E+03  0.00000000000E+00 0. -1.
         -3    1    3    3    0  502  0.15945622804E+03 -0.35525129523E+03  0.97927861306E+03  0.10538578526E+04  0.00000000000E+00 0.  1.
         13    1    5    5    0    0  0.60812387150E+02  0.19832355750E+03  0.16000861850E+03  0.26197926995E+03  0.00000000000E+00 0. -1.
        -13    1    5    5    0    0  0.35209321558E+02  0.45032857213E+03  0.47256686647E+03  0.65372391917E+03  0.00000000000E+00 0.  1.
          2    1    6    6  503    0 -0.15935660976E+03 -0.52489887755E+02  0.62911671314E+03  0.65110487339E+03  0.00000000000E+00 0. -1.
         -2    1    6    6    0  503 -0.12843990051E+03 -0.46223675870E+02  0.27018392880E+03  0.30270908747E+03  0.00000000000E+00 0.  1.
<mgrwt>
<rscale>  0 0.17163714E+04</rscale>
<asrwt>0</asrwt>
<pdfrwt beam="1">  1        2 0.50909484E+00 0.17163714E+04</pdfrwt>
<pdfrwt beam="2">  1       -1 0.34240268E-01 0.17163714E+04</pdfrwt>
<totfact> 0.96640432E+00</totfact>
</mgrwt>
</event>
<event>
12    7  0.2466188E-007  0.1740774E+04  0.7818608E-02  0.8738445E-01
          2   -1    0    0  501    0  0.00000000000E+00  0.00000000000E+00  0.28528774973E+04  0.28528774973E+04  0.00000000000E+00 0. -1.
         -1   -1    0    0    0  501 -0.00000000000E+00 -0.00000000000E+00 -0.26554705632E+03  0.26554705632E+03  0.00000000000E+00 0.  1.
         24    2    1    2    0    0 -0.42896091184E+02 -0.26318521035E+01 -0.18343623237E+03  0.20485698383E+03  0.80439612102E+02 0.  0.
        254    2    1    2    0    0  0.42896091184E+02  0.26318521035E+01  0.27707666733E+04  0.29135675698E+04  0.89993389997E+03 0.  0.
         23    2    4    4    0    0  0.38929979171E+03  0.57121261029E+02  0.67490082585E+03  0.78661115283E+03  0.91917434304E+02 0.  0.
         23    2    4    4    0    0 -0.34640370053E+03 -0.54489408926E+02  0.20958658475E+04  0.21269564169E+04  0.91243243722E+02 0.  0.
          2    1    3    3  502    0 -0.47456420608E+02 -0.21542301955E+02 -0.58222216062E+02  0.78140956442E+02  0.00000000000E+00 0. -1.
         -1    1    3    3    0  502  0.45603294241E+01  0.18910449852E+02 -0.12521401631E+03  0.12671602739E+03  0.00000000000E+00 0.  1.
         13    1    5    5    0    0  0.19522806854E+03  0.49613006377E+02  0.42317253597E+03  0.46866880027E+03  0.00000000000E+00 0.  1.
        -13    1    5    5    0    0  0.19407172317E+03  0.75082546527E+01  0.25172828988E+03  0.31794235256E+03  0.00000000000E+00 0. -1.
          1    1    6    6  503    0 -0.99022240185E+02  0.25521952832E+02  0.61223843323E+03  0.62071948032E+03  0.00000000000E+00 0. -1.
         -1    1    6    6    0  503 -0.24738146034E+03 -0.80011361758E+02  0.14836274142E+04  0.15062369366E+04  0.00000000000E+00 0.  1.
<mgrwt>
<rscale>  0 0.17407736E+04</rscale>
<asrwt>0</asrwt>
<pdfrwt beam="1">  1        2 0.43890421E+00 0.17407736E+04</pdfrwt>
<pdfrwt beam="2">  1       -1 0.40853395E-01 0.17407736E+04</pdfrwt>
<totfact> 0.13633799E+01</totfact>
</mgrwt>
</event>
<event>
12    7  0.2466188E-007  0.1868181E+04  0.7818608E-02  0.8670859E-01
          2   -1    0    0  501    0  0.00000000000E+00  0.00000000000E+00  0.20083535298E+04  0.20083535298E+04  0.00000000000E+00 0. -1.
         -1   -1    0    0    0  501 -0.00000000000E+00 -0.00000000000E+00 -0.43444787921E+03  0.43444787921E+03  0.00000000000E+00 0.  1.
         24    2    1    2    0    0 -0.50996218914E+03  0.15582422001E+03  0.12278368728E+04  0.13410435800E+04  0.80447967243E+02 0.  0.
        254    2    1    2    0    0  0.50996218914E+03 -0.15582422001E+03  0.34606877781E+03  0.11017578290E+04  0.89986893096E+03 0.  0.
         23    2    4    4    0    0  0.54522544189E+03 -0.27795493602E+03 -0.10222832329E+03  0.62716676227E+03  0.91420942159E+02 0.  0.
         23    2    4    4    0    0 -0.35263252756E+02  0.12213071601E+03  0.44829710110E+03  0.47459106674E+03  0.90038774901E+02 0.  0.
          2    1    3    3  502    0 -0.45276960206E+03  0.16178037768E+03  0.11198005825E+04  0.12186576828E+04  0.00000000000E+00 0. -1.
         -1    1    3    3    0  502 -0.57192587073E+02 -0.59561576699E+01  0.10803629024E+03  0.12238589722E+03  0.00000000000E+00 0.  1.
         13    1    5    5    0    0  0.22646088297E+03 -0.16650628453E+03 -0.44834997778E+02  0.28463845722E+03  0.00000000000E+00 0. -1.
        -13    1    5    5    0    0  0.31876455893E+03 -0.11144865149E+03 -0.57393325512E+02  0.34252830505E+03  0.00000000000E+00 0.  1.
          4    1    6    6  503    0  0.27980411256E+02  0.43238826001E+02  0.19930549068E+03  0.20585232110E+03  0.00000000000E+00 0. -1.
         -4    1    6    6    0  503 -0.63243664012E+02  0.78891890006E+02  0.24899161042E+03  0.26873874563E+03  0.00000000000E+00 0.  1.
<mgrwt>
<rscale>  0 0.18681809E+04</rscale>
<asrwt>0</asrwt>
<pdfrwt beam="1">  1        2 0.30897746E+00 0.18681809E+04</pdfrwt>
<pdfrwt beam="2">  1       -1 0.66838136E-01 0.18681809E+04</pdfrwt>
<totfact> 0.16027697E+01</totfact>
</mgrwt>
</event>
<event>
12    7  0.2466188E-007  0.2051287E+04  0.7818608E-02  0.8583011E-01
          2   -1    0    0  501    0  0.00000000000E+00  0.00000000000E+00  0.15374249508E+04  0.15374249508E+04  0.00000000000E+00 0. -1.
         -1   -1    0    0    0  501 -0.00000000000E+00 -0.00000000000E+00 -0.68422474267E+03  0.68422474267E+03  0.00000000000E+00 0.  1.
         24    2    1    2    0    0 -0.65130750068E+03 -0.16476836049E+02  0.88995151298E+03  0.11058581558E+04  0.80222307555E+02 0.  0.
        254    2    1    2    0    0  0.65130750068E+03  0.16476836049E+02 -0.36751304801E+02  0.11157915378E+04  0.90507853291E+03 0.  0.
         23    2    4    4    0    0  0.79377567334E+03  0.22724627343E+03  0.49087775540E+02  0.83204101814E+03  0.90343554202E+02 0.  0.
         23    2    4    4    0    0 -0.14246817265E+03 -0.21076943738E+03 -0.85839080341E+02  0.28375051961E+03  0.91788200295E+02 0.  0.
          4    1    3    3  502    0 -0.84044661219E+02  0.24781747407E+02  0.12362633295E+03  0.15152923904E+03  0.00000000000E+00 0. -1.
         -3    1    3    3    0  502 -0.56726283947E+03 -0.41258583456E+02  0.76632518003E+03  0.95432891673E+03  0.00000000000E+00 0.  1.
         13    1    5    5    0    0  0.23555137962E+02  0.23815800473E+02 -0.34723661963E+01  0.33676315173E+02  0.00000000000E+00 0.  1.
        -13    1    5    5    0    0  0.77022053537E+03  0.20343047296E+03  0.52560141736E+02  0.79836470297E+03  0.00000000000E+00 0. -1.
          1    1    6    6  503    0 -0.12793960927E+03 -0.15168656942E+03 -0.98600157815E+02  0.22158373154E+03  0.00000000000E+00 0. -1.
         -1    1    6    6    0  503 -0.14528563379E+02 -0.59082867965E+02  0.12761077474E+02  0.62166788072E+02  0.00000000000E+00 0.  1.
<mgrwt>
<rscale>  0 0.20512866E+04</rscale>
<asrwt>0</asrwt>
<pdfrwt beam="1">  1        2 0.23652692E+00 0.20512866E+04</pdfrwt>
<pdfrwt beam="2">  1       -1 0.10526535E+00 0.20512866E+04</pdfrwt>
<totfact> 0.10786963E+01</totfact>
</mgrwt>
</event>
<event>
12    7  0.2676882E-007  0.2545675E+04  0.7818608E-02  0.8386892E-01
         -1   -1    0    0    0  501 -0.00000000000E+00  0.00000000000E+00  0.11024223856E+04  0.11024223856E+04  0.00000000000E+00 0.  1.
          2   -1    0    0  501    0  0.00000000000E+00 -0.00000000000E+00 -0.14695957264E+04  0.14695957264E+04  0.00000000000E+00 0. -1.
         24    2    1    2    0    0  0.87820484828E+03  0.66559198489E+03 -0.13829564813E+02  0.11048632334E+04  0.79215287124E+02 0.  0.
        254    2    1    2    0    0 -0.87820484828E+03 -0.66559198489E+03 -0.35334377597E+03  0.14671548787E+04  0.90190640765E+03 0.  0.
         23    2    4    4    0    0 -0.26859097160E+03 -0.19048455266E+03  0.29698280420E+03  0.45270339551E+03  0.91192672354E+02 0.  0.
         23    2    4    4    0    0 -0.60961387668E+03 -0.47510743223E+03 -0.65032658017E+03  0.10144514832E+04  0.93973400795E+02 0.  0.
          2    1    3    3  502    0  0.45143313377E+03  0.29908559675E+03 -0.26551855331E+02  0.54217070141E+03  0.00000000000E+00 0. -1.
         -1    1    3    3    0  502  0.42677171451E+03  0.36650638814E+03  0.12722290518E+02  0.56269253197E+03  0.00000000000E+00 0.  1.
         13    1    5    5    0    0 -0.15877113331E+02 -0.37340323723E+02  0.12336334555E+02  0.42409523149E+02  0.00000000000E+00 0. -1.
        -13    1    5    5    0    0 -0.25271385827E+03 -0.15314422894E+03  0.28464646964E+03  0.41029387236E+03  0.00000000000E+00 0.  1.
          1    1    6    6  503    0 -0.14393871775E+03 -0.64896336768E+02 -0.12532900010E+03  0.20158682314E+03  0.00000000000E+00 0. -1.
         -1    1    6    6    0  503 -0.46567515892E+03 -0.41021109546E+03 -0.52499758006E+03  0.81286466005E+03  0.00000000000E+00 0.  1.
<mgrwt>
<rscale>  0 0.25456749E+04</rscale>
<asrwt>0</asrwt>
<pdfrwt beam="1">  1        2 0.22609165E+00 0.25456749E+04</pdfrwt>
<pdfrwt beam="2">  1       -1 0.16960344E+00 0.25456749E+04</pdfrwt>
<totfact> 0.33113540E+00</totfact>
</mgrwt>
</event>
<event>
12    7  0.2466188E-007  0.2961372E+04  0.7818608E-02  0.8254848E-01
          2   -1    0    0  501    0  0.00000000000E+00  0.00000000000E+00  0.13934062642E+04  0.13934062642E+04  0.00000000000E+00 0. -1.
         -1   -1    0    0    0  501 -0.00000000000E+00 -0.00000000000E+00 -0.15734332014E+04  0.15734332014E+04  0.00000000000E+00 0.  1.
         24    2    1    2    0    0  0.11870424429E+04  0.22988377028E+03 -0.66890807726E+03  0.13840862652E+04  0.79627034164E+02 0.  0.
        254    2    1    2    0    0 -0.11870424429E+04 -0.22988377028E+03  0.48888114010E+03  0.15827532005E+04  0.89676452623E+03 0.  0.
         23    2    4    4    0    0 -0.86571627495E+03 -0.11059313701E+02 -0.94746863707E+02  0.87553359064E+03  0.89415451838E+02 0.  0.
         23    2    4    4    0    0 -0.32132616792E+03 -0.21882445658E+03  0.58362800381E+03  0.70721960985E+03  0.91669410051E+02 0.  0.
          4    1    3    3  502    0  0.13604502547E+03  0.64202839430E+01 -0.57648452612E+02  0.14789460129E+03  0.00000000000E+00 0. -1.
         -3    1    3    3    0  502  0.10509974174E+04  0.22346348634E+03 -0.61125962464E+03  0.12361916639E+04  0.00000000000E+00 0.  1.
         13    1    5    5    0    0 -0.12052881048E+03 -0.81691619574E+01 -0.44166720600E+02  0.12862592496E+03  0.00000000000E+00 0.  1.
        -13    1    5    5    0    0 -0.74518746447E+03 -0.28901517438E+01 -0.50580143107E+02  0.74690766569E+03  0.00000000000E+00 0. -1.
          1    1    6    6  503    0 -0.15011379374E+03 -0.13207343719E+03  0.36593326620E+03  0.41699484313E+03  0.00000000000E+00 0. -1.
         -1    1    6    6    0  503 -0.17121237417E+03 -0.86751019392E+02  0.21769473760E+03  0.29022476672E+03  0.00000000000E+00 0.  1.
<mgrwt>
<rscale>  0 0.29613724E+04</rscale>
<asrwt>0</asrwt>
<pdfrwt beam="1">  1        2 0.21437020E+00 0.29613724E+04</pdfrwt>
<pdfrwt beam="2">  1       -1 0.24206664E+00 0.29613724E+04</pdfrwt>
<totfact> 0.11217848E+00</totfact>
</mgrwt>
</event>
<event>
12    7  0.2466188E-007  0.1495629E+04  0.7818608E-02  0.8887365E-01
         -1   -1    0    0    0  501 -0.00000000000E+00  0.00000000000E+00  0.34065791668E+03  0.34065791668E+03  0.00000000000E+00 0.  1.
          2   -1    0    0  501    0  0.00000000000E+00 -0.00000000000E+00 -0.16416072237E+04  0.16416072237E+04  0.00000000000E+00 0. -1.
         24    2    1    2    0    0 -0.38227739811E+03  0.25379453759E+03 -0.26452122624E+03  0.53565733002E+03  0.80060100265E+02 0.  0.
        254    2    1    2    0    0  0.38227739811E+03 -0.25379453759E+03 -0.10364280808E+04  0.14466078104E+04  0.89885667041E+03 0.  0.
         23    2    4    4    0    0  0.21913368551E+03  0.28783721131E+03 -0.17535265969E+03  0.41229765343E+03  0.91492991119E+02 0.  0.
         23    2    4    4    0    0  0.16314371261E+03 -0.54163174890E+03 -0.86107542110E+03  0.10343101569E+04  0.91464733841E+02 0.  0.
          2    1    3    3  502    0 -0.55783490636E+02  0.19475699815E+02 -0.61969475523E+02  0.85623107906E+02  0.00000000000E+00 0. -1.
         -1    1    3    3    0  502 -0.32649390748E+03  0.23431883777E+03 -0.20255175072E+03  0.45003422211E+03  0.00000000000E+00 0.  1.
         13    1    5    5    0    0  0.81279961438E+02  0.46560987370E+02 -0.28009150329E+02  0.97769474676E+02  0.00000000000E+00 0. -1.
        -13    1    5    5    0    0  0.13785372407E+03  0.24127622394E+03 -0.14734350936E+03  0.31452817876E+03  0.00000000000E+00 0.  1.
          3    1    6    6  503    0  0.94145149714E+02 -0.37534312573E+03 -0.65405202686E+03  0.75995383089E+03  0.00000000000E+00 0. -1.
         -3    1    6    6    0  503  0.68998562892E+02 -0.16628862317E+03 -0.20702339424E+03  0.27435632604E+03  0.00000000000E+00 0.  1.
<mgrwt>
<rscale>  0 0.14956290E+04</rscale>
<asrwt>0</asrwt>
<pdfrwt beam="1">  1        2 0.25255496E+00 0.14956290E+04</pdfrwt>
<pdfrwt beam="2">  1       -1 0.52408910E-01 0.14956290E+04</pdfrwt>
<totfact> 0.42689521E+01</totfact>
</mgrwt>
</event>
<event>
12    7  0.2466188E-007  0.1467322E+04  0.7818608E-02  0.8906479E-01
          2   -1    0    0  501    0  0.00000000000E+00  0.00000000000E+00  0.25266399347E+04  0.25266399347E+04  0.00000000000E+00 0. -1.
         -1   -1    0    0    0  501 -0.00000000000E+00 -0.00000000000E+00 -0.21303331839E+03  0.21303331839E+03  0.00000000000E+00 0.  1.
         24    2    1    2    0    0  0.40996891866E+03  0.19019735559E+03  0.76587648988E+03  0.89280297291E+03  0.79251513255E+02 0.  0.
        254    2    1    2    0    0 -0.40996891866E+03 -0.19019735559E+03  0.15477301265E+04  0.18468702802E+04  0.90067293686E+03 0.  0.
         23    2    4    4    0    0  0.80877811506E+02  0.26030079357E+03  0.75162518870E+03  0.80475698949E+03  0.91627857744E+02 0.  0.
         23    2    4    4    0    0 -0.49084673017E+03 -0.45049814916E+03  0.79610493775E+03  0.10421132907E+04  0.91312342238E+02 0.  0.
          4    1    3    3  502    0  0.34225034965E+03  0.18671558241E+03  0.67362889017E+03  0.77831477708E+03  0.00000000000E+00 0. -1.
         -3    1    3    3    0  502  0.67718569007E+02  0.34817731813E+01  0.92247599712E+02  0.11448819584E+03  0.00000000000E+00 0.  1.
         13    1    5    5    0    0  0.26678114332E+02  0.86296579393E+02  0.38342450260E+03  0.39392025918E+03  0.00000000000E+00 0. -1.
        -13    1    5    5    0    0  0.54199697174E+02  0.17400421418E+03  0.36820068610E+03  0.41083673031E+03  0.00000000000E+00 0.  1.
          4    1    6    6  503    0 -0.48886547916E+03 -0.43405072335E+03  0.76068756255E+03  0.10030129884E+04  0.00000000000E+00 0. -1.
         -4    1    6    6    0  503 -0.19812510032E+01 -0.16447425805E+02  0.35417375205E+02  0.39100302269E+02  0.00000000000E+00 0.  1.
<mgrwt>
<rscale>  0 0.14673220E+04</rscale>
<asrwt>0</asrwt>
<pdfrwt beam="1">  1        2 0.38871382E+00 0.14673220E+04</pdfrwt>
<pdfrwt beam="2">  1       -1 0.32774358E-01 0.14673220E+04</pdfrwt>
<totfact> 0.32440615E+01</totfact>
</mgrwt>
</event>
<event>
12    7  0.2466188E-007  0.9981493E+03  0.7818608E-02  0.9310577E-01
          2   -1    0    0  501    0  0.00000000000E+00  0.00000000000E+00  0.15037871547E+03  0.15037871547E+03  0.00000000000E+00 0. -1.
         -1   -1    0    0    0  501 -0.00000000000E+00 -0.00000000000E+00 -0.16563214005E+04  0.16563214005E+04  0.00000000000E+00 0.  1.
         24    2    1    2    0    0  0.47645861112E+02 -0.35709835176E+02 -0.16428185338E+03  0.19191056963E+03  0.79346196995E+02 0.  0.
        254    2    1    2    0    0 -0.47645861112E+02  0.35709835176E+02 -0.13416608317E+04  0.16147895464E+04  0.89663045419E+03 0.  0.
         23    2    4    4    0    0 -0.34068652993E+03 -0.11448236779E+03 -0.19611466048E+03  0.41936756804E+03  0.90745098265E+02 0.  0.
         23    2    4    4    0    0  0.29304066881E+03  0.15019220297E+03 -0.11455461712E+04  0.11954219783E+04  0.91253188988E+02 0.  0.
          4    1    3    3  502    0  0.58783828839E+02 -0.30509254877E+01 -0.69695324825E+02  0.91226558533E+02  0.00000000000E+00 0. -1.
         -3    1    3    3    0  502 -0.11137967727E+02 -0.32658909689E+02 -0.94586528552E+02  0.10068401110E+03  0.00000000000E+00 0.  1.
         13    1    5    5    0    0 -0.16629247420E+03 -0.10738655428E+02 -0.10475982908E+03  0.19683273987E+03  0.00000000000E+00 0. -1.
        -13    1    5    5    0    0 -0.17439405572E+03 -0.10374371236E+03 -0.91354831396E+02  0.22253482817E+03  0.00000000000E+00 0.  1.
          3    1    6    6  503    0  0.17693071019E+03  0.63283492413E+02 -0.77618985372E+03  0.79861127317E+03  0.00000000000E+00 0. -1.
         -3    1    6    6    0  503  0.11610995862E+03  0.86908710556E+02 -0.36935631750E+03  0.39681070517E+03  0.00000000000E+00 0.  1.
<mgrwt>
<rscale>  0 0.99814926E+03</rscale>
<asrwt>0</asrwt>
<pdfrwt beam="1">  1        2 0.23135186E-01 0.99814926E+03</pdfrwt>
<pdfrwt beam="2">  1       -1 0.25481869E+00 0.99814926E+03</pdfrwt>
<totfact> 0.17977107E+01</totfact>
</mgrwt>
</event>
<event>
12    7  0.2466188E-007  0.1175886E+04  0.7818608E-02  0.9134229E-01
          2   -1    0    0  501    0  0.00000000000E+00  0.00000000000E+00  0.44613350944E+03  0.44613350944E+03  0.00000000000E+00 0. -1.
         -1   -1    0    0    0  501 -0.00000000000E+00 -0.00000000000E+00 -0.77482876244E+03  0.77482876244E+03  0.00000000000E+00 0.  1.
         24    2    1    2    0    0  0.14290228509E+02  0.23013036816E+03 -0.10556605274E+03  0.26579505704E+03  0.79615475078E+02 0.  0.
        254    2    1    2    0    0 -0.14290228509E+02 -0.23013036816E+03 -0.22312920026E+03  0.95516721484E+03  0.89966303209E+03 0.  0.
         23    2    4    4    0    0 -0.24183009555E+03 -0.40917088892E+03 -0.37814506889E+03  0.61403622441E+03  0.90245112355E+02 0.  0.
         23    2    4    4    0    0  0.22753986705E+03  0.17904052076E+03  0.15501586863E+03  0.34113099043E+03  0.92252555161E+02 0.  0.
          4    1    3    3  502    0 -0.28281311283E+02  0.10646134576E+03 -0.69031470587E+02  0.12999690242E+03  0.00000000000E+00 0. -1.
         -3    1    3    3    0  502  0.42571539792E+02  0.12366902240E+03 -0.36534582154E+02  0.13579815461E+03  0.00000000000E+00 0.  1.
         13    1    5    5    0    0 -0.13699280396E+02 -0.82683080546E+02 -0.86017210536E+02  0.12009630552E+03  0.00000000000E+00 0. -1.
        -13    1    5    5    0    0 -0.22813081516E+03 -0.32648780838E+03 -0.29212785836E+03  0.49393991889E+03  0.00000000000E+00 0.  1.
          1    1    6    6  503    0  0.47100258391E+02  0.92302773757E+02  0.55679481292E+02  0.11763690331E+03  0.00000000000E+00 0. -1.
         -1    1    6    6    0  503  0.18043960865E+03  0.86737747004E+02  0.99336387338E+02  0.22349408712E+03  0.00000000000E+00 0.  1.
<mgrwt>
<rscale>  0 0.11758862E+04</rscale>
<asrwt>0</asrwt>
<pdfrwt beam="1">  1        2 0.68635925E-01 0.11758862E+04</pdfrwt>
<pdfrwt beam="2">  1       -1 0.11920442E+00 0.11758862E+04</pdfrwt>
<totfact> 0.49993970E+01</totfact>
</mgrwt>
</event>
<event>
12    7  0.2466188E-007  0.1743326E+04  0.7818608E-02  0.8737032E-01
          2   -1    0    0  501    0  0.00000000000E+00  0.00000000000E+00  0.17918534493E+04  0.17918534493E+04  0.00000000000E+00 0. -1.
         -1   -1    0    0    0  501 -0.00000000000E+00 -0.00000000000E+00 -0.42402839754E+03  0.42402839754E+03  0.00000000000E+00 0.  1.
         24    2    1    2    0    0  0.59217363376E+03  0.21966771302E+02  0.81461140657E+03  0.10103945469E+04  0.78442623739E+02 0.  0.
        254    2    1    2    0    0 -0.59217363376E+03 -0.21966771302E+02  0.55321364514E+03  0.12054872999E+04  0.89218952099E+03 0.  0.
         23    2    4    4    0    0  0.28736172815E+02 -0.26602393976E+03  0.43923571818E+03  0.52225411939E+03  0.90701956699E+02 0.  0.
         23    2    4    4    0    0 -0.62090980657E+03  0.24405716846E+03  0.11397792697E+03  0.68323318046E+03  0.93400865458E+02 0.  0.
          4    1    3    3  502    0  0.13994477715E+03 -0.25964037042E+02  0.21481583314E+03  0.25769073332E+03  0.00000000000E+00 0. -1.
         -3    1    3    3    0  502  0.45222885661E+03  0.47930808345E+02  0.59979557343E+03  0.75270381363E+03  0.00000000000E+00 0.  1.
         13    1    5    5    0    0  0.59590260579E+02 -0.20545941087E+03  0.31790679448E+03  0.38318311372E+03  0.00000000000E+00 0.  1.
        -13    1    5    5    0    0 -0.30854087764E+02 -0.60564528895E+02  0.12132892370E+03  0.13907100567E+03  0.00000000000E+00 0. -1.
          1    1    6    6  503    0 -0.29229889378E+03  0.11880295276E+03  0.68083290135E+01  0.31559331145E+03  0.00000000000E+00 0. -1.
         -1    1    6    6    0  503 -0.32861091279E+03  0.12525421570E+03  0.10716959795E+03  0.36763986900E+03  0.00000000000E+00 0.  1.
<mgrwt>
<rscale>  0 0.17433264E+04</rscale>
<asrwt>0</asrwt>
<pdfrwt beam="1">  1        2 0.27566976E+00 0.17433264E+04</pdfrwt>
<pdfrwt beam="2">  1       -1 0.65235139E-01 0.17433264E+04</pdfrwt>
<totfact> 0.22435438E+01</totfact>
</mgrwt>
</event>
<event>
12    7  0.2466188E-007  0.2749679E+04  0.7818608E-02  0.8319063E-01
          2   -1    0    0  501    0  0.00000000000E+00  0.00000000000E+00  0.10104274245E+04  0.10104274245E+04  0.00000000000E+00 0. -1.
         -1   -1    0    0    0  501 -0.00000000000E+00 -0.00000000000E+00 -0.18706778604E+04  0.18706778604E+04  0.00000000000E+00 0.  1.
         24    2    1    2    0    0  0.51154084779E+03  0.11132019837E+04 -0.32357210803E+03  0.12692876084E+04  0.74158130657E+02 0.  0.
        254    2    1    2    0    0 -0.51154084779E+03 -0.11132019837E+04 -0.53667832783E+03  0.16118176764E+04  0.89946645243E+03 0.  0.
         23    2    4    4    0    0 -0.67327338209E+03 -0.54113108531E+03 -0.11204862142E+03  0.87559375321E+03  0.89384722297E+02 0.  0.
         23    2    4    4    0    0  0.16173253430E+03 -0.57207089839E+03 -0.42462970640E+03  0.73622392323E+03  0.91064549323E+02 0.  0.
          4    1    3    3  502    0  0.40876129201E+03  0.87435091452E+03 -0.22388371150E+03  0.99080736364E+03  0.00000000000E+00 0. -1.
         -3    1    3    3    0  502  0.10277955578E+03  0.23885106918E+03 -0.99688396529E+02  0.27848024479E+03  0.00000000000E+00 0.  1.
         13    1    5    5    0    0 -0.57380114745E+03 -0.43188249295E+03 -0.67822388023E+02  0.72136684207E+03  0.00000000000E+00 0. -1.
        -13    1    5    5    0    0 -0.99472234638E+02 -0.10924859236E+03 -0.44226233401E+02  0.15422691113E+03  0.00000000000E+00 0.  1.
          1    1    6    6  503    0  0.55310081727E+02 -0.97120186492E+02 -0.10898851302E+03  0.15610903797E+03  0.00000000000E+00 0. -1.
         -1    1    6    6    0  503  0.10642245257E+03 -0.47495071190E+03 -0.31564119338E+03  0.58011488526E+03  0.00000000000E+00 0.  1.
<mgrwt>
<rscale>  0 0.27496794E+04</rscale>
<asrwt>0</asrwt>
<pdfrwt beam="1">  1        2 0.15545038E+00 0.27496794E+04</pdfrwt>
<pdfrwt beam="2">  1       -1 0.28779659E+00 0.27496794E+04</pdfrwt>
<totfact> 0.97868078E-01</totfact>
</mgrwt>
</event>
<event>
12    7  0.2466188E-007  0.2632185E+04  0.7818608E-02  0.8357350E-01
          2   -1    0    0  501    0  0.00000000000E+00  0.00000000000E+00  0.22829870415E+04  0.22829870415E+04  0.00000000000E+00 0. -1.
         -1   -1    0    0    0  501 -0.00000000000E+00 -0.00000000000E+00 -0.75869859644E+03  0.75869859644E+03  0.00000000000E+00 0.  1.
         24    2    1    2    0    0  0.57599632459E+03  0.93779964061E+03  0.11054774793E+04  0.15619455059E+04  0.79708057288E+02 0.  0.
        254    2    1    2    0    0 -0.57599632459E+03 -0.93779964061E+03  0.41881096579E+03  0.14797401320E+04  0.89609614516E+03 0.  0.
         23    2    4    4    0    0  0.42251963733E+02 -0.40486814565E+03 -0.18884664138E+03  0.45804240031E+03  0.91849565711E+02 0.  0.
         23    2    4    4    0    0 -0.61824828832E+03 -0.53293149496E+03  0.60765760717E+03  0.10216977317E+04  0.91496246320E+02 0.  0.
          4    1    3    3  502    0  0.74588888118E+02  0.10849461960E+03  0.16972025366E+03  0.21480118532E+03  0.00000000000E+00 0. -1.
         -3    1    3    3    0  502  0.50140743647E+03  0.82930502101E+03  0.93575722560E+03  0.13471443206E+04  0.00000000000E+00 0.  1.
         13    1    5    5    0    0 -0.23216584394E+02 -0.68664055741E+02 -0.51959989849E+02  0.89182974198E+02  0.00000000000E+00 0. -1.
        -13    1    5    5    0    0  0.65468548126E+02 -0.33620408991E+03 -0.13688665153E+03  0.36885942611E+03  0.00000000000E+00 0.  1.
          3    1    6    6  503    0 -0.36946805324E+03 -0.26152799458E+03  0.35306780278E+03  0.57407352114E+03  0.00000000000E+00 0. -1.
         -3    1    6    6    0  503 -0.24878023508E+03 -0.27140350038E+03  0.25458980439E+03  0.44762421057E+03  0.00000000000E+00 0.  1.
<mgrwt>
<rscale>  0 0.26321847E+04</rscale>
<asrwt>0</asrwt>
<pdfrwt beam="1">  1        2 0.35122877E+00 0.26321847E+04</pdfrwt>
<pdfrwt beam="2">  1       -1 0.11672286E+00 0.26321847E+04</pdfrwt>
<totfact> 0.30796738E+00</totfact>
</mgrwt>
</event>
<event>
12    7  0.2466188E-007  0.1308163E+04  0.7818608E-02  0.9023117E-01
          2   -1    0    0  501    0  0.00000000000E+00  0.00000000000E+00  0.33899189961E+04  0.33899189961E+04  0.00000000000E+00 0. -1.
         -1   -1    0    0    0  501 -0.00000000000E+00 -0.00000000000E+00 -0.12620439937E+03  0.12620439937E+03  0.00000000000E+00 0.  1.
         24    2    1    2    0    0  0.79070410637E+01  0.56622159005E+02  0.17560648785E+04  0.17582601325E+04  0.66680175441E+02 0.  0.
        254    2    1    2    0    0 -0.79070410637E+01 -0.56622159005E+02  0.15076497182E+04  0.17578632629E+04  0.90211251417E+03 0.  0.
         23    2    4    4    0    0  0.86119452025E+02 -0.30412578213E+03  0.13299137055E+03  0.35498200469E+03  0.91741308244E+02 0.  0.
         23    2    4    4    0    0 -0.94026493089E+02  0.24750362313E+03  0.13746583476E+04  0.14028812583E+04  0.91056175739E+02 0.  0.
          4    1    3    3  502    0  0.34225575013E+01  0.28791714358E+02  0.15505385364E+04  0.15508096045E+04  0.00000000000E+00 0. -1.
         -3    1    3    3    0  502  0.44844835624E+01  0.27830444647E+02  0.20552634214E+03  0.20745052797E+03  0.00000000000E+00 0.  1.
         13    1    5    5    0    0  0.16856489107E+02 -0.33476135586E+01  0.19831685587E+02  0.26242017734E+02  0.00000000000E+00 0. -1.
        -13    1    5    5    0    0  0.69262962918E+02 -0.30077816857E+03  0.11315968496E+03  0.32873998695E+03  0.00000000000E+00 0.  1.
          1    1    6    6  503    0 -0.41193196809E+01  0.83356544881E+02  0.27414695758E+03  0.28656907844E+03  0.00000000000E+00 0. -1.
         -1    1    6    6    0  503 -0.89907173408E+02  0.16414707824E+03  0.11005113901E+04  0.11163121798E+04  0.00000000000E+00 0.  1.
<mgrwt>
<rscale>  0 0.13081631E+04</rscale>
<asrwt>0</asrwt>
<pdfrwt beam="1">  1        2 0.52152593E+00 0.13081631E+04</pdfrwt>
<pdfrwt beam="2">  1       -1 0.19416064E-01 0.13081631E+04</pdfrwt>
<totfact> 0.23657305E+01</totfact>
</mgrwt>
</event>
<event>
12    7  0.2466188E-007  0.1296770E+04  0.7818608E-02  0.9032130E-01
         -1   -1    0    0    0  501 -0.00000000000E+00  0.00000000000E+00  0.24687724704E+03  0.24687724704E+03  0.00000000000E+00 0.  1.
          2   -1    0    0  501    0  0.00000000000E+00 -0.00000000000E+00 -0.17028841255E+04  0.17028841255E+04  0.00000000000E+00 0. -1.
         24    2    1    2    0    0  0.30183052641E+02  0.18509540059E+03 -0.78796402904E+03  0.81382293801E+03  0.79051498302E+02 0.  0.
        254    2    1    2    0    0 -0.30183052641E+02 -0.18509540059E+03 -0.66804284937E+03  0.11359384345E+04  0.89939065726E+03 0.  0.
         23    2    4    4    0    0  0.41816437303E+03 -0.16881237180E+03 -0.31198278901E+03  0.55603666455E+03  0.92111084791E+02 0.  0.
         23    2    4    4    0    0 -0.44834742567E+03 -0.16283028793E+02 -0.35606006036E+03  0.57990176993E+03  0.90701406020E+02 0.  0.
          2    1    3    3  502    0  0.42349154471E+02  0.46077613644E+02 -0.28992787442E+03  0.29660541082E+03  0.00000000000E+00 0. -1.
         -1    1    3    3    0  502 -0.12166101830E+02  0.13901778694E+03 -0.49803615462E+03  0.51721752719E+03  0.00000000000E+00 0.  1.
         13    1    5    5    0    0  0.36405318869E+03 -0.11311402907E+03 -0.27478393163E+03  0.46993160870E+03  0.00000000000E+00 0. -1.
        -13    1    5    5    0    0  0.54111184339E+02 -0.55698342729E+02 -0.37198857377E+02  0.86105055853E+02  0.00000000000E+00 0.  1.
          1    1    6    6  503    0 -0.37339588198E+03 -0.51055440277E+01 -0.24937518211E+03  0.44904179395E+03  0.00000000000E+00 0. -1.
         -1    1    6    6    0  503 -0.74951543690E+02 -0.11177484766E+02 -0.10668487825E+03  0.13085997598E+03  0.00000000000E+00 0.  1.
<mgrwt>
<rscale>  0 0.12967704E+04</rscale>
<asrwt>0</asrwt>
<pdfrwt beam="1">  1        2 0.26198219E+00 0.12967704E+04</pdfrwt>
<pdfrwt beam="2">  1       -1 0.37981113E-01 0.12967704E+04</pdfrwt>
<totfact> 0.73054327E+01</totfact>
</mgrwt>
</event>
<event>
12    7  0.2466188E-007  0.4067807E+04  0.7818608E-02  0.7991006E-01
          2   -1    0    0  501    0  0.00000000000E+00  0.00000000000E+00  0.28505830975E+04  0.28505830975E+04  0.00000000000E+00 0. -1.
         -1   -1    0    0    0  501 -0.00000000000E+00 -0.00000000000E+00 -0.14511987569E+04  0.14511987569E+04  0.00000000000E+00 0.  1.
         24    2    1    2    0    0  0.18076560729E+04 -0.37466476982E+03  0.58146575291E+02  0.18487575642E+04  0.80804325894E+02 0.  0.
        254    2    1    2    0    0 -0.18076560729E+04  0.37466476982E+03  0.13412377653E+04  0.24530242902E+04  0.90023066908E+03 0.  0.
         23    2    4    4    0    0 -0.11664649220E+04 -0.13639850293E+03  0.51707647358E+03  0.12865071745E+04  0.92128522847E+02 0.  0.
         23    2    4    4    0    0 -0.64119115092E+03  0.51106327275E+03  0.82416129174E+03  0.11665171157E+04  0.95961375646E+02 0.  0.
          2    1    3    3  502    0  0.95680980063E+03 -0.22407920402E+03  0.62403945436E+02  0.98467798627E+03  0.00000000000E+00 0. -1.
         -1    1    3    3    0  502  0.85084627230E+03 -0.15058556580E+03 -0.42573701447E+01  0.86407957789E+03  0.00000000000E+00 0.  1.
         13    1    5    5    0    0 -0.14737762371E+03  0.84185775733E+01  0.46968571975E+02  0.15490991954E+03  0.00000000000E+00 0. -1.
        -13    1    5    5    0    0 -0.10190872983E+04 -0.14481708050E+03  0.47010790160E+03  0.11315972550E+04  0.00000000000E+00 0.  1.
          2    1    6    6  503    0 -0.28582402947E+03  0.19547707469E+03  0.40463370525E+03  0.53257403052E+03  0.00000000000E+00 0. -1.
         -2    1    6    6    0  503 -0.35536712145E+03  0.31558619806E+03  0.41952758648E+03  0.63394308517E+03  0.00000000000E+00 0.  1.
<mgrwt>
<rscale>  0 0.40678066E+04</rscale>
<asrwt>0</asrwt>
<pdfrwt beam="1">  1        2 0.43855124E+00 0.40678066E+04</pdfrwt>
<pdfrwt beam="2">  1       -1 0.22326135E+00 0.40678066E+04</pdfrwt>
<totfact> 0.20087685E-01</totfact>
</mgrwt>
</event>
<event>
12    7  0.2466188E-007  0.2039724E+04  0.7818608E-02  0.8588270E-01
          2   -1    0    0  501    0  0.00000000000E+00  0.00000000000E+00  0.13630287257E+04  0.13630287257E+04  0.00000000000E+00 0. -1.
         -1   -1    0    0    0  501 -0.00000000000E+00 -0.00000000000E+00 -0.76309364602E+03  0.76309364602E+03  0.00000000000E+00 0.  1.
         24    2    1    2    0    0  0.77771730822E+03 -0.22975094059E+03  0.12812884578E+03  0.82770153214E+03  0.10508624546E+03 0.  0.
        254    2    1    2    0    0 -0.77771730822E+03  0.22975094059E+03  0.47180623395E+03  0.12984208396E+04  0.89758890823E+03 0.  0.
         23    2    4    4    0    0 -0.34708000964E+03  0.53939655955E+03  0.38400382860E+03  0.75298042227E+03  0.90041070676E+02 0.  0.
         23    2    4    4    0    0 -0.43063729858E+03 -0.30964561895E+03  0.87802405348E+02  0.54544041735E+03  0.92016814922E+02 0.  0.
          2    1    3    3  502    0  0.28115594887E+03 -0.12924920894E+03  0.23123102717E+02  0.31030421118E+03  0.00000000000E+00 0. -1.
         -1    1    3    3    0  502  0.49656135935E+03 -0.10050173165E+03  0.10500574306E+03  0.51739732096E+03  0.00000000000E+00 0.  1.
         13    1    5    5    0    0 -0.10586266952E+03  0.97340461610E+02  0.95007934239E+02  0.17236176441E+03  0.00000000000E+00 0. -1.
        -13    1    5    5    0    0 -0.24121734012E+03  0.44205609794E+03  0.28899589436E+03  0.58061865786E+03  0.00000000000E+00 0.  1.
          3    1    6    6  503    0 -0.18624917868E+03 -0.14704203656E+03  0.84465164322E+02  0.25188187918E+03  0.00000000000E+00 0. -1.
         -3    1    6    6    0  503 -0.24438811990E+03 -0.16260358240E+03  0.33372410255E+01  0.29355853817E+03  0.00000000000E+00 0.  1.
<mgrwt>
<rscale>  0 0.20397241E+04</rscale>
<asrwt>0</asrwt>
<pdfrwt beam="1">  1        2 0.20969673E+00 0.20397241E+04</pdfrwt>
<pdfrwt beam="2">  1       -1 0.11739902E+00 0.20397241E+04</pdfrwt>
<totfact> 0.10475108E+01</totfact>
</mgrwt>
</event>
<event>
12    7  0.2466188E-007  0.1309299E+04  0.7818608E-02  0.9022223E-01
         -1   -1    0    0    0  501 -0.00000000000E+00  0.00000000000E+00  0.46774946081E+03  0.46774946081E+03  0.00000000000E+00 0.  1.
          2   -1    0    0  501    0  0.00000000000E+00 -0.00000000000E+00 -0.91623008432E+03  0.91623008432E+03  0.00000000000E+00 0. -1.
         24    2    1    2    0    0  0.32818249549E+03  0.88465039549E+02 -0.14021813549E+03  0.37635443763E+03  0.80322622140E+02 0.  0.
        254    2    1    2    0    0 -0.32818249549E+03 -0.88465039549E+02 -0.30826248802E+03  0.10076251075E+04  0.89708014257E+03 0.  0.
         23    2    4    4    0    0  0.17316892914E+03  0.22204512560E+03  0.65886102019E+02  0.30327805462E+03  0.91351432120E+02 0.  0.
         23    2    4    4    0    0 -0.50135142464E+03 -0.31051016515E+03 -0.37414859004E+03  0.70434705289E+03  0.91366240164E+02 0.  0.
          2    1    3    3  502    0  0.14579286805E+03  0.80817055377E+02 -0.68636166424E+02  0.18027168429E+03  0.00000000000E+00 0. -1.
         -1    1    3    3    0  502  0.18238962744E+03  0.76479841718E+01 -0.71581969070E+02  0.19608275334E+03  0.00000000000E+00 0.  1.
         13    1    5    5    0    0  0.70880412158E+02  0.13454197766E+03 -0.29275860152E+01  0.15209913655E+03  0.00000000000E+00 0.  1.
        -13    1    5    5    0    0  0.10228851699E+03  0.87503147940E+02  0.68813688034E+02  0.15117891806E+03  0.00000000000E+00 0. -1.
          2    1    6    6  503    0 -0.41434876481E+03 -0.21805876707E+03 -0.31478023273E+03  0.56419953892E+03  0.00000000000E+00 0. -1.
         -2    1    6    6    0  503 -0.87002659832E+02 -0.92451398079E+02 -0.59368357305E+02  0.14014751398E+03  0.00000000000E+00 0.  1.
<mgrwt>
<rscale>  0 0.13092992E+04</rscale>
<asrwt>0</asrwt>
<pdfrwt beam="1">  1        2 0.14095847E+00 0.13092992E+04</pdfrwt>
<pdfrwt beam="2">  1       -1 0.71961456E-01 0.13092992E+04</pdfrwt>
<totfact> 0.62300423E+01</totfact>
</mgrwt>
</event>
<event>
12    7  0.2466188E-007  0.1743574E+04  0.7818608E-02  0.8736895E-01
          2   -1    0    0  501    0  0.00000000000E+00  0.00000000000E+00  0.90636078997E+03  0.90636078997E+03  0.00000000000E+00 0. -1.
         -1   -1    0    0    0  501 -0.00000000000E+00 -0.00000000000E+00 -0.83853237868E+03  0.83853237868E+03  0.00000000000E+00 0.  1.
         24    2    1    2    0    0 -0.19634554931E+03 -0.52925043399E+03  0.31832456974E+03  0.65305257132E+03  0.80557635248E+02 0.  0.
        254    2    1    2    0    0  0.19634554931E+03  0.52925043399E+03 -0.25049615845E+03  0.10918405973E+04  0.90039434026E+03 0.  0.
         23    2    4    4    0    0 -0.19361807710E+03  0.61728416607E+03 -0.12721560610E+03  0.66588923365E+03  0.93257490846E+02 0.  0.
         23    2    4    4    0    0  0.38996362641E+03 -0.88033732077E+02 -0.12328055235E+03  0.42595136368E+03  0.80093081640E+02 0.  0.
          2    1    3    3  502    0 -0.13517614735E+03 -0.40828843840E+03  0.20533227146E+03  0.47658512508E+03  0.00000000000E+00 0. -1.
         -1    1    3    3    0  502 -0.61169401958E+02 -0.12096199559E+03  0.11299229827E+03  0.17646744624E+03  0.00000000000E+00 0.  1.
         13    1    5    5    0    0 -0.15113644880E+03  0.34069956892E+03 -0.91557812701E+02  0.38379845686E+03  0.00000000000E+00 0. -1.
        -13    1    5    5    0    0 -0.42481628296E+02  0.27658459715E+03 -0.35657793395E+02  0.28209077679E+03  0.00000000000E+00 0.  1.
          3    1    6    6  503    0  0.22392552773E+02  0.13637842914E+02 -0.53318287378E+01  0.26755290631E+02  0.00000000000E+00 0. -1.
         -3    1    6    6    0  503  0.36757107364E+03 -0.10167157499E+03 -0.11794872361E+03  0.39919607305E+03  0.00000000000E+00 0.  1.
<mgrwt>
<rscale>  0 0.17435743E+04</rscale>
<asrwt>0</asrwt>
<pdfrwt beam="1">  1        2 0.13944012E+00 0.17435743E+04</pdfrwt>
<pdfrwt beam="2">  1       -1 0.12900498E+00 0.17435743E+04</pdfrwt>
<totfact> 0.16248538E+01</totfact>
</mgrwt>
</event>
<event>
12    7  0.2466188E-007  0.1265236E+04  0.7818608E-02  0.9057597E-01
          2   -1    0    0  501    0  0.00000000000E+00  0.00000000000E+00  0.66004398309E+03  0.66004398309E+03  0.00000000000E+00 0. -1.
         -1   -1    0    0    0  501 -0.00000000000E+00 -0.00000000000E+00 -0.60633166642E+03  0.60633166642E+03  0.00000000000E+00 0.  1.
         24    2    1    2    0    0  0.15308092621E+03  0.35036980475E+02 -0.23574929266E+03  0.29419630860E+03  0.79450481637E+02 0.  0.
        254    2    1    2    0    0 -0.15308092621E+03 -0.35036980475E+02  0.28946160933E+03  0.97217934091E+03  0.91470393443E+03 0.  0.
         23    2    4    4    0    0  0.12845002616E+03 -0.35417946360E+03  0.36176957035E+03  0.52965832177E+03  0.87853367196E+02 0.  0.
         23    2    4    4    0    0 -0.28153095237E+03  0.31914248313E+03 -0.72307961026E+02  0.44252101914E+03  0.97389986535E+02 0.  0.
          4    1    3    3  502    0  0.21429836304E+02  0.15952664339E+02 -0.40449719837E+01  0.27020125497E+02  0.00000000000E+00 0. -1.
         -3    1    3    3    0  502  0.13165108991E+03  0.19084316137E+02 -0.23170432068E+03  0.26717618310E+03  0.00000000000E+00 0.  1.
         13    1    5    5    0    0  0.73295556516E+02 -0.26103322139E+03  0.30258031641E+03  0.40628244997E+03  0.00000000000E+00 0. -1.
        -13    1    5    5    0    0  0.55154469644E+02 -0.93146242209E+02  0.59189253940E+02  0.12337587180E+03  0.00000000000E+00 0.  1.
          2    1    6    6  503    0 -0.13641870174E+03  0.93688773547E+02 -0.26954748558E+01  0.16551409021E+03  0.00000000000E+00 0.  1.
         -2    1    6    6    0  503 -0.14511225063E+03  0.22545370958E+03 -0.69612486170E+02  0.27700692893E+03  0.00000000000E+00 0. -1.
<mgrwt>
<rscale>  0 0.12652361E+04</rscale>
<asrwt>0</asrwt>
<pdfrwt beam="1">  1        2 0.10154523E+00 0.12652361E+04</pdfrwt>
<pdfrwt beam="2">  1       -1 0.93281795E-01 0.12652361E+04</pdfrwt>
<totfact> 0.55263839E+01</totfact>
</mgrwt>
</event>
<event>
12    7  0.2466188E-007  0.1984052E+04  0.7818608E-02  0.8614113E-01
          2   -1    0    0  501    0  0.00000000000E+00  0.00000000000E+00  0.15847494952E+04  0.15847494952E+04  0.00000000000E+00 0. -1.
         -1   -1    0    0    0  501 -0.00000000000E+00 -0.00000000000E+00 -0.62099120441E+03  0.62099120441E+03  0.00000000000E+00 0.  1.
         24    2    1    2    0    0  0.24286356324E+02 -0.29308560151E+03 -0.41765753327E+03  0.51601833757E+03  0.73130791674E+02 0.  0.
        254    2    1    2    0    0 -0.24286356324E+02  0.29308560151E+03  0.13814158241E+04  0.16897223621E+04  0.92755753727E+03 0.  0.
         23    2    4    4    0    0 -0.11760767818E+03 -0.31597416894E+03  0.54382994114E+03  0.64618895052E+03  0.90210384594E+02 0.  0.
         23    2    4    4    0    0  0.93321321852E+02  0.60905977045E+03  0.83758588296E+03  0.10435334116E+04  0.88029521374E+02 0.  0.
          4    1    3    3  502    0  0.44401324612E+02 -0.10937134955E+03 -0.17184195596E+03  0.20847836232E+03  0.00000000000E+00 0. -1.
         -3    1    3    3    0  502 -0.20114968288E+02 -0.18371425196E+03 -0.24581557731E+03  0.30753997524E+03  0.00000000000E+00 0.  1.
         13    1    5    5    0    0 -0.12300903925E+03 -0.27097564153E+03  0.42345354635E+03  0.51756345307E+03  0.00000000000E+00 0. -1.
        -13    1    5    5    0    0  0.54013610772E+01 -0.44998527413E+02  0.12037639479E+03  0.12862549745E+03  0.00000000000E+00 0.  1.
          3    1    6    6  503    0  0.26021504876E+02  0.40637304486E+03  0.58482984221E+03  0.71263041939E+03  0.00000000000E+00 0. -1.
         -3    1    6    6    0  503  0.67299816976E+02  0.20268672559E+03  0.25275604075E+03  0.33090299218E+03  0.00000000000E+00 0.  1.
<mgrwt>
<rscale>  0 0.19840519E+04</rscale>
<asrwt>0</asrwt>
<pdfrwt beam="1">  1        2 0.24380761E+00 0.19840519E+04</pdfrwt>
<pdfrwt beam="2">  1       -1 0.95537109E-01 0.19840519E+04</pdfrwt>
<totfact> 0.12742972E+01</totfact>
</mgrwt>
</event>
<event>
12    7  0.2466188E-007  0.5749818E+04  0.7818608E-02  0.7722219E-01
          2   -1    0    0  501    0  0.00000000000E+00  0.00000000000E+00  0.39970315375E+04  0.39970315375E+04  0.00000000000E+00 0. -1.
         -1   -1    0    0    0  501 -0.00000000000E+00 -0.00000000000E+00 -0.20678097883E+04  0.20678097883E+04  0.00000000000E+00 0.  1.
         24    2    1    2    0    0 -0.23207164084E+04  0.13130181734E+04  0.18550930967E+04  0.32491716998E+04  0.77491711588E+02 0.  0.
        254    2    1    2    0    0  0.23207164084E+04 -0.13130181734E+04  0.74128652547E+02  0.28156696260E+04  0.90153148237E+03 0.  0.
         23    2    4    4    0    0  0.21808733069E+04 -0.10346869316E+04 -0.15187669221E+03  0.24204167843E+04  0.92549730481E+02 0.  0.
         23    2    4    4    0    0  0.13984310150E+03 -0.27833124183E+03  0.22600534476E+03  0.39525284177E+03  0.90122249468E+02 0.  0.
          4    1    3    3  502    0 -0.89160101001E+03  0.46863576125E+03  0.67509477547E+03  0.12125695005E+04  0.00000000000E+00 0. -1.
         -3    1    3    3    0  502 -0.14291153984E+04  0.84438241219E+03  0.11799983212E+04  0.20366021993E+04  0.00000000000E+00 0.  1.
         13    1    5    5    0    0  0.20837640898E+03 -0.72409912365E+02 -0.20994853726E+01  0.22060900042E+03  0.00000000000E+00 0. -1.
        -13    1    5    5    0    0  0.19724968979E+04 -0.96227701924E+03 -0.14977720684E+03  0.21998077838E+04  0.00000000000E+00 0.  1.
          3    1    6    6  503    0  0.12279712061E+03 -0.28020108529E+03  0.20558755192E+03  0.36858923279E+03  0.00000000000E+00 0. -1.
         -3    1    6    6    0  503  0.17045980890E+02  0.18698434580E+01  0.20417792838E+02  0.26663608973E+02  0.00000000000E+00 0.  1.
<mgrwt>
<rscale>  0 0.57498177E+04</rscale>
<asrwt>0</asrwt>
<pdfrwt beam="1">  1        2 0.61492792E+00 0.57498177E+04</pdfrwt>
<pdfrwt beam="2">  1       -1 0.31812459E+00 0.57498177E+04</pdfrwt>
<totfact> 0.67154719E-03</totfact>
</mgrwt>
</event>
<event>
12    7  0.2466188E-007  0.1502983E+04  0.7818608E-02  0.8882471E-01
          2   -1    0    0  501    0  0.00000000000E+00  0.00000000000E+00  0.71147862512E+03  0.71147862512E+03  0.00000000000E+00 0. -1.
         -1   -1    0    0    0  501 -0.00000000000E+00 -0.00000000000E+00 -0.79375501449E+03  0.79375501449E+03  0.00000000000E+00 0.  1.
         24    2    1    2    0    0 -0.38515866824E+03 -0.27409408042E+03 -0.10601887888E+03  0.49109532969E+03  0.80373226408E+02 0.  0.
        254    2    1    2    0    0  0.38515866824E+03  0.27409408042E+03  0.23742489507E+02  0.10141383099E+04  0.89690470017E+03 0.  0.
         23    2    4    4    0    0 -0.81180185047E+01  0.50942909547E+03  0.13239337599E+03  0.53420639986E+03  0.90909659040E+02 0.  0.
         23    2    4    4    0    0  0.39327668675E+03 -0.23533501505E+03 -0.10865088649E+03  0.47993191005E+03  0.92089638412E+02 0.  0.
          2    1    3    3  502    0 -0.55346064079E+02 -0.91608456739E+01 -0.62491497880E+01  0.56446078479E+02  0.00000000000E+00 0. -1.
         -1    1    3    3    0  502 -0.32981260416E+03 -0.26493323474E+03 -0.99769729091E+02  0.43464925121E+03  0.00000000000E+00 0.  1.
         13    1    5    5    0    0 -0.10276674442E+02  0.43340167715E+03  0.77470967836E+02  0.44039116096E+03  0.00000000000E+00 0.  1.
        -13    1    5    5    0    0  0.21586559369E+01  0.76027418320E+02  0.54922408156E+02  0.93815238898E+02  0.00000000000E+00 0. -1.
          3    1    6    6  503    0  0.74697194286E+01 -0.17945752981E+01 -0.18489402796E+02  0.20021868659E+02  0.00000000000E+00 0. -1.
         -3    1    6    6    0  503  0.38580696732E+03 -0.23354043976E+03 -0.90161483689E+02  0.45991004139E+03  0.00000000000E+00 0.  1.
<mgrwt>
<rscale>  0 0.15029833E+04</rscale>
<asrwt>0</asrwt>
<pdfrwt beam="1">  1        2 0.10945825E+00 0.15029833E+04</pdfrwt>
<pdfrwt beam="2">  1       -1 0.12211616E+00 0.15029833E+04</pdfrwt>
<totfact> 0.26264317E+01</totfact>
</mgrwt>
</event>
<event>
12    7  0.2466188E-007  0.2876859E+04  0.7818608E-02  0.8279796E-01
          2   -1    0    0  501    0  0.00000000000E+00  0.00000000000E+00  0.20856243907E+04  0.20856243907E+04  0.00000000000E+00 0. -1.
         -1   -1    0    0    0  501 -0.00000000000E+00 -0.00000000000E+00 -0.99206689470E+03  0.99206689470E+03  0.00000000000E+00 0.  1.
         24    2    1    2    0    0 -0.74671373185E+03 -0.34485205190E+03  0.15655335982E+04  0.17703063194E+04  0.81146056244E+02 0.  0.
        254    2    1    2    0    0  0.74671373185E+03  0.34485205190E+03 -0.47197610221E+03  0.13073849660E+04  0.89999426286E+03 0.  0.
         23    2    4    4    0    0  0.94298983755E+03  0.28890835888E+03 -0.41343759995E+03  0.10731985769E+04  0.90148004724E+02 0.  0.
         23    2    4    4    0    0 -0.19627610570E+03  0.55943693023E+02 -0.58538502251E+02  0.23418638912E+03  0.98805375078E+02 0.  0.
          2    1    3    3  502    0 -0.34651221414E+03 -0.18954730549E+03  0.81550764140E+03  0.90611898156E+03  0.00000000000E+00 0. -1.
         -1    1    3    3    0  502 -0.40020151771E+03 -0.15530474641E+03  0.75002595682E+03  0.86418733787E+03  0.00000000000E+00 0.  1.
         13    1    5    5    0    0  0.32322272426E+03  0.12478663864E+03 -0.18361856319E+03  0.39212295445E+03  0.00000000000E+00 0.  1.
        -13    1    5    5    0    0  0.61976711330E+03  0.16412172024E+03 -0.22981903676E+03  0.68107562241E+03  0.00000000000E+00 0. -1.
          3    1    6    6  503    0 -0.16462616286E+03  0.71767990465E+02 -0.75659903655E+02  0.19487647106E+03  0.00000000000E+00 0. -1.
         -3    1    6    6    0  503 -0.31649942844E+02 -0.15824297442E+02  0.17121401405E+02  0.39309918057E+02  0.00000000000E+00 0.  1.
<mgrwt>
<rscale>  0 0.28768586E+04</rscale>
<asrwt>0</asrwt>
<pdfrwt beam="1">  1        2 0.32086529E+00 0.28768586E+04</pdfrwt>
<pdfrwt beam="2">  1       -1 0.15262568E+00 0.28768586E+04</pdfrwt>
<totfact> 0.19595148E+00</totfact>
</mgrwt>
</event>
<event>
12    7  0.2466188E-007  0.2287170E+04  0.7818608E-02  0.8482997E-01
          2   -1    0    0  501    0  0.00000000000E+00  0.00000000000E+00  0.11445682405E+04  0.11445682405E+04  0.00000000000E+00 0. -1.
         -1   -1    0    0    0  501 -0.00000000000E+00 -0.00000000000E+00 -0.11426021844E+04  0.11426021844E+04  0.00000000000E+00 0.  1.
         24    2    1    2    0    0 -0.11025145255E+03  0.94275800313E+03  0.17309125127E+03  0.96847424141E+03  0.83867393956E+02 0.  0.
        254    2    1    2    0    0  0.11025145255E+03 -0.94275800313E+03 -0.17112519513E+03  0.13186961835E+04  0.89929292046E+03 0.  0.
         23    2    4    4    0    0 -0.22993894172E+03 -0.87000819660E+03  0.32050880711E+02  0.90501654322E+03  0.90782737772E+02 0.  0.
         23    2    4    4    0    0  0.34019039427E+03 -0.72749806524E+02 -0.20317607584E+03  0.41367964030E+03  0.93958971385E+02 0.  0.
          4    1    3    3  502    0  0.15201987911E+01  0.33045185724E+03  0.59249716984E+02  0.33572499150E+03  0.00000000000E+00 0. -1.
         -3    1    3    3    0  502 -0.11177165134E+03  0.61230614589E+03  0.11384153428E+03  0.63274924991E+03  0.00000000000E+00 0.  1.
         13    1    5    5    0    0 -0.21976490927E+03 -0.69090902313E+03  0.29185701530E+02  0.72560574610E+03  0.00000000000E+00 0. -1.
        -13    1    5    5    0    0 -0.10174032447E+02 -0.17909917347E+03  0.28651791811E+01  0.17941079713E+03  0.00000000000E+00 0.  1.
          3    1    6    6  503    0  0.27916666799E+03 -0.93868554092E+02 -0.15295272833E+03  0.33187327562E+03  0.00000000000E+00 0. -1.
         -3    1    6    6    0  503  0.61023726276E+02  0.21118747569E+02 -0.50223347514E+02  0.81806364686E+02  0.00000000000E+00 0.  1.
<mgrwt>
<rscale>  0 0.22871696E+04</rscale>
<asrwt>0</asrwt>
<pdfrwt beam="1">  1        2 0.17608742E+00 0.22871696E+04</pdfrwt>
<pdfrwt beam="2">  1       -1 0.17578495E+00 0.22871696E+04</pdfrwt>
<totfact> 0.47251485E+00</totfact>
</mgrwt>
</event>
<event>
12    7  0.2466188E-007  0.2212341E+04  0.7818608E-02  0.8513309E-01
          2   -1    0    0  501    0  0.00000000000E+00  0.00000000000E+00  0.17712445274E+04  0.17712445274E+04  0.00000000000E+00 0. -1.
         -1   -1    0    0    0  501 -0.00000000000E+00 -0.00000000000E+00 -0.69082099280E+03  0.69082099280E+03  0.00000000000E+00 0.  1.
         24    2    1    2    0    0  0.72377572327E+02 -0.52403883833E+03 -0.38774398550E+03  0.66076233874E+03  0.80039071420E+02 0.  0.
        254    2    1    2    0    0 -0.72377572327E+02  0.52403883833E+03  0.14681675201E+04  0.18013031814E+04  0.89962329193E+03 0.  0.
         23    2    4    4    0    0 -0.34908021086E+03 -0.75254259091E+02  0.41650533824E+03  0.55643675271E+03  0.92870694333E+02 0.  0.
         23    2    4    4    0    0  0.27670263853E+03  0.59929309742E+03  0.10516621818E+04  0.12448664287E+04  0.89344915162E+02 0.  0.
          2    1    3    3  502    0  0.59581183344E+02 -0.29055358165E+03 -0.17349326108E+03  0.34361491944E+03  0.00000000000E+00 0. -1.
         -1    1    3    3    0  502  0.12796388983E+02 -0.23348525668E+03 -0.21425072442E+03  0.31714741930E+03  0.00000000000E+00 0.  1.
         13    1    5    5    0    0 -0.15138708051E+03  0.13999193081E+02  0.16769404201E+03  0.22635219742E+03  0.00000000000E+00 0.  1.
        -13    1    5    5    0    0 -0.19769313035E+03 -0.89253452173E+02  0.24881129623E+03  0.33008455530E+03  0.00000000000E+00 0. -1.
          3    1    6    6  503    0  0.24081836852E+03  0.57309760487E+03  0.98488570975E+03  0.11646605568E+04  0.00000000000E+00 0. -1.
         -3    1    6    6    0  503  0.35884270014E+02  0.26195492550E+02  0.66776472081E+02  0.80205871905E+02  0.00000000000E+00 0.  1.
<mgrwt>
<rscale>  0 0.22123408E+04</rscale>
<asrwt>0</asrwt>
<pdfrwt beam="1">  1        2 0.27249916E+00 0.22123408E+04</pdfrwt>
<pdfrwt beam="2">  1       -1 0.10628015E+00 0.22123408E+04</pdfrwt>
<totfact> 0.77021696E+00</totfact>
</mgrwt>
</event>
<event>
12    7  0.2466188E-007  0.2589976E+04  0.7818608E-02  0.8371614E-01
         -1   -1    0    0    0  501 -0.00000000000E+00  0.00000000000E+00  0.17692968820E+04  0.17692968820E+04  0.00000000000E+00 0.  1.
          2   -1    0    0  501    0  0.00000000000E+00 -0.00000000000E+00 -0.94783105200E+03  0.94783105200E+03  0.00000000000E+00 0. -1.
         24    2    1    2    0    0  0.51924224744E+03 -0.48108174630E+03 -0.57813613679E+03  0.91763406580E+03  0.82211482810E+02 0.  0.
        254    2    1    2    0    0 -0.51924224744E+03  0.48108174630E+03  0.13996019668E+04  0.17994938682E+04  0.88217932313E+03 0.  0.
         23    2    4    4    0    0 -0.18685291764E+03  0.35684773426E+03  0.13703896712E+04  0.14315032747E+04  0.94759992621E+02 0.  0.
         23    2    4    4    0    0 -0.33238932980E+03  0.12423401203E+03  0.29212295638E+02  0.36799059358E+03  0.92989044701E+02 0.  0.
          2    1    3    3  502    0  0.47142955754E+03 -0.39899235281E+03 -0.50051667465E+03  0.79495765103E+03  0.00000000000E+00 0. -1.
         -1    1    3    3    0  502  0.47812689897E+02 -0.82089393482E+02 -0.77619462140E+02  0.12267641477E+03  0.00000000000E+00 0.  1.
         13    1    5    5    0    0 -0.83357483333E+02  0.24116634047E+03  0.76024393301E+03  0.80192300845E+03  0.00000000000E+00 0.  1.
        -13    1    5    5    0    0 -0.10349543430E+03  0.11568139380E+03  0.61014573818E+03  0.62958026622E+03  0.00000000000E+00 0. -1.
          2    1    6    6  503    0 -0.17652619292E+03  0.68351494416E+02 -0.30970860692E+02  0.19181401875E+03  0.00000000000E+00 0. -1.
         -2    1    6    6    0  503 -0.15586313688E+03  0.55882517617E+02  0.60183156331E+02  0.17617657483E+03  0.00000000000E+00 0.  1.
<mgrwt>
<rscale>  0 0.25899765E+04</rscale>
<asrwt>0</asrwt>
<pdfrwt beam="1">  1        2 0.14582016E+00 0.25899765E+04</pdfrwt>
<pdfrwt beam="2">  1       -1 0.27219952E+00 0.25899765E+04</pdfrwt>
<totfact> 0.13746339E+00</totfact>
</mgrwt>
</event>
<event>
12    7  0.2466188E-007  0.1729540E+04  0.7818608E-02  0.8744693E-01
          2   -1    0    0  501    0  0.00000000000E+00  0.00000000000E+00  0.19150637625E+04  0.19150637625E+04  0.00000000000E+00 0. -1.
         -1   -1    0    0    0  501 -0.00000000000E+00 -0.00000000000E+00 -0.39049742564E+03  0.39049742564E+03  0.00000000000E+00 0.  1.
         24    2    1    2    0    0  0.60075319572E+03 -0.16057969799E+03  0.45256619337E+03  0.77309957645E+03  0.78591056405E+02 0.  0.
        254    2    1    2    0    0 -0.60075319572E+03  0.16057969799E+03  0.10720001435E+04  0.15324616117E+04  0.90142334232E+03 0.  0.
         23    2    4    4    0    0 -0.32521464548E+03  0.32391423418E+03  0.11022484160E+04  0.11973710966E+04  0.89782937344E+02 0.  0.
         23    2    4    4    0    0 -0.27553855024E+03 -0.16333453619E+03 -0.30248272479E+02  0.33509051504E+03  0.93653787428E+02 0.  0.
          4    1    3    3  502    0  0.57546695889E+03 -0.13592236134E+03  0.42277441204E+03  0.72689429256E+03  0.00000000000E+00 0. -1.
         -3    1    3    3    0  502  0.25286236828E+02 -0.24657336655E+02  0.29791781330E+02  0.46205283882E+02  0.00000000000E+00 0.  1.
         13    1    5    5    0    0 -0.15104462901E+03  0.15507489368E+03  0.63538266953E+03  0.67124797157E+03  0.00000000000E+00 0.  1.
        -13    1    5    5    0    0 -0.17417001647E+03  0.16883934050E+03  0.46686574644E+03  0.52612312508E+03  0.00000000000E+00 0. -1.
          3    1    6    6  503    0 -0.22679220248E+02 -0.29561370847E+02  0.23457267920E+02  0.44028003540E+02  0.00000000000E+00 0. -1.
         -3    1    6    6    0  503 -0.25285933000E+03 -0.13377316534E+03 -0.53705540399E+02  0.29106251150E+03  0.00000000000E+00 0.  1.
<mgrwt>
<rscale>  0 0.17295404E+04</rscale>
<asrwt>0</asrwt>
<pdfrwt beam="1">  1        2 0.29462519E+00 0.17295404E+04</pdfrwt>
<pdfrwt beam="2">  1       -1 0.60076528E-01 0.17295404E+04</pdfrwt>
<totfact> 0.22627165E+01</totfact>
</mgrwt>
</event>
<event>
12    7  0.2466188E-007  0.1500770E+04  0.7818608E-02  0.8883941E-01
          2   -1    0    0  501    0  0.00000000000E+00  0.00000000000E+00  0.42876905528E+03  0.42876905528E+03  0.00000000000E+00 0. -1.
         -1   -1    0    0    0  501 -0.00000000000E+00 -0.00000000000E+00 -0.13132418987E+04  0.13132418987E+04  0.00000000000E+00 0.  1.
         24    2    1    2    0    0 -0.29265150737E+03  0.11796015234E+03 -0.69803509220E+03  0.77012308260E+03  0.79227962936E+02 0.  0.
        254    2    1    2    0    0  0.29265150737E+03 -0.11796015234E+03 -0.18643775127E+03  0.97188787142E+03  0.90013748795E+03 0.  0.
         23    2    4    4    0    0 -0.27761378207E+03 -0.19417457937E+03  0.27822470236E+02  0.35114588920E+03  0.88069100053E+02 0.  0.
         23    2    4    4    0    0  0.57026528944E+03  0.76214427032E+02 -0.21426022150E+03  0.62074198223E+03  0.91662570086E+02 0.  0.
          4    1    3    3  502    0 -0.10131353207E+03  0.55298938169E+02 -0.17461162937E+03  0.20931226781E+03  0.00000000000E+00 0. -1.
         -3    1    3    3    0  502 -0.19133797530E+03  0.62661214166E+02 -0.52342346282E+03  0.56081081479E+03  0.00000000000E+00 0.  1.
         13    1    5    5    0    0 -0.51729231191E+02  0.24193471516E+00 -0.88105510172E+00  0.51737299409E+02  0.00000000000E+00 0. -1.
        -13    1    5    5    0    0 -0.22588455088E+03 -0.19441651408E+03  0.28703525338E+02  0.29940858979E+03  0.00000000000E+00 0.  1.
          2    1    6    6  503    0  0.43927265528E+03  0.19098348549E+02 -0.16219001416E+03  0.46864785638E+03  0.00000000000E+00 0. -1.
         -2    1    6    6    0  503  0.13099263415E+03  0.57116078484E+02 -0.52070207345E+02  0.15209412585E+03  0.00000000000E+00 0.  1.
<mgrwt>
<rscale>  0 0.15007698E+04</rscale>
<asrwt>0</asrwt>
<pdfrwt beam="1">  1        2 0.65964470E-01 0.15007698E+04</pdfrwt>
<pdfrwt beam="2">  1       -1 0.20203721E+00 0.15007698E+04</pdfrwt>
<totfact> 0.11832982E+01</totfact>
</mgrwt>
</event>
<event>
12    7  0.2466188E-007  0.1179892E+04  0.7818608E-02  0.9130642E-01
          2   -1    0    0  501    0  0.00000000000E+00  0.00000000000E+00  0.40079780045E+04  0.40079780045E+04  0.00000000000E+00 0. -1.
         -1   -1    0    0    0  501 -0.00000000000E+00 -0.00000000000E+00 -0.86835848561E+02  0.86835848561E+02  0.00000000000E+00 0.  1.
         24    2    1    2    0    0 -0.20312034523E+03 -0.12100838043E+03  0.85333804254E+03  0.88914327076E+03  0.80554567299E+02 0.  0.
        254    2    1    2    0    0  0.20312034523E+03  0.12100838043E+03  0.30678041134E+04  0.32056705823E+04  0.89944477388E+03 0.  0.
         23    2    4    4    0    0 -0.15650483547E+03  0.38515471217E+03  0.97651330258E+03  0.10653530087E+04  0.92525062817E+02 0.  0.
         23    2    4    4    0    0  0.35962518070E+03 -0.26414633174E+03  0.20912908108E+04  0.21403175736E+04  0.91424860821E+02 0.  0.
          4    1    3    3  502    0 -0.83326468709E+02 -0.22060422444E+02  0.20377497236E+03  0.22125596486E+03  0.00000000000E+00 0. -1.
         -3    1    3    3    0  502 -0.11979387652E+03 -0.98947957989E+02  0.64956307018E+03  0.66788730590E+03  0.00000000000E+00 0.  1.
         13    1    5    5    0    0 -0.12715492862E+03  0.27222623377E+03  0.59758337582E+03  0.66886574832E+03  0.00000000000E+00 0.  1.
        -13    1    5    5    0    0 -0.29349906855E+02  0.11292847840E+03  0.37892992676E+03  0.39648726040E+03  0.00000000000E+00 0. -1.
          3    1    6    6  503    0  0.30023652273E+03 -0.20031808537E+03  0.15106971635E+04  0.15532144812E+04  0.00000000000E+00 0.  1.
         -3    1    6    6    0  503  0.59388657963E+02 -0.63828246373E+02  0.58059364730E+03  0.58710309232E+03  0.00000000000E+00 0. -1.
<mgrwt>
<rscale>  0 0.11798918E+04</rscale>
<asrwt>0</asrwt>
<pdfrwt beam="1">  1        2 0.61661186E+00 0.11798918E+04</pdfrwt>
<pdfrwt beam="2">  1       -1 0.13359364E-01 0.11798918E+04</pdfrwt>
<totfact> 0.15705871E+01</totfact>
</mgrwt>
</event>
<event>
12    7  0.2466188E-007  0.1751344E+04  0.7818608E-02  0.8732611E-01
         -1   -1    0    0    0  501 -0.00000000000E+00  0.00000000000E+00  0.23624735234E+03  0.23624735234E+03  0.00000000000E+00 0.  1.
          2   -1    0    0  501    0  0.00000000000E+00 -0.00000000000E+00 -0.32457549700E+04  0.32457549700E+04  0.00000000000E+00 0. -1.
         24    2    1    2    0    0  0.28578477819E+03  0.50328622750E+03 -0.16588888003E+04  0.17588121806E+04  0.80859560142E+02 0.  0.
        254    2    1    2    0    0 -0.28578477819E+03 -0.50328622750E+03 -0.13506188174E+04  0.17231901418E+04  0.90013505027E+03 0.  0.
         23    2    4    4    0    0 -0.52349330936E+03 -0.11101304361E+03 -0.10005804070E+04  0.11385701217E+04  0.93870285148E+02 0.  0.
         23    2    4    4    0    0  0.23770853117E+03 -0.39227318388E+03 -0.35003841042E+03  0.58462002011E+03  0.94181115720E+02 0.  0.
          2    1    3    3  502    0  0.21509350285E+03  0.32890303451E+03 -0.12050111430E+04  0.12674755524E+04  0.00000000000E+00 0. -1.
         -1    1    3    3    0  502  0.70691275336E+02  0.17438319299E+03 -0.45387765726E+03  0.49133662816E+03  0.00000000000E+00 0.  1.
         13    1    5    5    0    0 -0.33359010537E+03 -0.30712464444E+02 -0.66727310454E+03  0.74664517002E+03  0.00000000000E+00 0. -1.
        -13    1    5    5    0    0 -0.18990320399E+03 -0.80300579171E+02 -0.33330730243E+03  0.39192495168E+03  0.00000000000E+00 0.  1.
          3    1    6    6  503    0  0.21098366985E+03 -0.26860320964E+03 -0.24851896449E+03  0.42240202282E+03  0.00000000000E+00 0. -1.
         -3    1    6    6    0  503  0.26724861318E+02 -0.12366997425E+03 -0.10151944592E+03  0.16221799729E+03  0.00000000000E+00 0.  1.
<mgrwt>
<rscale>  0 0.17513435E+04</rscale>
<asrwt>0</asrwt>
<pdfrwt beam="1">  1        2 0.49934687E+00 0.17513435E+04</pdfrwt>
<pdfrwt beam="2">  1       -1 0.36345750E-01 0.17513435E+04</pdfrwt>
<totfact> 0.95275544E+00</totfact>
</mgrwt>
</event>
<event>
12    7  0.2466188E-007  0.1443846E+04  0.7818608E-02  0.8922678E-01
         -1   -1    0    0    0  501 -0.00000000000E+00  0.00000000000E+00  0.56855431810E+03  0.56855431810E+03  0.00000000000E+00 0.  1.
          2   -1    0    0  501    0  0.00000000000E+00 -0.00000000000E+00 -0.91666258891E+03  0.91666258891E+03  0.00000000000E+00 0. -1.
         24    2    1    2    0    0 -0.48556482255E+02  0.15893876550E+03 -0.52170784856E+03  0.55351680849E+03  0.81132699242E+02 0.  0.
        254    2    1    2    0    0  0.48556482255E+02 -0.15893876550E+03  0.17359957775E+03  0.93170009852E+03  0.90017164866E+03 0.  0.
         23    2    4    4    0    0  0.15283847740E+03  0.33803192574E+03 -0.13766775172E+02  0.38286995228E+03  0.93673332731E+02 0.  0.
         23    2    4    4    0    0 -0.10428199515E+03 -0.49697069124E+03  0.18736635292E+03  0.54883014625E+03  0.90850298603E+02 0.  0.
          4    1    3    3  502    0  0.11118094293E+02  0.67821218640E+02 -0.28150258683E+03  0.28977066123E+03  0.00000000000E+00 0. -1.
         -3    1    3    3    0  502 -0.59674576548E+02  0.91117546862E+02 -0.24020526173E+03  0.26374614726E+03  0.00000000000E+00 0.  1.
         13    1    5    5    0    0  0.36346657079E+02  0.10536312538E+03 -0.46204591657E+02  0.12065376895E+03  0.00000000000E+00 0. -1.
        -13    1    5    5    0    0  0.11649182032E+03  0.23266880036E+03  0.32437816485E+02  0.26221618333E+03  0.00000000000E+00 0.  1.
          4    1    6    6  503    0 -0.11904094181E+03 -0.40253502038E+03  0.14303927530E+03  0.44346975403E+03  0.00000000000E+00 0.  1.
         -4    1    6    6    0  503  0.14758946666E+02 -0.94435670866E+02  0.44327077619E+02  0.10536039222E+03  0.00000000000E+00 0. -1.
<mgrwt>
<rscale>  0 0.14438455E+04</rscale>
<asrwt>0</asrwt>
<pdfrwt beam="1">  1        2 0.14102501E+00 0.14438455E+04</pdfrwt>
<pdfrwt beam="2">  1       -1 0.87469896E-01 0.14438455E+04</pdfrwt>
<totfact> 0.40702761E+01</totfact>
</mgrwt>
</event>
<event>
12    7  0.2466188E-007  0.3091881E+04  0.7818608E-02  0.8217970E-01
         -1   -1    0    0    0  501 -0.00000000000E+00  0.00000000000E+00  0.26931283894E+04  0.26931283894E+04  0.00000000000E+00 0.  1.
          2   -1    0    0  501    0  0.00000000000E+00 -0.00000000000E+00 -0.88741839385E+03  0.88741839385E+03  0.00000000000E+00 0. -1.
         24    2    1    2    0    0 -0.28327787960E+03  0.11269696475E+04  0.17561958215E+04  0.21073245328E+04  0.79284170647E+02 0.  0.
        254    2    1    2    0    0  0.28327787960E+03 -0.11269696475E+04  0.49514174095E+02  0.14732222505E+04  0.90422630053E+03 0.  0.
         23    2    4    4    0    0  0.37604110718E+03 -0.41450741475E+03 -0.32960904913E+03  0.65574002198E+03  0.90163961638E+02 0.  0.
         23    2    4    4    0    0 -0.92763227580E+02 -0.71246223270E+03  0.37912322323E+03  0.81748222852E+03  0.91298007334E+02 0.  0.
          2    1    3    3  502    0 -0.59936791893E+02  0.22956586273E+03  0.41873257773E+03  0.48127941573E+03  0.00000000000E+00 0. -1.
         -1    1    3    3    0  502 -0.22334108770E+03  0.89740378473E+03  0.13374632438E+04  0.16260451171E+04  0.00000000000E+00 0.  1.
         13    1    5    5    0    0  0.16652835154E+03 -0.24895383347E+03 -0.16296159841E+03  0.34097827735E+03  0.00000000000E+00 0.  1.
        -13    1    5    5    0    0  0.20951275564E+03 -0.16555358129E+03 -0.16664745072E+03  0.31476174463E+03  0.00000000000E+00 0. -1.
          4    1    6    6  503    0 -0.22353375763E+02 -0.24761045166E+03  0.17980605941E+03  0.30682377382E+03  0.00000000000E+00 0.  1.
         -4    1    6    6    0  503 -0.70409851817E+02 -0.46485178104E+03  0.19931716382E+03  0.51065845470E+03  0.00000000000E+00 0. -1.
<mgrwt>
<rscale>  0 0.30918808E+04</rscale>
<asrwt>0</asrwt>
<pdfrwt beam="1">  1        2 0.13652591E+00 0.30918808E+04</pdfrwt>
<pdfrwt beam="2">  1       -1 0.41432744E+00 0.30918808E+04</pdfrwt>
<totfact> 0.16505578E-01</totfact>
</mgrwt>
</event>
<event>
12    7  0.2466188E-007  0.2462475E+04  0.7818608E-02  0.8416477E-01
          2   -1    0    0  501    0  0.00000000000E+00  0.00000000000E+00  0.18799899442E+04  0.18799899442E+04  0.00000000000E+00 0. -1.
         -3   -1    0    0    0  501 -0.00000000000E+00 -0.00000000000E+00 -0.80635839072E+03  0.80635839072E+03  0.00000000000E+00 0.  1.
         24    2    1    2    0    0  0.44968146649E+02 -0.23554108911E+02  0.16272057361E+04  0.16297033375E+04  0.74548843816E+02 0.  0.
        254    2    1    2    0    0 -0.44968146649E+02  0.23554108911E+02 -0.55357418263E+03  0.10566449975E+04  0.89859743200E+03 0.  0.
         23    2    4    4    0    0  0.49489534497E+02  0.12626267033E+03  0.21321558688E+03  0.27137666674E+03  0.98959248282E+02 0.  0.
         23    2    4    4    0    0 -0.94457681146E+02 -0.10270856142E+03 -0.76678976951E+03  0.78526833076E+03  0.95960921983E+02 0.  0.
          4    1    3    3  502    0  0.50283820122E+02 -0.10666914665E+02  0.15693574653E+04  0.15701990636E+04  0.00000000000E+00 0. -1.
         -3    1    3    3    0  502 -0.53156734739E+01 -0.12887194246E+02  0.57848270856E+02  0.59504273805E+02  0.00000000000E+00 0.  1.
         13    1    5    5    0    0 -0.13617846246E+02  0.96553861247E+02  0.13567860823E+03  0.16708314873E+03  0.00000000000E+00 0. -1.
        -13    1    5    5    0    0  0.63107380744E+02  0.29708809084E+02  0.77536978641E+02  0.10429351801E+03  0.00000000000E+00 0.  1.
          1    1    6    6  503    0  0.78852225909E+01 -0.17281942836E+02 -0.23986838006E+02  0.30597560050E+02  0.00000000000E+00 0. -1.
         -1    1    6    6    0  503 -0.10234290374E+03 -0.85426618585E+02 -0.74280293150E+03  0.75467077071E+03  0.00000000000E+00 0.  1.
<mgrwt>
<rscale>  0 0.24624749E+04</rscale>
<asrwt>0</asrwt>
<pdfrwt beam="1">  1        2 0.28922922E+00 0.24624749E+04</pdfrwt>
<pdfrwt beam="2">  1       -3 0.12405514E+00 0.24624749E+04</pdfrwt>
<totfact> 0.23100173E+00</totfact>
</mgrwt>
</event>
<event>
12    7  0.2466188E-007  0.1482918E+04  0.7818608E-02  0.8895893E-01
          2   -1    0    0  501    0  0.00000000000E+00  0.00000000000E+00  0.76907552223E+03  0.76907552223E+03  0.00000000000E+00 0. -1.
         -1   -1    0    0    0  501 -0.00000000000E+00 -0.00000000000E+00 -0.71483392489E+03  0.71483392489E+03  0.00000000000E+00 0.  1.
         24    2    1    2    0    0  0.31913722573E+03 -0.16583265204E+03  0.30841438310E+03  0.48039331735E+03  0.79430915353E+02 0.  0.
        254    2    1    2    0    0 -0.31913722573E+03  0.16583265204E+03 -0.25417278576E+03  0.10035161298E+04  0.90171601980E+03 0.  0.
         23    2    4    4    0    0 -0.38867638665E+03  0.33943791831E+02  0.24795319462E+03  0.47165203513E+03  0.93559291268E+02 0.  0.
         23    2    4    4    0    0  0.69539160911E+02  0.13188886021E+03 -0.50212598038E+03  0.53186409465E+03  0.92295983952E+02 0.  0.
          2    1    3    3  502    0  0.29847440762E+03 -0.16174442255E+03  0.30937918474E+03  0.45930785992E+03  0.00000000000E+00 0. -1.
         -1    1    3    3    0  502  0.20662818111E+02 -0.40882294908E+01 -0.96480164046E+00  0.21085457426E+02  0.00000000000E+00 0.  1.
         13    1    5    5    0    0 -0.12086217570E+03  0.46254392338E+02  0.51498655946E+02  0.13928117565E+03  0.00000000000E+00 0. -1.
        -13    1    5    5    0    0 -0.26781421094E+03 -0.12310600507E+02  0.19645453867E+03  0.33237085948E+03  0.00000000000E+00 0.  1.
          4    1    6    6  503    0  0.76553836455E+02  0.47350812784E+02 -0.27873905880E+03  0.29291304554E+03  0.00000000000E+00 0. -1.
         -4    1    6    6    0  503 -0.70146755445E+01  0.84538047426E+02 -0.22338692159E+03  0.23895104911E+03  0.00000000000E+00 0.  1.
<mgrwt>
<rscale>  0 0.14829178E+04</rscale>
<asrwt>0</asrwt>
<pdfrwt beam="1">  1        2 0.11831931E+00 0.14829178E+04</pdfrwt>
<pdfrwt beam="2">  1       -1 0.10997445E+00 0.14829178E+04</pdfrwt>
<totfact> 0.30622056E+01</totfact>
</mgrwt>
</event>
<event>
12    7  0.2466188E-007  0.4473959E+04  0.7818608E-02  0.7915212E-01
          2   -1    0    0  501    0  0.00000000000E+00  0.00000000000E+00  0.20395192911E+04  0.20395192911E+04  0.00000000000E+00 0. -1.
         -1   -1    0    0    0  501 -0.00000000000E+00 -0.00000000000E+00 -0.24535575196E+04  0.24535575196E+04  0.00000000000E+00 0.  1.
         24    2    1    2    0    0 -0.16914295427E+04 -0.56840036325E+03 -0.13954731925E+04  0.22666542960E+04  0.79770894068E+02 0.  0.
        254    2    1    2    0    0  0.16914295427E+04  0.56840036325E+03  0.98143496397E+03  0.22264225147E+04  0.89984985111E+03 0.  0.
         23    2    4    4    0    0  0.55195388498E+03 -0.17354446992E+03  0.77428338166E+02  0.59103562571E+03  0.92505076237E+02 0.  0.
         23    2    4    4    0    0  0.11394756577E+04  0.74194483317E+03  0.90400662581E+03  0.16353868890E+04  0.91517141137E+02 0.  0.
          2    1    3    3  502    0 -0.99982458154E+03 -0.37087343560E+03 -0.80676678679E+03  0.13371869530E+04  0.00000000000E+00 0. -1.
         -1    1    3    3    0  502 -0.69160496118E+03 -0.19752692765E+03 -0.58870640570E+03  0.92946734294E+03  0.00000000000E+00 0.  1.
         13    1    5    5    0    0  0.92299955445E+02  0.49974464802E+01  0.43395154074E+01  0.92536952838E+02  0.00000000000E+00 0.  1.
        -13    1    5    5    0    0  0.45965392953E+03 -0.17854191640E+03  0.73088822758E+02  0.49849867287E+03  0.00000000000E+00 0. -1.
          4    1    6    6  503    0  0.44585594462E+02  0.11140786319E+02  0.22962890906E+02  0.51373988673E+02  0.00000000000E+00 0.  1.
         -4    1    6    6    0  503  0.10948900633E+04  0.73080404685E+03  0.88104373490E+03  0.15840129003E+04  0.00000000000E+00 0. -1.
<mgrwt>
<rscale>  0 0.44739593E+04</rscale>
<asrwt>0</asrwt>
<pdfrwt beam="1">  1        2 0.31377220E+00 0.44739593E+04</pdfrwt>
<pdfrwt beam="2">  1       -1 0.37747038E+00 0.44739593E+04</pdfrwt>
<totfact> 0.55846093E-02</totfact>
</mgrwt>
</event>
<event>
12    7  0.2466188E-007  0.2975270E+04  0.7818608E-02  0.8250828E-01
          2   -1    0    0  501    0  0.00000000000E+00  0.00000000000E+00  0.22571817658E+04  0.22571817658E+04  0.00000000000E+00 0. -1.
         -1   -1    0    0    0  501 -0.00000000000E+00 -0.00000000000E+00 -0.98045192373E+03  0.98045192373E+03  0.00000000000E+00 0.  1.
         24    2    1    2    0    0 -0.11217931083E+04  0.52071780064E+03  0.11702411166E+04  0.17045240929E+04  0.79820465292E+02 0.  0.
        254    2    1    2    0    0  0.11217931083E+04 -0.52071780064E+03  0.10648872551E+03  0.15331095967E+04  0.89973239417E+03 0.  0.
         23    2    4    4    0    0  0.10929174243E+04 -0.59871131448E+03  0.31357914354E+03  0.12881806311E+04  0.90297977604E+02 0.  0.
         23    2    4    4    0    0  0.28875683959E+02  0.77993513841E+02 -0.20709041803E+03  0.24492896553E+03  0.10093048892E+03 0.  0.
          2    1    3    3  502    0 -0.28206386735E+03  0.12105275707E+03  0.33735403144E+03  0.45609378179E+03  0.00000000000E+00 0. -1.
         -1    1    3    3    0  502 -0.83972924090E+03  0.39966504357E+03  0.83288708515E+03  0.12484303111E+04  0.00000000000E+00 0.  1.
         13    1    5    5    0    0  0.63262522380E+02 -0.60202585982E+02  0.17241227890E+02  0.89015493235E+02  0.00000000000E+00 0.  1.
        -13    1    5    5    0    0  0.10296549019E+04 -0.53850872849E+03  0.29633791565E+03  0.11991651379E+04  0.00000000000E+00 0. -1.
          3    1    6    6  503    0 -0.31620420305E+02  0.54955523539E+02 -0.12701143085E+03  0.14195726158E+03  0.00000000000E+00 0. -1.
         -3    1    6    6    0  503  0.60496104264E+02  0.23037990302E+02 -0.80078987175E+02  0.10297170395E+03  0.00000000000E+00 0.  1.
<mgrwt>
<rscale>  0 0.29752702E+04</rscale>
<asrwt>0</asrwt>
<pdfrwt beam="1">  1        2 0.34725873E+00 0.29752702E+04</pdfrwt>
<pdfrwt beam="2">  1       -1 0.15083876E+00 0.29752702E+04</pdfrwt>
<totfact> 0.16067602E+00</totfact>
</mgrwt>
</event>
<event>
12    7  0.2466188E-007  0.2243215E+04  0.7818608E-02  0.8500653E-01
         -3   -1    0    0    0  501 -0.00000000000E+00  0.00000000000E+00  0.73603612700E+03  0.73603612700E+03  0.00000000000E+00 0.  1.
          4   -1    0    0  501    0  0.00000000000E+00 -0.00000000000E+00 -0.17091592687E+04  0.17091592687E+04  0.00000000000E+00 0. -1.
         24    2    1    2    0    0 -0.25622002458E+03 -0.75126957840E+03  0.13825649446E+03  0.80955288192E+03  0.78780263661E+02 0.  0.
        254    2    1    2    0    0  0.25622002458E+03  0.75126957840E+03 -0.11113796361E+04  0.16356425138E+04  0.90005947400E+03 0.  0.
         23    2    4    4    0    0  0.49442075260E+03  0.79514211639E+03 -0.89360013560E+03  0.12975210663E+04  0.91306349311E+02 0.  0.
         23    2    4    4    0    0 -0.23820072802E+03 -0.43872537981E+02 -0.21777950054E+03  0.33812144741E+03  0.90740376477E+02 0.  0.
          2    1    3    3  502    0 -0.35835615230E+02 -0.21293818295E+03  0.34239791204E+02  0.21863033727E+03  0.00000000000E+00 0. -1.
         -1    1    3    3    0  502 -0.22038440935E+03 -0.53833139546E+03  0.10401670325E+03  0.59092254465E+03  0.00000000000E+00 0.  1.
         13    1    5    5    0    0  0.24227418720E+03  0.47517768815E+03 -0.50326465448E+03  0.73332525495E+03  0.00000000000E+00 0. -1.
        -13    1    5    5    0    0  0.25214656540E+03  0.31996442824E+03 -0.39033548112E+03  0.56419581140E+03  0.00000000000E+00 0.  1.
          3    1    6    6  503    0 -0.13260966167E+03 -0.62474943925E+02 -0.15732946470E+03  0.21503720946E+03  0.00000000000E+00 0. -1.
         -3    1    6    6    0  503 -0.10559106635E+03  0.18602405944E+02 -0.60450035838E+02  0.12308423795E+03  0.00000000000E+00 0.  1.
<mgrwt>
<rscale>  0 0.22432146E+04</rscale>
<asrwt>0</asrwt>
<pdfrwt beam="1">  1        4 0.26294758E+00 0.22432146E+04</pdfrwt>
<pdfrwt beam="2">  1       -3 0.11323633E+00 0.22432146E+04</pdfrwt>
<totfact> 0.70853561E-02</totfact>
</mgrwt>
</event>
<event>
12    7  0.2876143E-007  0.3007345E+04  0.7818608E-02  0.8241636E-01
          2   -1    0    0  501    0  0.00000000000E+00  0.00000000000E+00  0.16362117295E+04  0.16362117295E+04  0.00000000000E+00 0. -1.
         -1   -1    0    0    0  501 -0.00000000000E+00 -0.00000000000E+00 -0.13818698393E+04  0.13818698393E+04  0.00000000000E+00 0.  1.
         24    2    1    2    0    0  0.40369273880E+03 -0.11151639480E+04 -0.56731784207E+03  0.13171448860E+04  0.80390661628E+02 0.  0.
        254    2    1    2    0    0 -0.40369273880E+03  0.11151639480E+04  0.82165973232E+03  0.17009366828E+04  0.90083429374E+03 0.  0.
         23    2    4    4    0    0  0.26797607757E+03  0.44676808197E+03  0.20973509146E+03  0.56945990543E+03  0.94249021683E+02 0.  0.
         23    2    4    4    0    0 -0.67166881637E+03  0.66839586607E+03  0.61192464086E+03  0.11314767774E+04  0.88858870951E+02 0.  0.
          4    1    3    3  502    0  0.34856055286E+03 -0.95703432959E+03 -0.45526949967E+03  0.11156520445E+04  0.00000000000E+00 0. -1.
         -3    1    3    3    0  502  0.55132185937E+02 -0.15812961845E+03 -0.11204834241E+03  0.20149284154E+03  0.00000000000E+00 0.  1.
         13    1    5    5    0    0  0.35569665124E+02  0.24069450271E+02 -0.12366171973E+01  0.42965902009E+02  0.00000000000E+00 0.  1.
        -13    1    5    5    0    0  0.23240641245E+03  0.42269863170E+03  0.21097170866E+03  0.52649400342E+03  0.00000000000E+00 0. -1.
          2    1    6    6  503    0 -0.41984692793E+03  0.37468981066E+03  0.32529393900E+03  0.64998464894E+03  0.00000000000E+00 0. -1.
         -2    1    6    6    0  503 -0.25182188844E+03  0.29370605541E+03  0.28663070186E+03  0.48149212842E+03  0.00000000000E+00 0.  1.
<mgrwt>
<rscale>  0 0.30073454E+04</rscale>
<asrwt>0</asrwt>
<pdfrwt beam="1">  1        2 0.25172488E+00 0.30073454E+04</pdfrwt>
<pdfrwt beam="2">  1       -1 0.21259536E+00 0.30073454E+04</pdfrwt>
<totfact> 0.12796744E+00</totfact>
</mgrwt>
</event>
<event>
12    7  0.2466188E-007  0.2216855E+04  0.7818608E-02  0.8511445E-01
          2   -1    0    0  501    0  0.00000000000E+00  0.00000000000E+00  0.69750555463E+03  0.69750555463E+03  0.00000000000E+00 0. -1.
         -1   -1    0    0    0  501 -0.00000000000E+00 -0.00000000000E+00 -0.17614369348E+04  0.17614369348E+04  0.00000000000E+00 0.  1.
         24    2    1    2    0    0  0.41426636075E+03 -0.82481949406E+03 -0.50230175813E+03  0.10540103713E+04  0.81774025364E+02 0.  0.
        254    2    1    2    0    0 -0.41426636075E+03  0.82481949406E+03 -0.56162962202E+03  0.14049321181E+04  0.89803263230E+03 0.  0.
         23    2    4    4    0    0 -0.33739126137E+02  0.76383321460E+03 -0.63806244144E+03  0.99979879182E+03  0.88850642033E+02 0.  0.
         23    2    4    4    0    0 -0.38052723462E+03  0.60986279460E+02  0.76432819419E+02  0.40513332627E+03  0.98847021214E+02 0.  0.
          4    1    3    3  502    0  0.10415925200E+03 -0.21622345635E+03 -0.90934369610E+02  0.25665305848E+03  0.00000000000E+00 0. -1.
         -3    1    3    3    0  502  0.31010710875E+03 -0.60859603771E+03 -0.41136738852E+03  0.79735731285E+03  0.00000000000E+00 0.  1.
         13    1    5    5    0    0 -0.45111666209E+02  0.18448087512E+03 -0.17051347167E+03  0.25523146306E+03  0.00000000000E+00 0. -1.
        -13    1    5    5    0    0  0.11372540072E+02  0.57935233948E+03 -0.46754896977E+03  0.74456732876E+03  0.00000000000E+00 0.  1.
          3    1    6    6  503    0 -0.11052495679E+03 -0.93667555567E+01  0.58840942552E+02  0.12556177246E+03  0.00000000000E+00 0. -1.
         -3    1    6    6    0  503 -0.27000227782E+03  0.70353035017E+02  0.17591876867E+02  0.27957155380E+03  0.00000000000E+00 0.  1.
<mgrwt>
<rscale>  0 0.22168555E+04</rscale>
<asrwt>0</asrwt>
<pdfrwt beam="1">  1        2 0.10730855E+00 0.22168555E+04</pdfrwt>
<pdfrwt beam="2">  1       -1 0.27099030E+00 0.22168555E+04</pdfrwt>
<totfact> 0.21829210E+00</totfact>
</mgrwt>
</event>
<event>
12    7  0.2466188E-007  0.1932467E+04  0.7818608E-02  0.8638862E-01
         -1   -1    0    0    0  501 -0.00000000000E+00  0.00000000000E+00  0.50040774145E+03  0.50040774145E+03  0.00000000000E+00 0.  1.
          2   -1    0    0  501    0  0.00000000000E+00 -0.00000000000E+00 -0.18656937321E+04  0.18656937321E+04  0.00000000000E+00 0. -1.
         24    2    1    2    0    0 -0.70571567218E+03 -0.20681739055E+03 -0.33128595514E+03  0.81066072991E+03  0.81316615478E+02 0.  0.
        254    2    1    2    0    0  0.70571567218E+03  0.20681739055E+03 -0.10340000356E+04  0.15554407437E+04  0.89968427272E+03 0.  0.
         23    2    4    4    0    0  0.69069974045E+03  0.29853986438E+03 -0.11526396423E+04  0.13794899903E+04  0.90676934144E+02 0.  0.
         23    2    4    4    0    0  0.15015931733E+02 -0.91722473834E+02  0.11863960670E+03  0.17595075337E+03  0.90800996248E+02 0.  0.
          2    1    3    3  502    0 -0.53799217003E+03 -0.12646840601E+03 -0.26801501554E+03  0.61421647754E+03  0.00000000000E+00 0. -1.
         -1    1    3    3    0  502 -0.16772350215E+03 -0.80348984542E+02 -0.63270939605E+02  0.19644425237E+03  0.00000000000E+00 0.  1.
         13    1    5    5    0    0  0.27018082212E+03  0.16524342671E+03 -0.48991969667E+03  0.58337327321E+03  0.00000000000E+00 0. -1.
        -13    1    5    5    0    0  0.42051891832E+03  0.13329643768E+03 -0.66271994559E+03  0.79611671710E+03  0.00000000000E+00 0.  1.
          4    1    6    6  503    0  0.55092818114E+01  0.36294573963E+01 -0.12143178350E+02  0.13819621106E+02  0.00000000000E+00 0.  1.
         -4    1    6    6    0  503  0.95066499219E+01 -0.95351931230E+02  0.13078278505E+03  0.16213113226E+03  0.00000000000E+00 0. -1.
<mgrwt>
<rscale>  0 0.19324674E+04</rscale>
<asrwt>0</asrwt>
<pdfrwt beam="1">  1        2 0.28702980E+00 0.19324674E+04</pdfrwt>
<pdfrwt beam="2">  1       -1 0.76985807E-01 0.19324674E+04</pdfrwt>
<totfact> 0.14281910E+01</totfact>
</mgrwt>
</event>
<event>
12    7  0.2466188E-007  0.1809247E+04  0.7818608E-02  0.8701397E-01
         -1   -1    0    0    0  501 -0.00000000000E+00  0.00000000000E+00  0.46430110475E+03  0.46430110475E+03  0.00000000000E+00 0.  1.
          2   -1    0    0  501    0  0.00000000000E+00 -0.00000000000E+00 -0.17625287161E+04  0.17625287161E+04  0.00000000000E+00 0. -1.
         24    2    1    2    0    0 -0.39707759186E+03  0.53515349846E+03 -0.60815953930E+03  0.90561302014E+03  0.78848184093E+02 0.  0.
        254    2    1    2    0    0  0.39707759186E+03 -0.53515349846E+03 -0.69006807201E+03  0.13212168007E+04  0.90849326331E+03 0.  0.
         23    2    4    4    0    0  0.17270870026E+03 -0.75854723257E+03 -0.38027234295E+03  0.87049782277E+03  0.89090995355E+02 0.  0.
         23    2    4    4    0    0  0.22436889160E+03  0.22339373411E+03 -0.30979572906E+03  0.45071897789E+03  0.83234868483E+02 0.  0.
          4    1    3    3  502    0 -0.31757217743E+03  0.36910306039E+03 -0.44299491998E+03  0.65828083384E+03  0.00000000000E+00 0. -1.
         -3    1    3    3    0  502 -0.79505414427E+02  0.16605043807E+03 -0.16516461931E+03  0.24733218630E+03  0.00000000000E+00 0.  1.
         13    1    5    5    0    0  0.11373690167E+03 -0.51553534184E+03 -0.21104327009E+03  0.56855257746E+03  0.00000000000E+00 0.  1.
        -13    1    5    5    0    0  0.58971798600E+02 -0.24301189073E+03 -0.16922907286E+03  0.30194524531E+03  0.00000000000E+00 0. -1.
          3    1    6    6  503    0  0.50863072646E+02  0.83883103006E+02 -0.55409839669E+02  0.11266622147E+03  0.00000000000E+00 0. -1.
         -3    1    6    6    0  503  0.17350581895E+03  0.13951063111E+03 -0.25438588939E+03  0.33805275642E+03  0.00000000000E+00 0.  1.
<mgrwt>
<rscale>  0 0.18092474E+04</rscale>
<asrwt>0</asrwt>
<pdfrwt beam="1">  1        2 0.27115827E+00 0.18092474E+04</pdfrwt>
<pdfrwt beam="2">  1       -1 0.71430939E-01 0.18092474E+04</pdfrwt>
<totfact> 0.19247272E+01</totfact>
</mgrwt>
</event>
<event>
12    7  0.2466188E-007  0.2250061E+04  0.7818608E-02  0.8497876E-01
         -1   -1    0    0    0  501 -0.00000000000E+00  0.00000000000E+00  0.12537757869E+04  0.12537757869E+04  0.00000000000E+00 0.  1.
          2   -1    0    0  501    0  0.00000000000E+00 -0.00000000000E+00 -0.10095051632E+04  0.10095051632E+04  0.00000000000E+00 0. -1.
         24    2    1    2    0    0 -0.43718698558E+03  0.46726533458E+03  0.79922788502E+03  0.10269047361E+04  0.79364800706E+02 0.  0.
        254    2    1    2    0    0  0.43718698558E+03 -0.46726533458E+03 -0.55495726130E+03  0.12363762140E+04  0.90065488806E+03 0.  0.
         23    2    4    4    0    0  0.54734269565E+03 -0.18681501561E+03  0.14467473580E+02  0.58524657992E+03  0.88432883998E+02 0.  0.
         23    2    4    4    0    0 -0.11015571007E+03 -0.28045031897E+03 -0.56942473488E+03  0.65112963407E+03  0.94544221415E+02 0.  0.
          2    1    3    3  502    0 -0.37602151431E+01  0.24811399335E+02  0.37893285297E+02  0.45449376514E+02  0.00000000000E+00 0. -1.
         -1    1    3    3    0  502 -0.43342677044E+03  0.44245393525E+03  0.76133459973E+03  0.98145535960E+03  0.00000000000E+00 0.  1.
         13    1    5    5    0    0  0.38752641221E+03 -0.16199624310E+03  0.38309810645E+02  0.42176669443E+03  0.00000000000E+00 0.  1.
        -13    1    5    5    0    0  0.15981628344E+03 -0.24818772507E+02 -0.23842337065E+02  0.16347988548E+03  0.00000000000E+00 0. -1.
          2    1    6    6  503    0 -0.30275717972E+01 -0.60489207834E+02 -0.56434454020E+02  0.82782595127E+02  0.00000000000E+00 0. -1.
         -2    1    6    6    0  503 -0.10712813827E+03 -0.21996111114E+03 -0.51299028086E+03  0.56834703895E+03  0.00000000000E+00 0.  1.
<mgrwt>
<rscale>  0 0.22500606E+04</rscale>
<asrwt>0</asrwt>
<pdfrwt beam="1">  1        2 0.15530849E+00 0.22500606E+04</pdfrwt>
<pdfrwt beam="2">  1       -1 0.19288858E+00 0.22500606E+04</pdfrwt>
<totfact> 0.43481951E+00</totfact>
</mgrwt>
</event>
<event>
12    7  0.2466188E-007  0.2076354E+04  0.7818608E-02  0.8571732E-01
         -1   -1    0    0    0  501 -0.00000000000E+00  0.00000000000E+00  0.52493389760E+03  0.52493389760E+03  0.00000000000E+00 0.  1.
          2   -1    0    0  501    0  0.00000000000E+00 -0.00000000000E+00 -0.20532330103E+04  0.20532330103E+04  0.00000000000E+00 0. -1.
         24    2    1    2    0    0 -0.31205173261E+03  0.74155061391E+03 -0.91722930523E+03  0.12224279456E+04  0.75808225067E+02 0.  0.
        254    2    1    2    0    0  0.31205173261E+03 -0.74155061391E+03 -0.61106980748E+03  0.13557389623E+04  0.90407313174E+03 0.  0.
         23    2    4    4    0    0  0.44762431673E+03 -0.10486286568E+03 -0.50711819981E+03  0.69081955382E+03  0.93268632566E+02 0.  0.
         23    2    4    4    0    0 -0.13557258413E+03 -0.63668774823E+03 -0.10395160767E+03  0.66491940850E+03  0.86952106121E+02 0.  0.
          2    1    3    3  502    0 -0.19205272288E+03  0.37244668848E+03 -0.44686954087E+03  0.61261176179E+03  0.00000000000E+00 0. -1.
         -1    1    3    3    0  502 -0.11999900972E+03  0.36910392543E+03 -0.47035976436E+03  0.60981618380E+03  0.00000000000E+00 0.  1.
         13    1    5    5    0    0  0.25767957774E+02 -0.25327734013E+02 -0.19140569813E+02  0.40888178864E+02  0.00000000000E+00 0.  1.
        -13    1    5    5    0    0  0.42185635896E+03 -0.79535131667E+02 -0.48797763000E+03  0.64993137495E+03  0.00000000000E+00 0. -1.
          3    1    6    6  503    0 -0.36553770852E+02 -0.37699303415E+03 -0.64032123212E+02  0.38413544325E+03  0.00000000000E+00 0. -1.
         -3    1    6    6    0  503 -0.99018813276E+02 -0.25969471408E+03 -0.39919484457E+02  0.28078396525E+03  0.00000000000E+00 0.  1.
<mgrwt>
<rscale>  0 0.20763541E+04</rscale>
<asrwt>0</asrwt>
<pdfrwt beam="1">  1        2 0.31588200E+00 0.20763541E+04</pdfrwt>
<pdfrwt beam="2">  1       -1 0.80759061E-01 0.20763541E+04</pdfrwt>
<totfact> 0.10026578E+01</totfact>
</mgrwt>
</event>
<event>
12    7  0.2466188E-007  0.1518610E+04  0.7818608E-02  0.8872171E-01
         -1   -1    0    0    0  501 -0.00000000000E+00  0.00000000000E+00  0.25379816628E+03  0.25379816628E+03  0.00000000000E+00 0.  1.
          2   -1    0    0  501    0  0.00000000000E+00 -0.00000000000E+00 -0.22716629388E+04  0.22716629388E+04  0.00000000000E+00 0. -1.
         24    2    1    2    0    0  0.47906348840E+03 -0.27857108717E+02 -0.50944994472E+03  0.70464117170E+03  0.81866294997E+02 0.  0.
        254    2    1    2    0    0 -0.47906348840E+03  0.27857108717E+02 -0.15084148278E+04  0.18208199334E+04  0.89988448850E+03 0.  0.
         23    2    4    4    0    0 -0.75533774496E+02  0.40598721096E+03 -0.89680126576E+03  0.99130255522E+03  0.88866636970E+02 0.  0.
         23    2    4    4    0    0 -0.40352971390E+03 -0.37813010225E+03 -0.61161356204E+03  0.82951737816E+03  0.90605337413E+02 0.  0.
          2    1    3    3  502    0  0.42972577700E+03 -0.47245509390E+02 -0.46980375592E+03  0.63844494724E+03  0.00000000000E+00 0. -1.
         -1    1    3    3    0  502  0.49337711394E+02  0.19388400673E+02 -0.39646188793E+02  0.66196224454E+02  0.00000000000E+00 0.  1.
         13    1    5    5    0    0 -0.44121296239E+02  0.82093160582E+02 -0.14873327924E+03  0.17552083680E+03  0.00000000000E+00 0. -1.
        -13    1    5    5    0    0 -0.31412478256E+02  0.32389405038E+03 -0.74806798652E+03  0.81578171842E+03  0.00000000000E+00 0.  1.
          1    1    6    6  503    0 -0.29854087237E+02 -0.96001050769E+01 -0.62519894127E+02  0.69944018357E+02  0.00000000000E+00 0. -1.
         -1    1    6    6    0  503 -0.37367562667E+03 -0.36852999717E+03 -0.54909366791E+03  0.75957335980E+03  0.00000000000E+00 0.  1.
<mgrwt>
<rscale>  0 0.15186097E+04</rscale>
<asrwt>0</asrwt>
<pdfrwt beam="1">  1        2 0.34948660E+00 0.15186097E+04</pdfrwt>
<pdfrwt beam="2">  1       -1 0.39045872E-01 0.15186097E+04</pdfrwt>
<totfact> 0.32954204E+01</totfact>
</mgrwt>
</event>
<event>
12    7  0.2466188E-007  0.1504354E+04  0.7818608E-02  0.8881563E-01
         -1   -1    0    0    0  501 -0.00000000000E+00  0.00000000000E+00  0.35061747162E+03  0.35061747162E+03  0.00000000000E+00 0.  1.
          2   -1    0    0  501    0  0.00000000000E+00 -0.00000000000E+00 -0.16136390470E+04  0.16136390470E+04  0.00000000000E+00 0. -1.
         24    2    1    2    0    0 -0.16772703565E+03  0.39950465145E+03 -0.67265082594E+03  0.80392449381E+03  0.78096946693E+02 0.  0.
        254    2    1    2    0    0  0.16772703565E+03 -0.39950465145E+03 -0.59037074941E+03  0.11603320248E+04  0.90005358781E+03 0.  0.
         23    2    4    4    0    0 -0.25356275015E+03 -0.42962892004E+03 -0.12401405829E+03  0.52280551958E+03  0.95242046658E+02 0.  0.
         23    2    4    4    0    0  0.42128978581E+03  0.30124268584E+02 -0.46635669112E+03  0.63752650520E+03  0.10275663624E+03 0.  0.
          4    1    3    3  502    0 -0.42697071941E+02  0.17309644763E+03 -0.32403943646E+03  0.36984723402E+03  0.00000000000E+00 0. -1.
         -3    1    3    3    0  502 -0.12502996371E+03  0.22640820383E+03 -0.34861138948E+03  0.43407725978E+03  0.00000000000E+00 0.  1.
         13    1    5    5    0    0 -0.21164704331E+03 -0.40114367425E+03 -0.12989296368E+03  0.47178692261E+03  0.00000000000E+00 0.  1.
        -13    1    5    5    0    0 -0.41915706847E+02 -0.28485245784E+02  0.58789053940E+01  0.51018596967E+02  0.00000000000E+00 0. -1.
          3    1    6    6  503    0  0.17576420578E+03 -0.33009500081E+02 -0.16082493409E+03  0.24051474498E+03  0.00000000000E+00 0. -1.
         -3    1    6    6    0  503  0.24552558003E+03  0.63133768665E+02 -0.30553175703E+03  0.39701176021E+03  0.00000000000E+00 0.  1.
<mgrwt>
<rscale>  0 0.15043537E+04</rscale>
<asrwt>0</asrwt>
<pdfrwt beam="1">  1        2 0.24825216E+00 0.15043537E+04</pdfrwt>
<pdfrwt beam="2">  1       -1 0.53941150E-01 0.15043537E+04</pdfrwt>
<totfact> 0.41833345E+01</totfact>
</mgrwt>
</event>
<event>
12    7  0.2466188E-007  0.1708851E+04  0.7818608E-02  0.8756332E-01
          2   -1    0    0  501    0  0.00000000000E+00  0.00000000000E+00  0.64429885526E+03  0.64429885526E+03  0.00000000000E+00 0. -1.
         -3   -1    0    0    0  501 -0.00000000000E+00 -0.00000000000E+00 -0.11330816269E+04  0.11330816269E+04  0.00000000000E+00 0.  1.
         24    2    1    2    0    0  0.60107014279E+03  0.68660835470E+01 -0.43474000030E+02  0.60796603040E+03  0.80001536174E+02 0.  0.
        254    2    1    2    0    0 -0.60107014279E+03 -0.68660835470E+01 -0.44530877162E+03  0.11694144518E+04  0.89883135141E+03 0.  0.
         23    2    4    4    0    0  0.63792455764E+02 -0.30738505887E+03 -0.39227926130E+02  0.32920941747E+03  0.91021747597E+02 0.  0.
         23    2    4    4    0    0 -0.66486259855E+03  0.30051897532E+03 -0.40608084549E+03  0.84020503431E+03  0.93214361101E+02 0.  0.
          4    1    3    3  502    0  0.13673750107E+03  0.13293977583E+02  0.21537743306E+02  0.13906023308E+03  0.00000000000E+00 0. -1.
         -3    1    3    3    0  502  0.46433264172E+03 -0.64278940364E+01 -0.65011743336E+02  0.46890579732E+03  0.00000000000E+00 0.  1.
         13    1    5    5    0    0  0.13166165402E+02 -0.20604897621E+03 -0.57826711276E+02  0.21441421839E+03  0.00000000000E+00 0. -1.
        -13    1    5    5    0    0  0.50626290362E+02 -0.10133608265E+03  0.18598785146E+02  0.11479519908E+03  0.00000000000E+00 0.  1.
          3    1    6    6  503    0 -0.43857254419E+03  0.23589260816E+03 -0.30586423146E+03  0.58441776769E+03  0.00000000000E+00 0. -1.
         -3    1    6    6    0  503 -0.22629005436E+03  0.64626367157E+02 -0.10021661403E+03  0.25578726661E+03  0.00000000000E+00 0.  1.
<mgrwt>
<rscale>  0 0.17088513E+04</rscale>
<asrwt>0</asrwt>
<pdfrwt beam="1">  1        2 0.99122900E-01 0.17088513E+04</pdfrwt>
<pdfrwt beam="2">  1       -3 0.17432025E+00 0.17088513E+04</pdfrwt>
<totfact> 0.58622396E+00</totfact>
</mgrwt>
</event>
<event>
12    7  0.2466188E-007  0.1707522E+04  0.7818608E-02  0.8757086E-01
          2   -1    0    0  501    0  0.00000000000E+00  0.00000000000E+00  0.28871523652E+04  0.28871523652E+04  0.00000000000E+00 0. -1.
         -1   -1    0    0    0  501 -0.00000000000E+00 -0.00000000000E+00 -0.25246589325E+03  0.25246589325E+03  0.00000000000E+00 0.  1.
         24    2    1    2    0    0 -0.26822300951E+03 -0.43741845494E+03  0.15647492202E+04  0.16486669169E+04  0.79899894525E+02 0.  0.
        254    2    1    2    0    0  0.26822300951E+03  0.43741845494E+03  0.10699372517E+04  0.14909513415E+04  0.90271351639E+03 0.  0.
         23    2    4    4    0    0 -0.18615905010E+03  0.22541724135E+02  0.77536988603E+03  0.80300500217E+03  0.91952444650E+02 0.  0.
         23    2    4    4    0    0  0.45438205961E+03  0.41487673080E+03  0.29456736569E+03  0.68794633938E+03  0.88963335581E+02 0.  0.
          2    1    3    3  502    0 -0.10183214217E+03 -0.16777460288E+03  0.72618933299E+03  0.75224268019E+03  0.00000000000E+00 0. -1.
         -1    1    3    3    0  502 -0.16639086734E+03 -0.26964385205E+03  0.83855988719E+03  0.89642423667E+03  0.00000000000E+00 0.  1.
         13    1    5    5    0    0  0.76494635592E+01 -0.28510003050E+01  0.88167113307E+02  0.88544239588E+02  0.00000000000E+00 0. -1.
        -13    1    5    5    0    0 -0.19380851366E+03  0.25392724440E+02  0.68720277273E+03  0.71446076258E+03  0.00000000000E+00 0.  1.
          1    1    6    6  503    0  0.67614762172E+01  0.24189364004E+02  0.25260210753E+02  0.35621919359E+02  0.00000000000E+00 0. -1.
         -1    1    6    6    0  503  0.44762058339E+03  0.39068736680E+03  0.26930715493E+03  0.65232442002E+03  0.00000000000E+00 0.  1.
<mgrwt>
<rscale>  0 0.17075216E+04</rscale>
<asrwt>0</asrwt>
<pdfrwt beam="1">  1        2 0.44417726E+00 0.17075216E+04</pdfrwt>
<pdfrwt beam="2">  1       -1 0.38840909E-01 0.17075216E+04</pdfrwt>
<totfact> 0.14294755E+01</totfact>
</mgrwt>
</event>
<event>
12    7  0.2466188E-007  0.4103251E+04  0.7818608E-02  0.7984035E-01
         -1   -1    0    0    0  501 -0.00000000000E+00  0.00000000000E+00  0.15974727847E+04  0.15974727847E+04  0.00000000000E+00 0.  1.
          2   -1    0    0  501    0  0.00000000000E+00 -0.00000000000E+00 -0.26348914236E+04  0.26348914236E+04  0.00000000000E+00 0. -1.
         24    2    1    2    0    0 -0.19199422671E+04 -0.31778694250E+03 -0.65858434508E+03  0.20562494440E+04  0.85214943896E+02 0.  0.
        254    2    1    2    0    0  0.19199422671E+04  0.31778694250E+03 -0.37883429382E+03  0.21761147644E+04  0.89710266734E+03 0.  0.
         23    2    4    4    0    0  0.68252153496E+03 -0.94127649574E+02  0.23166281469E+03  0.73328838555E+03  0.96687830583E+02 0.  0.
         23    2    4    4    0    0  0.12374207321E+04  0.41191459208E+03 -0.61049710851E+03  0.14428263788E+04  0.90319103342E+02 0.  0.
          4    1    3    3  502    0 -0.10377954973E+04 -0.18670053105E+03 -0.39879782324E+03  0.11273492300E+04  0.00000000000E+00 0. -1.
         -3    1    3    3    0  502 -0.88214676976E+03 -0.13108641145E+03 -0.25978652183E+03  0.92890021401E+03  0.00000000000E+00 0.  1.
         13    1    5    5    0    0  0.47525724338E+03 -0.20253057549E+02  0.16003246688E+03  0.50188646543E+03  0.00000000000E+00 0. -1.
        -13    1    5    5    0    0  0.20726429157E+03 -0.73874592024E+02  0.71630347811E+02  0.23140192012E+03  0.00000000000E+00 0.  1.
          3    1    6    6  503    0  0.11829824101E+04  0.40800872562E+03 -0.57117320909E+03  0.13755571008E+04  0.00000000000E+00 0. -1.
         -3    1    6    6    0  503  0.54438321983E+02  0.39058664596E+01 -0.39323899416E+02  0.67269277968E+02  0.00000000000E+00 0.  1.
<mgrwt>
<rscale>  0 0.41032511E+04</rscale>
<asrwt>0</asrwt>
<pdfrwt beam="1">  1        2 0.40536791E+00 0.41032511E+04</pdfrwt>
<pdfrwt beam="2">  1       -1 0.24576505E+00 0.41032511E+04</pdfrwt>
<totfact> 0.19175214E-01</totfact>
</mgrwt>
</event>
<event>
12    7  0.2466188E-007  0.1847287E+04  0.7818608E-02  0.8681549E-01
         -1   -1    0    0    0  501 -0.00000000000E+00  0.00000000000E+00  0.66877985895E+03  0.66877985895E+03  0.00000000000E+00 0.  1.
          2   -1    0    0  501    0  0.00000000000E+00 -0.00000000000E+00 -0.12756326308E+04  0.12756326308E+04  0.00000000000E+00 0. -1.
         24    2    1    2    0    0  0.49757210291E+03  0.27406902536E+03 -0.66577607254E+03  0.87880976354E+03  0.79730756094E+02 0.  0.
        254    2    1    2    0    0 -0.49757210291E+03 -0.27406902536E+03  0.58923300651E+02  0.10656027262E+04  0.89963625236E+03 0.  0.
         23    2    4    4    0    0 -0.51590777791E+03 -0.47743321826E+03  0.26914420793E+03  0.75819016761E+03  0.91161463244E+02 0.  0.
         23    2    4    4    0    0  0.18335674999E+02  0.20336419290E+03 -0.21022090728E+03  0.30741255864E+03  0.92824885763E+02 0.  0.
          4    1    3    3  502    0  0.29859664386E+03  0.14096860011E+03 -0.43661187629E+03  0.54741394983E+03  0.00000000000E+00 0. -1.
         -3    1    3    3    0  502  0.19897545905E+03  0.13310042525E+03 -0.22916419625E+03  0.33139581371E+03  0.00000000000E+00 0.  1.
         13    1    5    5    0    0 -0.14209216030E+03 -0.19001269442E+03  0.88484255120E+02  0.25322809770E+03  0.00000000000E+00 0. -1.
        -13    1    5    5    0    0 -0.37381561761E+03 -0.28742052384E+03  0.18065995281E+03  0.50496206991E+03  0.00000000000E+00 0.  1.
          2    1    6    6  503    0 -0.10866950166E+02  0.12314520211E+03 -0.66826236469E+02  0.14052963136E+03  0.00000000000E+00 0. -1.
         -2    1    6    6    0  503  0.29202625165E+02  0.80218990793E+02 -0.14339467081E+03  0.16688292728E+03  0.00000000000E+00 0.  1.
<mgrwt>
<rscale>  0 0.18472871E+04</rscale>
<asrwt>0</asrwt>
<pdfrwt beam="1">  1        2 0.19625117E+00 0.18472871E+04</pdfrwt>
<pdfrwt beam="2">  1       -1 0.10288921E+00 0.18472871E+04</pdfrwt>
<totfact> 0.16349642E+01</totfact>
</mgrwt>
</event>
<event>
12    7  0.2466188E-007  0.2268333E+04  0.7818608E-02  0.8490513E-01
          2   -1    0    0  501    0  0.00000000000E+00  0.00000000000E+00  0.15816002138E+04  0.15816002138E+04  0.00000000000E+00 0. -1.
         -1   -1    0    0    0  501 -0.00000000000E+00 -0.00000000000E+00 -0.81331121259E+03  0.81331121259E+03  0.00000000000E+00 0.  1.
         24    2    1    2    0    0  0.76408369826E+03  0.40878285943E+03  0.74393460528E+03  0.11449439720E+04  0.80812609897E+02 0.  0.
        254    2    1    2    0    0 -0.76408369826E+03 -0.40878285943E+03  0.24354395912E+02  0.12499674544E+04  0.90049884860E+03 0.  0.
         23    2    4    4    0    0  0.16984719828E+03 -0.21435563382E+03  0.44991226340E+02  0.29144775404E+03  0.90117558653E+02 0.  0.
         23    2    4    4    0    0 -0.93393089654E+03 -0.19442722562E+03 -0.20636830428E+02  0.95851970034E+03  0.91133262926E+02 0.  0.
          2    1    3    3  502    0  0.17648665174E+03  0.13214219912E+03  0.17390182418E+03  0.28080410161E+03  0.00000000000E+00 0. -1.
         -1    1    3    3    0  502  0.58759704652E+03  0.27664066031E+03  0.57003278110E+03  0.86413987036E+03  0.00000000000E+00 0.  1.
         13    1    5    5    0    0 -0.10013204084E+02 -0.23708339772E+02  0.64252169600E+01  0.26526082330E+02  0.00000000000E+00 0.  1.
        -13    1    5    5    0    0  0.17986040236E+03 -0.19064729404E+03  0.38566009380E+02  0.26492167172E+03  0.00000000000E+00 0. -1.
          4    1    6    6  503    0 -0.16030199612E+03 -0.48241612378E+02  0.27868520369E+02  0.16970750588E+03  0.00000000000E+00 0. -1.
         -4    1    6    6    0  503 -0.77362890042E+03 -0.14618561324E+03 -0.48505350797E+02  0.78881219446E+03  0.00000000000E+00 0.  1.
<mgrwt>
<rscale>  0 0.22683326E+04</rscale>
<asrwt>0</asrwt>
<pdfrwt beam="1">  1        2 0.24332311E+00 0.22683326E+04</pdfrwt>
<pdfrwt beam="2">  1       -1 0.12512480E+00 0.22683326E+04</pdfrwt>
<totfact> 0.66000113E+00</totfact>
</mgrwt>
</event>
<event>
12    7  0.2466188E-007  0.1137603E+04  0.7818608E-02  0.9169297E-01
          2   -1    0    0  501    0  0.00000000000E+00  0.00000000000E+00  0.92768280653E+03  0.92768280653E+03  0.00000000000E+00 0. -1.
         -1   -1    0    0    0  501 -0.00000000000E+00 -0.00000000000E+00 -0.34875624247E+03  0.34875624247E+03  0.00000000000E+00 0.  1.
         24    2    1    2    0    0  0.10947568078E+03  0.11800475251E+03 -0.22976502277E+02  0.18130356303E+03  0.80206084642E+02 0.  0.
        254    2    1    2    0    0 -0.10947568078E+03 -0.11800475251E+03  0.60190306634E+03  0.10951354860E+04  0.90062444174E+03 0.  0.
         23    2    4    4    0    0 -0.14251516148E+03  0.15230343383E+03  0.74092530423E+03  0.77484406996E+03  0.88916360108E+02 0.  0.
         23    2    4    4    0    0  0.33039480705E+02 -0.27030818634E+03 -0.13902223789E+03  0.32029141601E+03  0.95400658556E+02 0.  0.
          4    1    3    3  502    0  0.61229375314E+02  0.14600347270E+02  0.69770795555E+01  0.63331557543E+02  0.00000000000E+00 0. -1.
         -3    1    3    3    0  502  0.48246305465E+02  0.10340440524E+03 -0.29953581832E+02  0.11797200549E+03  0.00000000000E+00 0.  1.
         13    1    5    5    0    0 -0.11638877403E+03  0.78141046933E+02  0.36978542326E+03  0.39546634395E+03  0.00000000000E+00 0.  1.
        -13    1    5    5    0    0 -0.26126387453E+02  0.74162386899E+02  0.37113988096E+03  0.37937772601E+03  0.00000000000E+00 0. -1.
          2    1    6    6  503    0  0.39320629745E+02 -0.24045594758E+03 -0.15196230055E+03  0.28715451492E+03  0.00000000000E+00 0. -1.
         -2    1    6    6    0  503 -0.62811490400E+01 -0.29852238762E+02  0.12940062658E+02  0.33136901092E+02  0.00000000000E+00 0.  1.
<mgrwt>
<rscale>  0 0.11376030E+04</rscale>
<asrwt>0</asrwt>
<pdfrwt beam="1">  1        2 0.14272043E+00 0.11376030E+04</pdfrwt>
<pdfrwt beam="2">  1       -1 0.53654807E-01 0.11376030E+04</pdfrwt>
<totfact> 0.11127229E+02</totfact>
</mgrwt>
</event>
<event>
12    7  0.2466188E-007  0.2850967E+04  0.7818608E-02  0.8287618E-01
          2   -1    0    0  501    0  0.00000000000E+00  0.00000000000E+00  0.22124965609E+04  0.22124965609E+04  0.00000000000E+00 0. -1.
         -1   -1    0    0    0  501 -0.00000000000E+00 -0.00000000000E+00 -0.91842102128E+03  0.91842102128E+03  0.00000000000E+00 0.  1.
         24    2    1    2    0    0  0.10952619391E+04  0.56279762961E+03  0.93955731559E+03  0.15507302714E+04  0.75209960992E+02 0.  0.
        254    2    1    2    0    0 -0.10952619391E+04 -0.56279762961E+03  0.35451822406E+03  0.15801873108E+04  0.92464527189E+03 0.  0.
         23    2    4    4    0    0 -0.74603465544E+03 -0.59596482267E+03 -0.13770315045E+03  0.96905423110E+03  0.91444891497E+02 0.  0.
         23    2    4    4    0    0 -0.34922728367E+03  0.33167193065E+02  0.49222137451E+03  0.61113307969E+03  0.90233038393E+02 0.  0.
          4    1    3    3  502    0  0.18154394148E+03  0.11469386953E+03  0.19105039047E+03  0.28742501300E+03  0.00000000000E+00 0. -1.
         -3    1    3    3    0  502  0.91371799762E+03  0.44810376008E+03  0.74850692512E+03  0.12633052584E+04  0.00000000000E+00 0.  1.
         13    1    5    5    0    0 -0.40999659091E+03 -0.31150510369E+03 -0.29905063026E+02  0.51577800164E+03  0.00000000000E+00 0. -1.
        -13    1    5    5    0    0 -0.33603806453E+03 -0.28445971898E+03 -0.10779808742E+03  0.45327622945E+03  0.00000000000E+00 0.  1.
          1    1    6    6  503    0 -0.60783896823E+02 -0.13282471494E+02  0.14211454340E+03  0.15513751837E+03  0.00000000000E+00 0. -1.
         -1    1    6    6    0  503 -0.28844338684E+03  0.46449664559E+02  0.35010683111E+03  0.45599556132E+03  0.00000000000E+00 0.  1.
<mgrwt>
<rscale>  0 0.28509671E+04</rscale>
<asrwt>0</asrwt>
<pdfrwt beam="1">  1        2 0.34038409E+00 0.28509671E+04</pdfrwt>
<pdfrwt beam="2">  1       -1 0.14129554E+00 0.28509671E+04</pdfrwt>
<totfact> 0.20482872E+00</totfact>
</mgrwt>
</event>
<event>
12    7  0.2466188E-007  0.1277748E+04  0.7818608E-02  0.9047400E-01
          2   -1    0    0  501    0  0.00000000000E+00  0.00000000000E+00  0.31162237017E+04  0.31162237017E+04  0.00000000000E+00 0. -1.
         -1   -1    0    0    0  501 -0.00000000000E+00 -0.00000000000E+00 -0.13097903163E+03  0.13097903163E+03  0.00000000000E+00 0.  1.
         24    2    1    2    0    0  0.16905325993E+03  0.19473104144E+03  0.29813959375E+03  0.40262869416E+03  0.81996736573E+02 0.  0.
        254    2    1    2    0    0 -0.16905325993E+03 -0.19473104144E+03  0.26871050764E+04  0.28445740392E+04  0.89697747459E+03 0.  0.
         23    2    4    4    0    0  0.33253569788E+03  0.24735179699E+02  0.69285765696E+03  0.77459464298E+03  0.93559118438E+02 0.  0.
         23    2    4    4    0    0 -0.50158895781E+03 -0.21946622114E+03  0.19942474194E+04  0.20699793962E+04  0.89638307717E+02 0.  0.
          2    1    3    3  502    0  0.87836001099E+02  0.86649209100E+02  0.20212456225E+03  0.23680706744E+03  0.00000000000E+00 0. -1.
         -1    1    3    3    0  502  0.81217258836E+02  0.10808183234E+03  0.96015031501E+02  0.16582162672E+03  0.00000000000E+00 0.  1.
         13    1    5    5    0    0  0.75973079522E+02  0.25945134604E+02  0.25240683302E+03  0.26486651011E+03  0.00000000000E+00 0.  1.
        -13    1    5    5    0    0  0.25656261836E+03 -0.12099549051E+01  0.44045082394E+03  0.50972813287E+03  0.00000000000E+00 0. -1.
          2    1    6    6  503    0 -0.55913180735E+02 -0.16515515449E+02  0.33264282119E+03  0.33771332890E+03  0.00000000000E+00 0. -1.
         -2    1    6    6    0  503 -0.44567577708E+03 -0.20295070569E+03  0.16616045982E+04  0.17322660673E+04  0.00000000000E+00 0.  1.
<mgrwt>
<rscale>  0 0.12777480E+04</rscale>
<asrwt>0</asrwt>
<pdfrwt beam="1">  1        2 0.47941898E+00 0.12777480E+04</pdfrwt>
<pdfrwt beam="2">  1       -1 0.20150623E-01 0.12777480E+04</pdfrwt>
<totfact> 0.33649128E+01</totfact>
</mgrwt>
</event>
<event>
12    7  0.2466188E-007  0.1437640E+04  0.7818608E-02  0.8927015E-01
         -1   -1    0    0    0  501 -0.00000000000E+00  0.00000000000E+00  0.83927918197E+03  0.83927918197E+03  0.00000000000E+00 0.  1.
          2   -1    0    0  501    0  0.00000000000E+00 -0.00000000000E+00 -0.61564966529E+03  0.61564966529E+03  0.00000000000E+00 0. -1.
         24    2    1    2    0    0 -0.23831603551E+03  0.15218516562E+02  0.43151718676E+03  0.50248569368E+03  0.96221899037E+02 0.  0.
        254    2    1    2    0    0  0.23831603551E+03 -0.15218516562E+02 -0.20788767008E+03  0.95244315358E+03  0.89827865465E+03 0.  0.
         23    2    4    4    0    0 -0.23224243455E+03  0.77849712438E+02 -0.35420652593E+03  0.44238408395E+03  0.10121407308E+03 0.  0.
         23    2    4    4    0    0  0.47055847006E+03 -0.93068229000E+02  0.14631885585E+03  0.51005906963E+03  0.93081028905E+02 0.  0.
          4    1    3    3  502    0 -0.95161509700E+02  0.51345989780E+02  0.15450198007E+03  0.18858150874E+03  0.00000000000E+00 0. -1.
         -3    1    3    3    0  502 -0.14315452581E+03 -0.36127473218E+02  0.27701520669E+03  0.31390418494E+03  0.00000000000E+00 0.  1.
         13    1    5    5    0    0 -0.20902923594E+03  0.45704430047E+02 -0.33693920118E+03  0.39913674561E+03  0.00000000000E+00 0. -1.
        -13    1    5    5    0    0 -0.23213198604E+02  0.32145282391E+02 -0.17267324750E+02  0.43247338339E+02  0.00000000000E+00 0.  1.
          3    1    6    6  503    0  0.47272609296E+03 -0.87523437145E+02  0.13865667534E+03  0.50035585800E+03  0.00000000000E+00 0. -1.
         -3    1    6    6    0  503 -0.21676229031E+01 -0.55447918548E+01  0.76621805153E+01  0.97032116339E+01  0.00000000000E+00 0.  1.
<mgrwt>
<rscale>  0 0.14376397E+04</rscale>
<asrwt>0</asrwt>
<pdfrwt beam="1">  1        2 0.94715333E-01 0.14376397E+04</pdfrwt>
<pdfrwt beam="2">  1       -1 0.12911987E+00 0.14376397E+04</pdfrwt>
<totfact> 0.27512411E+01</totfact>
</mgrwt>
</event>
<event>
12    7  0.2466188E-007  0.1190665E+04  0.7818608E-02  0.9121067E-01
         -1   -1    0    0    0  501 -0.00000000000E+00  0.00000000000E+00  0.15056311894E+03  0.15056311894E+03  0.00000000000E+00 0.  1.
          2   -1    0    0  501    0  0.00000000000E+00 -0.00000000000E+00 -0.23539662808E+04  0.23539662808E+04  0.00000000000E+00 0. -1.
         24    2    1    2    0    0 -0.73344835236E+02 -0.23126366636E+03 -0.46197406876E+03  0.52813297896E+03  0.81498803847E+02 0.  0.
        254    2    1    2    0    0  0.73344835236E+02  0.23126366636E+03 -0.17414290931E+04  0.19763964208E+04  0.90261020244E+03 0.  0.
         23    2    4    4    0    0 -0.38468745077E+03  0.13886407556E+03 -0.53422223366E+03  0.67893908509E+03  0.91089077666E+02 0.  0.
         23    2    4    4    0    0  0.45803228601E+03  0.92399590800E+02 -0.12072068594E+04  0.12974573357E+04  0.87840065139E+02 0.  0.
          4    1    3    3  502    0 -0.85724409199E+02 -0.16664984478E+03 -0.37350083692E+03  0.41788003097E+03  0.00000000000E+00 0. -1.
         -3    1    3    3    0  502  0.12379573963E+02 -0.64613821574E+02 -0.88473231831E+02  0.11025294799E+03  0.00000000000E+00 0.  1.
         13    1    5    5    0    0 -0.20077354411E+03  0.25831115910E+02 -0.27821679055E+03  0.34406662888E+03  0.00000000000E+00 0.  1.
        -13    1    5    5    0    0 -0.18391390666E+03  0.11303295965E+03 -0.25600544311E+03  0.33487245622E+03  0.00000000000E+00 0. -1.
          1    1    6    6  503    0  0.39911722116E+03  0.50269326453E+02 -0.10478412683E+04  0.11224049559E+04  0.00000000000E+00 0. -1.
         -1    1    6    6    0  503  0.58915064845E+02  0.42130264348E+02 -0.15936559111E+03  0.17505237979E+03  0.00000000000E+00 0.  1.
<mgrwt>
<rscale>  0 0.11906645E+04</rscale>
<asrwt>0</asrwt>
<pdfrwt beam="1">  1        2 0.36214865E+00 0.11906645E+04</pdfrwt>
<pdfrwt beam="2">  1       -1 0.23163558E-01 0.11906645E+04</pdfrwt>
<totfact> 0.76177540E+01</totfact>
</mgrwt>
</event>
<event>
12    7  0.2466188E-007  0.2583903E+04  0.7818608E-02  0.8373690E-01
          2   -1    0    0  501    0  0.00000000000E+00  0.00000000000E+00  0.20120420343E+04  0.20120420343E+04  0.00000000000E+00 0. -1.
         -1   -1    0    0    0  501 -0.00000000000E+00 -0.00000000000E+00 -0.82957421117E+03  0.82957421117E+03  0.00000000000E+00 0.  1.
         24    2    1    2    0    0  0.66461231633E+03 -0.34867589154E+03 -0.41463520622E+03  0.86112469447E+03  0.79554866720E+02 0.  0.
        254    2    1    2    0    0 -0.66461231633E+03  0.34867589154E+03  0.15971030294E+04  0.19804915510E+04  0.89906856741E+03 0.  0.
         23    2    4    4    0    0 -0.85048240709E+02  0.53301902882E+03  0.87568082988E+03  0.10328038584E+04  0.92327708911E+02 0.  0.
         23    2    4    4    0    0 -0.57956407562E+03 -0.18434313728E+03  0.72142219949E+03  0.94768769259E+03  0.88233002687E+02 0.  0.
          2    1    3    3  502    0  0.20071141564E+03 -0.80650581240E+02 -0.87179125977E+02  0.23321618432E+03  0.00000000000E+00 0. -1.
         -1    1    3    3    0  502  0.46390090069E+03 -0.26802531030E+03 -0.32745608025E+03  0.62790851015E+03  0.00000000000E+00 0.  1.
         13    1    5    5    0    0 -0.82652314852E+02  0.44097140542E+03  0.65746897733E+03  0.79596020108E+03  0.00000000000E+00 0. -1.
        -13    1    5    5    0    0 -0.23959258570E+01  0.92047623409E+02  0.21821185255E+03  0.23684365736E+03  0.00000000000E+00 0.  1.
          2    1    6    6  503    0 -0.54103730662E+03 -0.19375234235E+03  0.66871037690E+03  0.88172269195E+03  0.00000000000E+00 0. -1.
         -2    1    6    6    0  503 -0.38526769005E+02  0.94092050662E+01  0.52711822584E+02  0.65965000644E+02  0.00000000000E+00 0.  1.
<mgrwt>
<rscale>  0 0.25839026E+04</rscale>
<asrwt>0</asrwt>
<pdfrwt beam="1">  1        2 0.30954493E+00 0.25839026E+04</pdfrwt>
<pdfrwt beam="2">  1       -1 0.12762680E+00 0.25839026E+04</pdfrwt>
<totfact> 0.35220275E+00</totfact>
</mgrwt>
</event>
<event>
12    7  0.2466188E-007  0.1671616E+04  0.7818608E-02  0.8777720E-01
         -3   -1    0    0    0  501 -0.00000000000E+00  0.00000000000E+00  0.49008433895E+03  0.49008433895E+03  0.00000000000E+00 0.  1.
          2   -1    0    0  501    0  0.00000000000E+00 -0.00000000000E+00 -0.14254177814E+04  0.14254177814E+04  0.00000000000E+00 0. -1.
         24    2    1    2    0    0 -0.20986557861E+03 -0.42169405369E+03  0.74075596351E+02  0.48332122288E+03  0.79011230279E+02 0.  0.
        254    2    1    2    0    0  0.20986557861E+03  0.42169405369E+03 -0.10094090388E+04  0.14321808975E+04  0.90020335451E+03 0.  0.
         23    2    4    4    0    0  0.39106175780E+03 -0.13033831798E+03 -0.50216509761E+03  0.65579852589E+03  0.89356285425E+02 0.  0.
         23    2    4    4    0    0 -0.18119617920E+03  0.55203237167E+03 -0.50724394116E+03  0.77638237157E+03  0.88889686173E+02 0.  0.
          4    1    3    3  502    0 -0.32218315223E+02 -0.99060117478E+02 -0.12669103715E+02  0.10493537487E+03  0.00000000000E+00 0. -1.
         -3    1    3    3    0  502 -0.17764726339E+03 -0.32263393621E+03  0.86744700067E+02  0.37838584801E+03  0.00000000000E+00 0.  1.
         13    1    5    5    0    0  0.56373319059E+02  0.12563573615E+02 -0.63758987080E+02  0.86029081811E+02  0.00000000000E+00 0. -1.
        -13    1    5    5    0    0  0.33468843875E+03 -0.14290189159E+03 -0.43840611053E+03  0.56976944408E+03  0.00000000000E+00 0.  1.
          3    1    6    6  503    0 -0.20948851698E+02  0.13695282123E+03 -0.16230841748E+03  0.21339857548E+03  0.00000000000E+00 0. -1.
         -3    1    6    6    0  503 -0.16024732750E+03  0.41507955043E+03 -0.34493552368E+03  0.56298379609E+03  0.00000000000E+00 0.  1.
<mgrwt>
<rscale>  0 0.16716159E+04</rscale>
<asrwt>0</asrwt>
<pdfrwt beam="1">  1        2 0.21929504E+00 0.16716159E+04</pdfrwt>
<pdfrwt beam="2">  1       -3 0.75397591E-01 0.16716159E+04</pdfrwt>
<totfact> 0.14111536E+01</totfact>
</mgrwt>
</event>
<event>
12    7  0.2466188E-007  0.1741251E+04  0.7818608E-02  0.8738181E-01
         -1   -1    0    0    0  501 -0.00000000000E+00  0.00000000000E+00  0.37414224941E+03  0.37414224941E+03  0.00000000000E+00 0.  1.
          2   -1    0    0  501    0  0.00000000000E+00 -0.00000000000E+00 -0.20259363839E+04  0.20259363839E+04  0.00000000000E+00 0. -1.
         24    2    1    2    0    0  0.52105496822E+03  0.26878899416E+03 -0.93957954509E+03  0.11103157099E+04  0.79028164107E+02 0.  0.
        254    2    1    2    0    0 -0.52105496822E+03 -0.26878899416E+03 -0.71221458943E+03  0.12897629235E+04  0.90138392160E+03 0.  0.
         23    2    4    4    0    0  0.16971524070E+03  0.58018391303E+02  0.49809441310E+02  0.20679214477E+03  0.90070050723E+02 0.  0.
         23    2    4    4    0    0 -0.69077020892E+03 -0.32680738546E+03 -0.76202403074E+03  0.10829707787E+04  0.90435255332E+02 0.  0.
          4    1    3    3  502    0  0.30380206530E+02  0.35453344029E+02 -0.98504470720E+02  0.10900929916E+03  0.00000000000E+00 0. -1.
         -3    1    3    3    0  502  0.49067476169E+03  0.23333565013E+03 -0.84107507437E+03  0.10013064107E+04  0.00000000000E+00 0.  1.
         13    1    5    5    0    0  0.40451216258E+02  0.55272382455E+02  0.34209449748E+02  0.76561240919E+02  0.00000000000E+00 0. -1.
        -13    1    5    5    0    0  0.12926402444E+03  0.27460088485E+01  0.15599991562E+02  0.13023090385E+03  0.00000000000E+00 0.  1.
          2    1    6    6  503    0 -0.31880801546E+03 -0.14330572750E+03 -0.41161535021E+03  0.54000210998E+03  0.00000000000E+00 0. -1.
         -2    1    6    6    0  503 -0.37196219346E+03 -0.18350165796E+03 -0.35040868053E+03  0.54296866874E+03  0.00000000000E+00 0.  1.
<mgrwt>
<rscale>  0 0.17412506E+04</rscale>
<asrwt>0</asrwt>
<pdfrwt beam="1">  1        2 0.31168252E+00 0.17412506E+04</pdfrwt>
<pdfrwt beam="2">  1       -1 0.57560346E-01 0.17412506E+04</pdfrwt>
<totfact> 0.21342933E+01</totfact>
</mgrwt>
</event>
<event>
12    7  0.2466188E-007  0.1781460E+04  0.7818608E-02  0.8716222E-01
          2   -1    0    0  501    0  0.00000000000E+00  0.00000000000E+00  0.45318361572E+04  0.45318361572E+04  0.00000000000E+00 0. -1.
         -1   -1    0    0    0  501 -0.00000000000E+00 -0.00000000000E+00 -0.17507246124E+03  0.17507246124E+03  0.00000000000E+00 0.  1.
         24    2    1    2    0    0 -0.16568197272E+03  0.33036918611E+03  0.30727638250E+04  0.30959266834E+04  0.79310717472E+02 0.  0.
        254    2    1    2    0    0  0.16568197272E+03 -0.33036918611E+03  0.12839998710E+04  0.16109819350E+04  0.90000711722E+03 0.  0.
         23    2    4    4    0    0 -0.61637957676E+02  0.57334701922E+02  0.11145419817E+04  0.11213866851E+04  0.90651876690E+02 0.  0.
         23    2    4    4    0    0  0.22731993040E+03 -0.38770388803E+03  0.16945788930E+03  0.48959524990E+03  0.94862410485E+02 0.  0.
          4    1    3    3  502    0 -0.75831380153E+02  0.10031240072E+03  0.12945038808E+04  0.13005972756E+04  0.00000000000E+00 0. -1.
         -3    1    3    3    0  502 -0.89850592570E+02  0.23005678540E+03  0.17782599442E+04  0.17953294078E+04  0.00000000000E+00 0.  1.
         13    1    5    5    0    0 -0.70688354461E+02  0.53137333536E+01  0.62868946895E+03  0.63267331822E+03  0.00000000000E+00 0. -1.
        -13    1    5    5    0    0  0.90503967845E+01  0.52020968569E+02  0.48585251276E+03  0.48871336693E+03  0.00000000000E+00 0.  1.
          3    1    6    6  503    0  0.18469590258E+03 -0.23384490580E+03  0.90127066650E+02  0.31131801191E+03  0.00000000000E+00 0. -1.
         -3    1    6    6    0  503  0.42624027821E+02 -0.15385898223E+03  0.79330822652E+02  0.17827723798E+03  0.00000000000E+00 0.  1.
<mgrwt>
<rscale>  0 0.17814597E+04</rscale>
<asrwt>0</asrwt>
<pdfrwt beam="1">  1        2 0.69720548E+00 0.17814597E+04</pdfrwt>
<pdfrwt beam="2">  1       -1 0.26934228E-01 0.17814597E+04</pdfrwt>
<totfact> 0.15546295E+00</totfact>
</mgrwt>
</event>
<event>
12    7  0.2466188E-007  0.1817400E+04  0.7818608E-02  0.8697101E-01
         -3   -1    0    0    0  501 -0.00000000000E+00  0.00000000000E+00  0.41770243330E+03  0.41770243330E+03  0.00000000000E+00 0.  1.
          2   -1    0    0  501    0  0.00000000000E+00 -0.00000000000E+00 -0.19768509195E+04  0.19768509195E+04  0.00000000000E+00 0. -1.
         24    2    1    2    0    0 -0.59919849207E+02 -0.52646322060E+03 -0.21288151119E+02  0.53532461937E+03  0.73248561427E+02 0.  0.
        254    2    1    2    0    0  0.59919849207E+02  0.52646322060E+03 -0.15378603351E+04  0.18592287334E+04  0.90053493103E+03 0.  0.
         23    2    4    4    0    0 -0.13111273186E+03  0.35582193343E+03 -0.10937524049E+03  0.40504353727E+03  0.91090762878E+02 0.  0.
         23    2    4    4    0    0  0.19103258107E+03  0.17064128717E+03 -0.14284850946E+04  0.14541851962E+04  0.92049026861E+02 0.  0.
          4    1    3    3  502    0  0.16347864926E+02 -0.12888755755E+03 -0.10722327430E+02  0.13036189429E+03  0.00000000000E+00 0. -1.
         -3    1    3    3    0  502 -0.76267714133E+02 -0.39757566305E+03 -0.10565823689E+02  0.40496272508E+03  0.00000000000E+00 0.  1.
         13    1    5    5    0    0 -0.28049160199E+02  0.93913351254E+02  0.11584670999E+02  0.98694870858E+02  0.00000000000E+00 0. -1.
        -13    1    5    5    0    0 -0.10306357166E+03  0.26190858218E+03 -0.12095991149E+03  0.30634866641E+03  0.00000000000E+00 0.  1.
          3    1    6    6  503    0  0.41169265675E+02  0.88585459575E+02 -0.63900736749E+03  0.64643074478E+03  0.00000000000E+00 0. -1.
         -3    1    6    6    0  503  0.14986331540E+03  0.82055827592E+02 -0.78947772709E+03  0.80775445138E+03  0.00000000000E+00 0.  1.
<mgrwt>
<rscale>  0 0.18173997E+04</rscale>
<asrwt>0</asrwt>
<pdfrwt beam="1">  1        2 0.30413092E+00 0.18173997E+04</pdfrwt>
<pdfrwt beam="2">  1       -3 0.64261912E-01 0.18173997E+04</pdfrwt>
<totfact> 0.97552409E+00</totfact>
</mgrwt>
</event>
<event>
12    7  0.2466188E-007  0.2688117E+04  0.7818608E-02  0.8338871E-01
         -1   -1    0    0    0  501 -0.00000000000E+00  0.00000000000E+00  0.64144903937E+03  0.64144903937E+03  0.00000000000E+00 0.  1.
          2   -1    0    0  501    0  0.00000000000E+00 -0.00000000000E+00 -0.28162698184E+04  0.28162698184E+04  0.00000000000E+00 0. -1.
         24    2    1    2    0    0 -0.83598481315E+03 -0.82804036902E+03 -0.73064464652E+03  0.13873633078E+04  0.80086751528E+02 0.  0.
        254    2    1    2    0    0  0.83598481315E+03  0.82804036902E+03 -0.14441761325E+04  0.20703555500E+04  0.90344116638E+03 0.  0.
         23    2    4    4    0    0  0.82273417827E+00  0.55201902456E+03 -0.33672785133E+03  0.65291298185E+03  0.90465659996E+02 0.  0.
         23    2    4    4    0    0  0.83516207897E+03  0.27602134445E+03 -0.11074482812E+04  0.14174425681E+04  0.94964507735E+02 0.  0.
          2    1    3    3  502    0 -0.11876938771E+03 -0.98671087642E+02 -0.12437751955E+03  0.19827233383E+03  0.00000000000E+00 0. -1.
         -1    1    3    3    0  502 -0.71721542544E+03 -0.72936928137E+03 -0.60626712697E+03  0.11890909740E+04  0.00000000000E+00 0.  1.
         13    1    5    5    0    0 -0.27150295818E+02  0.12482241197E+03 -0.47634609261E+02  0.13633352153E+03  0.00000000000E+00 0.  1.
        -13    1    5    5    0    0  0.27973029996E+02  0.42719661259E+03 -0.28909324207E+03  0.51657946032E+03  0.00000000000E+00 0. -1.
          3    1    6    6  503    0  0.70023266056E+03  0.19761606250E+03 -0.88446605034E+03  0.11452764213E+04  0.00000000000E+00 0. -1.
         -3    1    6    6    0  503  0.13492941841E+03  0.78405281954E+02 -0.22298223085E+03  0.27216614680E+03  0.00000000000E+00 0.  1.
<mgrwt>
<rscale>  0 0.26881172E+04</rscale>
<asrwt>0</asrwt>
<pdfrwt beam="1">  1        2 0.43327228E+00 0.26881172E+04</pdfrwt>
<pdfrwt beam="2">  1       -1 0.98684467E-01 0.26881172E+04</pdfrwt>
<totfact> 0.22162581E+00</totfact>
</mgrwt>
</event>
<event>
12    7  0.2466188E-007  0.1353772E+04  0.7818608E-02  0.8987978E-01
          2   -1    0    0  501    0  0.00000000000E+00  0.00000000000E+00  0.26000408934E+04  0.26000408934E+04  0.00000000000E+00 0. -1.
         -1   -1    0    0    0  501 -0.00000000000E+00 -0.00000000000E+00 -0.17621828490E+03  0.17621828490E+03  0.00000000000E+00 0.  1.
         24    2    1    2    0    0 -0.27524132540E+03 -0.19785691902E+03  0.36375672874E+03  0.50365683540E+03  0.80287623759E+02 0.  0.
        254    2    1    2    0    0  0.27524132540E+03  0.19785691902E+03  0.20600658798E+04  0.22726023429E+04  0.89774430233E+03 0.  0.
         23    2    4    4    0    0  0.17913282791E+03  0.49447713988E+03  0.74337098796E+03  0.91636375702E+03  0.10259579685E+03 0.  0.
         23    2    4    4    0    0  0.96108497497E+02 -0.29662022086E+03  0.13166948918E+04  0.13562385859E+04  0.92072064223E+02 0.  0.
          4    1    3    3  502    0 -0.23574364985E+03 -0.12890174167E+03  0.27334981390E+03  0.38328950965E+03  0.00000000000E+00 0. -1.
         -3    1    3    3    0  502 -0.39497675560E+02 -0.68955177350E+02  0.90406914846E+02  0.12036732576E+03  0.00000000000E+00 0.  1.
         13    1    5    5    0    0  0.18706242339E+03  0.41429975872E+03  0.61405758803E+03  0.76400481788E+03  0.00000000000E+00 0.  1.
        -13    1    5    5    0    0 -0.79295954810E+01  0.80177381164E+02  0.12931339993E+03  0.15235893914E+03  0.00000000000E+00 0. -1.
          1    1    6    6  503    0  0.22055951167E+02 -0.50736380523E+01  0.62365678825E+02  0.66345193348E+02  0.00000000000E+00 0. -1.
         -1    1    6    6    0  503  0.74052546330E+02 -0.29154658281E+03  0.12543292130E+04  0.12898933926E+04  0.00000000000E+00 0.  1.
<mgrwt>
<rscale>  0 0.13537721E+04</rscale>
<asrwt>0</asrwt>
<pdfrwt beam="1">  1        2 0.40000626E+00 0.13537721E+04</pdfrwt>
<pdfrwt beam="2">  1       -1 0.27110507E-01 0.13537721E+04</pdfrwt>
<totfact> 0.41429001E+01</totfact>
</mgrwt>
</event>
<event>
12    7  0.2466188E-007  0.2376454E+04  0.7818608E-02  0.8448372E-01
         -1   -1    0    0    0  501 -0.00000000000E+00  0.00000000000E+00  0.76255610237E+03  0.76255610237E+03  0.00000000000E+00 0.  1.
          2   -1    0    0  501    0  0.00000000000E+00 -0.00000000000E+00 -0.18515143948E+04  0.18515143948E+04  0.00000000000E+00 0. -1.
         24    2    1    2    0    0 -0.57059201270E+03  0.60623802982E+03  0.17549498734E+03  0.85312559735E+03  0.62649824547E+02 0.  0.
        254    2    1    2    0    0  0.57059201270E+03 -0.60623802982E+03 -0.12644532798E+04  0.17609448998E+04  0.89943596200E+03 0.  0.
         23    2    4    4    0    0 -0.15502618181E+03  0.32214000598E+02 -0.21686278108E+02  0.18398723888E+03  0.91160027045E+02 0.  0.
         23    2    4    4    0    0  0.72561819451E+03 -0.63845203042E+03 -0.12427670017E+04  0.15769576609E+04  0.90459298213E+02 0.  0.
          4    1    3    3  502    0 -0.46973950513E+03  0.53073572631E+03  0.15458698983E+03  0.72541901773E+03  0.00000000000E+00 0. -1.
         -3    1    3    3    0  502 -0.10085250757E+03  0.75502303519E+02  0.20907997509E+02  0.12770657962E+03  0.00000000000E+00 0.  1.
         13    1    5    5    0    0 -0.13304587285E+03  0.34608333164E+02 -0.51557414815E+02  0.14682339060E+03  0.00000000000E+00 0.  1.
        -13    1    5    5    0    0 -0.21980308968E+02 -0.23943325666E+01  0.29871136707E+02  0.37163848279E+02  0.00000000000E+00 0. -1.
          2    1    6    6  503    0  0.21691728991E+03 -0.19408728549E+03 -0.44375670478E+03  0.53070047870E+03  0.00000000000E+00 0. -1.
         -2    1    6    6    0  503  0.50870090461E+03 -0.44436474493E+03 -0.79901029688E+03  0.10462571822E+04  0.00000000000E+00 0.  1.
<mgrwt>
<rscale>  0 0.23764542E+04</rscale>
<asrwt>0</asrwt>
<pdfrwt beam="1">  1        2 0.28484836E+00 0.23764542E+04</pdfrwt>
<pdfrwt beam="2">  1       -1 0.11731633E+00 0.23764542E+04</pdfrwt>
<totfact> 0.54200226E+00</totfact>
</mgrwt>
</event>
<event>
12    7  0.2466188E-007  0.6239663E+04  0.7818608E-02  0.7661376E-01
         -1   -1    0    0    0  501 -0.00000000000E+00  0.00000000000E+00  0.28159927165E+04  0.28159927165E+04  0.00000000000E+00 0.  1.
          2   -1    0    0  501    0  0.00000000000E+00 -0.00000000000E+00 -0.34564537795E+04  0.34564537795E+04  0.00000000000E+00 0. -1.
         24    2    1    2    0    0 -0.14668912816E+04  0.16741375534E+04  0.17891348117E+04  0.28569350050E+04  0.81041155068E+02 0.  0.
        254    2    1    2    0    0  0.14668912816E+04 -0.16741375534E+04 -0.24295958747E+04  0.34155114909E+04  0.89904174022E+03 0.  0.
         23    2    4    4    0    0  0.11046854793E+04 -0.11174349056E+04 -0.10793569886E+04  0.19079562071E+04  0.79338534287E+02 0.  0.
         23    2    4    4    0    0  0.36220580228E+03 -0.55670264785E+03 -0.13502388861E+04  0.15075552838E+04  0.92016318874E+02 0.  0.
          2    1    3    3  502    0 -0.13065514388E+04  0.15218125351E+04  0.16282968929E+04  0.25834745646E+04  0.00000000000E+00 0. -1.
         -1    1    3    3    0  502 -0.16033984276E+03  0.15232501828E+03  0.16083791873E+03  0.27346044042E+03  0.00000000000E+00 0.  1.
         13    1    5    5    0    0  0.24641668011E+03 -0.28879189861E+03 -0.23715084256E+03  0.44761865808E+03  0.00000000000E+00 0.  1.
        -13    1    5    5    0    0  0.85826879921E+03 -0.82864300697E+03 -0.84220614600E+03  0.14603375490E+04  0.00000000000E+00 0. -1.
          1    1    6    6  503    0  0.10858881601E+03 -0.24861155392E+03 -0.56282291649E+03  0.62479506323E+03  0.00000000000E+00 0. -1.
         -1    1    6    6    0  503  0.25361698628E+03 -0.30809109393E+03 -0.78741596961E+03  0.88276022061E+03  0.00000000000E+00 0.  1.
<mgrwt>
<rscale>  0 0.62396630E+04</rscale>
<asrwt>0</asrwt>
<pdfrwt beam="1">  1        2 0.53176212E+00 0.62396630E+04</pdfrwt>
<pdfrwt beam="2">  1       -1 0.43322965E+00 0.62396630E+04</pdfrwt>
<totfact> 0.27721527E-03</totfact>
</mgrwt>
</event>
<event>
12    7  0.2466188E-007  0.1335796E+04  0.7818608E-02  0.9001650E-01
          2   -1    0    0  501    0  0.00000000000E+00  0.00000000000E+00  0.92896543499E+03  0.92896543499E+03  0.00000000000E+00 0. -1.
         -1   -1    0    0    0  501 -0.00000000000E+00 -0.00000000000E+00 -0.48019876720E+03  0.48019876720E+03  0.00000000000E+00 0.  1.
         24    2    1    2    0    0 -0.16997370232E+03  0.19011931775E+03 -0.14627309139E+03  0.30764952161E+03  0.90642133790E+02 0.  0.
        254    2    1    2    0    0  0.16997370232E+03 -0.19011931775E+03  0.59503975918E+03  0.11015146806E+04  0.89119350428E+03 0.  0.
         23    2    4    4    0    0 -0.34821951951E+03 -0.60787080589E+02  0.35301021209E+03  0.50789442924E+03  0.91589510702E+02 0.  0.
         23    2    4    4    0    0  0.51819322183E+03 -0.12933223716E+03  0.24202954708E+03  0.59362025135E+03  0.92496802263E+02 0.  0.
          4    1    3    3  502    0 -0.61847723855E+01  0.17391378097E+01  0.10907233109E+02  0.12658741796E+02  0.00000000000E+00 0. -1.
         -3    1    3    3    0  502 -0.16378892993E+03  0.18838017994E+03 -0.15718032450E+03  0.29499077981E+03  0.00000000000E+00 0.  1.
         13    1    5    5    0    0 -0.39735942438E+02 -0.25419015245E+02  0.16393150312E+02  0.49938029943E+02  0.00000000000E+00 0.  1.
        -13    1    5    5    0    0 -0.30848357708E+03 -0.35368065345E+02  0.33661706178E+03  0.45795639929E+03  0.00000000000E+00 0. -1.
          2    1    6    6  503    0  0.42098003645E+03 -0.10113780233E+03  0.15417086505E+03  0.45958862234E+03  0.00000000000E+00 0. -1.
         -2    1    6    6    0  503  0.97213185379E+02 -0.28194434829E+02  0.87858682032E+02  0.13403162901E+03  0.00000000000E+00 0.  1.
<mgrwt>
<rscale>  0 0.13357965E+04</rscale>
<asrwt>0</asrwt>
<pdfrwt beam="1">  1        2 0.14291776E+00 0.13357965E+04</pdfrwt>
<pdfrwt beam="2">  1       -1 0.73876734E-01 0.13357965E+04</pdfrwt>
<totfact> 0.57735175E+01</totfact>
</mgrwt>
</event>
<event>
12    7  0.4402518E-007  0.3691214E+04  0.7818608E-02  0.8069912E-01
         -1   -1    0    0    0  501 -0.00000000000E+00  0.00000000000E+00  0.19714841664E+04  0.19714841664E+04  0.00000000000E+00 0.  1.
          2   -1    0    0  501    0  0.00000000000E+00 -0.00000000000E+00 -0.17277670952E+04  0.17277670952E+04  0.00000000000E+00 0. -1.
         24    2    1    2    0    0  0.10780041775E+04  0.12976060025E+04  0.52008225708E+03  0.17670933464E+04  0.79113819734E+02 0.  0.
        254    2    1    2    0    0 -0.10780041775E+04 -0.12976060025E+04 -0.27636518583E+03  0.19321579152E+04  0.90054547311E+03 0.  0.
         23    2    4    4    0    0 -0.98510802678E+03 -0.54797746630E+03 -0.27752004787E+02  0.11313446842E+04  0.91942877361E+02 0.  0.
         23    2    4    4    0    0 -0.92896150671E+02 -0.74962853619E+03 -0.24861318104E+03  0.80081323103E+03  0.94449352150E+02 0.  0.
          4    1    3    3  502    0  0.73055030015E+03  0.88180938118E+03  0.31420230450E+03  0.11874403623E+04  0.00000000000E+00 0. -1.
         -3    1    3    3    0  502  0.34745387730E+03  0.41579662132E+03  0.20587995258E+03  0.57965298414E+03  0.00000000000E+00 0.  1.
         13    1    5    5    0    0 -0.59912863910E+02 -0.32316009323E+02  0.20378044298E+02  0.71057303705E+02  0.00000000000E+00 0.  1.
        -13    1    5    5    0    0 -0.92519516287E+03 -0.51566145698E+03 -0.48130049085E+02  0.10602873805E+04  0.00000000000E+00 0. -1.
          1    1    6    6  503    0 -0.50761282236E+02 -0.60300244406E+03 -0.16681058708E+03  0.62770568523E+03  0.00000000000E+00 0. -1.
         -1    1    6    6    0  503 -0.42134868435E+02 -0.14662609214E+03 -0.81802593960E+02  0.17310754580E+03  0.00000000000E+00 0.  1.
<mgrwt>
<rscale>  0 0.36912141E+04</rscale>
<asrwt>0</asrwt>
<pdfrwt beam="1">  1        2 0.26581032E+00 0.36912141E+04</pdfrwt>
<pdfrwt beam="2">  1       -1 0.30330526E+00 0.36912141E+04</pdfrwt>
<totfact> 0.27388229E-01</totfact>
</mgrwt>
</event>
<event>
12    7  0.2466188E-007  0.1500888E+04  0.7818608E-02  0.8883862E-01
          2   -1    0    0  501    0  0.00000000000E+00  0.00000000000E+00  0.83347569403E+03  0.83347569403E+03  0.00000000000E+00 0. -1.
         -1   -1    0    0    0  501 -0.00000000000E+00 -0.00000000000E+00 -0.67568438945E+03  0.67568438945E+03  0.00000000000E+00 0.  1.
         24    2    1    2    0    0 -0.36069471295E+03 -0.82744018179E+02 -0.24964467297E+03  0.45359283876E+03  0.80478271200E+02 0.  0.
        254    2    1    2    0    0  0.36069471295E+03  0.82744018179E+02  0.40743597755E+03  0.10555672447E+04  0.90070576984E+03 0.  0.
         23    2    4    4    0    0  0.10488364044E+03 -0.75710404670E+01 -0.27886811567E+03  0.31206734062E+03  0.92524053390E+02 0.  0.
         23    2    4    4    0    0  0.25581107251E+03  0.90315058646E+02  0.68630409322E+03  0.74349990410E+03  0.90458191362E+02 0.  0.
          4    1    3    3  502    0 -0.16601691575E+03 -0.73070806460E+01 -0.79269991832E+02  0.18411610834E+03  0.00000000000E+00 0. -1.
         -3    1    3    3    0  502 -0.19467779720E+03 -0.75436937533E+02 -0.17037468114E+03  0.26947673042E+03  0.00000000000E+00 0.  1.
         13    1    5    5    0    0 -0.10695564617E+02 -0.17216881404E+02 -0.20336886725E+02  0.28712454953E+02  0.00000000000E+00 0. -1.
        -13    1    5    5    0    0  0.11557920506E+03  0.96458409365E+01 -0.25853122895E+03  0.28335488567E+03  0.00000000000E+00 0.  1.
          2    1    6    6  503    0  0.94653743394E+02  0.53108164265E+02  0.17319717379E+03  0.20439439635E+03  0.00000000000E+00 0. -1.
         -2    1    6    6    0  503  0.16115732911E+03  0.37206894382E+02  0.51310691943E+03  0.53910550774E+03  0.00000000000E+00 0.  1.
<mgrwt>
<rscale>  0 0.15008884E+04</rscale>
<asrwt>0</asrwt>
<pdfrwt beam="1">  1        2 0.12822703E+00 0.15008884E+04</pdfrwt>
<pdfrwt beam="2">  1       -1 0.10395144E+00 0.15008884E+04</pdfrwt>
<totfact> 0.31343832E+01</totfact>
</mgrwt>
</event>
<event>
12    7  0.2466188E-007  0.1247684E+04  0.7818608E-02  0.9072113E-01
         -1   -1    0    0    0  501 -0.00000000000E+00  0.00000000000E+00  0.71442373890E+03  0.71442373890E+03  0.00000000000E+00 0.  1.
          2   -1    0    0  501    0  0.00000000000E+00 -0.00000000000E+00 -0.54474471640E+03  0.54474471640E+03  0.00000000000E+00 0. -1.
         24    2    1    2    0    0  0.19475134664E+03  0.21375672144E+03  0.38962798507E+02  0.30276812081E+03  0.80810966643E+02 0.  0.
        254    2    1    2    0    0 -0.19475134664E+03 -0.21375672144E+03  0.13071622400E+03  0.95640033449E+03  0.90221662898E+03 0.  0.
         23    2    4    4    0    0 -0.36470350000E+03  0.24036326023E+03  0.82816937665E+00  0.44633962900E+03  0.91843555942E+02 0.  0.
         23    2    4    4    0    0  0.16995215336E+03 -0.45411998167E+03  0.12988805462E+03  0.51006070549E+03  0.90456201377E+02 0.  0.
          2    1    3    3  502    0  0.39443350293E+02  0.53226812120E+01 -0.81271561130E+00  0.39809161311E+02  0.00000000000E+00 0. -1.
         -3    1    3    3    0  502  0.15530799635E+03  0.20843404023E+03  0.39775514119E+02  0.26295895950E+03  0.00000000000E+00 0.  1.
         13    1    5    5    0    0 -0.30538305906E+03  0.23360690821E+03 -0.14282455987E+02  0.38475315317E+03  0.00000000000E+00 0.  1.
        -13    1    5    5    0    0 -0.59320440939E+02  0.67563520170E+01  0.15110625363E+02  0.61586475826E+02  0.00000000000E+00 0. -1.
          4    1    6    6  503    0  0.10486195390E+03 -0.18451788227E+03  0.25677923732E+02  0.21378080835E+03  0.00000000000E+00 0. -1.
         -4    1    6    6    0  503  0.65090199458E+02 -0.26960209941E+03  0.10421013089E+03  0.29627989714E+03  0.00000000000E+00 0.  1.
<mgrwt>
<rscale>  0 0.12476835E+04</rscale>
<asrwt>0</asrwt>
<pdfrwt beam="1">  1        2 0.83806880E-01 0.12476835E+04</pdfrwt>
<pdfrwt beam="2">  1       -1 0.10991134E+00 0.12476835E+04</pdfrwt>
<totfact> 0.47902653E+01</totfact>
</mgrwt>
</event>
<event>
12    7  0.2466188E-007  0.1129458E+04  0.7818608E-02  0.9176946E-01
          2   -1    0    0  501    0  0.00000000000E+00  0.00000000000E+00  0.46542516870E+04  0.46542516870E+04  0.00000000000E+00 0. -1.
         -1   -1    0    0    0  501 -0.00000000000E+00 -0.00000000000E+00 -0.68522095594E+02  0.68522095594E+02  0.00000000000E+00 0.  1.
         24    2    1    2    0    0  0.14613794919E+03  0.31243524558E+02  0.13628268614E+04  0.13732850096E+04  0.79260363300E+02 0.  0.
        254    2    1    2    0    0 -0.14613794919E+03 -0.31243524558E+02  0.32229027299E+04  0.33494887730E+04  0.89980029776E+03 0.  0.
         23    2    4    4    0    0 -0.43317551662E+03  0.19394976175E+03  0.12367067282E+04  0.13280518057E+04  0.94976463755E+02 0.  0.
         23    2    4    4    0    0  0.28703756743E+03 -0.22519328631E+03  0.19861960017E+04  0.20214369673E+04  0.90168033808E+02 0.  0.
          4    1    3    3  502    0  0.91414412357E+02  0.49272527886E+02  0.10561063773E+04  0.10611998196E+04  0.00000000000E+00 0. -1.
         -3    1    3    3    0  502  0.54723536830E+02 -0.18029003328E+02  0.30672048410E+03  0.31208518999E+03  0.00000000000E+00 0.  1.
         13    1    5    5    0    0 -0.35211392649E+03  0.16097745847E+03  0.89180383098E+03  0.97222015630E+03  0.00000000000E+00 0.  1.
        -13    1    5    5    0    0 -0.81061590130E+02  0.32972303276E+02  0.34490289722E+03  0.35583164936E+03  0.00000000000E+00 0. -1.
          4    1    6    6  503    0  0.45742592709E+02 -0.82878134643E+02  0.56865845688E+03  0.57648383374E+03  0.00000000000E+00 0. -1.
         -4    1    6    6    0  503  0.24129497472E+03 -0.14231515167E+03  0.14175375449E+04  0.14449531336E+04  0.00000000000E+00 0.  1.
<mgrwt>
<rscale>  0 0.11294584E+04</rscale>
<asrwt>0</asrwt>
<pdfrwt beam="1">  1        2 0.71603847E+00 0.11294584E+04</pdfrwt>
<pdfrwt beam="2">  1       -1 0.10541865E-01 0.11294584E+04</pdfrwt>
<totfact> 0.60366838E+00</totfact>
</mgrwt>
</event>
<event>
12    7  0.2466188E-007  0.1216831E+04  0.7818608E-02  0.9098251E-01
         -1   -1    0    0    0  501 -0.00000000000E+00  0.00000000000E+00  0.18089175527E+03  0.18089175527E+03  0.00000000000E+00 0.  1.
          2   -1    0    0  501    0  0.00000000000E+00 -0.00000000000E+00 -0.20463575595E+04  0.20463575595E+04  0.00000000000E+00 0. -1.
         24    2    1    2    0    0 -0.18995464229E+03 -0.18553698070E+03 -0.37899397325E+03  0.46960439184E+03  0.79906919243E+02 0.  0.
        254    2    1    2    0    0  0.18995464229E+03  0.18553698070E+03 -0.14864718309E+04  0.17576449229E+04  0.89956124496E+03 0.  0.
         23    2    4    4    0    0  0.19847858711E+03  0.26089966835E+03 -0.84306844996E+02  0.35034285418E+03  0.90388521849E+02 0.  0.
         23    2    4    4    0    0 -0.85239448168E+01 -0.75362687650E+02 -0.14021649860E+04  0.14073020687E+04  0.93167979682E+02 0.  0.
          2    1    3    3  502    0 -0.52610040580E+02 -0.10633309281E+03 -0.16883037977E+03  0.20634495421E+03  0.00000000000E+00 0. -1.
         -1    1    3    3    0  502 -0.13734460171E+03 -0.79203887887E+02 -0.21016359348E+03  0.26325943763E+03  0.00000000000E+00 0.  1.
         13    1    5    5    0    0  0.13128688117E+03  0.98910252263E+02 -0.33440981841E+02  0.16774320384E+03  0.00000000000E+00 0.  1.
        -13    1    5    5    0    0  0.67191705939E+02  0.16198941608E+03 -0.50865863155E+02  0.18259965034E+03  0.00000000000E+00 0. -1.
          1    1    6    6  503    0  0.38591917925E+02 -0.23161579661E+02 -0.75190822606E+03  0.75325412399E+03  0.00000000000E+00 0. -1.
         -1    1    6    6    0  503 -0.47115862741E+02 -0.52201107989E+02 -0.65025675990E+03  0.65404794472E+03  0.00000000000E+00 0.  1.
<mgrwt>
<rscale>  0 0.12168307E+04</rscale>
<asrwt>0</asrwt>
<pdfrwt beam="1">  1        2 0.31482424E+00 0.12168307E+04</pdfrwt>
<pdfrwt beam="2">  1       -1 0.27829501E-01 0.12168307E+04</pdfrwt>
<totfact> 0.82383408E+01</totfact>
</mgrwt>
</event>
<event>
12    7  0.2466188E-007  0.2348886E+04  0.7818608E-02  0.8458892E-01
         -3   -1    0    0    0  501 -0.00000000000E+00  0.00000000000E+00  0.14383339127E+04  0.14383339127E+04  0.00000000000E+00 0.  1.
          4   -1    0    0  501    0  0.00000000000E+00 -0.00000000000E+00 -0.95896836986E+03  0.95896836986E+03  0.00000000000E+00 0. -1.
         24    2    1    2    0    0 -0.20762142889E+03 -0.96056712162E+03  0.39627691961E+03  0.10626851530E+04  0.80426888923E+02 0.  0.
        254    2    1    2    0    0  0.20762142889E+03  0.96056712162E+03  0.83088623262E+02  0.13346171296E+04  0.89916812138E+03 0.  0.
         23    2    4    4    0    0  0.82334985215E+02  0.19363821455E+03 -0.36624630505E+03  0.43263848667E+03  0.93621024667E+02 0.  0.
         23    2    4    4    0    0  0.12528644367E+03  0.76692890707E+03  0.44933492831E+03  0.90197864296E+03  0.88243714153E+02 0.  0.
          2    1    3    3  502    0 -0.12433203575E+03 -0.48534758785E+03  0.16366268168E+03  0.52707324872E+03  0.00000000000E+00 0. -1.
         -1    1    3    3    0  502 -0.83289393139E+02 -0.47521953377E+03  0.23261423793E+03  0.53561190425E+03  0.00000000000E+00 0.  1.
         13    1    5    5    0    0  0.32751992347E+02  0.12550187877E+03 -0.29512410569E+03  0.32236881415E+03  0.00000000000E+00 0. -1.
        -13    1    5    5    0    0  0.49582992868E+02  0.68136335777E+02 -0.71122199354E+02  0.11026967251E+03  0.00000000000E+00 0.  1.
          2    1    6    6  503    0  0.25289794343E+01  0.81173313973E+02  0.19955183533E+02  0.83628416152E+02  0.00000000000E+00 0.  1.
         -2    1    6    6    0  503  0.12275746424E+03  0.68575559310E+03  0.42937974478E+03  0.81835022681E+03  0.00000000000E+00 0. -1.
<mgrwt>
<rscale>  0 0.23488863E+04</rscale>
<asrwt>0</asrwt>
<pdfrwt beam="1">  1        4 0.14753359E+00 0.23488863E+04</pdfrwt>
<pdfrwt beam="2">  1       -3 0.22128214E+00 0.23488863E+04</pdfrwt>
<totfact> 0.69389389E-02</totfact>
</mgrwt>
</event>
<event>
12    7  0.2466188E-007  0.1910666E+04  0.7818608E-02  0.8649566E-01
          2   -1    0    0  501    0  0.00000000000E+00  0.00000000000E+00  0.19202504842E+04  0.19202504842E+04  0.00000000000E+00 0. -1.
         -1   -1    0    0    0  501 -0.00000000000E+00 -0.00000000000E+00 -0.47528217442E+03  0.47528217442E+03  0.00000000000E+00 0.  1.
         24    2    1    2    0    0  0.56980971813E+03  0.44201578610E+03  0.37435987777E+03  0.81640990628E+03  0.79490546383E+02 0.  0.
        254    2    1    2    0    0 -0.56980971813E+03 -0.44201578610E+03  0.10706084321E+04  0.15791227524E+04  0.90959616440E+03 0.  0.
         23    2    4    4    0    0 -0.79346283679E+02 -0.31257889897E+03  0.10053850306E+04  0.10598080400E+04  0.91611250074E+02 0.  0.
         23    2    4    4    0    0 -0.49046343445E+03 -0.12943688713E+03  0.65223401452E+02  0.51931471235E+03  0.90140945698E+02 0.  0.
          4    1    3    3  502    0  0.11465321822E+03  0.51551507305E+02  0.59311160592E+02  0.13899903642E+03  0.00000000000E+00 0. -1.
         -3    1    3    3    0  502  0.45515649990E+03  0.39046427879E+03  0.31504871717E+03  0.67741086986E+03  0.00000000000E+00 0.  1.
         13    1    5    5    0    0 -0.84179090697E+02 -0.16085384135E+03  0.60317335479E+03  0.62990330490E+03  0.00000000000E+00 0.  1.
        -13    1    5    5    0    0  0.48328070184E+01 -0.15172505762E+03  0.40221167581E+03  0.42990473513E+03  0.00000000000E+00 0. -1.
          3    1    6    6  503    0 -0.37134434429E+03 -0.95600711020E+02  0.87962659771E+02  0.39341269362E+03  0.00000000000E+00 0. -1.
         -3    1    6    6    0  503 -0.11911909016E+03 -0.33836176113E+02 -0.22739258320E+02  0.12590201874E+03  0.00000000000E+00 0.  1.
<mgrwt>
<rscale>  0 0.19106657E+04</rscale>
<asrwt>0</asrwt>
<pdfrwt beam="1">  1        2 0.29542315E+00 0.19106657E+04</pdfrwt>
<pdfrwt beam="2">  1       -1 0.73120335E-01 0.19106657E+04</pdfrwt>
<totfact> 0.14863635E+01</totfact>
</mgrwt>
</event>
<event>
12    7  0.2466188E-007  0.2319337E+04  0.7818608E-02  0.8470335E-01
          2   -1    0    0  501    0  0.00000000000E+00  0.00000000000E+00  0.15009755384E+04  0.15009755384E+04  0.00000000000E+00 0. -1.
         -1   -1    0    0    0  501 -0.00000000000E+00 -0.00000000000E+00 -0.89597160771E+03  0.89597160771E+03  0.00000000000E+00 0.  1.
         24    2    1    2    0    0 -0.49449174827E+03  0.67354396694E+03 -0.27728678371E+03  0.88387332455E+03  0.78489037013E+02 0.  0.
        254    2    1    2    0    0  0.49449174827E+03 -0.67354396694E+03  0.88229071444E+03  0.15130738216E+04  0.90153864050E+03 0.  0.
         23    2    4    4    0    0  0.57881624302E+03 -0.79363256784E+03  0.52908083715E+03  0.11195795705E+04  0.93010680210E+02 0.  0.
         23    2    4    4    0    0 -0.84324494754E+02  0.12008860090E+03  0.35320987730E+03  0.39349425105E+03  0.92458724358E+02 0.  0.
          4    1    3    3  502    0 -0.20278840567E+03  0.34192541791E+03 -0.13648158747E+03  0.42031339808E+03  0.00000000000E+00 0. -1.
         -3    1    3    3    0  502 -0.29170334260E+03  0.33161854902E+03 -0.14080519625E+03  0.46355992647E+03  0.00000000000E+00 0.  1.
         13    1    5    5    0    0  0.25554610432E+02 -0.40937280455E+02  0.50929156440E+02  0.70161798873E+02  0.00000000000E+00 0. -1.
        -13    1    5    5    0    0  0.55326163259E+03 -0.75269528738E+03  0.47815168071E+03  0.10494177717E+04  0.00000000000E+00 0.  1.
          4    1    6    6  503    0 -0.90405271083E+02  0.80157509701E+02  0.18845741472E+03  0.22386276279E+03  0.00000000000E+00 0. -1.
         -4    1    6    6    0  503  0.60807763292E+01  0.39931091201E+02  0.16475246258E+03  0.16963148826E+03  0.00000000000E+00 0.  1.
<mgrwt>
<rscale>  0 0.23193374E+04</rscale>
<asrwt>0</asrwt>
<pdfrwt beam="1">  1        2 0.23091931E+00 0.23193374E+04</pdfrwt>
<pdfrwt beam="2">  1       -1 0.13784179E+00 0.23193374E+04</pdfrwt>
<totfact> 0.57064028E+00</totfact>
</mgrwt>
</event>
<event>
12    7  0.2466188E-007  0.1975634E+04  0.7818608E-02  0.8618098E-01
          2   -1    0    0  501    0  0.00000000000E+00  0.00000000000E+00  0.18228079155E+04  0.18228079155E+04  0.00000000000E+00 0. -1.
         -1   -1    0    0    0  501 -0.00000000000E+00 -0.00000000000E+00 -0.53531834475E+03  0.53531834475E+03  0.00000000000E+00 0.  1.
         24    2    1    2    0    0  0.53415271249E+03  0.52427691870E+03  0.25077211383E+03  0.79329474663E+03  0.79022112206E+02 0.  0.
        254    2    1    2    0    0 -0.53415271249E+03 -0.52427691870E+03  0.10367174569E+04  0.15648315136E+04  0.90206938358E+03 0.  0.
         23    2    4    4    0    0 -0.45152096773E+03 -0.43379118182E+03  0.11903882790E+04  0.13483017241E+04  0.94060143561E+02 0.  0.
         23    2    4    4    0    0 -0.82631744756E+02 -0.90485736883E+02 -0.15367082211E+03  0.21652978953E+03  0.90855678777E+02 0.  0.
          4    1    3    3  502    0  0.16145327813E+03  0.21094283434E+03  0.93493368962E+02  0.28161152394E+03  0.00000000000E+00 0. -1.
         -3    1    3    3    0  502  0.37269943436E+03  0.31333408437E+03  0.15727874487E+03  0.51168322269E+03  0.00000000000E+00 0.  1.
         13    1    5    5    0    0 -0.12780903251E+03 -0.18441370807E+03  0.43641693513E+03  0.49071713418E+03  0.00000000000E+00 0. -1.
        -13    1    5    5    0    0 -0.32371193523E+03 -0.24937747375E+03  0.75397134389E+03  0.85758458990E+03  0.00000000000E+00 0.  1.
          1    1    6    6  503    0 -0.85569111471E+02 -0.44176824125E+02 -0.13650442995E+03  0.16705425473E+03  0.00000000000E+00 0. -1.
         -1    1    6    6    0  503  0.29373667152E+01 -0.46308912757E+02 -0.17166392159E+02  0.49475534800E+02  0.00000000000E+00 0.  1.
<mgrwt>
<rscale>  0 0.19756341E+04</rscale>
<asrwt>0</asrwt>
<pdfrwt beam="1">  1        2 0.28043198E+00 0.19756341E+04</pdfrwt>
<pdfrwt beam="2">  1       -1 0.82356669E-01 0.19756341E+04</pdfrwt>
<totfact> 0.13022425E+01</totfact>
</mgrwt>
</event>
<event>
12    7  0.2466188E-007  0.4009155E+04  0.7818608E-02  0.8002702E-01
         -1   -1    0    0    0  501 -0.00000000000E+00  0.00000000000E+00  0.10431051801E+04  0.10431051801E+04  0.00000000000E+00 0.  1.
          2   -1    0    0  501    0  0.00000000000E+00 -0.00000000000E+00 -0.38522783155E+04  0.38522783155E+04  0.00000000000E+00 0. -1.
         24    2    1    2    0    0  0.15560870971E+04  0.10770929521E+04 -0.10942105629E+04  0.21874966720E+04  0.79427028549E+02 0.  0.
        254    2    1    2    0    0 -0.15560870971E+04 -0.10770929521E+04 -0.17149625725E+04  0.27078868236E+04  0.90001007952E+03 0.  0.
         23    2    4    4    0    0 -0.88592396697E+02  0.12899870642E+03 -0.74416134619E+02  0.19634245073E+03  0.92321816806E+02 0.  0.
         23    2    4    4    0    0 -0.14674947004E+04 -0.12060916585E+04 -0.16405464379E+04  0.25115443728E+04  0.90910602785E+02 0.  0.
          2    1    3    3  502    0  0.31555769424E+03  0.21674050874E+03 -0.25874356778E+03  0.46206205253E+03  0.00000000000E+00 0. -1.
         -1    1    3    3    0  502  0.12405294028E+04  0.86035244332E+03 -0.83546699513E+03  0.17254346194E+04  0.00000000000E+00 0.  1.
         13    1    5    5    0    0 -0.55925260662E+02  0.13705876484E+03 -0.59574698731E+02  0.15956780542E+03  0.00000000000E+00 0.  1.
        -13    1    5    5    0    0 -0.32667136034E+02 -0.80600584198E+01 -0.14841435888E+02  0.36774645309E+02  0.00000000000E+00 0. -1.
          4    1    6    6  503    0 -0.34167758302E+03 -0.32649198153E+03 -0.38517501028E+03  0.60967234913E+03  0.00000000000E+00 0. -1.
         -4    1    6    6    0  503 -0.11258171174E+04 -0.87959967694E+03 -0.12553714276E+04  0.19018720237E+04  0.00000000000E+00 0.  1.
<mgrwt>
<rscale>  0 0.40091553E+04</rscale>
<asrwt>0</asrwt>
<pdfrwt beam="1">  1        2 0.59265820E+00 0.40091553E+04</pdfrwt>
<pdfrwt beam="2">  1       -1 0.16047772E+00 0.40091553E+04</pdfrwt>
<totfact> 0.11571060E-01</totfact>
</mgrwt>
</event>
<event>
12    7  0.2466188E-007  0.2129546E+04  0.7818608E-02  0.8548339E-01
         -1   -1    0    0    0  501 -0.00000000000E+00  0.00000000000E+00  0.51627537090E+03  0.51627537090E+03  0.00000000000E+00 0.  1.
          2   -1    0    0  501    0  0.00000000000E+00 -0.00000000000E+00 -0.21960009021E+04  0.21960009021E+04  0.00000000000E+00 0. -1.
         24    2    1    2    0    0  0.40054452263E+03 -0.65750171938E+03 -0.16600892854E+03  0.79171294518E+03  0.80659764600E+02 0.  0.
        254    2    1    2    0    0 -0.40054452263E+03  0.65750171938E+03 -0.15137166026E+04  0.19205633278E+04  0.89692871363E+03 0.  0.
         23    2    4    4    0    0 -0.60519840446E+03  0.35645006417E+03 -0.13217049547E+04  0.14990859030E+04  0.83861793202E+02 0.  0.
         23    2    4    4    0    0  0.20465388183E+03  0.30105165521E+03 -0.19201164796E+03  0.42147742478E+03  0.90881440304E+02 0.  0.
          2    1    3    3  502    0  0.22558856674E+03 -0.44101187466E+03 -0.11854878024E+03  0.50934810133E+03  0.00000000000E+00 0. -1.
         -1    1    3    3    0  502  0.17495595589E+03 -0.21648984472E+03 -0.47460148303E+02  0.28236484385E+03  0.00000000000E+00 0.  1.
         13    1    5    5    0    0 -0.64186418193E+02  0.22754035747E+02 -0.17846694802E+03  0.19101856967E+03  0.00000000000E+00 0. -1.
        -13    1    5    5    0    0 -0.54101198627E+03  0.33369602842E+03 -0.11432380067E+04  0.13080673333E+04  0.00000000000E+00 0.  1.
          4    1    6    6  503    0  0.69274876788E+01 -0.39842784984E+01  0.34967250944E+01  0.87230526239E+01  0.00000000000E+00 0. -1.
         -4    1    6    6    0  503  0.19772639415E+03  0.30503593371E+03 -0.19550837305E+03  0.41275437215E+03  0.00000000000E+00 0.  1.
<mgrwt>
<rscale>  0 0.21295457E+04</rscale>
<asrwt>0</asrwt>
<pdfrwt beam="1">  1        2 0.33784629E+00 0.21295457E+04</pdfrwt>
<pdfrwt beam="2">  1       -1 0.79426980E-01 0.21295457E+04</pdfrwt>
<totfact> 0.86028692E+00</totfact>
</mgrwt>
</event>
<event>
12    7  0.2466188E-007  0.1509084E+04  0.7818608E-02  0.8878434E-01
          2   -1    0    0  501    0  0.00000000000E+00  0.00000000000E+00  0.80936368734E+03  0.80936368734E+03  0.00000000000E+00 0. -1.
         -1   -1    0    0    0  501 -0.00000000000E+00 -0.00000000000E+00 -0.70343369760E+03  0.70343369760E+03  0.00000000000E+00 0.  1.
         24    2    1    2    0    0  0.10170633852E+03 -0.38215768316E+03 -0.24390739231E+03  0.47131218690E+03  0.79092903632E+02 0.  0.
        254    2    1    2    0    0 -0.10170633852E+03  0.38215768316E+03  0.34983738204E+03  0.10414851980E+04  0.89772855016E+03 0.  0.
         23    2    4    4    0    0  0.34671587343E+03  0.38265549455E+03  0.16984281690E+03  0.55179645857E+03  0.94845267856E+02 0.  0.
         23    2    4    4    0    0 -0.44842221195E+03 -0.49781138333E+00  0.17999456513E+03  0.48968873947E+03  0.79462507539E+02 0.  0.
          2    1    3    3  502    0  0.62399668362E+02 -0.29293541492E+03 -0.14621390951E+03  0.33329173896E+03  0.00000000000E+00 0. -1.
         -1    1    3    3    0  502  0.39306670156E+02 -0.89222268248E+02 -0.97693482792E+02  0.13802044794E+03  0.00000000000E+00 0.  1.
         13    1    5    5    0    0  0.20063966300E+03  0.28035507459E+03  0.13408701580E+03  0.36991157055E+03  0.00000000000E+00 0. -1.
        -13    1    5    5    0    0  0.14607621043E+03  0.10230041996E+03  0.35755801101E+02  0.18188488802E+03  0.00000000000E+00 0.  1.
          1    1    6    6  503    0 -0.31712531130E+03  0.53594967162E+01  0.87637221373E+02  0.32905542062E+03  0.00000000000E+00 0. -1.
         -1    1    6    6    0  503 -0.13129690065E+03 -0.58573080995E+01  0.92357343760E+02  0.16063331885E+03  0.00000000000E+00 0.  1.
<mgrwt>
<rscale>  0 0.15090841E+04</rscale>
<asrwt>0</asrwt>
<pdfrwt beam="1">  1        2 0.12451749E+00 0.15090841E+04</pdfrwt>
<pdfrwt beam="2">  1       -1 0.10822057E+00 0.15090841E+04</pdfrwt>
<totfact> 0.29661719E+01</totfact>
</mgrwt>
</event>
<event>
12    7  0.2466188E-007  0.1947473E+04  0.7818608E-02  0.8631580E-01
          2   -1    0    0  501    0  0.00000000000E+00  0.00000000000E+00  0.24842199164E+04  0.24842199164E+04  0.00000000000E+00 0. -1.
         -1   -1    0    0    0  501 -0.00000000000E+00 -0.00000000000E+00 -0.38167428679E+03  0.38167428679E+03  0.00000000000E+00 0.  1.
         24    2    1    2    0    0 -0.44377350497E+02 -0.67376322684E+03  0.30585041527E+03  0.74555785529E+03  0.79911225721E+02 0.  0.
        254    2    1    2    0    0  0.44377350497E+02  0.67376322684E+03  0.17966952143E+04  0.21203363479E+04  0.90099184232E+03 0.  0.
         23    2    4    4    0    0  0.23649130518E+02  0.61641632295E+03  0.45028898198E+03  0.76941490685E+03  0.93331489948E+02 0.  0.
         23    2    4    4    0    0  0.20728219978E+02  0.57346903887E+02  0.13464062324E+04  0.13509214410E+04  0.91981905147E+02 0.  0.
          2    1    3    3  502    0 -0.29349661006E+02 -0.20242058825E+03  0.12947033041E+03  0.24207036912E+03  0.00000000000E+00 0. -1.
         -1    1    3    3    0  502 -0.15027689490E+02 -0.47134263859E+03  0.17638008486E+03  0.50348748618E+03  0.00000000000E+00 0.  1.
         13    1    5    5    0    0 -0.13240009284E+02  0.51623275391E+02  0.68058021675E+02  0.86441626097E+02  0.00000000000E+00 0.  1.
        -13    1    5    5    0    0  0.36889139802E+02  0.56479304756E+03  0.38223096031E+03  0.68297328076E+03  0.00000000000E+00 0. -1.
          1    1    6    6  503    0  0.18313865321E+02  0.40926896536E+02  0.13115448861E+04  0.13123110900E+04  0.00000000000E+00 0. -1.
         -1    1    6    6    0  503  0.24143546573E+01  0.16420007351E+02  0.34861346212E+02  0.38610351067E+02  0.00000000000E+00 0.  1.
<mgrwt>
<rscale>  0 0.19474731E+04</rscale>
<asrwt>0</asrwt>
<pdfrwt beam="1">  1        2 0.38218767E+00 0.19474731E+04</pdfrwt>
<pdfrwt beam="2">  1       -1 0.58719123E-01 0.19474731E+04</pdfrwt>
<totfact> 0.11106540E+01</totfact>
</mgrwt>
</event>
<event>
12    7  0.2466188E-007  0.1519964E+04  0.7818608E-02  0.8871285E-01
         -1   -1    0    0    0  501 -0.00000000000E+00  0.00000000000E+00  0.46180313562E+03  0.46180313562E+03  0.00000000000E+00 0.  1.
          2   -1    0    0  501    0  0.00000000000E+00 -0.00000000000E+00 -0.12506901276E+04  0.12506901276E+04  0.00000000000E+00 0. -1.
         24    2    1    2    0    0 -0.31985265007E+03  0.33682789084E+03 -0.87632387988E+02  0.48024861407E+03  0.84856055134E+02 0.  0.
        254    2    1    2    0    0  0.31985265007E+03 -0.33682789084E+03 -0.70125460402E+03  0.12322446492E+04  0.90050547469E+03 0.  0.
         23    2    4    4    0    0 -0.17965555518E+02 -0.22577875520E+03  0.16204926738E+03  0.29351331630E+03  0.92689235092E+02 0.  0.
         23    2    4    4    0    0  0.33781820558E+03 -0.11104913564E+03 -0.86330387140E+03  0.93873133287E+03  0.97313361870E+02 0.  0.
          4    1    3    3  502    0 -0.14028827365E+03  0.20879366078E+03 -0.51703647264E+02  0.25680510051E+03  0.00000000000E+00 0. -1.
         -3    1    3    3    0  502 -0.17956437642E+03  0.12803423006E+03 -0.35928740724E+02  0.22344351356E+03  0.00000000000E+00 0.  1.
         13    1    5    5    0    0 -0.29613951774E+02 -0.12248660994E+03  0.13788515136E+03  0.18679472884E+03  0.00000000000E+00 0. -1.
        -13    1    5    5    0    0  0.11648396256E+02 -0.10329214526E+03  0.24164116016E+02  0.10671858746E+03  0.00000000000E+00 0.  1.
          1    1    6    6  503    0  0.18841617891E+03 -0.12147229127E+02 -0.47177255105E+03  0.50815111096E+03  0.00000000000E+00 0.  1.
         -1    1    6    6    0  503  0.14940202668E+03 -0.98901906513E+02 -0.39153132035E+03  0.43058022191E+03  0.00000000000E+00 0. -1.
<mgrwt>
<rscale>  0 0.15199640E+04</rscale>
<asrwt>0</asrwt>
<pdfrwt beam="1">  1        2 0.19241386E+00 0.15199640E+04</pdfrwt>
<pdfrwt beam="2">  1       -1 0.71046637E-01 0.15199640E+04</pdfrwt>
<totfact> 0.38896383E+01</totfact>
</mgrwt>
</event>
<event>
12    7  0.2466188E-007  0.1872039E+04  0.7818608E-02  0.8668901E-01
         -1   -1    0    0    0  501 -0.00000000000E+00  0.00000000000E+00  0.73114226445E+03  0.73114226445E+03  0.00000000000E+00 0.  1.
          2   -1    0    0  501    0  0.00000000000E+00 -0.00000000000E+00 -0.11983064342E+04  0.11983064342E+04  0.00000000000E+00 0. -1.
         24    2    1    2    0    0 -0.66975242789E+03 -0.17967947748E+03  0.65343304082E+01  0.69800616126E+03  0.79478766940E+02 0.  0.
        254    2    1    2    0    0  0.66975242789E+03  0.17967947748E+03 -0.47369850017E+03  0.12314425374E+04  0.90067054164E+03 0.  0.
         23    2    4    4    0    0 -0.17078924447E+03  0.18872279228E+02  0.77238847940E+02  0.20949832915E+03  0.91643774122E+02 0.  0.
         23    2    4    4    0    0  0.84054167235E+03  0.16080719826E+03 -0.55093734811E+03  0.10219442083E+04  0.92025785950E+02 0.  0.
          4    1    3    3  502    0 -0.16232222131E+03 -0.69505683906E+02  0.25488031973E+02  0.17840735243E+03  0.00000000000E+00 0. -1.
         -3    1    3    3    0  502 -0.50743020657E+03 -0.11017379358E+03 -0.18953701565E+02  0.51959880883E+03  0.00000000000E+00 0.  1.
         13    1    5    5    0    0 -0.13407259949E+03  0.46862149475E+02  0.33550130390E+02  0.14593537692E+03  0.00000000000E+00 0.  1.
        -13    1    5    5    0    0 -0.36716644980E+02 -0.27989870248E+02  0.43688717550E+02  0.63562952230E+02  0.00000000000E+00 0. -1.
          3    1    6    6  503    0  0.69581504515E+03  0.13815730157E+03 -0.49551867255E+03  0.86532350707E+03  0.00000000000E+00 0. -1.
         -3    1    6    6    0  503  0.14472662720E+03  0.22649896686E+02 -0.55418675555E+02  0.15662070119E+03  0.00000000000E+00 0.  1.
<mgrwt>
<rscale>  0 0.18720390E+04</rscale>
<asrwt>0</asrwt>
<pdfrwt beam="1">  1        2 0.18435484E+00 0.18720390E+04</pdfrwt>
<pdfrwt beam="2">  1       -1 0.11248343E+00 0.18720390E+04</pdfrwt>
<totfact> 0.14707593E+01</totfact>
</mgrwt>
</event>
<event>
12    7  0.2466188E-007  0.4331468E+04  0.7818608E-02  0.7940825E-01
         -1   -1    0    0    0  501 -0.00000000000E+00  0.00000000000E+00  0.14226502684E+04  0.14226502684E+04  0.00000000000E+00 0.  1.
          2   -1    0    0  501    0  0.00000000000E+00 -0.00000000000E+00 -0.32969484726E+04  0.32969484726E+04  0.00000000000E+00 0. -1.
         24    2    1    2    0    0 -0.32426502220E+03 -0.20288743041E+04 -0.60661592859E+03  0.21437166176E+04  0.77841540457E+02 0.  0.
        254    2    1    2    0    0  0.32426502220E+03  0.20288743041E+04 -0.12676822756E+04  0.25758821234E+04  0.89814899394E+03 0.  0.
         23    2    4    4    0    0  0.31380570482E+03  0.20457419008E+04 -0.10152119384E+04  0.23071484771E+04  0.93514013193E+02 0.  0.
         23    2    4    4    0    0  0.10459317380E+02 -0.16867596716E+02 -0.25247033725E+03  0.26873364626E+03  0.89903216324E+02 0.  0.
          2    1    3    3  502    0 -0.17156958292E+03 -0.12308801586E+04 -0.39682164411E+03  0.13045955326E+04  0.00000000000E+00 0. -1.
         -1    1    3    3    0  502 -0.15269543928E+03 -0.79799414549E+03 -0.20979428448E+03  0.83912108495E+03  0.00000000000E+00 0.  1.
         13    1    5    5    0    0  0.21246888012E+03  0.11091548678E+04 -0.53072144370E+03  0.12478112023E+04  0.00000000000E+00 0. -1.
        -13    1    5    5    0    0  0.10133682471E+03  0.93658703294E+03 -0.48449049468E+03  0.10593372748E+04  0.00000000000E+00 0.  1.
          3    1    6    6  503    0 -0.14117285617E+02 -0.12932324061E+02 -0.46966496181E+01  0.19712972289E+02  0.00000000000E+00 0. -1.
         -3    1    6    6    0  503  0.24576602997E+02 -0.39352726542E+01 -0.24777368763E+03  0.24902067397E+03  0.00000000000E+00 0.  1.
<mgrwt>
<rscale>  0 0.43314684E+04</rscale>
<asrwt>0</asrwt>
<pdfrwt beam="1">  1        2 0.50722284E+00 0.43314684E+04</pdfrwt>
<pdfrwt beam="2">  1       -1 0.21886927E+00 0.43314684E+04</pdfrwt>
<totfact> 0.10915489E-01</totfact>
</mgrwt>
</event>
<event>
12    7  0.2466188E-007  0.2907472E+04  0.7818608E-02  0.8270658E-01
         -1   -1    0    0    0  501 -0.00000000000E+00  0.00000000000E+00  0.96970103757E+03  0.96970103757E+03  0.00000000000E+00 0.  1.
          2   -1    0    0  501    0  0.00000000000E+00 -0.00000000000E+00 -0.21793806306E+04  0.21793806306E+04  0.00000000000E+00 0. -1.
         24    2    1    2    0    0 -0.12458108694E+04  0.39629015836E+03 -0.64713185580E+03  0.14608878104E+04  0.79516941984E+02 0.  0.
        254    2    1    2    0    0  0.12458108694E+04 -0.39629015836E+03 -0.56254773723E+03  0.16881938577E+04  0.90799115240E+03 0.  0.
         23    2    4    4    0    0  0.73424021157E+03 -0.92166506127E+02  0.14484189004E+03  0.75940509527E+03  0.90075371040E+02 0.  0.
         23    2    4    4    0    0  0.51157065778E+03 -0.30412365223E+03 -0.70738962727E+03  0.92878876247E+03  0.89737098086E+02 0.  0.
          4    1    3    3  502    0 -0.13805929979E+03  0.39292836338E+02 -0.99316509677E+02  0.17455104222E+03  0.00000000000E+00 0. -1.
         -3    1    3    3    0  502 -0.11077515696E+04  0.35699732202E+03 -0.54781534612E+03  0.12863367682E+04  0.00000000000E+00 0.  1.
         13    1    5    5    0    0  0.55531125946E+03 -0.33486338621E+02  0.12379325604E+03  0.56992692514E+03  0.00000000000E+00 0. -1.
        -13    1    5    5    0    0  0.17892895212E+03 -0.58680167505E+02  0.21048634001E+02  0.18947817013E+03  0.00000000000E+00 0.  1.
          1    1    6    6  503    0  0.46352885388E+03 -0.24087023595E+03 -0.61858218965E+03  0.80964275721E+03  0.00000000000E+00 0. -1.
         -1    1    6    6    0  503  0.48041803903E+02 -0.63253416286E+02 -0.88807437619E+02  0.11914600526E+03  0.00000000000E+00 0.  1.
<mgrwt>
<rscale>  0 0.29074715E+04</rscale>
<asrwt>0</asrwt>
<pdfrwt beam="1">  1        2 0.33528933E+00 0.29074715E+04</pdfrwt>
<pdfrwt beam="2">  1       -1 0.14918478E+00 0.29074715E+04</pdfrwt>
<totfact> 0.18417867E+00</totfact>
</mgrwt>
</event>
<event>
12    7  0.2466188E-007  0.1386487E+04  0.7818608E-02  0.8963658E-01
         -1   -1    0    0    0  501 -0.00000000000E+00  0.00000000000E+00  0.15211261755E+03  0.15211261755E+03  0.00000000000E+00 0.  1.
          2   -1    0    0  501    0  0.00000000000E+00 -0.00000000000E+00 -0.31594136622E+04  0.31594136622E+04  0.00000000000E+00 0. -1.
         24    2    1    2    0    0  0.12871718794E+03  0.25842677178E+03 -0.22303674119E+03  0.37454457052E+03  0.84768723860E+02 0.  0.
        254    2    1    2    0    0 -0.12871718794E+03 -0.25842677178E+03 -0.27842643034E+04  0.29369817092E+04  0.88903393522E+03 0.  0.
         23    2    4    4    0    0 -0.22287805036E+03  0.96746382731E+02 -0.23327653949E+04  0.23471740611E+04  0.91636225980E+02 0.  0.
         23    2    4    4    0    0  0.94160862427E+02 -0.35517315451E+03 -0.45149890856E+03  0.58980764806E+03  0.94908163898E+02 0.  0.
          2    1    3    3  502    0  0.56687200661E+02  0.62996655319E+02 -0.10572369200E+03  0.13549729278E+03  0.00000000000E+00 0. -1.
         -1    1    3    3    0  502  0.72029987275E+02  0.19543011646E+03 -0.11731304919E+03  0.23904727774E+03  0.00000000000E+00 0.  1.
         13    1    5    5    0    0 -0.52926584480E+02 -0.16413713217E+02 -0.47383081938E+03  0.47706003681E+03  0.00000000000E+00 0.  1.
        -13    1    5    5    0    0 -0.16995146588E+03  0.11316009595E+03 -0.18589345755E+04  0.18701140243E+04  0.00000000000E+00 0. -1.
          2    1    6    6  503    0 -0.11090093146E+02 -0.11428548661E+03 -0.16452682186E+03  0.20063209546E+03  0.00000000000E+00 0. -1.
         -2    1    6    6    0  503  0.10525095557E+03 -0.24088766790E+03 -0.28697208670E+03  0.38917555260E+03  0.00000000000E+00 0.  1.
<mgrwt>
<rscale>  0 0.13864872E+04</rscale>
<asrwt>0</asrwt>
<pdfrwt beam="1">  1        2 0.48606360E+00 0.13864872E+04</pdfrwt>
<pdfrwt beam="2">  1       -1 0.23401943E-01 0.13864872E+04</pdfrwt>
<totfact> 0.24263214E+01</totfact>
</mgrwt>
</event>
<event>
12    7  0.2466188E-007  0.1251286E+04  0.7818608E-02  0.9069114E-01
          2   -1    0    0  501    0  0.00000000000E+00  0.00000000000E+00  0.73408360549E+03  0.73408360549E+03  0.00000000000E+00 0. -1.
         -1   -1    0    0    0  501 -0.00000000000E+00 -0.00000000000E+00 -0.53322132105E+03  0.53322132105E+03  0.00000000000E+00 0.  1.
         24    2    1    2    0    0 -0.15936879788E+03 -0.24282029034E+03  0.10027153472E+03  0.31724836987E+03  0.78943273100E+02 0.  0.
        254    2    1    2    0    0  0.15936879788E+03  0.24282029034E+03  0.10059074972E+03  0.95005655668E+03  0.89895987386E+03 0.  0.
         23    2    4    4    0    0  0.26423198770E+02  0.95652226792E+02 -0.39003148610E+03  0.41268498835E+03  0.91306108953E+02 0.  0.
         23    2    4    4    0    0  0.13294559911E+03  0.14716806355E+03  0.49062223582E+03  0.53737156833E+03  0.93407991727E+02 0.  0.
          2    1    3    3  502    0 -0.17601782711E-01 -0.46232711329E+02  0.36743942513E+01  0.46378498032E+02  0.00000000000E+00 0. -1.
         -1    1    3    3    0  502 -0.15935119610E+03 -0.19658757901E+03  0.96597140468E+02  0.27086987183E+03  0.00000000000E+00 0.  1.
         13    1    5    5    0    0 -0.34024987493E+02  0.28360651765E+02 -0.12086710007E+03  0.12872793877E+03  0.00000000000E+00 0.  1.
        -13    1    5    5    0    0  0.60448186264E+02  0.67291575027E+02 -0.26916438603E+03  0.28395704957E+03  0.00000000000E+00 0. -1.
          3    1    6    6  503    0  0.75013345657E+02  0.10907876814E+03  0.41099886051E+03  0.43179305579E+03  0.00000000000E+00 0. -1.
         -3    1    6    6    0  503  0.57932253457E+02  0.38089295406E+02  0.79623375304E+02  0.10557851254E+03  0.00000000000E+00 0.  1.
<mgrwt>
<rscale>  0 0.12512858E+04</rscale>
<asrwt>0</asrwt>
<pdfrwt beam="1">  1        2 0.11293594E+00 0.12512858E+04</pdfrwt>
<pdfrwt beam="2">  1       -1 0.82034049E-01 0.12512858E+04</pdfrwt>
<totfact> 0.64041037E+01</totfact>
</mgrwt>
</event>
<event>
12    7  0.2466188E-007  0.1172586E+04  0.7818608E-02  0.9137196E-01
          2   -1    0    0  501    0  0.00000000000E+00  0.00000000000E+00  0.83922861920E+03  0.83922861920E+03  0.00000000000E+00 0. -1.
         -1   -1    0    0    0  501 -0.00000000000E+00 -0.00000000000E+00 -0.40958967553E+03  0.40958967553E+03  0.00000000000E+00 0.  1.
         24    2    1    2    0    0  0.66448043376E+02  0.21320101637E+03  0.14713037671E+03  0.27893352258E+03  0.79287744433E+02 0.  0.
        254    2    1    2    0    0 -0.66448043376E+02 -0.21320101637E+03  0.28250856696E+03  0.96988477216E+03  0.90055281078E+03 0.  0.
         23    2    4    4    0    0 -0.35174748425E+03  0.19823777031E+03  0.17533508871E+03  0.44955242369E+03  0.91271474495E+02 0.  0.
         23    2    4    4    0    0  0.28529944087E+03 -0.41143878668E+03  0.10717347825E+03  0.52033234847E+03  0.92638827066E+02 0.  0.
          2    1    3    3  502    0  0.64602632999E+02  0.14483691526E+03  0.13744378650E+03  0.20986192285E+03  0.00000000000E+00 0. -1.
         -1    1    3    3    0  502  0.18454103768E+01  0.68364101108E+02  0.96865902106E+01  0.69071599733E+02  0.00000000000E+00 0.  1.
         13    1    5    5    0    0 -0.14095047168E+03  0.11644461918E+03  0.43930988259E+02  0.18803275387E+03  0.00000000000E+00 0.  1.
        -13    1    5    5    0    0 -0.21079701257E+03  0.81793151131E+02  0.13140410046E+03  0.26151966981E+03  0.00000000000E+00 0. -1.
          4    1    6    6  503    0  0.27027011045E+03 -0.40582205691E+03  0.88220580658E+02  0.49550009619E+03  0.00000000000E+00 0. -1.
         -4    1    6    6    0  503  0.15029330427E+02 -0.56167297727E+01  0.18952897588E+02  0.24832252282E+02  0.00000000000E+00 0.  1.
<mgrwt>
<rscale>  0 0.11725858E+04</rscale>
<asrwt>0</asrwt>
<pdfrwt beam="1">  1        2 0.12911209E+00 0.11725858E+04</pdfrwt>
<pdfrwt beam="2">  1       -1 0.63013796E-01 0.11725858E+04</pdfrwt>
<totfact> 0.93086318E+01</totfact>
</mgrwt>
</event>
<event>
12    7  0.2466188E-007  0.3343415E+04  0.7818608E-02  0.8151935E-01
         -1   -1    0    0    0  501 -0.00000000000E+00  0.00000000000E+00  0.11118176432E+04  0.11118176432E+04  0.00000000000E+00 0.  1.
          2   -1    0    0  501    0  0.00000000000E+00 -0.00000000000E+00 -0.25135472337E+04  0.25135472337E+04  0.00000000000E+00 0. -1.
         24    2    1    2    0    0  0.78857630019E+03  0.12294135157E+04 -0.12104891864E+04  0.18987169232E+04  0.80818998785E+02 0.  0.
        254    2    1    2    0    0 -0.78857630019E+03 -0.12294135157E+04 -0.19124040414E+03  0.17266479536E+04  0.90079414390E+03 0.  0.
         23    2    4    4    0    0 -0.58718635779E+03 -0.12544460323E+04 -0.37512397265E+03  0.14378796325E+04  0.91417590446E+02 0.  0.
         23    2    4    4    0    0 -0.20138994239E+03  0.25032516644E+02  0.18388356851E+03  0.28876832111E+03  0.91593890187E+02 0.  0.
          4    1    3    3  502    0  0.58882146531E+03  0.97371653055E+03 -0.96102273772E+03  0.14894291867E+04  0.00000000000E+00 0. -1.
         -3    1    3    3    0  502  0.19975483487E+03  0.25569698513E+03 -0.24946644863E+03  0.40928773650E+03  0.00000000000E+00 0.  1.
         13    1    5    5    0    0 -0.44429624291E+03 -0.85428713660E+03 -0.27317584630E+03  0.10009149346E+04  0.00000000000E+00 0. -1.
        -13    1    5    5    0    0 -0.14289011488E+03 -0.40015889572E+03 -0.10194812635E+03  0.43696469791E+03  0.00000000000E+00 0.  1.
          1    1    6    6  503    0 -0.18743199143E+03  0.82280448955E+00  0.18118971012E+03  0.26069357390E+03  0.00000000000E+00 0.  1.
         -1    1    6    6    0  503 -0.13957950959E+02  0.24209712154E+02  0.26938583907E+01  0.28074747204E+02  0.00000000000E+00 0. -1.
<mgrwt>
<rscale>  0 0.33434151E+04</rscale>
<asrwt>0</asrwt>
<pdfrwt beam="1">  1        2 0.38669957E+00 0.33434151E+04</pdfrwt>
<pdfrwt beam="2">  1       -1 0.17104887E+00 0.33434151E+04</pdfrwt>
<totfact> 0.78145526E-01</totfact>
</mgrwt>
</event>
<event>
12    7  0.2466188E-007  0.1417365E+04  0.7818608E-02  0.8941344E-01
          2   -1    0    0  501    0  0.00000000000E+00  0.00000000000E+00  0.18789855016E+04  0.18789855016E+04  0.00000000000E+00 0. -1.
         -1   -1    0    0    0  501 -0.00000000000E+00 -0.00000000000E+00 -0.26728835499E+03  0.26728835499E+03  0.00000000000E+00 0.  1.
         24    2    1    2    0    0  0.16848582547E+03 -0.22184464493E+03  0.15658777304E+02  0.29104141049E+03  0.82809331864E+02 0.  0.
        254    2    1    2    0    0 -0.16848582547E+03  0.22184464493E+03  0.15960383693E+04  0.18552324461E+04  0.90385089085E+03 0.  0.
         23    2    4    4    0    0  0.15607521833E+03  0.21263074987E+03  0.64492826714E+02  0.28705665027E+03  0.93117593393E+02 0.  0.
         23    2    4    4    0    0 -0.32456104380E+03  0.92138950597E+01  0.15315455426E+04  0.15681757959E+04  0.90104442485E+02 0.  0.
          4    1    3    3  502    0  0.58853926175E+02 -0.11342766370E+03  0.42225600366E+02  0.13458313730E+03  0.00000000000E+00 0. -1.
         -3    1    3    3    0  502  0.10963189930E+03 -0.10841698123E+03 -0.26566823062E+02  0.15645827319E+03  0.00000000000E+00 0.  1.
         13    1    5    5    0    0  0.38023191229E+02  0.12874343301E+03  0.40841066570E+02  0.14031616918E+03  0.00000000000E+00 0. -1.
        -13    1    5    5    0    0  0.11805202710E+03  0.83887316858E+02  0.23651760144E+02  0.14674048109E+03  0.00000000000E+00 0.  1.
          2    1    6    6  503    0 -0.75535653668E+02 -0.32203515435E+02  0.30080061707E+03  0.31180717216E+03  0.00000000000E+00 0. -1.
         -2    1    6    6    0  503 -0.24902539013E+03  0.41417410495E+02  0.12307449256E+04  0.12563686237E+04  0.00000000000E+00 0.  1.
<mgrwt>
<rscale>  0 0.14173651E+04</rscale>
<asrwt>0</asrwt>
<pdfrwt beam="1">  1        2 0.28907468E+00 0.14173651E+04</pdfrwt>
<pdfrwt beam="2">  1       -1 0.41121287E-01 0.14173651E+04</pdfrwt>
<totfact> 0.50016842E+01</totfact>
</mgrwt>
</event>
<event>
12    7  0.2466188E-007  0.2766261E+04  0.7818608E-02  0.8313820E-01
         -1   -1    0    0    0  501 -0.00000000000E+00  0.00000000000E+00  0.11976552769E+04  0.11976552769E+04  0.00000000000E+00 0.  1.
          2   -1    0    0  501    0  0.00000000000E+00 -0.00000000000E+00 -0.15973295079E+04  0.15973295079E+04  0.00000000000E+00 0. -1.
         24    2    1    2    0    0  0.11667446694E+04  0.38987029481E+03 -0.69662091316E+02  0.12348249923E+04  0.81535172706E+02 0.  0.
        254    2    1    2    0    0 -0.11667446694E+04 -0.38987029481E+03 -0.33001213977E+03  0.15601597925E+04  0.90105415787E+03 0.  0.
         23    2    4    4    0    0 -0.10706527255E+04 -0.12680540842E+03 -0.52964256353E+03  0.12045496882E+04  0.89676285122E+02 0.  0.
         23    2    4    4    0    0 -0.96091943904E+02 -0.26306488639E+03  0.19963042376E+03  0.35561010428E+03  0.90384976857E+02 0.  0.
          4    1    3    3  502    0  0.22358962281E+03  0.77893609822E+02 -0.45596175682E+02  0.24111977338E+03  0.00000000000E+00 0. -1.
         -3    1    3    3    0  502  0.94315504656E+03  0.31197668498E+03 -0.24065915635E+02  0.99370521893E+03  0.00000000000E+00 0.  1.
         13    1    5    5    0    0 -0.44336597820E+03 -0.34403422721E+02 -0.26349179631E+03  0.51689932564E+03  0.00000000000E+00 0.  1.
        -13    1    5    5    0    0 -0.62728674726E+03 -0.92401985697E+02 -0.26615076721E+03  0.68765036257E+03  0.00000000000E+00 0. -1.
          4    1    6    6  503    0 -0.32233506463E+02 -0.76064233686E+02  0.11268697982E+03  0.13972516597E+03  0.00000000000E+00 0. -1.
         -4    1    6    6    0  503 -0.63858437441E+02 -0.18700065270E+03  0.86943443937E+02  0.21588493830E+03  0.00000000000E+00 0.  1.
<mgrwt>
<rscale>  0 0.27662611E+04</rscale>
<asrwt>0</asrwt>
<pdfrwt beam="1">  1        2 0.24574300E+00 0.27662611E+04</pdfrwt>
<pdfrwt beam="2">  1       -1 0.18425466E+00 0.27662611E+04</pdfrwt>
<totfact> 0.21571347E+00</totfact>
</mgrwt>
</event>
<event>
12    7  0.2466188E-007  0.1985265E+04  0.7818608E-02  0.8613541E-01
          2   -1    0    0  501    0  0.00000000000E+00  0.00000000000E+00  0.10900355125E+04  0.10900355125E+04  0.00000000000E+00 0. -1.
         -1   -1    0    0    0  501 -0.00000000000E+00 -0.00000000000E+00 -0.90393324911E+03  0.90393324911E+03  0.00000000000E+00 0.  1.
         24    2    1    2    0    0  0.34799103640E+03  0.43045737761E+03  0.63482590972E+03  0.84591133188E+03  0.78553996682E+02 0.  0.
        254    2    1    2    0    0 -0.34799103640E+03 -0.43045737761E+03 -0.44872364633E+03  0.11480574297E+04  0.90016200533E+03 0.  0.
         23    2    4    4    0    0 -0.57161275437E+03 -0.50588373124E+03 -0.20265491007E+03  0.79506522644E+03  0.91652666227E+02 0.  0.
         23    2    4    4    0    0  0.22362171796E+03  0.75426353628E+02 -0.24606873626E+03  0.35299220330E+03  0.91421359972E+02 0.  0.
          4    1    3    3  502    0  0.19735374794E+03  0.29750069124E+03  0.43181091367E+03  0.56028191857E+03  0.00000000000E+00 0. -1.
         -3    1    3    3    0  502  0.15063728846E+03  0.13295668638E+03  0.20301499606E+03  0.28562941331E+03  0.00000000000E+00 0.  1.
         13    1    5    5    0    0 -0.52105915548E+03 -0.48333763545E+03 -0.16988326938E+03  0.73073814637E+03  0.00000000000E+00 0.  1.
        -13    1    5    5    0    0 -0.50553598887E+02 -0.22546095794E+02 -0.32771640698E+02  0.64327080068E+02  0.00000000000E+00 0. -1.
          2    1    6    6  503    0  0.25784242846E+01  0.19058280312E+02 -0.44892985925E+02  0.48838985508E+02  0.00000000000E+00 0. -1.
         -2    1    6    6    0  503  0.22104329368E+03  0.56368073316E+02 -0.20117575033E+03  0.30415321779E+03  0.00000000000E+00 0.  1.
<mgrwt>
<rscale>  0 0.19852651E+04</rscale>
<asrwt>0</asrwt>
<pdfrwt beam="1">  1        2 0.16769777E+00 0.19852651E+04</pdfrwt>
<pdfrwt beam="2">  1       -1 0.13906665E+00 0.19852651E+04</pdfrwt>
<totfact> 0.10000194E+01</totfact>
</mgrwt>
</event>
<event>
12    7  0.2466188E-007  0.1589722E+04  0.7818608E-02  0.8826887E-01
         -1   -1    0    0    0  501 -0.00000000000E+00  0.00000000000E+00  0.28693272030E+03  0.28693272030E+03  0.00000000000E+00 0.  1.
          2   -1    0    0  501    0  0.00000000000E+00 -0.00000000000E+00 -0.22019233994E+04  0.22019233994E+04  0.00000000000E+00 0. -1.
         24    2    1    2    0    0  0.20042333603E+03 -0.49593161287E+03 -0.60535368659E+03  0.81179145570E+03  0.80215979777E+02 0.  0.
        254    2    1    2    0    0 -0.20042333603E+03  0.49593161287E+03 -0.13096369925E+04  0.16770646640E+04  0.90071036234E+03 0.  0.
         23    2    4    4    0    0  0.28204928339E+03 -0.88270194198E+01 -0.63751666253E+03  0.70352489142E+03  0.94287132284E+02 0.  0.
         23    2    4    4    0    0 -0.48247261942E+03  0.50475863229E+03 -0.67212032999E+03  0.97353977259E+03  0.92048060636E+02 0.  0.
          4    1    3    3  502    0  0.13694480656E+03 -0.38303988802E+03 -0.50178948741E+03  0.64596139632E+03  0.00000000000E+00 0. -1.
         -3    1    3    3    0  502  0.63478529470E+02 -0.11289172485E+03 -0.10356419918E+03  0.16583005938E+03  0.00000000000E+00 0.  1.
         13    1    5    5    0    0  0.97805478512E+02 -0.23442164174E+02 -0.32750416045E+03  0.34259950642E+03  0.00000000000E+00 0. -1.
        -13    1    5    5    0    0  0.18424380488E+03  0.14615144754E+02 -0.31001250208E+03  0.36092538500E+03  0.00000000000E+00 0.  1.
          1    1    6    6  503    0 -0.16982074257E+03  0.20963931633E+03 -0.20624739373E+03  0.33959640012E+03  0.00000000000E+00 0. -1.
         -1    1    6    6    0  503 -0.31265187685E+03  0.29511931596E+03 -0.46587293626E+03  0.63394337246E+03  0.00000000000E+00 0.  1.
<mgrwt>
<rscale>  0 0.15897218E+04</rscale>
<asrwt>0</asrwt>
<pdfrwt beam="1">  1        2 0.33875744E+00 0.15897218E+04</pdfrwt>
<pdfrwt beam="2">  1       -1 0.44143496E-01 0.15897218E+04</pdfrwt>
<totfact> 0.28602937E+01</totfact>
</mgrwt>
</event>
<event>
12    7  0.2466188E-007  0.1332519E+04  0.7818608E-02  0.9004168E-01
          2   -1    0    0  501    0  0.00000000000E+00  0.00000000000E+00  0.67894270469E+03  0.67894270469E+03  0.00000000000E+00 0. -1.
         -1   -1    0    0    0  501 -0.00000000000E+00 -0.00000000000E+00 -0.65381300196E+03  0.65381300196E+03  0.00000000000E+00 0.  1.
         24    2    1    2    0    0  0.33564220146E+03 -0.78958970008E+02  0.20016116411E+02  0.35420981837E+03  0.78573177179E+02 0.  0.
        254    2    1    2    0    0 -0.33564220146E+03  0.78958970008E+02  0.51135863288E+01  0.97854588828E+03  0.91577055006E+03 0.  0.
         23    2    4    4    0    0 -0.38598585793E+03  0.13536613506E+03  0.39220118066E+03  0.57375122413E+03  0.89775431146E+02 0.  0.
         23    2    4    4    0    0  0.50343656471E+02 -0.56407165048E+02 -0.38708759433E+03  0.40479466415E+03  0.91135407107E+02 0.  0.
          4    1    3    3  502    0  0.93670924837E+02 -0.12655240039E+01  0.34071256637E+02  0.99682968654E+02  0.00000000000E+00 0. -1.
         -3    1    3    3    0  502  0.24197127662E+03 -0.77693446004E+02 -0.14055140227E+02  0.25452684972E+03  0.00000000000E+00 0.  1.
         13    1    5    5    0    0 -0.62805024703E+02  0.52520976319E+02  0.50540768864E+02  0.96214829412E+02  0.00000000000E+00 0. -1.
        -13    1    5    5    0    0 -0.32318083322E+03  0.82845158737E+02  0.34166041179E+03  0.47753639471E+03  0.00000000000E+00 0.  1.
          3    1    6    6  503    0  0.59648072730E+02 -0.38570315973E+02 -0.14095523391E+03  0.15784150222E+03  0.00000000000E+00 0. -1.
         -3    1    6    6    0  503 -0.93044162589E+01 -0.17836849075E+02 -0.24613236041E+03  0.24695316193E+03  0.00000000000E+00 0.  1.
<mgrwt>
<rscale>  0 0.13325188E+04</rscale>
<asrwt>0</asrwt>
<pdfrwt beam="1">  1        2 0.10445272E+00 0.13325188E+04</pdfrwt>
<pdfrwt beam="2">  1       -1 0.10058661E+00 0.13325188E+04</pdfrwt>
<totfact> 0.44760104E+01</totfact>
</mgrwt>
</event>
<event>
12    7  0.2466188E-007  0.1570241E+04  0.7818608E-02  0.8839041E-01
          2   -1    0    0  501    0  0.00000000000E+00  0.00000000000E+00  0.18203754984E+04  0.18203754984E+04  0.00000000000E+00 0. -1.
         -1   -1    0    0    0  501 -0.00000000000E+00 -0.00000000000E+00 -0.33861938796E+03  0.33861938796E+03  0.00000000000E+00 0.  1.
         24    2    1    2    0    0  0.26720972310E+03 -0.43033836315E+03  0.31860349865E+03  0.60356616238E+03  0.78687865021E+02 0.  0.
        254    2    1    2    0    0 -0.26720972310E+03  0.43033836315E+03  0.11631526117E+04  0.15554287239E+04  0.89991242581E+03 0.  0.
         23    2    4    4    0    0  0.19289033527E+03 -0.15141907040E+03  0.45297271331E+03  0.52456453662E+03  0.99243426726E+02 0.  0.
         23    2    4    4    0    0 -0.46010005838E+03  0.58175743355E+03  0.71017989843E+03  0.10308641873E+04  0.90508062326E+02 0.  0.
          4    1    3    3  502    0  0.13845671150E+03 -0.25742137257E+03  0.22341651762E+03  0.36790075341E+03  0.00000000000E+00 0. -1.
         -3    1    3    3    0  502  0.12875301161E+03 -0.17291699058E+03  0.95186981037E+02  0.23566540897E+03  0.00000000000E+00 0.  1.
         13    1    5    5    0    0  0.78277954620E+02 -0.12401459309E+03  0.25612886599E+03  0.29514242913E+03  0.00000000000E+00 0.  1.
        -13    1    5    5    0    0  0.11461238065E+03 -0.27404477312E+02  0.19684384732E+03  0.22942210748E+03  0.00000000000E+00 0. -1.
          1    1    6    6  503    0 -0.57073551128E+02  0.47505742092E+02  0.10490147517E+03  0.12852433724E+03  0.00000000000E+00 0. -1.
         -1    1    6    6    0  503 -0.40302650725E+03  0.53425169146E+03  0.60527842326E+03  0.90233985008E+03  0.00000000000E+00 0.  1.
<mgrwt>
<rscale>  0 0.15702413E+04</rscale>
<asrwt>0</asrwt>
<pdfrwt beam="1">  1        2 0.28005776E+00 0.15702413E+04</pdfrwt>
<pdfrwt beam="2">  1       -1 0.52095291E-01 0.15702413E+04</pdfrwt>
<totfact> 0.34152697E+01</totfact>
</mgrwt>
</event>
<event>
12    7  0.2466188E-007  0.1309920E+04  0.7818608E-02  0.9021735E-01
          2   -1    0    0  501    0  0.00000000000E+00  0.00000000000E+00  0.10820758629E+04  0.10820758629E+04  0.00000000000E+00 0. -1.
         -1   -1    0    0    0  501 -0.00000000000E+00 -0.00000000000E+00 -0.39643511163E+03  0.39643511163E+03  0.00000000000E+00 0.  1.
         24    2    1    2    0    0  0.22918761970E+03  0.15379655924E+03  0.40523537749E+03  0.49671635202E+03  0.79568062338E+02 0.  0.
        254    2    1    2    0    0 -0.22918761970E+03 -0.15379655924E+03  0.28040537375E+03  0.98179462248E+03  0.89950717643E+03 0.  0.
         23    2    4    4    0    0 -0.29218550419E+03  0.28604383728E+03  0.31922805038E+03  0.52679890078E+03  0.91744689236E+02 0.  0.
         23    2    4    4    0    0  0.62997884499E+02 -0.43984039651E+03 -0.38822676632E+02  0.45499572170E+03  0.89919957120E+02 0.  0.
          4    1    3    3  502    0  0.21787203521E+03  0.13892447383E+03  0.40180135785E+03  0.47771598710E+03  0.00000000000E+00 0. -1.
         -3    1    3    3    0  502  0.11315584486E+02  0.14872085401E+02  0.34340196366E+01  0.19000364926E+02  0.00000000000E+00 0.  1.
         13    1    5    5    0    0  0.56240346734E+01 -0.66675150389E+00  0.40849794762E+01  0.69829349773E+01  0.00000000000E+00 0. -1.
        -13    1    5    5    0    0 -0.29780953887E+03  0.28671058878E+03  0.31514307090E+03  0.51981596580E+03  0.00000000000E+00 0.  1.
          3    1    6    6  503    0  0.44981704450E+02 -0.12715945519E+03  0.19892741542E+02  0.13634002327E+03  0.00000000000E+00 0. -1.
         -3    1    6    6    0  503  0.18016180049E+02 -0.31268094132E+03 -0.58715418174E+02  0.31865569843E+03  0.00000000000E+00 0.  1.
<mgrwt>
<rscale>  0 0.13099204E+04</rscale>
<asrwt>0</asrwt>
<pdfrwt beam="1">  1        2 0.16647321E+00 0.13099204E+04</pdfrwt>
<pdfrwt beam="2">  1       -1 0.60990018E-01 0.13099204E+04</pdfrwt>
<totfact> 0.68077511E+01</totfact>
</mgrwt>
</event>
<event>
12    7  0.2466188E-007  0.2219555E+04  0.7818608E-02  0.8510333E-01
          2   -1    0    0  501    0  0.00000000000E+00  0.00000000000E+00  0.22583415509E+04  0.22583415509E+04  0.00000000000E+00 0. -1.
         -1   -1    0    0    0  501 -0.00000000000E+00 -0.00000000000E+00 -0.54535847899E+03  0.54535847899E+03  0.00000000000E+00 0.  1.
         24    2    1    2    0    0  0.68452669015E+03 -0.34609384357E+01  0.15018962075E+04  0.16524292581E+04  0.79002958041E+02 0.  0.
        254    2    1    2    0    0 -0.68452669015E+03  0.34609384357E+01  0.21108686445E+03  0.11512707718E+04  0.90126464373E+03 0.  0.
         23    2    4    4    0    0  0.93068368884E+02  0.16399744414E+03 -0.16660755617E+03  0.26720302556E+03  0.89902703665E+02 0.  0.
         23    2    4    4    0    0 -0.77759505903E+03 -0.16053650570E+03  0.37769442061E+03  0.88406774624E+03  0.92177324135E+02 0.  0.
          2    1    3    3  502    0  0.22753255308E+03 -0.14962502498E+02  0.58563977029E+03  0.62846549606E+03  0.00000000000E+00 0. -1.
         -1    1    3    3    0  502  0.45699413707E+03  0.11501564062E+02  0.91625643720E+03  0.10239637621E+04  0.00000000000E+00 0.  1.
         13    1    5    5    0    0  0.42169477019E+02  0.14862517456E+03 -0.11076241004E+03  0.19009476264E+03  0.00000000000E+00 0.  1.
        -13    1    5    5    0    0  0.50898891866E+02  0.15372269581E+02 -0.55845146125E+02  0.77108262923E+02  0.00000000000E+00 0. -1.
          2    1    6    6  503    0 -0.63150981383E+02  0.72250659540E+01  0.47391632062E+02  0.79285653287E+02  0.00000000000E+00 0. -1.
         -2    1    6    6    0  503 -0.71444407765E+03 -0.16776157166E+03  0.33030278855E+03  0.80478209295E+03  0.00000000000E+00 0.  1.
<mgrwt>
<rscale>  0 0.22195547E+04</rscale>
<asrwt>0</asrwt>
<pdfrwt beam="1">  1        2 0.34743716E+00 0.22195547E+04</pdfrwt>
<pdfrwt beam="2">  1       -1 0.83901306E-01 0.22195547E+04</pdfrwt>
<totfact> 0.70001213E+00</totfact>
</mgrwt>
</event>
<event>
12    7  0.2466188E-007  0.1318643E+04  0.7818608E-02  0.9014910E-01
         -1   -1    0    0    0  501 -0.00000000000E+00  0.00000000000E+00  0.17059081062E+04  0.17059081062E+04  0.00000000000E+00 0.  1.
          2   -1    0    0  501    0  0.00000000000E+00 -0.00000000000E+00 -0.25482328759E+03  0.25482328759E+03  0.00000000000E+00 0. -1.
         24    2    1    2    0    0  0.12269448864E+03 -0.18281853702E+03  0.78398739145E+03  0.81886020189E+03  0.86135040905E+02 0.  0.
        254    2    1    2    0    0 -0.12269448864E+03  0.18281853702E+03  0.66709742721E+03  0.11418711919E+04  0.90020791297E+03 0.  0.
         23    2    4    4    0    0  0.10322411889E+03 -0.32437805905E+03  0.17596184568E+03  0.39489021684E+03  0.95390609110E+02 0.  0.
         23    2    4    4    0    0 -0.22591860753E+03  0.50719659607E+03  0.49113558153E+03  0.74698097510E+03  0.92080472534E+02 0.  0.
          4    1    3    3  502    0  0.28778403740E+02 -0.69819858695E+02  0.14839479453E+03  0.16650532794E+03  0.00000000000E+00 0. -1.
         -3    1    3    3    0  502  0.93916084898E+02 -0.11299867832E+03  0.63559259692E+03  0.65235487395E+03  0.00000000000E+00 0.  1.
         13    1    5    5    0    0  0.30557163668E+02 -0.14360110721E+03  0.26172438476E+02  0.14913086461E+03  0.00000000000E+00 0.  1.
        -13    1    5    5    0    0  0.72666955225E+02 -0.18077695184E+03  0.14978940721E+03  0.24575935223E+03  0.00000000000E+00 0. -1.
          1    1    6    6  503    0 -0.61922929169E+02  0.13494830691E+03  0.80140155230E+02  0.16872444747E+03  0.00000000000E+00 0. -1.
         -1    1    6    6    0  503 -0.16399567836E+03  0.37224828916E+03  0.41099542630E+03  0.57825652763E+03  0.00000000000E+00 0.  1.
<mgrwt>
<rscale>  0 0.13186434E+04</rscale>
<asrwt>0</asrwt>
<pdfrwt beam="1">  1        2 0.39203584E-01 0.13186434E+04</pdfrwt>
<pdfrwt beam="2">  1       -1 0.26244739E+00 0.13186434E+04</pdfrwt>
<totfact> 0.85678315E+00</totfact>
</mgrwt>
</event>
<event>
12    7  0.2466188E-007  0.2476830E+04  0.7818608E-02  0.8411287E-01
          2   -1    0    0  501    0  0.00000000000E+00  0.00000000000E+00  0.12498576498E+04  0.12498576498E+04  0.00000000000E+00 0. -1.
         -1   -1    0    0    0  501 -0.00000000000E+00 -0.00000000000E+00 -0.12270771081E+04  0.12270771081E+04  0.00000000000E+00 0.  1.
         24    2    1    2    0    0  0.53323219041E+03 -0.90978012818E+03  0.21223980847E+03  0.10783779689E+04  0.76268322830E+02 0.  0.
        254    2    1    2    0    0 -0.53323219041E+03  0.90978012818E+03 -0.18945926682E+03  0.13985567889E+04  0.89890479339E+03 0.  0.
         23    2    4    4    0    0 -0.70343372725E+03  0.38105708593E+03 -0.22056111764E+03  0.83475531702E+03  0.90253649871E+02 0.  0.
         23    2    4    4    0    0  0.17020153684E+03  0.52872304225E+03  0.31101850818E+02  0.56380147191E+03  0.91586877122E+02 0.  0.
          2    1    3    3  502    0  0.19224347252E+03 -0.37950481697E+03  0.11295706699E+03  0.44015992300E+03  0.00000000000E+00 0. -1.
         -1    1    3    3    0  502  0.34098871789E+03 -0.53027531121E+03  0.99282741484E+02  0.63821804594E+03  0.00000000000E+00 0.  1.
         13    1    5    5    0    0 -0.45602238051E+03  0.19794968230E+03 -0.12818489139E+03  0.51339249569E+03  0.00000000000E+00 0.  1.
        -13    1    5    5    0    0 -0.24741134674E+03  0.18310740363E+03 -0.92376226249E+02  0.32136282133E+03  0.00000000000E+00 0. -1.
          3    1    6    6  503    0  0.23746054587E+02  0.20803557935E+03  0.27920385811E+02  0.21123973426E+03  0.00000000000E+00 0. -1.
         -3    1    6    6    0  503  0.14645548225E+03  0.32068746290E+03  0.31814650074E+01  0.35256173766E+03  0.00000000000E+00 0.  1.
<mgrwt>
<rscale>  0 0.24768300E+04</rscale>
<asrwt>0</asrwt>
<pdfrwt beam="1">  1        2 0.19228579E+00 0.24768300E+04</pdfrwt>
<pdfrwt beam="2">  1       -1 0.18878109E+00 0.24768300E+04</pdfrwt>
<totfact> 0.32468446E+00</totfact>
</mgrwt>
</event>
<event>
12    7  0.2466188E-007  0.1125884E+04  0.7818608E-02  0.9180325E-01
         -1   -1    0    0    0  501 -0.00000000000E+00  0.00000000000E+00  0.26229173209E+03  0.26229173209E+03  0.00000000000E+00 0.  1.
          2   -1    0    0  501    0  0.00000000000E+00 -0.00000000000E+00 -0.12082097952E+04  0.12082097952E+04  0.00000000000E+00 0. -1.
         24    2    1    2    0    0 -0.18766532403E+03  0.33809450231E+02 -0.16013287053E+03  0.26104848899E+03  0.78373621894E+02 0.  0.
        254    2    1    2    0    0  0.18766532403E+03 -0.33809450231E+02 -0.78578519261E+03  0.12094530383E+04  0.89942033013E+03 0.  0.
         23    2    4    4    0    0  0.50331503328E+03 -0.62975940773E+02 -0.23066071112E+03  0.56406013973E+03  0.87564180661E+02 0.  0.
         23    2    4    4    0    0 -0.31564970925E+03  0.29166490541E+02 -0.55512448149E+03  0.64539289861E+03  0.88788402993E+02 0.  0.
          4    1    3    3  502    0 -0.57729031089E+02 -0.19468900294E+01 -0.95441837512E+02  0.11155974076E+03  0.00000000000E+00 0. -1.
         -3    1    3    3    0  502 -0.12993629295E+03  0.35756340261E+02 -0.64691033020E+02  0.14948874823E+03  0.00000000000E+00 0.  1.
         13    1    5    5    0    0  0.39657876524E+03 -0.85414585623E+02 -0.18189541869E+03  0.44458555062E+03  0.00000000000E+00 0.  1.
        -13    1    5    5    0    0  0.10673626804E+03  0.22438644850E+02 -0.48765292427E+02  0.11947458911E+03  0.00000000000E+00 0. -1.
          2    1    6    6  503    0 -0.64956994219E+02 -0.18958458514E+02 -0.70936257808E+02  0.98034621022E+02  0.00000000000E+00 0. -1.
         -2    1    6    6    0  503 -0.25069271503E+03  0.48124949055E+02 -0.48418822368E+03  0.54735827758E+03  0.00000000000E+00 0.  1.
<mgrwt>
<rscale>  0 0.11258835E+04</rscale>
<asrwt>0</asrwt>
<pdfrwt beam="1">  1        2 0.18587842E+00 0.11258835E+04</pdfrwt>
<pdfrwt beam="2">  1       -1 0.40352575E-01 0.11258835E+04</pdfrwt>
<totfact> 0.12674723E+02</totfact>
</mgrwt>
</event>
<event>
12    7  0.2466188E-007  0.1675499E+04  0.7818608E-02  0.8775463E-01
         -1   -1    0    0    0  501 -0.00000000000E+00  0.00000000000E+00  0.15030187927E+04  0.15030187927E+04  0.00000000000E+00 0.  1.
          2   -1    0    0  501    0  0.00000000000E+00 -0.00000000000E+00 -0.46694308581E+03  0.46694308581E+03  0.00000000000E+00 0. -1.
         24    2    1    2    0    0 -0.41366866140E+03 -0.25435726566E+03  0.76852126482E+03  0.91253753123E+03  0.79249172931E+02 0.  0.
        254    2    1    2    0    0  0.41366866140E+03  0.25435726566E+03  0.26755444207E+03  0.10574243473E+04  0.90041184507E+03 0.  0.
         23    2    4    4    0    0  0.48009634176E+03  0.40932388321E+03 -0.98606044188E+02  0.64492689065E+03  0.90382540291E+02 0.  0.
         23    2    4    4    0    0 -0.66427680366E+02 -0.15496661755E+03  0.36616048626E+03  0.41249745663E+03  0.87483488478E+02 0.  0.
          4    1    3    3  502    0 -0.22164755404E+03 -0.17056920010E+03  0.39021231548E+03  0.48009076370E+03  0.00000000000E+00 0. -1.
         -3    1    3    3    0  502 -0.19202110736E+03 -0.83788065562E+02  0.37830894934E+03  0.43244676753E+03  0.00000000000E+00 0.  1.
         13    1    5    5    0    0  0.50294927792E+02  0.12438707114E+02 -0.98913551358E+00  0.51819683378E+02  0.00000000000E+00 0.  1.
        -13    1    5    5    0    0  0.42980141397E+03  0.39688517610E+03 -0.97616908674E+02  0.59310720727E+03  0.00000000000E+00 0. -1.
          1    1    6    6  503    0 -0.57168579267E+02 -0.10305115337E+03  0.15420241910E+03  0.19407774917E+03  0.00000000000E+00 0. -1.
         -1    1    6    6    0  503 -0.92591010996E+01 -0.51915464182E+02  0.21195806716E+03  0.21841970747E+03  0.00000000000E+00 0.  1.
<mgrwt>
<rscale>  0 0.16754990E+04</rscale>
<asrwt>0</asrwt>
<pdfrwt beam="1">  1        2 0.71837398E-01 0.16754990E+04</pdfrwt>
<pdfrwt beam="2">  1       -1 0.23123366E+00 0.16754990E+04</pdfrwt>
<totfact> 0.67294302E+00</totfact>
</mgrwt>
</event>
<event>
12    7  0.2466188E-007  0.2568578E+04  0.7818608E-02  0.8378954E-01
          2   -1    0    0  501    0  0.00000000000E+00  0.00000000000E+00  0.49759089717E+04  0.49759089717E+04  0.00000000000E+00 0. -1.
         -1   -1    0    0    0  501 -0.00000000000E+00 -0.00000000000E+00 -0.33147677056E+03  0.33147677056E+03  0.00000000000E+00 0.  1.
         24    2    1    2    0    0 -0.53428639467E+03  0.97006055676E+03  0.24452700737E+04  0.26854935527E+04  0.77784660168E+02 0.  0.
        254    2    1    2    0    0  0.53428639467E+03 -0.97006055676E+03  0.21991621274E+04  0.26218921895E+04  0.90084690994E+03 0.  0.
         23    2    4    4    0    0 -0.93033682002E+02 -0.73746917095E+03  0.12492647094E+04  0.14565267189E+04  0.91058906629E+02 0.  0.
         23    2    4    4    0    0  0.62732007667E+03 -0.23259138582E+03  0.94989741802E+03  0.11653654706E+04  0.90234937689E+02 0.  0.
          4    1    3    3  502    0 -0.66190485592E+02  0.17978801912E+03  0.40807290662E+03  0.45080861717E+03  0.00000000000E+00 0. -1.
         -3    1    3    3    0  502 -0.46809590908E+03  0.79027253764E+03  0.20371971670E+04  0.22346849356E+04  0.00000000000E+00 0.  1.
         13    1    5    5    0    0 -0.24592762226E+01 -0.11104214007E+03  0.13275407935E+03  0.17308971805E+03  0.00000000000E+00 0. -1.
        -13    1    5    5    0    0 -0.90574405780E+02 -0.62642703087E+03  0.11165106301E+04  0.12834370008E+04  0.00000000000E+00 0.  1.
          2    1    6    6  503    0  0.30852994588E+03 -0.66378723818E+02  0.44418337616E+03  0.54488139456E+03  0.00000000000E+00 0. -1.
         -2    1    6    6    0  503  0.31879013079E+03 -0.16621266200E+03  0.50571404186E+03  0.62048407605E+03  0.00000000000E+00 0.  1.
<mgrwt>
<rscale>  0 0.25685780E+04</rscale>
<asrwt>0</asrwt>
<pdfrwt beam="1">  1        2 0.76552440E+00 0.25685780E+04</pdfrwt>
<pdfrwt beam="2">  1       -1 0.50996430E-01 0.25685780E+04</pdfrwt>
<totfact> 0.14463350E-01</totfact>
</mgrwt>
</event>
<event>
12    7  0.2929987E-007  0.2389915E+04  0.7818608E-02  0.8443289E-01
          2   -1    0    0  501    0  0.00000000000E+00  0.00000000000E+00  0.14999565623E+04  0.14999565623E+04  0.00000000000E+00 0. -1.
         -1   -1    0    0    0  501 -0.00000000000E+00 -0.00000000000E+00 -0.95197623682E+03  0.95197623682E+03  0.00000000000E+00 0.  1.
         24    2    1    2    0    0  0.13907920170E+03 -0.91890111483E+03  0.67265938801E+03  0.11522317321E+04  0.10698144236E+03 0.  0.
        254    2    1    2    0    0 -0.13907920170E+03  0.91890111483E+03 -0.12467906252E+03  0.12997010670E+04  0.89997539512E+03 0.  0.
         23    2    4    4    0    0 -0.44697433116E+03  0.26462578358E+03  0.10058798673E+03  0.53684845891E+03  0.90969592225E+02 0.  0.
         23    2    4    4    0    0  0.30789512945E+03  0.65427533124E+03 -0.22526704925E+03  0.76285260812E+03  0.91231784025E+02 0.  0.
          2    1    3    3  502    0  0.73555094631E+02 -0.54108501759E+03  0.45849497842E+03  0.71302243544E+03  0.00000000000E+00 0. -1.
         -1    1    3    3    0  502  0.65524107072E+02 -0.37781609723E+03  0.21416440959E+03  0.43920929666E+03  0.00000000000E+00 0.  1.
         13    1    5    5    0    0 -0.41187021865E+03  0.26324459044E+03  0.10879668447E+03  0.50077091565E+03  0.00000000000E+00 0. -1.
        -13    1    5    5    0    0 -0.35104112504E+02  0.13811931438E+01 -0.82086977381E+01  0.36077543261E+02  0.00000000000E+00 0.  1.
          2    1    6    6  503    0  0.31297083481E+03  0.63234793203E+03 -0.22418309812E+03  0.74031933114E+03  0.00000000000E+00 0. -1.
         -2    1    6    6    0  503 -0.50757053546E+01  0.21927399210E+02 -0.10839511360E+01  0.22533276971E+02  0.00000000000E+00 0.  1.
<mgrwt>
<rscale>  0 0.23899146E+04</rscale>
<asrwt>0</asrwt>
<pdfrwt beam="1">  1        2 0.23076255E+00 0.23899146E+04</pdfrwt>
<pdfrwt beam="2">  1       -1 0.14645788E+00 0.23899146E+04</pdfrwt>
<totfact> 0.48416470E+00</totfact>
</mgrwt>
</event>
<event>
12    7  0.2466188E-007  0.1548529E+04  0.7818608E-02  0.8852808E-01
         -1   -1    0    0    0  501 -0.00000000000E+00  0.00000000000E+00  0.58319412811E+03  0.58319412811E+03  0.00000000000E+00 0.  1.
          2   -1    0    0  501    0  0.00000000000E+00 -0.00000000000E+00 -0.10279350110E+04  0.10279350110E+04  0.00000000000E+00 0. -1.
         24    2    1    2    0    0 -0.28254954487E+03  0.47990866045E+02  0.28967229940E+03  0.41488916297E+03  0.78010306862E+02 0.  0.
        254    2    1    2    0    0  0.28254954487E+03 -0.47990866045E+02 -0.73441318229E+03  0.11962399761E+04  0.89971661632E+03 0.  0.
         23    2    4    4    0    0  0.17660094085E+03  0.40889299041E+03 -0.26117368485E+03  0.52393860572E+03  0.88986510195E+02 0.  0.
         23    2    4    4    0    0  0.10594860402E+03 -0.45688385645E+03 -0.47323949744E+03  0.67230137043E+03  0.89808383596E+02 0.  0.
          4    1    3    3  502    0 -0.14804052236E+03  0.43076624579E+02  0.10568898679E+03  0.18692713493E+03  0.00000000000E+00 0. -1.
         -3    1    3    3    0  502 -0.13450902251E+03  0.49142414659E+01  0.18398331261E+03  0.22796202804E+03  0.00000000000E+00 0.  1.
         13    1    5    5    0    0  0.80127669778E+02  0.11980399631E+03 -0.47580460260E+02  0.15178056923E+03  0.00000000000E+00 0.  1.
        -13    1    5    5    0    0  0.96473271069E+02  0.28908899409E+03 -0.21359322459E+03  0.37215803649E+03  0.00000000000E+00 0. -1.
          1    1    6    6  503    0  0.10105899386E+03 -0.35809925372E+03 -0.32466601300E+03  0.49381779611E+03  0.00000000000E+00 0. -1.
         -1    1    6    6    0  503  0.48896101615E+01 -0.98784602731E+02 -0.14857348444E+03  0.17848357432E+03  0.00000000000E+00 0.  1.
<mgrwt>
<rscale>  0 0.15485292E+04</rscale>
<asrwt>0</asrwt>
<pdfrwt beam="1">  1        2 0.15814385E+00 0.15485292E+04</pdfrwt>
<pdfrwt beam="2">  1       -1 0.89722174E-01 0.15485292E+04</pdfrwt>
<totfact> 0.32295714E+01</totfact>
</mgrwt>
</event>
<event>
12    7  0.2466188E-007  0.1845806E+04  0.7818608E-02  0.8682312E-01
         -1   -1    0    0    0  501 -0.00000000000E+00  0.00000000000E+00  0.13775403968E+04  0.13775403968E+04  0.00000000000E+00 0.  1.
          2   -1    0    0  501    0  0.00000000000E+00 -0.00000000000E+00 -0.61831245323E+03  0.61831245323E+03  0.00000000000E+00 0. -1.
         24    2    1    2    0    0 -0.29237982500E+03  0.42138514171E+03 -0.22597322707E+03  0.56617100251E+03  0.80214119764E+02 0.  0.
        254    2    1    2    0    0  0.29237982500E+03 -0.42138514171E+03  0.98520117061E+03  0.14296818475E+04  0.90017633761E+03 0.  0.
         23    2    4    4    0    0  0.18628014719E+03 -0.67317320451E+03  0.87181803180E+03  0.11205650052E+04  0.87959046348E+02 0.  0.
         23    2    4    4    0    0  0.10609967781E+03  0.25178806280E+03  0.11338313881E+03  0.30911684229E+03  0.89683419974E+02 0.  0.
          2    1    3    3  502    0 -0.10570099683E+03  0.11170428496E+03 -0.37010271347E+02  0.15817809012E+03  0.00000000000E+00 0. -1.
         -1    1    3    3    0  502 -0.18667882817E+03  0.30968085675E+03 -0.18896295572E+03  0.40799291239E+03  0.00000000000E+00 0.  1.
         13    1    5    5    0    0  0.40040775168E+02 -0.11685538930E+03  0.10594249102E+03  0.16273369992E+03  0.00000000000E+00 0. -1.
        -13    1    5    5    0    0  0.14623937202E+03 -0.55631781521E+03  0.76587554077E+03  0.95783130530E+03  0.00000000000E+00 0.  1.
          2    1    6    6  503    0  0.38042892747E+02  0.30993197557E+02  0.48822903113E+02  0.69220776157E+02  0.00000000000E+00 0. -1.
         -2    1    6    6    0  503  0.68056785063E+02  0.22079486524E+03  0.64560235700E+02  0.23989606613E+03  0.00000000000E+00 0.  1.
<mgrwt>
<rscale>  0 0.18458065E+04</rscale>
<asrwt>0</asrwt>
<pdfrwt beam="1">  1        2 0.95124993E-01 0.18458065E+04</pdfrwt>
<pdfrwt beam="2">  1       -1 0.21192929E+00 0.18458065E+04</pdfrwt>
<totfact> 0.64064055E+00</totfact>
</mgrwt>
</event>
<event>
12    7  0.2466188E-007  0.2578750E+04  0.7818608E-02  0.8375455E-01
          2   -1    0    0  501    0  0.00000000000E+00  0.00000000000E+00  0.24047723593E+04  0.24047723593E+04  0.00000000000E+00 0. -1.
         -1   -1    0    0    0  501 -0.00000000000E+00 -0.00000000000E+00 -0.69132851734E+03  0.69132851734E+03  0.00000000000E+00 0.  1.
         24    2    1    2    0    0 -0.10294741928E+04 -0.89426982217E+02  0.13055126813E+04  0.16667958713E+04  0.77658332751E+02 0.  0.
        254    2    1    2    0    0  0.10294741928E+04  0.89426982217E+02  0.40793116067E+03  0.14293050053E+04  0.89927229891E+03 0.  0.
         23    2    4    4    0    0  0.40651006286E+03  0.46674386715E+03  0.10020579826E+03  0.63348186653E+03  0.90320565189E+02 0.  0.
         23    2    4    4    0    0  0.62296412998E+03 -0.37731688493E+03  0.30772536241E+03  0.79582313881E+03  0.90483317236E+02 0.  0.
          2    1    3    3  502    0 -0.21956367048E+03  0.40007351714E+01  0.31325624427E+03  0.38256200263E+03  0.00000000000E+00 0. -1.
         -1    1    3    3    0  502 -0.80991052236E+03 -0.93427717389E+02  0.99225643698E+03  0.12842338686E+04  0.00000000000E+00 0.  1.
         13    1    5    5    0    0  0.34450222646E+03  0.34257515818E+03  0.91808909927E+02  0.49443745710E+03  0.00000000000E+00 0. -1.
        -13    1    5    5    0    0  0.62007836394E+02  0.12416870897E+03  0.83968883292E+01  0.13904440943E+03  0.00000000000E+00 0.  1.
          4    1    6    6  503    0  0.54682721987E+03 -0.30280361093E+03  0.23985131827E+03  0.66950630323E+03  0.00000000000E+00 0. -1.
         -4    1    6    6    0  503  0.76136910107E+02 -0.74513273999E+02  0.67874044150E+02  0.12631683558E+03  0.00000000000E+00 0.  1.
<mgrwt>
<rscale>  0 0.25787499E+04</rscale>
<asrwt>0</asrwt>
<pdfrwt beam="1">  1        2 0.36996497E+00 0.25787499E+04</pdfrwt>
<pdfrwt beam="2">  1       -1 0.10635823E+00 0.25787499E+04</pdfrwt>
<totfact> 0.32884327E+00</totfact>
</mgrwt>
</event>
<event>
12    7  0.2466188E-007  0.2621597E+04  0.7818608E-02  0.8360902E-01
         -1   -1    0    0    0  501 -0.00000000000E+00  0.00000000000E+00  0.14037706202E+04  0.14037706202E+04  0.00000000000E+00 0.  1.
          2   -1    0    0  501    0  0.00000000000E+00 -0.00000000000E+00 -0.12239841211E+04  0.12239841211E+04  0.00000000000E+00 0. -1.
         24    2    1    2    0    0 -0.60760522343E+03  0.74577020430E+03 -0.56042075437E+03  0.11161285120E+04  0.79461488219E+02 0.  0.
        254    2    1    2    0    0  0.60760522343E+03 -0.74577020430E+03  0.74020725344E+03  0.15116262293E+04  0.90097157227E+03 0.  0.
         23    2    4    4    0    0 -0.12247987411E+03  0.18037817029E+02  0.35357260915E+03  0.38293199253E+03  0.79351361393E+02 0.  0.
         23    2    4    4    0    0  0.73008509754E+03 -0.76380802133E+03  0.38663464428E+03  0.11286942368E+04  0.89651486118E+02 0.  0.
          4    1    3    3  502    0 -0.39248661370E+03  0.52222528046E+03 -0.41073993996E+03  0.77166850640E+03  0.00000000000E+00 0. -1.
         -3    1    3    3    0  502 -0.21511860974E+03  0.22354492383E+03 -0.14968081441E+03  0.34446000556E+03  0.00000000000E+00 0.  1.
         13    1    5    5    0    0 -0.12506355716E+03  0.41473351706E-01  0.27224209113E+03  0.29959414419E+03  0.00000000000E+00 0.  1.
        -13    1    5    5    0    0  0.25836830561E+01  0.17996343677E+02  0.81330518025E+02  0.83337848341E+02  0.00000000000E+00 0. -1.
          4    1    6    6  503    0  0.76742670271E+02 -0.84772849797E+02  0.72535296669E+02  0.13541507584E+03  0.00000000000E+00 0. -1.
         -4    1    6    6    0  503  0.65334242727E+03 -0.67903517153E+03  0.31409934761E+03  0.99327916097E+03  0.00000000000E+00 0.  1.
<mgrwt>
<rscale>  0 0.26215972E+04</rscale>
<asrwt>0</asrwt>
<pdfrwt beam="1">  1        2 0.18830525E+00 0.26215972E+04</pdfrwt>
<pdfrwt beam="2">  1       -1 0.21596471E+00 0.26215972E+04</pdfrwt>
<totfact> 0.21601583E+00</totfact>
</mgrwt>
</event>
<event>
12    7  0.2466188E-007  0.2933639E+04  0.7818608E-02  0.8262939E-01
          2   -1    0    0  501    0  0.00000000000E+00  0.00000000000E+00  0.29147861742E+04  0.29147861742E+04  0.00000000000E+00 0. -1.
         -1   -1    0    0    0  501 -0.00000000000E+00 -0.00000000000E+00 -0.73815351588E+03  0.73815351588E+03  0.00000000000E+00 0.  1.
         24    2    1    2    0    0  0.52304479002E+03  0.85723687542E+03  0.20684019488E+04  0.23007764393E+04  0.82793047419E+02 0.  0.
        254    2    1    2    0    0 -0.52304479002E+03 -0.85723687542E+03  0.10823070947E+03  0.13521632508E+04  0.89899980940E+03 0.  0.
         23    2    4    4    0    0  0.71071845207E+02  0.13956530918E+03  0.63658698063E+01  0.18374171809E+03  0.95868722536E+02 0.  0.
         23    2    4    4    0    0 -0.59411663523E+03 -0.99680218460E+03  0.10186483966E+03  0.11684215327E+04  0.90792405965E+02 0.  0.
          2    1    3    3  502    0  0.69238540212E+02  0.12318436523E+03  0.36083144025E+03  0.38751476302E+03  0.00000000000E+00 0. -1.
         -1    1    3    3    0  502  0.45380624981E+03  0.73405251020E+03  0.17075705085E+04  0.19132616762E+04  0.00000000000E+00 0.  1.
         13    1    5    5    0    0  0.11352467513E+02  0.55125248539E+02  0.46296647255E+02  0.72876958582E+02  0.00000000000E+00 0. -1.
        -13    1    5    5    0    0  0.59719377694E+02  0.84440060640E+02 -0.39930777448E+02  0.11086475951E+03  0.00000000000E+00 0.  1.
          1    1    6    6  503    0 -0.39991904619E+03 -0.74930954139E+03  0.70456823268E+02  0.85227002544E+03  0.00000000000E+00 0. -1.
         -1    1    6    6    0  503 -0.19419758904E+03 -0.24749264322E+03  0.31408016394E+02  0.31615150724E+03  0.00000000000E+00 0.  1.
<mgrwt>
<rscale>  0 0.29336391E+04</rscale>
<asrwt>0</asrwt>
<pdfrwt beam="1">  1        2 0.44842864E+00 0.29336391E+04</pdfrwt>
<pdfrwt beam="2">  1       -1 0.11356208E+00 0.29336391E+04</pdfrwt>
<totfact> 0.13604708E+00</totfact>
</mgrwt>
</event>
<event>
12    7  0.2466188E-007  0.2999415E+04  0.7818608E-02  0.8243898E-01
         -1   -1    0    0    0  501 -0.00000000000E+00  0.00000000000E+00  0.51879617835E+03  0.51879617835E+03  0.00000000000E+00 0.  1.
          2   -1    0    0  501    0  0.00000000000E+00 -0.00000000000E+00 -0.43352725116E+04  0.43352725116E+04  0.00000000000E+00 0. -1.
         24    2    1    2    0    0 -0.76819195236E+03 -0.11104420530E+04 -0.20408800209E+04  0.24484411110E+04  0.80449893594E+02 0.  0.
        254    2    1    2    0    0  0.76819195236E+03  0.11104420530E+04 -0.17755963123E+04  0.24056275790E+04  0.90061165642E+03 0.  0.
         23    2    4    4    0    0  0.59789925934E+02  0.16436348117E+03  0.70521611835E+02  0.21140063843E+03  0.95533988763E+02 0.  0.
         23    2    4    4    0    0  0.70840202643E+03  0.94607857182E+03 -0.18461179242E+04  0.21942269406E+04  0.97889639919E+02 0.  0.
          4    1    3    3  502    0 -0.64552727999E+03 -0.88103219654E+03 -0.16277331643E+04  0.19602138799E+04  0.00000000000E+00 0. -1.
         -1    1    3    3    0  502 -0.12266467238E+03 -0.22940985645E+03 -0.41314685659E+03  0.48822723110E+03  0.00000000000E+00 0.  1.
         13    1    5    5    0    0 -0.73416432658E+01  0.10642528919E+03  0.17563381255E+02  0.10811435735E+03  0.00000000000E+00 0. -1.
        -13    1    5    5    0    0  0.67131569200E+02  0.57938191980E+02  0.52958230580E+02  0.10328628108E+03  0.00000000000E+00 0.  1.
          3    1    6    6  503    0  0.42923787211E+03  0.49295534266E+03 -0.10311649121E+04  0.12208813197E+04  0.00000000000E+00 0. -1.
         -3    1    6    6    0  503  0.27916415432E+03  0.45312322915E+03 -0.81495301206E+03  0.97334562090E+03  0.00000000000E+00 0.  1.
<mgrwt>
<rscale>  0 0.29994152E+04</rscale>
<asrwt>0</asrwt>
<pdfrwt beam="1">  1        2 0.66696501E+00 0.29994152E+04</pdfrwt>
<pdfrwt beam="2">  1       -1 0.79814796E-01 0.29994152E+04</pdfrwt>
<totfact> 0.26845793E-01</totfact>
</mgrwt>
</event>
<event>
12    7  0.2466188E-007  0.2365324E+04  0.7818608E-02  0.8452601E-01
         -1   -1    0    0    0  501 -0.00000000000E+00  0.00000000000E+00  0.60488538420E+03  0.60488538420E+03  0.00000000000E+00 0.  1.
          2   -1    0    0  501    0  0.00000000000E+00 -0.00000000000E+00 -0.23123210048E+04  0.23123210048E+04  0.00000000000E+00 0. -1.
         24    2    1    2    0    0 -0.80418377294E+03  0.61101244663E+03 -0.72698532697E+03  0.12470273581E+04  0.80757758495E+02 0.  0.
        254    2    1    2    0    0  0.80418377294E+03 -0.61101244663E+03 -0.98045029365E+03  0.16701790309E+04  0.89898134935E+03 0.  0.
         23    2    4    4    0    0  0.68488485798E+03 -0.56469686261E+03 -0.11390401368E+04  0.14469993297E+04  0.91895656983E+02 0.  0.
         23    2    4    4    0    0  0.11929891496E+03 -0.46315584027E+02  0.15858984311E+03  0.22317970121E+03  0.91000419013E+02 0.  0.
          2    1    3    3  502    0 -0.36408417438E+03  0.27602933392E+03 -0.37856237551E+03  0.59334555815E+03  0.00000000000E+00 0. -1.
         -3    1    3    3    0  502 -0.44009959855E+03  0.33498311271E+03 -0.34842295145E+03  0.65368179992E+03  0.00000000000E+00 0.  1.
         13    1    5    5    0    0  0.41427444635E+03 -0.37951985767E+03 -0.77234508541E+03  0.95507882933E+03  0.00000000000E+00 0. -1.
        -13    1    5    5    0    0  0.27061041163E+03 -0.18517700493E+03 -0.36669505134E+03  0.49192050040E+03  0.00000000000E+00 0.  1.
          1    1    6    6  503    0  0.93875049928E+02  0.69318554873E+00  0.13577721254E+03  0.16507106636E+03  0.00000000000E+00 0. -1.
         -1    1    6    6    0  503  0.25423865031E+02 -0.47008769576E+02  0.22812630567E+02  0.58108634845E+02  0.00000000000E+00 0.  1.
<mgrwt>
<rscale>  0 0.23653238E+04</rscale>
<asrwt>0</asrwt>
<pdfrwt beam="1">  1        2 0.35574170E+00 0.23653238E+04</pdfrwt>
<pdfrwt beam="2">  1       -1 0.93059289E-01 0.23653238E+04</pdfrwt>
<totfact> 0.51323281E+00</totfact>
</mgrwt>
</event>
<event>
12    7  0.2466188E-007  0.1915424E+04  0.7818608E-02  0.8647217E-01
         -1   -1    0    0    0  501 -0.00000000000E+00  0.00000000000E+00  0.38021487958E+03  0.38021487958E+03  0.00000000000E+00 0.  1.
          2   -1    0    0  501    0  0.00000000000E+00 -0.00000000000E+00 -0.24123519156E+04  0.24123519156E+04  0.00000000000E+00 0. -1.
         24    2    1    2    0    0 -0.56586775744E+03  0.27808804923E+03 -0.13667056172E+04  0.15075612974E+04  0.85542616376E+02 0.  0.
        254    2    1    2    0    0  0.56586775744E+03 -0.27808804923E+03 -0.66543141887E+03  0.12850054979E+04  0.90050034663E+03 0.  0.
         23    2    4    4    0    0  0.63283611139E+03 -0.48951627214E+03 -0.32376871641E+03  0.86809882482E+03  0.93068057575E+02 0.  0.
         23    2    4    4    0    0 -0.66968353952E+02  0.21142822291E+03 -0.34166270246E+03  0.41690667305E+03  0.88831964424E+02 0.  0.
          2    1    3    3  502    0 -0.32007332001E+03  0.18737743474E+03 -0.87631943263E+03  0.95157394944E+03  0.00000000000E+00 0. -1.
         -1    1    3    3    0  502 -0.24579443743E+03  0.90710614491E+02 -0.49038618454E+03  0.55598734792E+03  0.00000000000E+00 0.  1.
         13    1    5    5    0    0  0.57376891878E+03 -0.42865453841E+03 -0.25982347513E+03  0.76188169927E+03  0.00000000000E+00 0. -1.
        -13    1    5    5    0    0  0.59067192618E+02 -0.60861733731E+02 -0.63945241278E+02  0.10621712554E+03  0.00000000000E+00 0.  1.
          3    1    6    6  503    0 -0.47445633231E+02  0.34265375982E+02 -0.11014499370E+03  0.12472819946E+03  0.00000000000E+00 0. -1.
         -3    1    6    6    0  503 -0.19522720721E+02  0.17716284693E+03 -0.23151770877E+03  0.29217847359E+03  0.00000000000E+00 0.  1.
<mgrwt>
<rscale>  0 0.19154238E+04</rscale>
<asrwt>0</asrwt>
<pdfrwt beam="1">  1        2 0.37113106E+00 0.19154238E+04</pdfrwt>
<pdfrwt beam="2">  1       -1 0.58494597E-01 0.19154238E+04</pdfrwt>
<totfact> 0.12342297E+01</totfact>
</mgrwt>
</event>
