<event>
12    2  0.3751044E-008  0.1726932E+04  0.7818608E-02  0.8746152E-01
          1   -1    0    0  501    0  0.00000000000E+00  0.00000000000E+00  0.96641986627E+03  0.96641986627E+03  0.00000000000E+00 0. -1.
         -1   -1    0    0    0  501 -0.00000000000E+00 -0.00000000000E+00 -0.77147955863E+03  0.77147955863E+03  0.00000000000E+00 0.  1.
         23    2    1    2    0    0 -0.15248305079E+03  0.18090609027E+03 -0.51193525650E+03  0.57134169423E+03  0.91517924169E+02 0.  0.
        254    2    1    2    0    0  0.15248305079E+03 -0.18090609027E+03  0.70687556414E+03  0.11665577307E+04  0.89733259248E+03 0.  0.
         23    2    4    4    0    0  0.39322851856E+03 -0.11203932575E+03  0.78396195758E+03  0.88885002519E+03  0.90975480362E+02 0.  0.
         23    2    4    4    0    0 -0.24074546777E+03 -0.68866764516E+02 -0.77086393437E+02  0.27770770548E+03  0.92077392029E+02 0.  0.
          2    1    3    3  502    0 -0.80266999416E+01  0.44428895902E+02 -0.44396323060E+02  0.63319729976E+02  0.00000000000E+00 0. -1.
         -2    1    3    3    0  502 -0.14445635085E+03  0.13647719437E+03 -0.46753893344E+03  0.50802196426E+03  0.00000000000E+00 0.  1.
         11    1    5    5    0    0 -0.39689576490E+01 -0.61409827657E+01  0.20329871860E+02  0.21604813907E+02  0.00000000000E+00 0. -1.
        -11    1    5    5    0    0  0.39719747621E+03 -0.10589834299E+03  0.76363208572E+03  0.86724521128E+03  0.00000000000E+00 0.  1.
          3    1    6    6  503    0 -0.82761516979E+02 -0.56422208900E+02 -0.63624924681E+02  0.11866366500E+03  0.00000000000E+00 0. -1.
         -3    1    6    6    0  503 -0.15798395079E+03 -0.12444555616E+02 -0.13461468756E+02  0.15904404048E+03  0.00000000000E+00 0.  1.
<mgrwt>
<rscale>  0 0.17269316E+04</rscale>
<asrwt>0</asrwt>
<pdfrwt beam="1">  1        1 0.14867998E+00 0.17269316E+04</pdfrwt>
<pdfrwt beam="2">  1       -1 0.11868916E+00 0.17269316E+04</pdfrwt>
<totfact> 0.97128109E+00</totfact>
</mgrwt>
</event>
<event>
12    2  0.3751044E-008  0.2244108E+04  0.7818608E-02  0.8500290E-01
         -1   -1    0    0    0  501 -0.00000000000E+00  0.00000000000E+00  0.47534733920E+03  0.47534733920E+03  0.00000000000E+00 0.  1.
          1   -1    0    0  501    0  0.00000000000E+00 -0.00000000000E+00 -0.26486010597E+04  0.26486010597E+04  0.00000000000E+00 0. -1.
         23    2    1    2    0    0  0.64833155264E+03 -0.43197905721E+03 -0.17959822809E+03  0.80475686767E+03  0.91860679913E+02 0.  0.
        254    2    1    2    0    0 -0.64833155264E+03  0.43197905721E+03 -0.19936554925E+04  0.23191915313E+04  0.89277512740E+03 0.  0.
         23    2    4    4    0    0 -0.19352847465E+03 -0.26929907084E+03 -0.53445043983E+03  0.63529222467E+03  0.89351430001E+02 0.  0.
         23    2    4    4    0    0 -0.45480307800E+03  0.70127812805E+03 -0.14592050526E+04  0.16838993066E+04  0.87181629452E+02 0.  0.
          1    1    3    3  502    0  0.18035069829E+03 -0.13569693503E+03 -0.11779253562E+02  0.22600615780E+03  0.00000000000E+00 0. -1.
         -1    1    3    3    0  502  0.46798085435E+03 -0.29628212218E+03 -0.16781897453E+03  0.57875070987E+03  0.00000000000E+00 0.  1.
         11    1    5    5    0    0 -0.11274830884E+03 -0.21814694285E+03 -0.41596974013E+03  0.48304357414E+03  0.00000000000E+00 0.  1.
        -11    1    5    5    0    0 -0.80780165811E+02 -0.51152127990E+02 -0.11848069970E+03  0.15224865053E+03  0.00000000000E+00 0. -1.
          4    1    6    6  503    0 -0.66036920062E+02  0.16531755329E+03 -0.29272860816E+03  0.34260882399E+03  0.00000000000E+00 0. -1.
         -4    1    6    6    0  503 -0.38876615793E+03  0.53596057475E+03 -0.11664764445E+04  0.13412904826E+04  0.00000000000E+00 0.  1.
<mgrwt>
<rscale>  0 0.22441083E+04</rscale>
<asrwt>0</asrwt>
<pdfrwt beam="1">  1        1 0.40747709E+00 0.22441083E+04</pdfrwt>
<pdfrwt beam="2">  1       -1 0.73130359E-01 0.22441083E+04</pdfrwt>
<totfact> 0.18261871E+00</totfact>
</mgrwt>
</event>
<event>
12    2  0.3751044E-008  0.2145641E+04  0.7818608E-02  0.8541400E-01
          2   -1    0    0  501    0  0.00000000000E+00  0.00000000000E+00  0.73085862549E+03  0.73085862549E+03  0.00000000000E+00 0. -1.
         -2   -1    0    0    0  501 -0.00000000000E+00 -0.00000000000E+00 -0.15747835645E+04  0.15747835645E+04  0.00000000000E+00 0.  1.
         23    2    1    2    0    0  0.32060300920E+03  0.67204831505E+03  0.15335110096E+03  0.76562925691E+03  0.90754457738E+02 0.  0.
        254    2    1    2    0    0 -0.32060300920E+03 -0.67204831505E+03 -0.99727603994E+03  0.15400129331E+04  0.90699785384E+03 0.  0.
         23    2    4    4    0    0 -0.60511262570E+03 -0.27840987720E+03 -0.65440666476E+03  0.93791543112E+03  0.88113129255E+02 0.  0.
         23    2    4    4    0    0  0.28450961649E+03 -0.39363843785E+03 -0.34286937518E+03  0.60209750193E+03  0.95210565442E+02 0.  0.
          1    1    3    3  502    0  0.29969941242E+03  0.65899948596E+03  0.13918630351E+03  0.73720613630E+03  0.00000000000E+00 0. -1.
         -1    1    3    3    0  502  0.20903596778E+02  0.13048829090E+02  0.14164797445E+02  0.28423120616E+02  0.00000000000E+00 0.  1.
         11    1    5    5    0    0 -0.47890548984E+02 -0.27527933593E+02 -0.92555569887E+02  0.10778601638E+03  0.00000000000E+00 0.  1.
        -11    1    5    5    0    0 -0.55722207671E+03 -0.25088194361E+03 -0.56185109487E+03  0.83012941474E+03  0.00000000000E+00 0. -1.
          3    1    6    6  503    0  0.19502523067E+03 -0.18900892421E+03 -0.19005204182E+03  0.33148000337E+03  0.00000000000E+00 0. -1.
         -3    1    6    6    0  503  0.89484385820E+02 -0.20462951364E+03 -0.15281733335E+03  0.27061749857E+03  0.00000000000E+00 0.  1.
<mgrwt>
<rscale>  0 0.21456413E+04</rscale>
<asrwt>0</asrwt>
<pdfrwt beam="1">  1        2 0.11243979E+00 0.21456413E+04</pdfrwt>
<pdfrwt beam="2">  1       -2 0.24227439E+00 0.21456413E+04</pdfrwt>
<totfact> 0.25522850E+00</totfact>
</mgrwt>
</event>
<event>
12    2  0.3751044E-008  0.1138199E+04  0.7818608E-02  0.9168740E-01
          2   -1    0    0  501    0  0.00000000000E+00  0.00000000000E+00  0.98681032713E+03  0.98681032713E+03  0.00000000000E+00 0. -1.
         -2   -1    0    0    0  501 -0.00000000000E+00 -0.00000000000E+00 -0.32820313993E+03  0.32820313993E+03  0.00000000000E+00 0.  1.
         23    2    1    2    0    0  0.29569055261E+01  0.12066852878E+03 -0.47330095208E+02  0.15831266357E+03  0.90846708283E+02 0.  0.
        254    2    1    2    0    0 -0.29569055261E+01 -0.12066852878E+03  0.70593728240E+03  0.11567008035E+04  0.90831694081E+03 0.  0.
         23    2    4    4    0    0  0.16228184180E+03 -0.42738245000E+03  0.14480218333E+03  0.48832071224E+03  0.92186175531E+02 0.  0.
         23    2    4    4    0    0 -0.16523874732E+03  0.30671392122E+03  0.56113509907E+03  0.66838009124E+03  0.10238199972E+03 0.  0.
          1    1    3    3  502    0  0.13158779688E+02  0.10476344020E+03  0.18759000127E+01  0.10560327119E+03  0.00000000000E+00 0. -1.
         -1    1    3    3    0  502 -0.10201874162E+02  0.15905088580E+02 -0.49205995220E+02  0.52709392378E+02  0.00000000000E+00 0.  1.
         11    1    5    5    0    0  0.66363052758E+02 -0.28309925120E+03  0.66980229100E+02  0.29838832399E+03  0.00000000000E+00 0.  1.
        -11    1    5    5    0    0  0.95918789040E+02 -0.14428319880E+03  0.77821954231E+02  0.18993238825E+03  0.00000000000E+00 0. -1.
          4    1    6    6  503    0 -0.44870958596E+02  0.21137895596E+02  0.48639179851E+02  0.69469298054E+02  0.00000000000E+00 0. -1.
         -4    1    6    6    0  503 -0.12036778873E+03  0.28557602562E+03  0.51249591922E+03  0.59891079318E+03  0.00000000000E+00 0.  1.
<mgrwt>
<rscale>  0 0.11381990E+04</rscale>
<asrwt>0</asrwt>
<pdfrwt beam="1">  1        2 0.15181697E+00 0.11381990E+04</pdfrwt>
<pdfrwt beam="2">  1       -2 0.50492791E-01 0.11381990E+04</pdfrwt>
<totfact> 0.94364482E+01</totfact>
</mgrwt>
</event>
<event>
12    2  0.3751044E-008  0.1525721E+04  0.7818608E-02  0.8867527E-01
          2   -1    0    0  501    0  0.00000000000E+00  0.00000000000E+00  0.15676938980E+04  0.15676938980E+04  0.00000000000E+00 0. -1.
         -2   -1    0    0    0  501 -0.00000000000E+00 -0.00000000000E+00 -0.37121781115E+03  0.37121781115E+03  0.00000000000E+00 0.  1.
         23    2    1    2    0    0 -0.27107071240E+03 -0.26349158725E+03 -0.75139673245E+01  0.38875946512E+03  0.90389791166E+02 0.  0.
        254    2    1    2    0    0  0.27107071240E+03  0.26349158725E+03  0.12039900542E+04  0.15501522441E+04  0.90026261804E+03 0.  0.
         23    2    4    4    0    0  0.15651239252E+03  0.51524051457E+03  0.11224313830E+04  0.12479832452E+04  0.87413121484E+02 0.  0.
         23    2    4    4    0    0  0.11455831988E+03 -0.25174892732E+03  0.81558671222E+02  0.30216899890E+03  0.90294828098E+02 0.  0.
          2    1    3    3  502    0 -0.11319553456E+03 -0.16337178949E+03  0.20168398909E+02  0.19977571164E+03  0.00000000000E+00 0. -1.
         -2    1    3    3    0  502 -0.15787517784E+03 -0.10011979775E+03 -0.27682366234E+02  0.18898375348E+03  0.00000000000E+00 0.  1.
         11    1    5    5    0    0  0.11773682689E+03  0.47579714317E+03  0.10148350896E+04  0.11270027245E+04  0.00000000000E+00 0.  1.
        -11    1    5    5    0    0  0.38775565628E+02  0.39443371400E+02  0.10759629337E+03  0.12098052068E+03  0.00000000000E+00 0. -1.
          1    1    6    6  503    0  0.19945144136E+02 -0.11460364132E+03  0.68608790376E+02  0.13505172896E+03  0.00000000000E+00 0. -1.
         -1    1    6    6    0  503  0.94613175743E+02 -0.13714528600E+03  0.12949880846E+02  0.16711726993E+03  0.00000000000E+00 0.  1.
<mgrwt>
<rscale>  0 0.15257207E+04</rscale>
<asrwt>0</asrwt>
<pdfrwt beam="1">  1        2 0.24118367E+00 0.15257207E+04</pdfrwt>
<pdfrwt beam="2">  1       -2 0.57110433E-01 0.15257207E+04</pdfrwt>
<totfact> 0.32215838E+01</totfact>
</mgrwt>
</event>
<event>
12    2  0.3751044E-008  0.1307816E+04  0.7818608E-02  0.9023390E-01
         -1   -1    0    0    0  501 -0.00000000000E+00  0.00000000000E+00  0.95697049682E+03  0.95697049682E+03  0.00000000000E+00 0.  1.
          1   -1    0    0  501    0  0.00000000000E+00 -0.00000000000E+00 -0.44682205894E+03  0.44682205894E+03  0.00000000000E+00 0. -1.
         23    2    1    2    0    0 -0.15900457230E+03 -0.20815205984E+03  0.34637483032E+03  0.44917593716E+03  0.11477702478E+03 0.  0.
        254    2    1    2    0    0  0.15900457230E+03  0.20815205984E+03  0.16377360756E+03  0.95461661861E+03  0.90325044144E+03 0.  0.
         23    2    4    4    0    0 -0.28720249212E+03 -0.15846582914E+03  0.14395703040E+03  0.36944429894E+03  0.90381264277E+02 0.  0.
         23    2    4    4    0    0  0.44620706442E+03  0.36661788898E+03  0.19816577162E+02  0.58517231966E+03  0.92328360267E+02 0.  0.
          2    1    3    3  502    0 -0.36034541512E+02 -0.11338620819E+03  0.88908834200E+02  0.14852508606E+03  0.00000000000E+00 0. -1.
         -2    1    3    3    0  502 -0.12297003079E+03 -0.94765851650E+02  0.25746599612E+03  0.30065085110E+03  0.00000000000E+00 0.  1.
         11    1    5    5    0    0 -0.27442048192E+03 -0.16927746078E+03  0.14287516787E+03  0.35266807797E+03  0.00000000000E+00 0. -1.
        -11    1    5    5    0    0 -0.12782010200E+02  0.10811631641E+02  0.10818625318E+01  0.16776220970E+02  0.00000000000E+00 0.  1.
          2    1    6    6  503    0  0.35453738118E+02  0.68936596028E+02  0.36394072747E+00  0.77520024970E+02  0.00000000000E+00 0.  1.
         -2    1    6    6    0  503  0.41075332630E+03  0.29768129295E+03  0.19452636434E+02  0.50765229469E+03  0.00000000000E+00 0. -1.
<mgrwt>
<rscale>  0 0.13078158E+04</rscale>
<asrwt>0</asrwt>
<pdfrwt beam="1">  1        1 0.68741855E-01 0.13078158E+04</pdfrwt>
<pdfrwt beam="2">  1       -1 0.14722623E+00 0.13078158E+04</pdfrwt>
<totfact> 0.18625535E+01</totfact>
</mgrwt>
</event>
<event>
12    2  0.3751044E-008  0.2242444E+04  0.7818608E-02  0.8500967E-01
          1   -1    0    0  501    0  0.00000000000E+00  0.00000000000E+00  0.14659054169E+04  0.14659054169E+04  0.00000000000E+00 0. -1.
         -1   -1    0    0    0  501 -0.00000000000E+00 -0.00000000000E+00 -0.85758550358E+03  0.85758550358E+03  0.00000000000E+00 0.  1.
         23    2    1    2    0    0 -0.81535722185E+03  0.83812458144E+02 -0.21673533136E+03  0.85261608935E+03  0.90266630653E+02 0.  0.
        254    2    1    2    0    0  0.81535722185E+03 -0.83812458144E+02  0.82505524471E+03  0.14708748312E+04  0.90051356723E+03 0.  0.
         23    2    4    4    0    0  0.62138700529E+03  0.40297411684E+02  0.20969939916E+02  0.62959460526E+03  0.90575586448E+02 0.  0.
         23    2    4    4    0    0  0.19397021656E+03 -0.12410986983E+03  0.80408530480E+03  0.84128022590E+03  0.90396550841E+02 0.  0.
          2    1    3    3  502    0 -0.60216718072E+02 -0.17141052151E+02 -0.12306309124E+02  0.63806849542E+02  0.00000000000E+00 0. -1.
         -2    1    3    3    0  502 -0.75514050377E+03  0.10095351030E+03 -0.20442902223E+03  0.78880923981E+03  0.00000000000E+00 0.  1.
         11    1    5    5    0    0  0.15444496266E+03  0.49380127342E+02  0.94516749708E+01  0.16242222024E+03  0.00000000000E+00 0. -1.
        -11    1    5    5    0    0  0.46694204263E+03 -0.90827156581E+01  0.11518264945E+02  0.46717238503E+03  0.00000000000E+00 0.  1.
          4    1    6    6  503    0  0.52301515950E+02 -0.24617493966E+02  0.93619845458E+02  0.11002792847E+03  0.00000000000E+00 0. -1.
         -4    1    6    6    0  503  0.14166870061E+03 -0.99492375862E+02  0.71046545934E+03  0.73125229743E+03  0.00000000000E+00 0.  1.
<mgrwt>
<rscale>  0 0.22424444E+04</rscale>
<asrwt>0</asrwt>
<pdfrwt beam="1">  1        1 0.22552391E+00 0.22424444E+04</pdfrwt>
<pdfrwt beam="2">  1       -1 0.13193623E+00 0.22424444E+04</pdfrwt>
<totfact> 0.30655996E+00</totfact>
</mgrwt>
</event>
<event>
12    2  0.3751044E-008  0.2742129E+04  0.7818608E-02  0.8321463E-01
          2   -1    0    0  501    0  0.00000000000E+00  0.00000000000E+00  0.11431571025E+04  0.11431571025E+04  0.00000000000E+00 0. -1.
         -2   -1    0    0    0  501 -0.00000000000E+00 -0.00000000000E+00 -0.16444094466E+04  0.16444094466E+04  0.00000000000E+00 0.  1.
         23    2    1    2    0    0  0.18732966359E+03 -0.11543444150E+04 -0.56061445132E+03  0.13009913392E+04  0.10337538516E+03 0.  0.
        254    2    1    2    0    0 -0.18732966359E+03  0.11543444150E+04  0.59362107205E+02  0.14865752100E+04  0.91584854853E+03 0.  0.
         23    2    4    4    0    0 -0.33892837074E+03  0.17480302802E+03  0.26147253922E+03  0.47081596185E+03  0.88720020695E+02 0.  0.
         23    2    4    4    0    0  0.15159870715E+03  0.97954138698E+03 -0.20211043201E+03  0.10157592481E+04  0.91840767709E+02 0.  0.
          1    1    3    3  502    0  0.30786646039E+01 -0.29718684006E+03 -0.13593417930E+03  0.32681431607E+03  0.00000000000E+00 0. -1.
         -1    1    3    3    0  502  0.18425099899E+03 -0.85715757494E+03 -0.42468027202E+03  0.97417702310E+03  0.00000000000E+00 0.  1.
         11    1    5    5    0    0 -0.33030657826E+03  0.14573002812E+03  0.23723595448E+03  0.43199603567E+03  0.00000000000E+00 0.  1.
        -11    1    5    5    0    0 -0.86217924750E+01  0.29072999900E+02  0.24236584732E+02  0.38819926173E+02  0.00000000000E+00 0. -1.
          1    1    6    6  503    0  0.20583321549E+02  0.31145278384E+02 -0.15058574893E+02  0.40254964531E+02  0.00000000000E+00 0. -1.
         -1    1    6    6    0  503  0.13101538560E+03  0.94839610860E+03 -0.18705185712E+03  0.97550428360E+03  0.00000000000E+00 0.  1.
<mgrwt>
<rscale>  0 0.27421293E+04</rscale>
<asrwt>0</asrwt>
<pdfrwt beam="1">  1        2 0.17587032E+00 0.27421293E+04</pdfrwt>
<pdfrwt beam="2">  1       -2 0.25298607E+00 0.27421293E+04</pdfrwt>
<totfact> 0.11039111E+00</totfact>
</mgrwt>
</event>
<event>
12    2  0.3751044E-008  0.1553339E+04  0.7818608E-02  0.8849738E-01
          2   -1    0    0  501    0  0.00000000000E+00  0.00000000000E+00  0.12524691051E+04  0.12524691051E+04  0.00000000000E+00 0. -1.
         -2   -1    0    0    0  501 -0.00000000000E+00 -0.00000000000E+00 -0.48162128246E+03  0.48162128246E+03  0.00000000000E+00 0.  1.
         23    2    1    2    0    0  0.13076253084E+03 -0.30561190844E+03  0.69307332514E+03  0.77230174384E+03  0.74845650936E+02 0.  0.
        254    2    1    2    0    0 -0.13076253084E+03  0.30561190844E+03  0.77774497525E+02  0.96178864374E+03  0.89916130072E+03 0.  0.
         23    2    4    4    0    0 -0.44675972960E+03  0.40009095307E+03 -0.15501401290E+02  0.60700524547E+03  0.92455653523E+02 0.  0.
         23    2    4    4    0    0  0.31599719876E+03 -0.94479044628E+02  0.93275898815E+02  0.35478339827E+03  0.91598836739E+02 0.  0.
          3    1    3    3  502    0  0.95206999295E+02 -0.24352597303E+03  0.60315218655E+03  0.65739016755E+03  0.00000000000E+00 0. -1.
         -3    1    3    3    0  502  0.35555531548E+02 -0.62085935412E+02  0.89921138593E+02  0.11491157629E+03  0.00000000000E+00 0.  1.
         11    1    5    5    0    0 -0.76483591423E+01  0.75932644248E+01  0.13569492859E+02  0.17328767950E+02  0.00000000000E+00 0.  1.
        -11    1    5    5    0    0 -0.43911137046E+03  0.39249768865E+03 -0.29070894149E+02  0.58967647752E+03  0.00000000000E+00 0. -1.
          1    1    6    6  503    0  0.21092179919E+03 -0.17444381104E+02  0.49684132783E+02  0.21739554930E+03  0.00000000000E+00 0. -1.
         -1    1    6    6    0  503  0.10507539957E+03 -0.77034663524E+02  0.43591766032E+02  0.13738784897E+03  0.00000000000E+00 0.  1.
<mgrwt>
<rscale>  0 0.15533393E+04</rscale>
<asrwt>0</asrwt>
<pdfrwt beam="1">  1        2 0.19268755E+00 0.15533393E+04</pdfrwt>
<pdfrwt beam="2">  1       -2 0.74095582E-01 0.15533393E+04</pdfrwt>
<totfact> 0.27829341E+01</totfact>
</mgrwt>
</event>
<event>
12    2  0.3751044E-008  0.1195359E+04  0.7818608E-02  0.9116929E-01
          1   -1    0    0  501    0  0.00000000000E+00  0.00000000000E+00  0.21045579358E+04  0.21045579358E+04  0.00000000000E+00 0. -1.
         -1   -1    0    0    0  501 -0.00000000000E+00 -0.00000000000E+00 -0.16973665392E+03  0.16973665392E+03  0.00000000000E+00 0.  1.
         23    2    1    2    0    0 -0.67768142045E+02 -0.12678861636E+02 -0.24834748846E+02  0.11700615612E+03  0.91216233269E+02 0.  0.
        254    2    1    2    0    0  0.67768142045E+02  0.12678861636E+02  0.19596560307E+04  0.21572884336E+04  0.89938220594E+03 0.  0.
         23    2    4    4    0    0 -0.36197146882E+03  0.13400989064E+03  0.56545603422E+03  0.69052086503E+03  0.89980794537E+02 0.  0.
         23    2    4    4    0    0  0.42973961087E+03 -0.12133102901E+03  0.13941999965E+04  0.14667675686E+04  0.90642805383E+02 0.  0.
          1    1    3    3  502    0  0.22918165312E+02 -0.33228290107E+01 -0.42777437435E+01  0.23549577182E+02  0.00000000000E+00 0. -1.
         -1    1    3    3    0  502 -0.90686307357E+02 -0.93560326256E+01 -0.20557005103E+02  0.93456578941E+02  0.00000000000E+00 0.  1.
         11    1    5    5    0    0 -0.18425633698E+03  0.65761474704E+02  0.20811350083E+03  0.28563297867E+03  0.00000000000E+00 0.  1.
        -11    1    5    5    0    0 -0.17771513184E+03  0.68248415938E+02  0.35734253338E+03  0.40488788637E+03  0.00000000000E+00 0. -1.
          1    1    6    6  503    0  0.44743993026E+02 -0.18801466386E+02  0.80672325784E+02  0.94146397688E+02  0.00000000000E+00 0. -1.
         -1    1    6    6    0  503  0.38499561784E+03 -0.10252956262E+03  0.13135276707E+04  0.13726211709E+04  0.00000000000E+00 0.  1.
<mgrwt>
<rscale>  0 0.11953587E+04</rscale>
<asrwt>0</asrwt>
<pdfrwt beam="1">  1        1 0.32377812E+00 0.11953587E+04</pdfrwt>
<pdfrwt beam="2">  1       -1 0.26113333E-01 0.11953587E+04</pdfrwt>
<totfact> 0.32640607E+01</totfact>
</mgrwt>
</event>
<event>
12    2  0.3751044E-008  0.1497801E+04  0.7818608E-02  0.8885917E-01
          1   -1    0    0  501    0  0.00000000000E+00  0.00000000000E+00  0.99564254736E+03  0.99564254736E+03  0.00000000000E+00 0. -1.
         -1   -1    0    0    0  501 -0.00000000000E+00 -0.00000000000E+00 -0.56330650046E+03  0.56330650046E+03  0.00000000000E+00 0.  1.
         23    2    1    2    0    0 -0.32567988287E+02  0.21733041586E+03  0.57781040937E+03  0.62458169941E+03  0.89130502833E+02 0.  0.
        254    2    1    2    0    0  0.32567988287E+02 -0.21733041586E+03 -0.14547436248E+03  0.93436734841E+03  0.89642978984E+03 0.  0.
         23    2    4    4    0    0  0.10972314171E+03 -0.10486683298E+02  0.35351950795E+03  0.38094040538E+03  0.89389102218E+02 0.  0.
         23    2    4    4    0    0 -0.77155153419E+02 -0.20684373256E+03 -0.49899387043E+03  0.55342694303E+03  0.92462160604E+02 0.  0.
          1    1    3    3  502    0 -0.12836933256E+02  0.21027194244E+03  0.47442060198E+03  0.51908957244E+03  0.00000000000E+00 0. -1.
         -1    1    3    3    0  502 -0.19731055031E+02  0.70584734262E+01  0.10338980739E+03  0.10549212697E+03  0.00000000000E+00 0.  1.
         11    1    5    5    0    0  0.15382658800E+01 -0.29916641695E+02  0.52002069355E+02  0.60013222954E+02  0.00000000000E+00 0.  1.
        -11    1    5    5    0    0  0.10818487583E+03  0.19429958396E+02  0.30151743860E+03  0.32092718242E+03  0.00000000000E+00 0. -1.
          2    1    6    6  503    0 -0.25555541755E+02 -0.60429076059E+02 -0.64387270735E+02  0.91926490091E+02  0.00000000000E+00 0. -1.
         -2    1    6    6    0  503 -0.51599611664E+02 -0.14641465651E+03 -0.43460659970E+03  0.46150045294E+03  0.00000000000E+00 0.  1.
<mgrwt>
<rscale>  0 0.14978009E+04</rscale>
<asrwt>0</asrwt>
<pdfrwt beam="1">  1        1 0.15317578E+00 0.14978009E+04</pdfrwt>
<pdfrwt beam="2">  1       -1 0.86662539E-01 0.14978009E+04</pdfrwt>
<totfact> 0.19371349E+01</totfact>
</mgrwt>
</event>
<event>
12    2  0.3751044E-008  0.1410066E+04  0.7818608E-02  0.8946564E-01
          2   -1    0    0  501    0  0.00000000000E+00  0.00000000000E+00  0.23297604654E+04  0.23297604654E+04  0.00000000000E+00 0.  1.
         -2   -1    0    0    0  501 -0.00000000000E+00 -0.00000000000E+00 -0.21335745085E+03  0.21335745085E+03  0.00000000000E+00 0. -1.
         23    2    1    2    0    0 -0.23140651840E+03 -0.27373000117E+03  0.99976781909E+03  0.10655667643E+04  0.86137952247E+02 0.  0.
        254    2    1    2    0    0  0.23140651840E+03  0.27373000117E+03  0.11166351955E+04  0.14775511519E+04  0.89878037169E+03 0.  0.
         23    2    4    4    0    0 -0.16186070236E+03  0.11113898509E+03  0.10047381797E+04  0.10277733892E+04  0.90931671033E+02 0.  0.
         23    2    4    4    0    0  0.39326722077E+03  0.16259101609E+03  0.11189701573E+03  0.44977776272E+03  0.93188777561E+02 0.  0.
          4    1    3    3  502    0 -0.25808838833E+02 -0.37942226170E+02  0.62979881083E+02  0.77924156138E+02  0.00000000000E+00 0. -1.
         -4    1    3    3    0  502 -0.20559767957E+03 -0.23578777500E+03  0.93678793800E+03  0.98764260817E+03  0.00000000000E+00 0.  1.
         11    1    5    5    0    0 -0.17464871955E+02  0.53875395701E+02  0.36969896920E+03  0.37401190869E+03  0.00000000000E+00 0.  1.
        -11    1    5    5    0    0 -0.14439583041E+03  0.57263589387E+02  0.63503921054E+03  0.65376148054E+03  0.00000000000E+00 0. -1.
          3    1    6    6  503    0  0.24600866570E+03  0.14932154050E+03  0.74471791972E+02  0.29725953955E+03  0.00000000000E+00 0. -1.
         -3    1    6    6    0  503  0.14725855507E+03  0.13269475585E+02  0.37425223760E+02  0.15251822317E+03  0.00000000000E+00 0.  1.
<mgrwt>
<rscale>  0 0.14100663E+04</rscale>
<asrwt>0</asrwt>
<pdfrwt beam="1">  1        2 0.35842467E+00 0.14100663E+04</pdfrwt>
<pdfrwt beam="2">  1       -2 0.32824225E-01 0.14100663E+04</pdfrwt>
<totfact> 0.36799419E+01</totfact>
</mgrwt>
</event>
<event>
12    2  0.3751044E-008  0.1321898E+04  0.7818608E-02  0.9012378E-01
          2   -1    0    0  501    0  0.00000000000E+00  0.00000000000E+00  0.97252616610E+03  0.97252616610E+03  0.00000000000E+00 0. -1.
         -2   -1    0    0    0  501 -0.00000000000E+00 -0.00000000000E+00 -0.44919456937E+03  0.44919456937E+03  0.00000000000E+00 0.  1.
         23    2    1    2    0    0  0.69305657571E+02  0.14085637070E+03  0.46567857401E+03  0.49932593326E+03  0.88465032595E+02 0.  0.
        254    2    1    2    0    0 -0.69305657571E+02 -0.14085637070E+03  0.57653022711E+02  0.92239480221E+03  0.90710777131E+03 0.  0.
         23    2    4    4    0    0 -0.31512608694E+03 -0.41894242571E+03 -0.27641054540E+02  0.53294552684E+03  0.91922249468E+02 0.  0.
         23    2    4    4    0    0  0.24582042937E+03  0.27808605501E+03  0.85294077251E+02  0.38944927537E+03  0.81462389980E+02 0.  0.
          3    1    3    3  502    0  0.29658835134E+02  0.19971015425E+02  0.21770482836E+03  0.22062157703E+03  0.00000000000E+00 0. -1.
         -3    1    3    3    0  502  0.39646822437E+02  0.12088535528E+03  0.24797374565E+03  0.27870435623E+03  0.00000000000E+00 0.  1.
         11    1    5    5    0    0 -0.14667099930E+03 -0.24621348334E+03  0.18952143395E+02  0.28721532890E+03  0.00000000000E+00 0. -1.
        -11    1    5    5    0    0 -0.16845508765E+03 -0.17272894237E+03 -0.46593197935E+02  0.24573019794E+03  0.00000000000E+00 0.  1.
          1    1    6    6  503    0  0.84894485930E+02  0.15715864492E+03  0.36247782891E+02  0.18226303843E+03  0.00000000000E+00 0. -1.
         -1    1    6    6    0  503  0.16092594344E+03  0.12092741009E+03  0.49046294360E+02  0.20718623693E+03  0.00000000000E+00 0.  1.
<mgrwt>
<rscale>  0 0.13218978E+04</rscale>
<asrwt>0</asrwt>
<pdfrwt beam="1">  1        2 0.14961941E+00 0.13218978E+04</pdfrwt>
<pdfrwt beam="2">  1       -2 0.69106857E-01 0.13218978E+04</pdfrwt>
<totfact> 0.49112953E+01</totfact>
</mgrwt>
</event>
<event>
12    2  0.3751044E-008  0.2011228E+04  0.7818608E-02  0.8601389E-01
         -1   -1    0    0    0  501 -0.00000000000E+00  0.00000000000E+00  0.46022789131E+03  0.46022789131E+03  0.00000000000E+00 0.  1.
          1   -1    0    0  501    0  0.00000000000E+00 -0.00000000000E+00 -0.21973011467E+04  0.21973011467E+04  0.00000000000E+00 0. -1.
         23    2    1    2    0    0 -0.65977624294E+03 -0.40495912572E+03 -0.98574777806E+03  0.12566809791E+04  0.90839512524E+02 0.  0.
        254    2    1    2    0    0  0.65977624294E+03  0.40495912572E+03 -0.75132547728E+03  0.14008480589E+04  0.89363791713E+03 0.  0.
         23    2    4    4    0    0  0.12915420945E+03 -0.16747958822E+03 -0.53848830429E+03  0.58559346229E+03  0.90663261177E+02 0.  0.
         23    2    4    4    0    0  0.53062203348E+03  0.57243871394E+03 -0.21283717300E+03  0.81525459657E+03  0.10047174423E+03 0.  0.
          4    1    3    3  502    0 -0.16224347886E+03 -0.85840640469E+02 -0.17729280910E+03  0.25519463581E+03  0.00000000000E+00 0. -1.
         -4    1    3    3    0  502 -0.49753276408E+03 -0.31911848525E+03 -0.80845496896E+03  0.10014863433E+04  0.00000000000E+00 0.  1.
         11    1    5    5    0    0 -0.42681561913E+01  0.14453928137E+01  0.11117052808E+01  0.46413582377E+01  0.00000000000E+00 0. -1.
        -11    1    5    5    0    0  0.13342236565E+03 -0.16892498103E+03 -0.53960000957E+03  0.58095210405E+03  0.00000000000E+00 0.  1.
          1    1    6    6  503    0  0.27230932292E+03  0.28758289891E+03 -0.15981531205E+03  0.42707988136E+03  0.00000000000E+00 0. -1.
         -1    1    6    6    0  503  0.25831271056E+03  0.28485581503E+03 -0.53021860950E+02  0.38817471521E+03  0.00000000000E+00 0.  1.
<mgrwt>
<rscale>  0 0.20112278E+04</rscale>
<asrwt>0</asrwt>
<pdfrwt beam="1">  1        1 0.33804633E+00 0.20112278E+04</pdfrwt>
<pdfrwt beam="2">  1       -1 0.70804291E-01 0.20112278E+04</pdfrwt>
<totfact> 0.40861738E+00</totfact>
</mgrwt>
</event>
<event>
12    2  0.3751044E-008  0.1454771E+04  0.7818608E-02  0.8915100E-01
         -1   -1    0    0    0  501 -0.00000000000E+00  0.00000000000E+00  0.99322772618E+03  0.99322772618E+03  0.00000000000E+00 0.  1.
          1   -1    0    0  501    0  0.00000000000E+00 -0.00000000000E+00 -0.53269707610E+03  0.53269707610E+03  0.00000000000E+00 0. -1.
         23    2    1    2    0    0  0.29415522146E+03  0.32289513376E+03  0.13041863557E+03  0.46484554548E+03  0.91015377458E+02 0.  0.
        254    2    1    2    0    0 -0.29415522146E+03 -0.32289513376E+03  0.33011201451E+03  0.10610792568E+04  0.90891511451E+03 0.  0.
         23    2    4    4    0    0 -0.46292678806E+02 -0.26788222770E+02 -0.29861263789E+03  0.31731098537E+03  0.93038341245E+02 0.  0.
         23    2    4    4    0    0 -0.24786254265E+03 -0.29610691099E+03  0.62872465240E+03  0.74376827143E+03  0.93709179263E+02 0.  0.
          1    1    3    3  502    0  0.20610006332E+02  0.26164164269E+02  0.38543660840E+02  0.50940648248E+02  0.00000000000E+00 0. -1.
         -1    1    3    3    0  502  0.27354521513E+03  0.29673096949E+03  0.91874974730E+02  0.41390489723E+03  0.00000000000E+00 0.  1.
         11    1    5    5    0    0 -0.21387129920E+02 -0.45952879385E+02 -0.69315202522E+02  0.85870098117E+02  0.00000000000E+00 0.  1.
        -11    1    5    5    0    0 -0.24905548886E+02  0.19164656614E+02 -0.22929743536E+03  0.23144088725E+03  0.00000000000E+00 0. -1.
          4    1    6    6  503    0 -0.41531662656E+02 -0.72469558745E+02  0.76515119108E+02  0.11327523736E+03  0.00000000000E+00 0.  1.
         -4    1    6    6    0  503 -0.20633087999E+03 -0.22363735224E+03  0.55220953329E+03  0.63049303407E+03  0.00000000000E+00 0. -1.
<mgrwt>
<rscale>  0 0.14547708E+04</rscale>
<asrwt>0</asrwt>
<pdfrwt beam="1">  1        1 0.81953397E-01 0.14547708E+04</pdfrwt>
<pdfrwt beam="2">  1       -1 0.15280426E+00 0.14547708E+04</pdfrwt>
<totfact> 0.13072637E+01</totfact>
</mgrwt>
</event>
<event>
12    2  0.3751044E-008  0.1430798E+04  0.7818608E-02  0.8931822E-01
          1   -1    0    0  501    0  0.00000000000E+00  0.00000000000E+00  0.22727293408E+04  0.22727293408E+04  0.00000000000E+00 0. -1.
         -1   -1    0    0    0  501 -0.00000000000E+00 -0.00000000000E+00 -0.22518982896E+03  0.22518982896E+03  0.00000000000E+00 0.  1.
         23    2    1    2    0    0 -0.41319528997E+02  0.38554877793E+03  0.30946983293E+03  0.50444995910E+03  0.91340134128E+02 0.  0.
        254    2    1    2    0    0  0.41319528997E+02 -0.38554877793E+03  0.17380696789E+04  0.19934692106E+04  0.89592305553E+03 0.  0.
         23    2    4    4    0    0 -0.23622351746E+03 -0.48913968899E+03  0.60386931763E+03  0.81769906978E+03  0.94416261237E+02 0.  0.
         23    2    4    4    0    0  0.27754304646E+03  0.10359091107E+03  0.11342003612E+04  0.11757701408E+04  0.90905143761E+02 0.  0.
          3    1    3    3  502    0 -0.17222444429E+02  0.11708418288E+03  0.15072726436E+03  0.19163513951E+03  0.00000000000E+00 0. -1.
         -3    1    3    3    0  502 -0.24097084568E+02  0.26846459505E+03  0.15874256857E+03  0.31281481959E+03  0.00000000000E+00 0.  1.
         11    1    5    5    0    0 -0.17966822245E+03 -0.43356447350E+03  0.48575306697E+03  0.67543679564E+03  0.00000000000E+00 0. -1.
        -11    1    5    5    0    0 -0.56555295016E+02 -0.55575215498E+02  0.11811625066E+03  0.14226227414E+03  0.00000000000E+00 0.  1.
          1    1    6    6  503    0  0.13008545584E+02  0.17788132223E+02  0.19556877450E+03  0.19680646703E+03  0.00000000000E+00 0. -1.
         -1    1    6    6    0  503  0.26453450088E+03  0.85802778843E+02  0.93863158673E+03  0.97896367380E+03  0.00000000000E+00 0.  1.
<mgrwt>
<rscale>  0 0.14307977E+04</rscale>
<asrwt>0</asrwt>
<pdfrwt beam="1">  1        1 0.34965065E+00 0.14307977E+04</pdfrwt>
<pdfrwt beam="2">  1       -1 0.34644591E-01 0.14307977E+04</pdfrwt>
<totfact> 0.14965474E+01</totfact>
</mgrwt>
</event>
<event>
12    2  0.3751044E-008  0.4473393E+04  0.7818608E-02  0.7915312E-01
          2   -1    0    0  501    0  0.00000000000E+00  0.00000000000E+00  0.30416136235E+04  0.30416136235E+04  0.00000000000E+00 0. -1.
         -2   -1    0    0    0  501 -0.00000000000E+00 -0.00000000000E+00 -0.16447882385E+04  0.16447882385E+04  0.00000000000E+00 0.  1.
         23    2    1    2    0    0  0.12158918491E+04 -0.73935856622E+03 -0.10119203912E+04  0.17497978507E+04  0.11298478745E+03 0.  0.
        254    2    1    2    0    0 -0.12158918491E+04  0.73935856622E+03  0.24087457762E+04  0.29366040113E+04  0.89249247986E+03 0.  0.
         23    2    4    4    0    0 -0.90716785833E+03  0.18854723311E+03  0.19172946282E+04  0.21313753822E+04  0.90767538122E+02 0.  0.
         23    2    4    4    0    0 -0.30872399076E+03  0.55081133310E+03  0.49145114803E+03  0.80522862916E+03  0.90361978635E+02 0.  0.
          4    1    3    3  502    0  0.25008738180E+03 -0.11909645998E+03 -0.24047590851E+03  0.36681920327E+03  0.00000000000E+00 0. -1.
         -4    1    3    3    0  502  0.96580446730E+03 -0.62026210624E+03 -0.77144448270E+03  0.13829786475E+04  0.00000000000E+00 0.  1.
         11    1    5    5    0    0 -0.11073407522E+03  0.27649273374E+02  0.17495140160E+03  0.20888875186E+03  0.00000000000E+00 0. -1.
        -11    1    5    5    0    0 -0.79643378312E+03  0.16089795974E+03  0.17423432266E+04  0.19224866303E+04  0.00000000000E+00 0.  1.
          3    1    6    6  503    0 -0.43011148529E+01  0.15822355625E+02  0.35852866277E+02  0.39424288792E+02  0.00000000000E+00 0. -1.
         -3    1    6    6    0  503 -0.30442287591E+03  0.53498897748E+03  0.45559828175E+03  0.76580434037E+03  0.00000000000E+00 0.  1.
<mgrwt>
<rscale>  0 0.44733926E+04</rscale>
<asrwt>0</asrwt>
<pdfrwt beam="1">  1        2 0.46794056E+00 0.44733926E+04</pdfrwt>
<pdfrwt beam="2">  1       -2 0.25304434E+00 0.44733926E+04</pdfrwt>
<totfact> 0.76563619E-02</totfact>
</mgrwt>
</event>
<event>
12    2  0.3751044E-008  0.2765909E+04  0.7818608E-02  0.8313931E-01
          2   -1    0    0  501    0  0.00000000000E+00  0.00000000000E+00  0.14991450999E+04  0.14991450999E+04  0.00000000000E+00 0. -1.
         -2   -1    0    0    0  501 -0.00000000000E+00 -0.00000000000E+00 -0.12757693165E+04  0.12757693165E+04  0.00000000000E+00 0.  1.
         23    2    1    2    0    0 -0.70851402626E+03 -0.65521151219E+03 -0.68048060674E+03  0.11864756069E+04  0.11565577594E+03 0.  0.
        254    2    1    2    0    0  0.70851402626E+03  0.65521151219E+03  0.90385639019E+03  0.15884388095E+04  0.88027678964E+03 0.  0.
         23    2    4    4    0    0 -0.16493198414E+03 -0.28622255243E+02  0.93301438864E+02  0.21148255958E+03  0.89431099877E+02 0.  0.
         23    2    4    4    0    0  0.87344601040E+03  0.68383376744E+03  0.81055495133E+03  0.13769562499E+04  0.92046893125E+02 0.  0.
          3    1    3    3  502    0 -0.30919320416E+03 -0.30970005379E+03 -0.24181038397E+03  0.49998682244E+03  0.00000000000E+00 0. -1.
         -3    1    3    3    0  502 -0.39932082209E+03 -0.34551145840E+03 -0.43867022277E+03  0.68648878446E+03  0.00000000000E+00 0.  1.
         11    1    5    5    0    0 -0.73130341697E+02  0.19687654161E+02  0.74154762577E+02  0.10599329892E+03  0.00000000000E+00 0.  1.
        -11    1    5    5    0    0 -0.91801642447E+02 -0.48309909404E+02  0.19146676287E+02  0.10548926066E+03  0.00000000000E+00 0. -1.
          3    1    6    6  503    0  0.56323930202E+03  0.49560114276E+03  0.54253614785E+03  0.92585337704E+03  0.00000000000E+00 0. -1.
         -3    1    6    6    0  503  0.31020670838E+03  0.18823262467E+03  0.26801880347E+03  0.45110287289E+03  0.00000000000E+00 0.  1.
<mgrwt>
<rscale>  0 0.27659091E+04</rscale>
<asrwt>0</asrwt>
<pdfrwt beam="1">  1        2 0.23063771E+00 0.27659091E+04</pdfrwt>
<pdfrwt beam="2">  1       -2 0.19627220E+00 0.27659091E+04</pdfrwt>
<totfact> 0.15609583E+00</totfact>
</mgrwt>
</event>
<event>
12    2  0.3751044E-008  0.1529410E+04  0.7818608E-02  0.8865128E-01
          2   -1    0    0  501    0  0.00000000000E+00  0.00000000000E+00  0.38645480008E+04  0.38645480008E+04  0.00000000000E+00 0.  1.
         -2   -1    0    0    0  501 -0.00000000000E+00 -0.00000000000E+00 -0.15131742324E+03  0.15131742324E+03  0.00000000000E+00 0. -1.
         23    2    1    2    0    0 -0.21090722077E+03 -0.16930028396E+03  0.13477970350E+03  0.31520821738E+03  0.89700668358E+02 0.  0.
        254    2    1    2    0    0  0.21090722077E+03  0.16930028396E+03  0.35784508740E+04  0.37006572066E+04  0.90355335274E+03 0.  0.
         23    2    4    4    0    0  0.37338530613E+03 -0.44210147744E+02  0.32235483318E+04  0.32467016917E+04  0.91852614979E+02 0.  0.
         23    2    4    4    0    0 -0.16247808536E+03  0.21351043170E+03  0.35490254220E+03  0.45395551499E+03  0.90188482993E+02 0.  0.
          3    1    3    3  502    0 -0.21456125232E+03 -0.17563797694E+03  0.13363209910E+03  0.30780313164E+03  0.00000000000E+00 0. -1.
         -3    1    3    3    0  502  0.36540315479E+01  0.63376929783E+01  0.11476043967E+01  0.74050857316E+01  0.00000000000E+00 0.  1.
         11    1    5    5    0    0  0.36035367852E+03 -0.55390514901E+02  0.29207580742E+04  0.29434249796E+04  0.00000000000E+00 0. -1.
        -11    1    5    5    0    0  0.13031627611E+02  0.11180367157E+02  0.30279025765E+03  0.30327671202E+03  0.00000000000E+00 0.  1.
          3    1    6    6  503    0 -0.12293674124E+03  0.13616554496E+03  0.17199754765E+03  0.25147098119E+03  0.00000000000E+00 0. -1.
         -3    1    6    6    0  503 -0.39541344120E+02  0.77344886744E+02  0.18290499455E+03  0.20248453381E+03  0.00000000000E+00 0.  1.
<mgrwt>
<rscale>  0 0.15294096E+04</rscale>
<asrwt>0</asrwt>
<pdfrwt beam="1">  1        2 0.59454577E+00 0.15294096E+04</pdfrwt>
<pdfrwt beam="2">  1       -2 0.23279606E-01 0.15294096E+04</pdfrwt>
<totfact> 0.70302948E+00</totfact>
</mgrwt>
</event>
<event>
12    2  0.3751044E-008  0.1231052E+04  0.7818608E-02  0.9086103E-01
          2   -1    0    0  501    0  0.00000000000E+00  0.00000000000E+00  0.12598455645E+04  0.12598455645E+04  0.00000000000E+00 0. -1.
         -2   -1    0    0    0  501 -0.00000000000E+00 -0.00000000000E+00 -0.30072918172E+03  0.30072918172E+03  0.00000000000E+00 0.  1.
         23    2    1    2    0    0 -0.59383256223E+02 -0.62768817873E+01  0.56899696900E+03  0.57930998797E+03  0.90976596260E+02 0.  0.
        254    2    1    2    0    0  0.59383256223E+02  0.62768817873E+01  0.39011941378E+03  0.98126475824E+03  0.89839946482E+03 0.  0.
         23    2    4    4    0    0  0.37017337714E+03 -0.25375035270E+03  0.82312998216E+02  0.46559704852E+03  0.92669365359E+02 0.  0.
         23    2    4    4    0    0 -0.31079012092E+03  0.26002723449E+03  0.30780641557E+03  0.51566770972E+03  0.83448999055E+02 0.  0.
          4    1    3    3  502    0 -0.37991079247E+02 -0.14520716065E+02  0.79713817940E+02  0.89490033344E+02  0.00000000000E+00 0.  1.
         -4    1    3    3    0  502 -0.21392176976E+02  0.82438342777E+01  0.48928315106E+03  0.48981995462E+03  0.00000000000E+00 0. -1.
         11    1    5    5    0    0  0.36515103340E+03 -0.25964092965E+03  0.87180686352E+02  0.45645280327E+03  0.00000000000E+00 0. -1.
        -11    1    5    5    0    0  0.50223437482E+01  0.58905769472E+01 -0.48676881355E+01  0.91442452548E+01  0.00000000000E+00 0.  1.
          4    1    6    6  503    0 -0.22851909144E+03  0.23425696934E+03  0.23615751725E+03  0.40356867543E+03  0.00000000000E+00 0. -1.
         -4    1    6    6    0  503 -0.82271029486E+02  0.25770265154E+02  0.71648898320E+02  0.11209903429E+03  0.00000000000E+00 0.  1.
<mgrwt>
<rscale>  0 0.12310521E+04</rscale>
<asrwt>0</asrwt>
<pdfrwt beam="1">  1        2 0.19382239E+00 0.12310521E+04</pdfrwt>
<pdfrwt beam="2">  1       -2 0.46266029E-01 0.12310521E+04</pdfrwt>
<totfact> 0.76094301E+01</totfact>
</mgrwt>
</event>
<event>
12    2  0.3751044E-008  0.1778412E+04  0.7818608E-02  0.8717865E-01
         -2   -1    0    0    0  501 -0.00000000000E+00  0.00000000000E+00  0.76285137675E+03  0.76285137675E+03  0.00000000000E+00 0.  1.
          2   -1    0    0  501    0  0.00000000000E+00 -0.00000000000E+00 -0.10364893658E+04  0.10364893658E+04  0.00000000000E+00 0. -1.
         23    2    1    2    0    0  0.46210397417E+03 -0.14461128798E+03  0.39031146538E+03  0.62860900236E+03  0.91398743316E+02 0.  0.
        254    2    1    2    0    0 -0.46210397417E+03  0.14461128798E+03 -0.66394945440E+03  0.11707317402E+04  0.83386534996E+03 0.  0.
         23    2    4    4    0    0 -0.56855234817E+03 -0.19570014431E+02 -0.74347518222E+03  0.94069062672E+03  0.92242888874E+02 0.  0.
         23    2    4    4    0    0  0.10644837399E+03  0.16418130241E+03  0.79525727824E+02  0.23004111344E+03  0.91147222116E+02 0.  0.
          3    1    3    3  502    0  0.57527840718E+02 -0.41101621766E+02  0.29091737672E+02  0.76453416995E+02  0.00000000000E+00 0. -1.
         -3    1    3    3    0  502  0.40457613346E+03 -0.10350966622E+03  0.36121972770E+03  0.55215558536E+03  0.00000000000E+00 0.  1.
         11    1    5    5    0    0  0.57692652610E+00 -0.26844000381E+01  0.14330308668E+01  0.30971640651E+01  0.00000000000E+00 0.  1.
        -11    1    5    5    0    0 -0.56912927469E+03 -0.16885614393E+02 -0.74490821309E+03  0.93759346266E+03  0.00000000000E+00 0. -1.
          3    1    6    6  503    0  0.36442428489E+01  0.69101242398E+02  0.39627887630E+00  0.69198404922E+02  0.00000000000E+00 0.  1.
         -3    1    6    6    0  503  0.10280413115E+03  0.95080060015E+02  0.79129448948E+02  0.16084270852E+03  0.00000000000E+00 0. -1.
<mgrwt>
<rscale>  0 0.17784120E+04</rscale>
<asrwt>0</asrwt>
<pdfrwt beam="1">  1        2 0.15945990E+00 0.17784120E+04</pdfrwt>
<pdfrwt beam="2">  1       -2 0.11736175E+00 0.17784120E+04</pdfrwt>
<totfact> 0.12666935E+01</totfact>
</mgrwt>
</event>
<event>
12    2  0.3751044E-008  0.1341253E+04  0.7818608E-02  0.8997476E-01
          1   -1    0    0  501    0  0.00000000000E+00  0.00000000000E+00  0.42413311004E+03  0.42413311004E+03  0.00000000000E+00 0. -1.
         -1   -1    0    0    0  501 -0.00000000000E+00 -0.00000000000E+00 -0.10603740295E+04  0.10603740295E+04  0.00000000000E+00 0.  1.
         23    2    1    2    0    0  0.10704375917E+03  0.28823382445E+03  0.35157142419E+02  0.32177800882E+03  0.88136021939E+02 0.  0.
        254    2    1    2    0    0 -0.10704375917E+03 -0.28823382445E+03 -0.67139806192E+03  0.11627291308E+04  0.89812391685E+03 0.  0.
         23    2    4    4    0    0 -0.47639923801E+03 -0.29105293301E+02 -0.29693122451E+03  0.56988449936E+03  0.93791462532E+02 0.  0.
         23    2    4    4    0    0  0.36935547884E+03 -0.25912853115E+03 -0.37446683742E+03  0.59284463140E+03  0.87568711621E+02 0.  0.
          2    1    3    3  502    0  0.64719622898E+02  0.12198151449E+03  0.55900999924E+02  0.14897329041E+03  0.00000000000E+00 0. -1.
         -2    1    3    3    0  502  0.42324136276E+02  0.16625230996E+03 -0.20743857505E+02  0.17280471841E+03  0.00000000000E+00 0.  1.
         11    1    5    5    0    0 -0.31778311083E+03  0.75888716133E+01 -0.15388155695E+03  0.35316176190E+03  0.00000000000E+00 0. -1.
        -11    1    5    5    0    0 -0.15861612718E+03 -0.36694164915E+02 -0.14304966756E+03  0.21672273745E+03  0.00000000000E+00 0.  1.
          2    1    6    6  503    0  0.18429165692E+03 -0.17833755519E+03 -0.23086447663E+03  0.34505956727E+03  0.00000000000E+00 0. -1.
         -2    1    6    6    0  503  0.18506382192E+03 -0.80790975961E+02 -0.14360236079E+03  0.24778506413E+03  0.00000000000E+00 0.  1.
<mgrwt>
<rscale>  0 0.13412528E+04</rscale>
<asrwt>0</asrwt>
<pdfrwt beam="1">  1        1 0.65251248E-01 0.13412528E+04</pdfrwt>
<pdfrwt beam="2">  1       -1 0.16313447E+00 0.13412528E+04</pdfrwt>
<totfact> 0.15034905E+01</totfact>
</mgrwt>
</event>
<event>
12    2  0.3751044E-008  0.1440928E+04  0.7818608E-02  0.8924714E-01
         -1   -1    0    0    0  501 -0.00000000000E+00  0.00000000000E+00  0.97223809925E+03  0.97223809925E+03  0.00000000000E+00 0.  1.
          1   -1    0    0  501    0  0.00000000000E+00 -0.00000000000E+00 -0.53388994513E+03  0.53388994513E+03  0.00000000000E+00 0. -1.
         23    2    1    2    0    0  0.39901747470E+03  0.15045440639E+03  0.21718466618E+03  0.48819453921E+03  0.96505209043E+02 0.  0.
        254    2    1    2    0    0 -0.39901747470E+03 -0.15045440639E+03  0.22116348793E+03  0.10179335052E+04  0.89745409857E+03 0.  0.
         23    2    4    4    0    0 -0.48081801717E+03  0.26181828200E+03  0.18481748857E+03  0.58655754101E+03  0.10078425674E+03 0.  0.
         23    2    4    4    0    0  0.81800542473E+02 -0.41227268839E+03  0.36345999359E+02  0.43137596415E+03  0.90022732906E+02 0.  0.
          1    1    3    3  502    0  0.19265011103E+02  0.15538225040E+02  0.42018174425E+02  0.48765808433E+02  0.00000000000E+00 0. -1.
         -1    1    3    3    0  502  0.37975246360E+03  0.13491618135E+03  0.17516649176E+03  0.43942873078E+03  0.00000000000E+00 0.  1.
         11    1    5    5    0    0 -0.31416765284E+03  0.22283097397E+03  0.13765915631E+03  0.40902933925E+03  0.00000000000E+00 0. -1.
        -11    1    5    5    0    0 -0.16665036433E+03  0.38987308037E+02  0.47158332268E+02  0.17752820176E+03  0.00000000000E+00 0.  1.
          3    1    6    6  503    0  0.89273040857E+02 -0.36700240827E+03  0.86928239919E+01  0.37780419359E+03  0.00000000000E+00 0. -1.
         -3    1    6    6    0  503 -0.74724983847E+01 -0.45270280117E+02  0.27653175367E+02  0.53571770569E+02  0.00000000000E+00 0.  1.
<mgrwt>
<rscale>  0 0.14409277E+04</rscale>
<asrwt>0</asrwt>
<pdfrwt beam="1">  1        1 0.82136915E-01 0.14409277E+04</pdfrwt>
<pdfrwt beam="2">  1       -1 0.14957509E+00 0.14409277E+04</pdfrwt>
<totfact> 0.13823736E+01</totfact>
</mgrwt>
</event>
<event>
12    2  0.3751044E-008  0.1103847E+04  0.7818608E-02  0.9201450E-01
          1   -1    0    0  501    0  0.00000000000E+00  0.00000000000E+00  0.46873644021E+03  0.46873644021E+03  0.00000000000E+00 0. -1.
         -1   -1    0    0    0  501 -0.00000000000E+00 -0.00000000000E+00 -0.64987383735E+03  0.64987383735E+03  0.00000000000E+00 0.  1.
         23    2    1    2    0    0 -0.17152188317E+03 -0.76345893544E+02 -0.62757726849E+02  0.21758708102E+03  0.90316962307E+02 0.  0.
        254    2    1    2    0    0  0.17152188317E+03  0.76345893544E+02 -0.11837967029E+03  0.90102319654E+03  0.87325861147E+03 0.  0.
         23    2    4    4    0    0 -0.25600365115E+02  0.41052693229E+03  0.11782250918E+03  0.43759376534E+03  0.91751942560E+02 0.  0.
         23    2    4    4    0    0  0.19712224829E+03 -0.33418103875E+03 -0.23620217947E+03  0.46342943121E+03  0.91876116029E+02 0.  0.
          4    1    3    3  502    0 -0.72308273551E+02 -0.12405656248E+02  0.16776703499E+02  0.75258517864E+02  0.00000000000E+00 0. -1.
         -4    1    3    3    0  502 -0.99213609621E+02 -0.63940237296E+02 -0.79534430349E+02  0.14232856316E+03  0.00000000000E+00 0.  1.
         11    1    5    5    0    0 -0.38635317327E+02  0.68654064287E+02  0.30738912092E+02  0.84563284022E+02  0.00000000000E+00 0. -1.
        -11    1    5    5    0    0  0.13034952212E+02  0.34187286800E+03  0.87083597084E+02  0.35303048131E+03  0.00000000000E+00 0.  1.
          2    1    6    6  503    0  0.10694009873E+03 -0.13049407617E+03 -0.14594601001E+03  0.22308098634E+03  0.00000000000E+00 0. -1.
         -2    1    6    6    0  503  0.90182149558E+02 -0.20368696257E+03 -0.90256169460E+02  0.24034844486E+03  0.00000000000E+00 0.  1.
<mgrwt>
<rscale>  0 0.11038470E+04</rscale>
<asrwt>0</asrwt>
<pdfrwt beam="1">  1        1 0.72113299E-01 0.11038470E+04</pdfrwt>
<pdfrwt beam="2">  1       -1 0.99980589E-01 0.11038470E+04</pdfrwt>
<totfact> 0.46039624E+01</totfact>
</mgrwt>
</event>
<event>
12    2  0.3751044E-008  0.1897761E+04  0.7818608E-02  0.8655972E-01
         -2   -1    0    0    0  501 -0.00000000000E+00  0.00000000000E+00  0.53335933294E+03  0.53335933294E+03  0.00000000000E+00 0.  1.
          2   -1    0    0  501    0  0.00000000000E+00 -0.00000000000E+00 -0.16881191484E+04  0.16881191484E+04  0.00000000000E+00 0. -1.
         23    2    1    2    0    0  0.31167521513E+03  0.55081619239E+03 -0.26049279863E+02  0.64005878453E+03  0.91960671739E+02 0.  0.
        254    2    1    2    0    0 -0.31167521513E+03 -0.55081619239E+03 -0.11287105356E+04  0.15814196968E+04  0.90904393006E+03 0.  0.
         23    2    4    4    0    0  0.18768281878E+03 -0.22905979246E+03 -0.87657133121E+03  0.92996885161E+03  0.93656485497E+02 0.  0.
         23    2    4    4    0    0 -0.49935803391E+03 -0.32175639993E+03 -0.25213920439E+03  0.65145084521E+03  0.89041554338E+02 0.  0.
          1    1    3    3  502    0  0.89568317989E+02  0.18082459158E+03 -0.49871949680E+02  0.20786348374E+03  0.00000000000E+00 0. -1.
         -1    1    3    3    0  502  0.22210689715E+03  0.36999160081E+03  0.23822669817E+02  0.43219530079E+03  0.00000000000E+00 0.  1.
         11    1    5    5    0    0  0.17718083261E+03 -0.16554236489E+03 -0.62776599849E+03  0.67296914556E+03  0.00000000000E+00 0. -1.
        -11    1    5    5    0    0  0.10501986174E+02 -0.63517427564E+02 -0.24880533272E+03  0.25699970605E+03  0.00000000000E+00 0.  1.
          1    1    6    6  503    0 -0.70234665389E+02 -0.47200908270E+02 -0.71980649398E+02  0.11109476969E+03  0.00000000000E+00 0. -1.
         -1    1    6    6    0  503 -0.42912336853E+03 -0.27455549166E+03 -0.18015855499E+03  0.54035607552E+03  0.00000000000E+00 0.  1.
<mgrwt>
<rscale>  0 0.18977609E+04</rscale>
<asrwt>0</asrwt>
<pdfrwt beam="1">  1        2 0.25971063E+00 0.18977609E+04</pdfrwt>
<pdfrwt beam="2">  1       -2 0.82055284E-01 0.18977609E+04</pdfrwt>
<totfact> 0.12175117E+01</totfact>
</mgrwt>
</event>
<event>
12    2  0.3751044E-008  0.1221090E+04  0.7818608E-02  0.9094594E-01
         -2   -1    0    0    0  501 -0.00000000000E+00  0.00000000000E+00  0.19927348060E+03  0.19927348060E+03  0.00000000000E+00 0.  1.
          2   -1    0    0  501    0  0.00000000000E+00 -0.00000000000E+00 -0.18706221575E+04  0.18706221575E+04  0.00000000000E+00 0. -1.
         23    2    1    2    0    0 -0.14486539038E+02  0.20388701975E+03 -0.68656896965E+03  0.72178187817E+03  0.88387515701E+02 0.  0.
        254    2    1    2    0    0  0.14486539038E+02 -0.20388701975E+03 -0.98477970724E+03  0.13481137599E+04  0.89768583661E+03 0.  0.
         23    2    4    4    0    0 -0.25930259180E+03 -0.11085188106E+03  0.21137764973E+02  0.29745529005E+03  0.92232699314E+02 0.  0.
         23    2    4    4    0    0  0.27378913084E+03 -0.93035138689E+02 -0.10059174722E+04  0.10506584699E+04  0.91636423960E+02 0.  0.
          1    1    3    3  502    0 -0.23930082137E+02  0.16482127069E+03 -0.63456362409E+03  0.65605616614E+03  0.00000000000E+00 0. -1.
         -1    1    3    3    0  502  0.94435430991E+01  0.39065749058E+02 -0.52005345556E+02  0.65725712032E+02  0.00000000000E+00 0.  1.
         11    1    5    5    0    0 -0.11383951453E+03 -0.30046721059E+02  0.51152605162E+02  0.12836989339E+03  0.00000000000E+00 0.  1.
        -11    1    5    5    0    0 -0.14546307727E+03 -0.80805160003E+02 -0.30014840188E+02  0.16908539666E+03  0.00000000000E+00 0. -1.
          4    1    6    6  503    0  0.21437798551E+03 -0.73583265106E+02 -0.62897135495E+03  0.66856367156E+03  0.00000000000E+00 0. -1.
         -4    1    6    6    0  503  0.59411145329E+02 -0.19451873583E+02 -0.37694611726E+03  0.38209479831E+03  0.00000000000E+00 0.  1.
<mgrwt>
<rscale>  0 0.12210903E+04</rscale>
<asrwt>0</asrwt>
<pdfrwt beam="1">  1        2 0.28778802E+00 0.12210903E+04</pdfrwt>
<pdfrwt beam="2">  1       -2 0.30657459E-01 0.12210903E+04</pdfrwt>
<totfact> 0.76536599E+01</totfact>
</mgrwt>
</event>
<event>
12    2  0.3751044E-008  0.1805881E+04  0.7818608E-02  0.8703179E-01
          2   -1    0    0  501    0  0.00000000000E+00  0.00000000000E+00  0.18648706987E+04  0.18648706987E+04  0.00000000000E+00 0. -1.
         -2   -1    0    0    0  501 -0.00000000000E+00 -0.00000000000E+00 -0.43718908261E+03  0.43718908261E+03  0.00000000000E+00 0.  1.
         23    2    1    2    0    0 -0.41070152082E+03  0.53280366644E+03  0.46912648695E+03  0.82524981486E+03  0.91663024156E+02 0.  0.
        254    2    1    2    0    0  0.41070152082E+03 -0.53280366644E+03  0.95855512911E+03  0.14768099664E+04  0.89976900102E+03 0.  0.
         23    2    4    4    0    0  0.20940585076E+03  0.42510874189E+02 -0.96804630219E+02  0.25481784411E+03  0.99513880891E+02 0.  0.
         23    2    4    4    0    0  0.20129567006E+03 -0.57531454063E+03  0.10553597593E+04  0.12219921223E+04  0.89295900932E+02 0.  0.
          4    1    3    3  502    0 -0.36093968583E+03  0.44800743336E+03  0.43470223488E+03  0.72107846325E+03  0.00000000000E+00 0. -1.
         -4    1    3    3    0  502 -0.49761834988E+02  0.84796233080E+02  0.34424252066E+02  0.10417135161E+03  0.00000000000E+00 0.  1.
         11    1    5    5    0    0  0.88180962060E+02 -0.31430135726E+02 -0.42164929708E+02  0.10267237603E+03  0.00000000000E+00 0. -1.
        -11    1    5    5    0    0  0.12122488870E+03  0.73941009915E+02 -0.54639700511E+02  0.15214546809E+03  0.00000000000E+00 0.  1.
          2    1    6    6  503    0  0.23223455070E+02 -0.11622070400E+03  0.14779506170E+03  0.18944645990E+03  0.00000000000E+00 0.  1.
         -2    1    6    6    0  503  0.17807221499E+03 -0.45909383663E+03  0.90756469763E+03  0.10325456624E+04  0.00000000000E+00 0. -1.
<mgrwt>
<rscale>  0 0.18058805E+04</rscale>
<asrwt>0</asrwt>
<pdfrwt beam="1">  1        2 0.28690318E+00 0.18058805E+04</pdfrwt>
<pdfrwt beam="2">  1       -2 0.67259860E-01 0.18058805E+04</pdfrwt>
<totfact> 0.15195669E+01</totfact>
</mgrwt>
</event>
<event>
12    2  0.3751044E-008  0.1376535E+04  0.7818608E-02  0.8970981E-01
          2   -1    0    0  501    0  0.00000000000E+00  0.00000000000E+00  0.24751971675E+04  0.24751971675E+04  0.00000000000E+00 0. -1.
         -2   -1    0    0    0  501 -0.00000000000E+00 -0.00000000000E+00 -0.19138347285E+03  0.19138347285E+03  0.00000000000E+00 0.  1.
         23    2    1    2    0    0  0.90748740488E+02  0.26302023635E+03  0.15636361266E+03  0.33434887811E+03  0.99622358443E+02 0.  0.
        254    2    1    2    0    0 -0.90748740488E+02 -0.26302023635E+03  0.21274500820E+04  0.23322317622E+04  0.91424622655E+03 0.  0.
         23    2    4    4    0    0 -0.43261568097E+03 -0.94658979046E+02  0.57398136996E+03  0.73045419686E+03  0.89398383182E+02 0.  0.
         23    2    4    4    0    0  0.34186694049E+03 -0.16836125731E+03  0.15534687120E+04  0.16017775653E+04  0.84898832126E+02 0.  0.
          2    1    3    3  502    0  0.18038807025E+02  0.16242988039E+02  0.50734100996E+02  0.56242174773E+02  0.00000000000E+00 0. -1.
         -2    1    3    3    0  502  0.72709933462E+02  0.24677724831E+03  0.10562951166E+03  0.27810670334E+03  0.00000000000E+00 0.  1.
         11    1    5    5    0    0 -0.26912805392E+03 -0.37328914567E+02  0.41033970210E+03  0.49214025277E+03  0.00000000000E+00 0.  1.
        -11    1    5    5    0    0 -0.16348762705E+03 -0.57330064479E+02  0.16364166786E+03  0.23831394410E+03  0.00000000000E+00 0. -1.
          3    1    6    6  503    0  0.66456684350E+01 -0.21443830733E+02  0.13480604022E+03  0.13666261839E+03  0.00000000000E+00 0. -1.
         -3    1    6    6    0  503  0.33522127205E+03 -0.14691742657E+03  0.14186626718E+04  0.14651149470E+04  0.00000000000E+00 0.  1.
<mgrwt>
<rscale>  0 0.13765345E+04</rscale>
<asrwt>0</asrwt>
<pdfrwt beam="1">  1        2 0.38079954E+00 0.13765345E+04</pdfrwt>
<pdfrwt beam="2">  1       -2 0.29443613E-01 0.13765345E+04</pdfrwt>
<totfact> 0.37389371E+01</totfact>
</mgrwt>
</event>
<event>
12    2  0.3751044E-008  0.1394001E+04  0.7818608E-02  0.8958173E-01
          2   -1    0    0  501    0  0.00000000000E+00  0.00000000000E+00  0.20989128450E+04  0.20989128450E+04  0.00000000000E+00 0. -1.
         -2   -1    0    0    0  501 -0.00000000000E+00 -0.00000000000E+00 -0.23145772022E+03  0.23145772022E+03  0.00000000000E+00 0.  1.
         23    2    1    2    0    0  0.22803057570E+03 -0.12306078578E+03  0.10728279443E+04  0.11075876239E+04  0.92998097053E+02 0.  0.
        254    2    1    2    0    0 -0.22803057570E+03  0.12306078578E+03  0.79462718048E+03  0.12227829413E+04  0.89253787888E+03 0.  0.
         23    2    4    4    0    0 -0.42420738472E+02 -0.29803860165E+03  0.66507886140E+03  0.73588525131E+03  0.92577989196E+02 0.  0.
         23    2    4    4    0    0 -0.18560983723E+03  0.42109938743E+03  0.12954831908E+03  0.48689769004E+03  0.92254473158E+02 0.  0.
          4    1    3    3  502    0  0.46995482947E+02 -0.27865541404E+02  0.41808968482E+03  0.42164445730E+03  0.00000000000E+00 0. -1.
         -4    1    3    3    0  502  0.18103509275E+03 -0.95195244375E+02  0.65473825946E+03  0.68594316657E+03  0.00000000000E+00 0.  1.
         11    1    5    5    0    0 -0.39250977496E+02 -0.52163170123E+02  0.97576097388E+02  0.11739987365E+03  0.00000000000E+00 0.  1.
        -11    1    5    5    0    0 -0.31697609761E+01 -0.24587543153E+03  0.56750276401E+03  0.61848537766E+03  0.00000000000E+00 0. -1.
          2    1    6    6  503    0 -0.17071169699E+03  0.41734151969E+03  0.13485828542E+03  0.47064124840E+03  0.00000000000E+00 0. -1.
         -2    1    6    6    0  503 -0.14898140232E+02  0.37578677474E+01 -0.53099663414E+01  0.16256441644E+02  0.00000000000E+00 0.  1.
<mgrwt>
<rscale>  0 0.13940008E+04</rscale>
<asrwt>0</asrwt>
<pdfrwt beam="1">  1        2 0.32290966E+00 0.13940008E+04</pdfrwt>
<pdfrwt beam="2">  1       -2 0.35608881E-01 0.13940008E+04</pdfrwt>
<totfact> 0.42508550E+01</totfact>
</mgrwt>
</event>
<event>
12    2  0.3751044E-008  0.1507884E+04  0.7818608E-02  0.8879227E-01
          2   -1    0    0  501    0  0.00000000000E+00  0.00000000000E+00  0.20758167189E+04  0.20758167189E+04  0.00000000000E+00 0. -1.
         -2   -1    0    0    0  501 -0.00000000000E+00 -0.00000000000E+00 -0.27383351331E+03  0.27383351331E+03  0.00000000000E+00 0.  1.
         23    2    1    2    0    0 -0.35727171120E+03  0.17023460310E+03  0.10067060323E+04  0.10857335894E+04  0.93474573681E+02 0.  0.
        254    2    1    2    0    0  0.35727171120E+03 -0.17023460310E+03  0.79527717325E+03  0.12639166428E+04  0.89910878203E+03 0.  0.
         23    2    4    4    0    0 -0.84212919625E+01  0.33721915493E+03  0.25979122144E+03  0.43536507258E+03  0.90904296239E+02 0.  0.
         23    2    4    4    0    0  0.36569300316E+03 -0.50745375803E+03  0.53548595181E+03  0.82855157021E+03  0.92259475472E+02 0.  0.
          1    1    3    3  502    0 -0.35616630633E+03  0.17597262512E+03  0.96429211198E+03  0.10429190188E+04  0.00000000000E+00 0. -1.
         -1    1    3    3    0  502 -0.11054048707E+01 -0.57380220188E+01  0.42413920359E+02  0.42814570613E+02  0.00000000000E+00 0.  1.
         11    1    5    5    0    0  0.18093780958E+02  0.18624103953E+02  0.47418548551E+01  0.26395593285E+02  0.00000000000E+00 0. -1.
        -11    1    5    5    0    0 -0.26515072920E+02  0.31859505098E+03  0.25504936659E+03  0.40896947930E+03  0.00000000000E+00 0.  1.
          3    1    6    6  503    0  0.22552511193E+02 -0.68502967915E+02  0.37527319063E+02  0.81299274599E+02  0.00000000000E+00 0. -1.
         -3    1    6    6    0  503  0.34314049197E+03 -0.43895079012E+03  0.49795863275E+03  0.74725229561E+03  0.00000000000E+00 0.  1.
<mgrwt>
<rscale>  0 0.15078835E+04</rscale>
<asrwt>0</asrwt>
<pdfrwt beam="1">  1        2 0.31935641E+00 0.15078835E+04</pdfrwt>
<pdfrwt beam="2">  1       -2 0.42128234E-01 0.15078835E+04</pdfrwt>
<totfact> 0.31275630E+01</totfact>
</mgrwt>
</event>
<event>
12    2  0.3751044E-008  0.1339089E+04  0.7818608E-02  0.8999129E-01
         -1   -1    0    0    0  501 -0.00000000000E+00  0.00000000000E+00  0.20007322646E+03  0.20007322646E+03  0.00000000000E+00 0.  1.
          1   -1    0    0  501    0  0.00000000000E+00 -0.00000000000E+00 -0.22406281768E+04  0.22406281768E+04  0.00000000000E+00 0. -1.
         23    2    1    2    0    0  0.33911369484E+02 -0.27205730755E+03 -0.98812209102E+03  0.10296159830E+04  0.92512950615E+02 0.  0.
        254    2    1    2    0    0 -0.33911369484E+02  0.27205730755E+03 -0.10524328593E+04  0.14110854203E+04  0.89910065092E+03 0.  0.
         23    2    4    4    0    0 -0.24055052865E+03  0.46206218363E+03 -0.96933437622E+03  0.11040156347E+04  0.88743283022E+02 0.  0.
         23    2    4    4    0    0  0.20663915916E+03 -0.19000487608E+03 -0.83098483127E+02  0.30706978568E+03  0.92654737306E+02 0.  0.
          4    1    3    3  502    0  0.43878705852E+02 -0.68497394577E+02 -0.36719042745E+03  0.37609313195E+03  0.00000000000E+00 0. -1.
         -4    1    3    3    0  502 -0.99673363682E+01 -0.20355991297E+03 -0.62093166357E+03  0.65352285101E+03  0.00000000000E+00 0.  1.
         11    1    5    5    0    0 -0.72459302125E+02  0.81936900851E+02 -0.25670255232E+03  0.27903441822E+03  0.00000000000E+00 0. -1.
        -11    1    5    5    0    0 -0.16809122652E+03  0.38012528277E+03 -0.71263182391E+03  0.82498121644E+03  0.00000000000E+00 0.  1.
          3    1    6    6  503    0  0.78846834102E+01  0.90761139999E+01 -0.11837273061E+02  0.16872021554E+02  0.00000000000E+00 0. -1.
         -3    1    6    6    0  503  0.19875447575E+03 -0.19908099008E+03 -0.71261210066E+02  0.29019776412E+03  0.00000000000E+00 0.  1.
<mgrwt>
<rscale>  0 0.13390888E+04</rscale>
<asrwt>0</asrwt>
<pdfrwt beam="1">  1        1 0.34471200E+00 0.13390888E+04</pdfrwt>
<pdfrwt beam="2">  1       -1 0.30780498E-01 0.13390888E+04</pdfrwt>
<totfact> 0.19572082E+01</totfact>
</mgrwt>
</event>
<event>
12    2  0.3751044E-008  0.2126147E+04  0.7818608E-02  0.8549812E-01
          2   -1    0    0  501    0  0.00000000000E+00  0.00000000000E+00  0.15344270950E+04  0.15344270950E+04  0.00000000000E+00 0. -1.
         -2   -1    0    0    0  501 -0.00000000000E+00 -0.00000000000E+00 -0.73651310328E+03  0.73651310328E+03  0.00000000000E+00 0.  1.
         23    2    1    2    0    0  0.22102310582E+03  0.79694420603E+03  0.28310637678E+02  0.83238839092E+03  0.89987000726E+02 0.  0.
        254    2    1    2    0    0 -0.22102310582E+03 -0.79694420603E+03  0.76960335406E+03  0.14385518074E+04  0.89060131324E+03 0.  0.
         23    2    4    4    0    0  0.17792909955E+02 -0.72946575418E+03  0.13040553761E+03  0.74686845124E+03  0.91487731776E+02 0.  0.
         23    2    4    4    0    0 -0.23881601577E+03 -0.67478451853E+02  0.63919781645E+03  0.69168335615E+03  0.90915266940E+02 0.  0.
          3    1    3    3  502    0  0.24330721155E+02  0.23642735860E+02  0.30800492969E+01  0.34065373248E+02  0.00000000000E+00 0. -1.
         -3    1    3    3    0  502  0.19669238466E+03  0.77330147017E+03  0.25230588381E+02  0.79832301767E+03  0.00000000000E+00 0.  1.
         11    1    5    5    0    0  0.15177729683E+02 -0.69508123429E+03  0.10303029623E+03  0.70283961732E+03  0.00000000000E+00 0. -1.
        -11    1    5    5    0    0  0.26151802718E+01 -0.34384519890E+02  0.27375241384E+02  0.44028833925E+02  0.00000000000E+00 0.  1.
          2    1    6    6  503    0 -0.23676845233E+03 -0.53398412190E+02  0.54749763667E+03  0.59888592620E+03  0.00000000000E+00 0. -1.
         -2    1    6    6    0  503 -0.20475634441E+01 -0.14080039663E+02  0.91700179779E+02  0.92797429945E+02  0.00000000000E+00 0.  1.
<mgrwt>
<rscale>  0 0.21261474E+04</rscale>
<asrwt>0</asrwt>
<pdfrwt beam="1">  1        2 0.23606571E+00 0.21261474E+04</pdfrwt>
<pdfrwt beam="2">  1       -2 0.11330971E+00 0.21261474E+04</pdfrwt>
<totfact> 0.68251190E+00</totfact>
</mgrwt>
</event>
<event>
12    2  0.3751044E-008  0.2085175E+04  0.7818608E-02  0.8567802E-01
          2   -1    0    0  501    0  0.00000000000E+00  0.00000000000E+00  0.17798410635E+04  0.17798410635E+04  0.00000000000E+00 0. -1.
         -2   -1    0    0    0  501 -0.00000000000E+00 -0.00000000000E+00 -0.61072236888E+03  0.61072236888E+03  0.00000000000E+00 0.  1.
         23    2    1    2    0    0 -0.46705652257E+03  0.70239485818E+03  0.42080237044E+03  0.94710016104E+03  0.91780978464E+02 0.  0.
        254    2    1    2    0    0  0.46705652257E+03 -0.70239485818E+03  0.74831632415E+03  0.14434632713E+04  0.90117066228E+03 0.  0.
         23    2    4    4    0    0  0.48271064121E+03 -0.65384317525E+02  0.60830497941E+03  0.78463570105E+03  0.91288352333E+02 0.  0.
         23    2    4    4    0    0 -0.15654118641E+02 -0.63701054065E+03  0.14001134474E+03  0.65882757025E+03  0.91777504534E+02 0.  0.
          2    1    3    3  502    0 -0.10864908102E+02  0.36209865954E+01  0.15790430184E+02  0.19506292764E+02  0.00000000000E+00 0. -1.
         -2    1    3    3    0  502 -0.45619161447E+03  0.69877387158E+03  0.40501194026E+03  0.92759386828E+03  0.00000000000E+00 0.  1.
         11    1    5    5    0    0  0.34707450470E+03 -0.10130656822E+02  0.39536045484E+03  0.52618744880E+03  0.00000000000E+00 0. -1.
        -11    1    5    5    0    0  0.13563613651E+03 -0.55253660703E+02  0.21294452457E+03  0.25844825225E+03  0.00000000000E+00 0.  1.
          3    1    6    6  503    0  0.17688603828E+02 -0.47729363061E+03  0.76338371597E+02  0.48368341247E+03  0.00000000000E+00 0. -1.
         -3    1    6    6    0  503 -0.33342722469E+02 -0.15971691005E+03  0.63672973143E+02  0.17514415778E+03  0.00000000000E+00 0.  1.
<mgrwt>
<rscale>  0 0.20851751E+04</rscale>
<asrwt>0</asrwt>
<pdfrwt beam="1">  1        2 0.27382170E+00 0.20851751E+04</pdfrwt>
<pdfrwt beam="2">  1       -2 0.93957288E-01 0.20851751E+04</pdfrwt>
<totfact> 0.78126658E+00</totfact>
</mgrwt>
</event>
<event>
12    2  0.3751044E-008  0.1879875E+04  0.7818608E-02  0.8664939E-01
          2   -1    0    0  501    0  0.00000000000E+00  0.00000000000E+00  0.20991196867E+04  0.20991196867E+04  0.00000000000E+00 0.  1.
         -2   -1    0    0    0  501 -0.00000000000E+00 -0.00000000000E+00 -0.42088250860E+03  0.42088250860E+03  0.00000000000E+00 0. -1.
         23    2    1    2    0    0 -0.31294515331E+03 -0.41025560780E+03  0.13850766487E+04  0.14808514623E+04  0.90771130234E+02 0.  0.
        254    2    1    2    0    0  0.31294515331E+03  0.41025560780E+03  0.29316052942E+03  0.10391507330E+04  0.85302216683E+03 0.  0.
         23    2    4    4    0    0  0.38441021456E+03  0.18207720435E+03 -0.20339442443E+03  0.48019941757E+03  0.91098119349E+02 0.  0.
         23    2    4    4    0    0 -0.71465061249E+02  0.22817840346E+03  0.49655495385E+03  0.55895131539E+03  0.93204678032E+02 0.  0.
          2    1    3    3  502    0 -0.30286659765E+03 -0.35909881650E+03  0.12815510588E+04  0.13649370873E+04  0.00000000000E+00 0. -1.
         -2    1    3    3    0  502 -0.10078555658E+02 -0.51156791307E+02  0.10352558992E+03  0.11591437508E+03  0.00000000000E+00 0.  1.
         11    1    5    5    0    0  0.59999080462E+02  0.62615113499E+02 -0.20575976729E+02  0.89128631276E+02  0.00000000000E+00 0.  1.
        -11    1    5    5    0    0  0.32441113409E+03  0.11946209085E+03 -0.18281844770E+03  0.39107078629E+03  0.00000000000E+00 0. -1.
          4    1    6    6  503    0 -0.20539341342E+02  0.10872603787E+03  0.13362645384E+03  0.17349133989E+03  0.00000000000E+00 0. -1.
         -4    1    6    6    0  503 -0.50925719907E+02  0.11945236559E+03  0.36292850001E+03  0.38545997550E+03  0.00000000000E+00 0.  1.
<mgrwt>
<rscale>  0 0.18798753E+04</rscale>
<asrwt>0</asrwt>
<pdfrwt beam="1">  1        2 0.32294148E+00 0.18798753E+04</pdfrwt>
<pdfrwt beam="2">  1       -2 0.64751156E-01 0.18798753E+04</pdfrwt>
<totfact> 0.12147294E+01</totfact>
</mgrwt>
</event>
<event>
12    2  0.3751044E-008  0.1241379E+04  0.7818608E-02  0.9077389E-01
         -2   -1    0    0    0  501 -0.00000000000E+00  0.00000000000E+00  0.16397330412E+03  0.16397330412E+03  0.00000000000E+00 0.  1.
          2   -1    0    0  501    0  0.00000000000E+00 -0.00000000000E+00 -0.23495018143E+04  0.23495018143E+04  0.00000000000E+00 0. -1.
         23    2    1    2    0    0 -0.15737872509E+03 -0.10880750695E+03 -0.96024337715E+03  0.98307247467E+03  0.88073891820E+02 0.  0.
        254    2    1    2    0    0  0.15737872509E+03  0.10880750695E+03 -0.12252851330E+04  0.15304026437E+04  0.89677280181E+03 0.  0.
         23    2    4    4    0    0  0.44351632365E+03 -0.14642512867E+03 -0.42263342614E+03  0.63659820242E+03  0.92147765976E+02 0.  0.
         23    2    4    4    0    0 -0.28613759856E+03  0.25523263562E+03 -0.80265170690E+03  0.89380444133E+03  0.87282261484E+02 0.  0.
          2    1    3    3  502    0  0.95867559902E+01 -0.18372246907E+02 -0.98668699396E+02  0.10082141433E+03  0.00000000000E+00 0.  1.
         -2    1    3    3    0  502 -0.16696548108E+03 -0.90435260040E+02 -0.86157467775E+03  0.88225106035E+03  0.00000000000E+00 0. -1.
         11    1    5    5    0    0  0.11793396893E+03 -0.49394493457E+01 -0.75696381964E+02  0.14022396882E+03  0.00000000000E+00 0.  1.
        -11    1    5    5    0    0  0.32558235472E+03 -0.14148567932E+03 -0.34693704418E+03  0.49637423360E+03  0.00000000000E+00 0. -1.
          2    1    6    6  503    0 -0.17474197356E+03  0.20425800875E+03 -0.50886476469E+03  0.57549929644E+03  0.00000000000E+00 0. -1.
         -2    1    6    6    0  503 -0.11139562499E+03  0.50974626866E+02 -0.29378694221E+03  0.31830514489E+03  0.00000000000E+00 0.  1.
<mgrwt>
<rscale>  0 0.12413792E+04</rscale>
<asrwt>0</asrwt>
<pdfrwt beam="1">  1        2 0.36146180E+00 0.12413792E+04</pdfrwt>
<pdfrwt beam="2">  1       -2 0.25226663E-01 0.12413792E+04</pdfrwt>
<totfact> 0.59242307E+01</totfact>
</mgrwt>
</event>
<event>
12    2  0.3751044E-008  0.2114981E+04  0.7818608E-02  0.8554673E-01
          1   -1    0    0  501    0  0.00000000000E+00  0.00000000000E+00  0.55542714210E+03  0.55542714210E+03  0.00000000000E+00 0. -1.
         -1   -1    0    0    0  501 -0.00000000000E+00 -0.00000000000E+00 -0.20133806394E+04  0.20133806394E+04  0.00000000000E+00 0.  1.
         23    2    1    2    0    0 -0.60616011945E+03 -0.59263135071E+03 -0.37773576752E+03  0.93259999886E+03  0.91741155207E+02 0.  0.
        254    2    1    2    0    0  0.60616011945E+03  0.59263135071E+03 -0.10802177298E+04  0.16362077826E+04  0.88975477292E+03 0.  0.
         23    2    4    4    0    0 -0.23281351553E+02  0.53449259466E+03 -0.27471150346E+03  0.60801489866E+03  0.89394361006E+02 0.  0.
         23    2    4    4    0    0  0.62944147100E+03  0.58138756048E+02 -0.80550622631E+03  0.10281928840E+04  0.93614345192E+02 0.  0.
          3    1    3    3  502    0 -0.35933483751E+03 -0.39089785703E+03 -0.27315038699E+03  0.59710450843E+03  0.00000000000E+00 0. -1.
         -3    1    3    3    0  502 -0.24682528194E+03 -0.20173349368E+03 -0.10458538053E+03  0.33549549043E+03  0.00000000000E+00 0.  1.
         11    1    5    5    0    0 -0.33717197907E+02  0.10202810557E+03 -0.78109859412E+02  0.13284477369E+03  0.00000000000E+00 0. -1.
        -11    1    5    5    0    0  0.10435846354E+02  0.43246448910E+03 -0.19660164405E+03  0.47517012497E+03  0.00000000000E+00 0.  1.
          2    1    6    6  503    0  0.50790426970E+02  0.11551403833E+01 -0.11339760410E+03  0.12425787073E+03  0.00000000000E+00 0. -1.
         -2    1    6    6    0  503  0.57865104403E+03  0.56983615665E+02 -0.69210862220E+03  0.90393501323E+03  0.00000000000E+00 0.  1.
<mgrwt>
<rscale>  0 0.21149811E+04</rscale>
<asrwt>0</asrwt>
<pdfrwt beam="1">  1        1 0.85450332E-01 0.21149811E+04</pdfrwt>
<pdfrwt beam="2">  1       -1 0.30975086E+00 0.21149811E+04</pdfrwt>
<totfact> 0.10035363E+00</totfact>
</mgrwt>
</event>
<event>
12    2  0.3751044E-008  0.1598079E+04  0.7818608E-02  0.8821729E-01
         -2   -1    0    0    0  501 -0.00000000000E+00  0.00000000000E+00  0.27348158687E+04  0.27348158687E+04  0.00000000000E+00 0.  1.
          2   -1    0    0  501    0  0.00000000000E+00 -0.00000000000E+00 -0.23345792557E+03  0.23345792557E+03  0.00000000000E+00 0. -1.
         23    2    1    2    0    0 -0.51205024873E+03  0.16575644579E+03  0.83975432257E+03  0.10017849648E+04  0.93354897368E+02 0.  0.
        254    2    1    2    0    0  0.51205024873E+03 -0.16575644579E+03  0.16616036205E+04  0.19664888295E+04  0.90359341965E+03 0.  0.
         23    2    4    4    0    0 -0.10688266810E+03 -0.31854979347E+03  0.29982636568E+03  0.46006015711E+03  0.94136193618E+02 0.  0.
         23    2    4    4    0    0  0.61893291683E+03  0.15279334767E+03  0.13617772549E+04  0.15064286723E+04  0.92012446878E+02 0.  0.
          2    1    3    3  502    0 -0.49475744248E+03  0.13869907428E+03  0.78206349154E+03  0.93575940545E+03  0.00000000000E+00 0. -1.
         -2    1    3    3    0  502 -0.17292806252E+02  0.27057371511E+02  0.57690831030E+02  0.66025559340E+02  0.00000000000E+00 0.  1.
         11    1    5    5    0    0 -0.16639499776E+01 -0.13996965064E+03  0.14332093621E+03  0.20033762150E+03  0.00000000000E+00 0.  1.
        -11    1    5    5    0    0 -0.10521871812E+03 -0.17858014283E+03  0.15650542947E+03  0.25972253562E+03  0.00000000000E+00 0. -1.
          4    1    6    6  503    0  0.48360756467E+03  0.84035559318E+02  0.10817834245E+04  0.11879367110E+04  0.00000000000E+00 0. -1.
         -4    1    6    6    0  503  0.13532535216E+03  0.68757788356E+02  0.27999383034E+03  0.31849196132E+03  0.00000000000E+00 0.  1.
<mgrwt>
<rscale>  0 0.15980794E+04</rscale>
<asrwt>0</asrwt>
<pdfrwt beam="1">  1        2 0.35916606E-01 0.15980794E+04</pdfrwt>
<pdfrwt beam="2">  1       -2 0.42074088E+00 0.15980794E+04</pdfrwt>
<totfact> 0.76150693E-01</totfact>
</mgrwt>
</event>
<event>
12    2  0.3751044E-008  0.1589140E+04  0.7818608E-02  0.8827248E-01
          2   -1    0    0  501    0  0.00000000000E+00  0.00000000000E+00  0.27306614394E+03  0.27306614394E+03  0.00000000000E+00 0. -1.
         -2   -1    0    0    0  501 -0.00000000000E+00 -0.00000000000E+00 -0.23120465379E+04  0.23120465379E+04  0.00000000000E+00 0.  1.
         23    2    1    2    0    0 -0.11415860332E+03  0.47357319195E+03 -0.33624089462E+03  0.59892779724E+03  0.91393721056E+02 0.  0.
        254    2    1    2    0    0  0.11415860332E+03 -0.47357319195E+03 -0.17027394993E+04  0.19861848846E+04  0.89905775028E+03 0.  0.
         23    2    4    4    0    0  0.26239275164E+02 -0.72126831545E+03 -0.13754479900E+04  0.15564954641E+04  0.99521224284E+02 0.  0.
         23    2    4    4    0    0  0.87919328158E+02  0.24769512350E+03 -0.32729150932E+03  0.42968942049E+03  0.91818209210E+02 0.  0.
          2    1    3    3  502    0 -0.82284355135E+02  0.39113583098E+03 -0.23157642697E+03  0.46193678670E+03  0.00000000000E+00 0. -1.
         -2    1    3    3    0  502 -0.31874248187E+02  0.82437360966E+02 -0.10466446765E+03  0.13699101054E+03  0.00000000000E+00 0.  1.
         11    1    5    5    0    0 -0.21247449848E+02 -0.42345742317E+03 -0.87248017330E+03  0.97004602786E+03  0.00000000000E+00 0. -1.
        -11    1    5    5    0    0  0.47486725012E+02 -0.29781089227E+03 -0.50296781672E+03  0.58644943624E+03  0.00000000000E+00 0.  1.
          4    1    6    6  503    0  0.64987426238E+02  0.89133609419E+02 -0.85178679491E+02  0.13936848043E+03  0.00000000000E+00 0. -1.
         -4    1    6    6    0  503  0.22931901920E+02  0.15856151408E+03 -0.24211282983E+03  0.29032094006E+03  0.00000000000E+00 0.  1.
<mgrwt>
<rscale>  0 0.15891402E+04</rscale>
<asrwt>0</asrwt>
<pdfrwt beam="1">  1        2 0.42010176E-01 0.15891402E+04</pdfrwt>
<pdfrwt beam="2">  1       -2 0.35569947E+00 0.15891402E+04</pdfrwt>
<totfact> 0.16863115E+00</totfact>
</mgrwt>
</event>
<event>
12    2  0.3751044E-008  0.2042104E+04  0.7818608E-02  0.8587185E-01
          1   -1    0    0  501    0  0.00000000000E+00  0.00000000000E+00  0.81415135308E+03  0.81415135308E+03  0.00000000000E+00 0. -1.
         -1   -1    0    0    0  501 -0.00000000000E+00 -0.00000000000E+00 -0.12805318860E+04  0.12805318860E+04  0.00000000000E+00 0.  1.
         23    2    1    2    0    0  0.29283671800E+03  0.19628671781E+03 -0.95345942732E+03  0.10208869416E+04  0.94039614177E+02 0.  0.
        254    2    1    2    0    0 -0.29283671800E+03 -0.19628671781E+03  0.48707889444E+03  0.10737962974E+04  0.88966893839E+03 0.  0.
         23    2    4    4    0    0 -0.50687556422E+03 -0.38440949134E+03  0.23891485582E+03  0.68512067176E+03  0.87272744319E+02 0.  0.
         23    2    4    4    0    0  0.21403884622E+03  0.18812277354E+03  0.24816403862E+03  0.38867562566E+03  0.90997507099E+02 0.  0.
          1    1    3    3  502    0  0.11545505185E+03  0.68047467866E+02 -0.49556963183E+03  0.51337080836E+03  0.00000000000E+00 0. -1.
         -1    1    3    3    0  502  0.17738166615E+03  0.12823924994E+03 -0.45788979549E+03  0.50751613327E+03  0.00000000000E+00 0.  1.
         11    1    5    5    0    0 -0.41558335529E+03 -0.33550440156E+03  0.16917189792E+03  0.56026052843E+03  0.00000000000E+00 0. -1.
        -11    1    5    5    0    0 -0.91292208925E+02 -0.48905089783E+02  0.69742957894E+02  0.12486014333E+03  0.00000000000E+00 0.  1.
          1    1    6    6  503    0  0.15896467550E+03  0.81671001294E+02  0.13674092779E+03  0.22502889112E+03  0.00000000000E+00 0. -1.
         -1    1    6    6    0  503  0.55074170725E+02  0.10645177224E+03  0.11142311084E+03  0.16364673453E+03  0.00000000000E+00 0.  1.
<mgrwt>
<rscale>  0 0.20421036E+04</rscale>
<asrwt>0</asrwt>
<pdfrwt beam="1">  1        1 0.12525405E+00 0.20421036E+04</pdfrwt>
<pdfrwt beam="2">  1       -1 0.19700491E+00 0.20421036E+04</pdfrwt>
<totfact> 0.31356933E+00</totfact>
</mgrwt>
</event>
<event>
12    2  0.3751044E-008  0.4647170E+04  0.7818608E-02  0.7885366E-01
         -1   -1    0    0    0  501 -0.00000000000E+00  0.00000000000E+00  0.13893678446E+04  0.13893678446E+04  0.00000000000E+00 0. -1.
          1   -1    0    0  501    0  0.00000000000E+00 -0.00000000000E+00 -0.38859731673E+04  0.38859731673E+04  0.00000000000E+00 0.  1.
         23    2    1    2    0    0 -0.83441662396E+03  0.19970519613E+04 -0.56597084156E+03  0.22390722618E+04  0.93026671370E+02 0.  0.
        254    2    1    2    0    0  0.83441662396E+03 -0.19970519613E+04 -0.19306344811E+04  0.30362687501E+04  0.89839344641E+03 0.  0.
         23    2    4    4    0    0  0.26482076705E+03 -0.12941411512E+04 -0.67796141424E+03  0.14883801993E+04  0.10350159686E+03 0.  0.
         23    2    4    4    0    0  0.56959585692E+03 -0.70291081004E+03 -0.12526730669E+04  0.15478885507E+04  0.90808072048E+02 0.  0.
          1    1    3    3  502    0 -0.79559210673E+03  0.18998878873E+04 -0.55877856963E+03  0.21341917145E+04  0.00000000000E+00 0. -1.
         -1    1    3    3    0  502 -0.38824517240E+02  0.97164074008E+02 -0.71922719313E+01  0.10488054725E+03  0.00000000000E+00 0.  1.
         11    1    5    5    0    0  0.23198702192E+02 -0.77972350249E+02 -0.16375238319E+02  0.82982019841E+02  0.00000000000E+00 0.  1.
        -11    1    5    5    0    0  0.24162206486E+03 -0.12161688010E+04 -0.66158617592E+03  0.14053981795E+04  0.00000000000E+00 0. -1.
          4    1    6    6  503    0  0.42772993060E+03 -0.47361402203E+03 -0.91989424600E+03  0.11195841010E+04  0.00000000000E+00 0. -1.
         -4    1    6    6    0  503  0.14186592632E+03 -0.22929678801E+03 -0.33277882087E+03  0.42830444974E+03  0.00000000000E+00 0.  1.
<mgrwt>
<rscale>  0 0.46471695E+04</rscale>
<asrwt>0</asrwt>
<pdfrwt beam="1">  1        1 0.59784202E+00 0.46471695E+04</pdfrwt>
<pdfrwt beam="2">  1       -1 0.21374890E+00 0.46471695E+04</pdfrwt>
<totfact> 0.10819032E-02</totfact>
</mgrwt>
</event>
<event>
12    2  0.3751044E-008  0.2389464E+04  0.7818608E-02  0.8443459E-01
          2   -1    0    0  501    0  0.00000000000E+00  0.00000000000E+00  0.92315117272E+03  0.92315117272E+03  0.00000000000E+00 0. -1.
         -2   -1    0    0    0  501 -0.00000000000E+00 -0.00000000000E+00 -0.15462087052E+04  0.15462087052E+04  0.00000000000E+00 0.  1.
         23    2    1    2    0    0 -0.57630268368E+02 -0.44613128629E+03 -0.12171520807E+04  0.13008217740E+04  0.91234465058E+02 0.  0.
        254    2    1    2    0    0  0.57630268368E+02  0.44613128629E+03  0.59409454823E+03  0.11685381040E+04  0.90009921437E+03 0.  0.
         23    2    4    4    0    0 -0.92368722807E+02  0.48737250354E+03  0.76793918162E+03  0.91868022470E+03  0.90436886367E+02 0.  0.
         23    2    4    4    0    0  0.14999899118E+03 -0.41241217248E+02 -0.17384463339E+03  0.24985787925E+03  0.89478868519E+02 0.  0.
          2    1    3    3  502    0 -0.46244850558E+01  0.28442648909E+01 -0.62609002995E+01  0.82870125716E+01  0.00000000000E+00 0. -1.
         -2    1    3    3    0  502 -0.53005783313E+02 -0.44897555119E+03 -0.12108911804E+04  0.12925347614E+04  0.00000000000E+00 0.  1.
         11    1    5    5    0    0 -0.65669951964E+02  0.12857302842E+03  0.21351599606E+03  0.25774531383E+03  0.00000000000E+00 0. -1.
        -11    1    5    5    0    0 -0.26698770843E+02  0.35879947513E+03  0.55442318556E+03  0.66093491087E+03  0.00000000000E+00 0.  1.
          4    1    6    6  503    0  0.41266232826E+02 -0.39737633298E+02 -0.18435795251E+02  0.60181891116E+02  0.00000000000E+00 0. -1.
         -4    1    6    6    0  503  0.10873275835E+03 -0.15035839499E+01 -0.15540883814E+03  0.18967598814E+03  0.00000000000E+00 0.  1.
<mgrwt>
<rscale>  0 0.23894639E+04</rscale>
<asrwt>0</asrwt>
<pdfrwt beam="1">  1        2 0.14202326E+00 0.23894639E+04</pdfrwt>
<pdfrwt beam="2">  1       -2 0.23787826E+00 0.23894639E+04</pdfrwt>
<totfact> 0.19435383E+00</totfact>
</mgrwt>
</event>
<event>
12    2  0.3751044E-008  0.1674979E+04  0.7818608E-02  0.8775765E-01
         -1   -1    0    0    0  501 -0.00000000000E+00  0.00000000000E+00  0.48497842661E+03  0.48497842661E+03  0.00000000000E+00 0.  1.
          1   -1    0    0  501    0  0.00000000000E+00 -0.00000000000E+00 -0.14462265441E+04  0.14462265441E+04  0.00000000000E+00 0. -1.
         23    2    1    2    0    0 -0.31738066662E+03  0.48189274956E+03 -0.54175488092E+03  0.79679795115E+03  0.91855943444E+02 0.  0.
        254    2    1    2    0    0  0.31738066662E+03 -0.48189274956E+03 -0.41949323660E+03  0.11344070196E+04  0.88201678040E+03 0.  0.
         23    2    4    4    0    0  0.25809732639E+03 -0.68739335266E+03 -0.49153075421E+03  0.88818566629E+03  0.90263194589E+02 0.  0.
         23    2    4    4    0    0  0.59283340234E+02  0.20550060310E+03  0.72037517615E+02  0.24622135329E+03  0.98440533159E+02 0.  0.
          4    1    3    3  502    0 -0.22152799553E+03  0.36211416101E+03 -0.44717097003E+03  0.61657375459E+03  0.00000000000E+00 0. -1.
         -4    1    3    3    0  502 -0.95852671092E+02  0.11977858854E+03 -0.94583910885E+02  0.18022419656E+03  0.00000000000E+00 0.  1.
         11    1    5    5    0    0  0.23072453254E+03 -0.63975348480E+03 -0.47897193474E+03  0.83182476851E+03  0.00000000000E+00 0. -1.
        -11    1    5    5    0    0  0.27372793849E+02 -0.47639867856E+02 -0.12558819475E+02  0.56360897784E+02  0.00000000000E+00 0.  1.
          3    1    6    6  503    0  0.50185603606E+02  0.21586068586E+03  0.66712686058E+02  0.23144116529E+03  0.00000000000E+00 0. -1.
         -3    1    6    6    0  503  0.90977366284E+01 -0.10360082754E+02  0.53248315576E+01  0.14780188008E+02  0.00000000000E+00 0.  1.
<mgrwt>
<rscale>  0 0.16749790E+04</rscale>
<asrwt>0</asrwt>
<pdfrwt beam="1">  1        1 0.22249639E+00 0.16749790E+04</pdfrwt>
<pdfrwt beam="2">  1       -1 0.74612067E-01 0.16749790E+04</pdfrwt>
<totfact> 0.12289680E+01</totfact>
</mgrwt>
</event>
<event>
12    2  0.3751044E-008  0.2588295E+04  0.7818608E-02  0.8372188E-01
         -2   -1    0    0    0  501 -0.00000000000E+00  0.00000000000E+00  0.71110391277E+03  0.71110391277E+03  0.00000000000E+00 0.  1.
          2   -1    0    0  501    0  0.00000000000E+00 -0.00000000000E+00 -0.23552358665E+04  0.23552358665E+04  0.00000000000E+00 0. -1.
         23    2    1    2    0    0 -0.31125101528E+03  0.50311606326E+03  0.42735455610E+03  0.73506699502E+03  0.87684678935E+02 0.  0.
        254    2    1    2    0    0  0.31125101528E+03 -0.50311606326E+03 -0.20714865098E+04  0.23312727842E+04  0.89093965370E+03 0.  0.
         23    2    4    4    0    0  0.28175410091E+03  0.19222904634E+03 -0.52338579788E+03  0.63139839856E+03  0.91618036669E+02 0.  0.
         23    2    4    4    0    0  0.29496914374E+02 -0.69534510961E+03 -0.15481007119E+04  0.16998743857E+04  0.92640290174E+02 0.  0.
          4    1    3    3  502    0 -0.29659352328E+03  0.45014979716E+03  0.41051579451E+03  0.67758820494E+03  0.00000000000E+00 0.  1.
         -4    1    3    3    0  502 -0.14657492000E+02  0.52966266106E+02  0.16838761590E+02  0.57478790078E+02  0.00000000000E+00 0. -1.
         11    1    5    5    0    0  0.90377248199E+02  0.16204579787E+02 -0.16165423993E+03  0.18591053947E+03  0.00000000000E+00 0. -1.
        -11    1    5    5    0    0  0.19137685271E+03  0.17602446656E+03 -0.36173155794E+03  0.44548785909E+03  0.00000000000E+00 0.  1.
          1    1    6    6  503    0  0.12720452649E+02 -0.45494838381E+02 -0.16487726651E+03  0.17151123359E+03  0.00000000000E+00 0. -1.
         -1    1    6    6    0  503  0.16776461725E+02 -0.64985027123E+03 -0.13832234454E+04  0.15283631521E+04  0.00000000000E+00 0.  1.
<mgrwt>
<rscale>  0 0.25882948E+04</rscale>
<asrwt>0</asrwt>
<pdfrwt beam="1">  1        2 0.36234398E+00 0.25882948E+04</pdfrwt>
<pdfrwt beam="2">  1       -2 0.10940060E+00 0.25882948E+04</pdfrwt>
<totfact> 0.24854086E+00</totfact>
</mgrwt>
</event>
<event>
12    2  0.3751044E-008  0.1588441E+04  0.7818608E-02  0.8827681E-01
          2   -1    0    0  501    0  0.00000000000E+00  0.00000000000E+00  0.30510859724E+03  0.30510859724E+03  0.00000000000E+00 0. -1.
         -2   -1    0    0    0  501 -0.00000000000E+00 -0.00000000000E+00 -0.20674141194E+04  0.20674141194E+04  0.00000000000E+00 0.  1.
         23    2    1    2    0    0 -0.12638807261E+03 -0.47320164328E+03 -0.86597727017E+03  0.99968596834E+03  0.97783755015E+02 0.  0.
        254    2    1    2    0    0  0.12638807261E+03  0.47320164328E+03 -0.89632825201E+03  0.13728367483E+04  0.91726913287E+03 0.  0.
         23    2    4    4    0    0  0.44268056445E+03  0.18260144268E+03 -0.77844082047E+03  0.91814521100E+03  0.87813145441E+02 0.  0.
         23    2    4    4    0    0 -0.31629249184E+03  0.29060020060E+03 -0.11788743155E+03  0.45469153733E+03  0.91419530851E+02 0.  0.
          3    1    3    3  502    0 -0.10520743101E+02 -0.17843279826E+02 -0.91546171042E+02  0.93860375574E+02  0.00000000000E+00 0. -1.
         -3    1    3    3    0  502 -0.11586732951E+03 -0.45535836345E+03 -0.77443109913E+03  0.90582559276E+03  0.00000000000E+00 0.  1.
         11    1    5    5    0    0  0.25331623034E+03  0.14490731731E+03 -0.42783221190E+03  0.51788767576E+03  0.00000000000E+00 0. -1.
        -11    1    5    5    0    0  0.18936433410E+03  0.37694125369E+02 -0.35060860856E+03  0.40025753524E+03  0.00000000000E+00 0.  1.
          4    1    6    6  503    0  0.33364233486E+01  0.14303961329E+02  0.35095846285E+01  0.15101397774E+02  0.00000000000E+00 0. -1.
         -4    1    6    6    0  503 -0.31962891519E+03  0.27629623927E+03 -0.12139701618E+03  0.43959013956E+03  0.00000000000E+00 0.  1.
<mgrwt>
<rscale>  0 0.15884405E+04</rscale>
<asrwt>0</asrwt>
<pdfrwt beam="1">  1        2 0.46939786E-01 0.15884405E+04</pdfrwt>
<pdfrwt beam="2">  1       -2 0.31806370E+00 0.15884405E+04</pdfrwt>
<totfact> 0.25554868E+00</totfact>
</mgrwt>
</event>
<event>
12    2  0.3751044E-008  0.1465159E+04  0.7818608E-02  0.8907958E-01
         -2   -1    0    0    0  501 -0.00000000000E+00  0.00000000000E+00  0.22188358680E+03  0.22188358680E+03  0.00000000000E+00 0.  1.
          2   -1    0    0  501    0  0.00000000000E+00 -0.00000000000E+00 -0.24187118025E+04  0.24187118025E+04  0.00000000000E+00 0. -1.
         23    2    1    2    0    0  0.57743373382E+02 -0.17959904634E+03 -0.14652768091E+04  0.14804042295E+04  0.94712410025E+02 0.  0.
        254    2    1    2    0    0 -0.57743373382E+02  0.17959904634E+03 -0.73155140662E+03  0.11601911599E+04  0.88050323812E+03 0.  0.
         23    2    4    4    0    0 -0.44571662326E+03  0.33450423315E+02 -0.25800178951E+03  0.52403639955E+03  0.90922965152E+02 0.  0.
         23    2    4    4    0    0  0.38797324988E+03  0.14614862303E+03 -0.47354961711E+03  0.63615476034E+03  0.92525545702E+02 0.  0.
          3    1    3    3  502    0 -0.39796664978E+01 -0.11529927709E+03 -0.63869561975E+03  0.64903147515E+03  0.00000000000E+00 0. -1.
         -3    1    3    3    0  502  0.61723039879E+02 -0.64299769251E+02 -0.82658118938E+03  0.83137275431E+03  0.00000000000E+00 0.  1.
         11    1    5    5    0    0 -0.20889815213E+03  0.60175024686E+02 -0.13418348306E+03  0.25546952595E+03  0.00000000000E+00 0. -1.
        -11    1    5    5    0    0 -0.23681847113E+03 -0.26724601370E+02 -0.12381830645E+03  0.26856687360E+03  0.00000000000E+00 0.  1.
          3    1    6    6  503    0  0.35635744505E+03  0.14978301074E+03 -0.40124392530E+03  0.55715551378E+03  0.00000000000E+00 0. -1.
         -3    1    6    6    0  503  0.31615804829E+02 -0.36343877122E+01 -0.72305691805E+02  0.78999246556E+02  0.00000000000E+00 0.  1.
<mgrwt>
<rscale>  0 0.14651586E+04</rscale>
<asrwt>0</asrwt>
<pdfrwt beam="1">  1        2 0.37210952E+00 0.14651586E+04</pdfrwt>
<pdfrwt beam="2">  1       -2 0.34135935E-01 0.14651586E+04</pdfrwt>
<totfact> 0.30265843E+01</totfact>
</mgrwt>
</event>
<event>
12    2  0.3751044E-008  0.1555820E+04  0.7818608E-02  0.8848159E-01
         -1   -1    0    0    0  501 -0.00000000000E+00  0.00000000000E+00  0.31244024934E+03  0.31244024934E+03  0.00000000000E+00 0.  1.
          1   -1    0    0  501    0  0.00000000000E+00 -0.00000000000E+00 -0.19368301778E+04  0.19368301778E+04  0.00000000000E+00 0. -1.
         23    2    1    2    0    0 -0.43859273994E+03 -0.23166420883E+03 -0.71674351145E+03  0.87643924511E+03  0.91611090872E+02 0.  0.
        254    2    1    2    0    0  0.43859273994E+03  0.23166420883E+03 -0.90764641699E+03  0.13728311820E+04  0.90266911924E+03 0.  0.
         23    2    4    4    0    0  0.84282485715E+01 -0.16804907854E+03 -0.72679250354E+03  0.75144071732E+03  0.90134789402E+02 0.  0.
         23    2    4    4    0    0  0.43016449137E+03  0.39971328737E+03 -0.18085391344E+03  0.62139046469E+03  0.92767288759E+02 0.  0.
          3    1    3    3  502    0 -0.24445330146E+03 -0.12040149245E+03 -0.47051383750E+03  0.54372530497E+03  0.00000000000E+00 0. -1.
         -3    1    3    3    0  502 -0.19413943848E+03 -0.11126271638E+03 -0.24622967395E+03  0.33271394014E+03  0.00000000000E+00 0.  1.
         11    1    5    5    0    0 -0.26135688410E+02 -0.89841733941E+02 -0.50778878544E+03  0.51633715922E+03  0.00000000000E+00 0. -1.
        -11    1    5    5    0    0  0.34563936982E+02 -0.78207344600E+02 -0.21900371810E+03  0.23510355810E+03  0.00000000000E+00 0.  1.
          2    1    6    6  503    0  0.34091404566E+03  0.35318011330E+03 -0.17285472144E+03  0.52042034327E+03  0.00000000000E+00 0. -1.
         -2    1    6    6    0  503  0.89250445705E+02  0.46533174074E+02 -0.79991920040E+01  0.10097012143E+03  0.00000000000E+00 0.  1.
<mgrwt>
<rscale>  0 0.15558197E+04</rscale>
<asrwt>0</asrwt>
<pdfrwt beam="1">  1        1 0.29797388E+00 0.15558197E+04</pdfrwt>
<pdfrwt beam="2">  1       -1 0.48067729E-01 0.15558197E+04</pdfrwt>
<totfact> 0.13707526E+01</totfact>
</mgrwt>
</event>
<event>
12    2  0.3751044E-008  0.1311297E+04  0.7818608E-02  0.9020654E-01
         -2   -1    0    0    0  501 -0.00000000000E+00  0.00000000000E+00  0.24075396479E+03  0.24075396479E+03  0.00000000000E+00 0.  1.
          2   -1    0    0  501    0  0.00000000000E+00 -0.00000000000E+00 -0.17855360072E+04  0.17855360072E+04  0.00000000000E+00 0. -1.
         23    2    1    2    0    0  0.68140957168E+02 -0.10644678649E+03  0.60827512153E+02  0.16732167874E+03  0.91227460479E+02 0.  0.
        254    2    1    2    0    0 -0.68140957168E+02  0.10644678649E+03 -0.16056095546E+04  0.18589682933E+04  0.92833558870E+03 0.  0.
         23    2    4    4    0    0  0.39002725195E+03  0.15440894587E+03 -0.10315678814E+04  0.11173598616E+04  0.91637255281E+02 0.  0.
         23    2    4    4    0    0 -0.45816820911E+03 -0.47962159387E+02 -0.57404167317E+03  0.74160843166E+03  0.90778559127E+02 0.  0.
          3    1    3    3  502    0  0.16988694211E+02  0.13531241930E+02  0.22743349374E+02  0.31447896271E+02  0.00000000000E+00 0. -1.
         -3    1    3    3    0  502  0.51152262957E+02 -0.11997802842E+03  0.38084162779E+02  0.13587378247E+03  0.00000000000E+00 0.  1.
         11    1    5    5    0    0  0.23244000586E+03  0.13643155588E+03 -0.60761863476E+03  0.66471221673E+03  0.00000000000E+00 0. -1.
        -11    1    5    5    0    0  0.15758724609E+03  0.17977389997E+02 -0.42394924667E+03  0.45264764490E+03  0.00000000000E+00 0.  1.
          1    1    6    6  503    0 -0.34162918479E+03 -0.68682535518E+02 -0.39226095317E+03  0.52468699809E+03  0.00000000000E+00 0. -1.
         -1    1    6    6    0  503 -0.11653902433E+03  0.20720376131E+02 -0.18178072000E+03  0.21692143357E+03  0.00000000000E+00 0.  1.
<mgrwt>
<rscale>  0 0.13112969E+04</rscale>
<asrwt>0</asrwt>
<pdfrwt beam="1">  1        2 0.27469783E+00 0.13112969E+04</pdfrwt>
<pdfrwt beam="2">  1       -2 0.37039074E-01 0.13112969E+04</pdfrwt>
<totfact> 0.59143143E+01</totfact>
</mgrwt>
</event>
<event>
12    2  0.3751044E-008  0.1652476E+04  0.7818608E-02  0.8788943E-01
          2   -1    0    0  501    0  0.00000000000E+00  0.00000000000E+00  0.15004304355E+04  0.15004304355E+04  0.00000000000E+00 0. -1.
         -2   -1    0    0    0  501 -0.00000000000E+00 -0.00000000000E+00 -0.45498210756E+03  0.45498210756E+03  0.00000000000E+00 0.  1.
         23    2    1    2    0    0 -0.48135528113E+03 -0.26483046057E+03  0.15676108297E+03  0.57844272141E+03  0.90464718564E+02 0.  0.
        254    2    1    2    0    0  0.48135528113E+03  0.26483046057E+03  0.88868724495E+03  0.13769698216E+04  0.89690734798E+03 0.  0.
         23    2    4    4    0    0  0.21161149307E+03  0.51508610962E+03  0.21616198234E+03  0.60494600291E+03  0.95606168747E+02 0.  0.
         23    2    4    4    0    0  0.26974378806E+03 -0.25025564905E+03  0.67252526261E+03  0.77202381873E+03  0.91328783831E+02 0.  0.
          1    1    3    3  502    0 -0.78169724906E+02 -0.77308998108E+01  0.25142350826E+02  0.82476727074E+02  0.00000000000E+00 0. -1.
         -1    1    3    3    0  502 -0.40318555622E+03 -0.25709956076E+03  0.13161873215E+03  0.49596599434E+03  0.00000000000E+00 0.  1.
         11    1    5    5    0    0  0.13549043080E+03  0.39358208369E+03  0.12332609357E+03  0.43413573775E+03  0.00000000000E+00 0.  1.
        -11    1    5    5    0    0  0.76121062277E+02  0.12150402593E+03  0.92835888769E+02  0.17081026516E+03  0.00000000000E+00 0. -1.
          1    1    6    6  503    0  0.39970950240E+02 -0.91040901150E+02  0.16717365752E+03  0.19450746596E+03  0.00000000000E+00 0. -1.
         -1    1    6    6    0  503  0.22977283782E+03 -0.15921474790E+03  0.50535160509E+03  0.57751635277E+03  0.00000000000E+00 0.  1.
<mgrwt>
<rscale>  0 0.16524757E+04</rscale>
<asrwt>0</asrwt>
<pdfrwt beam="1">  1        2 0.23083545E+00 0.16524757E+04</pdfrwt>
<pdfrwt beam="2">  1       -2 0.69997248E-01 0.16524757E+04</pdfrwt>
<totfact> 0.22524472E+01</totfact>
</mgrwt>
</event>
<event>
12    2  0.3751044E-008  0.1559704E+04  0.7818608E-02  0.8845693E-01
          2   -1    0    0  501    0  0.00000000000E+00  0.00000000000E+00  0.51684776639E+03  0.51684776639E+03  0.00000000000E+00 0. -1.
         -2   -1    0    0    0  501 -0.00000000000E+00 -0.00000000000E+00 -0.11766895866E+04  0.11766895866E+04  0.00000000000E+00 0.  1.
         23    2    1    2    0    0  0.11681553511E+03  0.50585526170E+03 -0.25186604554E+03  0.58404245454E+03  0.90186854802E+02 0.  0.
        254    2    1    2    0    0 -0.11681553511E+03 -0.50585526170E+03 -0.40797577464E+03  0.11094948984E+04  0.89162732230E+03 0.  0.
         23    2    4    4    0    0 -0.39228798588E+03 -0.43258828162E+03  0.14727353773E+02  0.59135367441E+03  0.91977105998E+02 0.  0.
         23    2    4    4    0    0  0.27547245077E+03 -0.73266980079E+02 -0.42270312841E+03  0.51814122400E+03  0.92408180056E+02 0.  0.
          3    1    3    3  502    0  0.86620829311E+02  0.47529829359E+03 -0.24011189078E+03  0.53950473219E+03  0.00000000000E+00 0. -1.
         -3    1    3    3    0  502  0.30194705800E+02  0.30556968115E+02 -0.11754154760E+02  0.44537722358E+02  0.00000000000E+00 0.  1.
         11    1    5    5    0    0 -0.17664437593E+03 -0.19992906419E+03  0.52447834631E+02  0.27189270239E+03  0.00000000000E+00 0. -1.
        -11    1    5    5    0    0 -0.21564360995E+03 -0.23265921744E+03 -0.37720480858E+02  0.31946097202E+03  0.00000000000E+00 0.  1.
          4    1    6    6  503    0  0.89786892119E+02 -0.65728681570E+02 -0.19181437269E+03  0.22175369027E+03  0.00000000000E+00 0. -1.
         -4    1    6    6    0  503  0.18568555865E+03 -0.75382985092E+01 -0.23088875573E+03  0.29638753374E+03  0.00000000000E+00 0.  1.
<mgrwt>
<rscale>  0 0.15597043E+04</rscale>
<asrwt>0</asrwt>
<pdfrwt beam="1">  1        2 0.79515041E-01 0.15597043E+04</pdfrwt>
<pdfrwt beam="2">  1       -2 0.18102917E+00 0.15597043E+04</pdfrwt>
<totfact> 0.10153933E+01</totfact>
</mgrwt>
</event>
<event>
12    2  0.3751044E-008  0.1353439E+04  0.7818608E-02  0.8988229E-01
         -1   -1    0    0    0  501 -0.00000000000E+00  0.00000000000E+00  0.40431580995E+03  0.40431580995E+03  0.00000000000E+00 0.  1.
          1   -1    0    0  501    0  0.00000000000E+00 -0.00000000000E+00 -0.11326528421E+04  0.11326528421E+04  0.00000000000E+00 0. -1.
         23    2    1    2    0    0 -0.36794896363E+03 -0.48800343684E+02 -0.26131125237E+03  0.46295385155E+03  0.90965843405E+02 0.  0.
        254    2    1    2    0    0  0.36794896363E+03  0.48800343684E+02 -0.46702577978E+03  0.10740148005E+04  0.89309954615E+03 0.  0.
         23    2    4    4    0    0 -0.24699212516E+03  0.54763813591E+02 -0.35053875173E+03  0.44177957116E+03  0.91036189850E+02 0.  0.
         23    2    4    4    0    0  0.61494108880E+03 -0.59634699066E+01 -0.11648702805E+03  0.63223522934E+03  0.89241536541E+02 0.  0.
          2    1    3    3  502    0 -0.37103887228E+03 -0.55048983457E+02 -0.25779218891E+03  0.45514508454E+03  0.00000000000E+00 0. -1.
         -2    1    3    3    0  502  0.30899086487E+01  0.62486397728E+01 -0.35190634623E+01  0.78087670038E+01  0.00000000000E+00 0.  1.
         11    1    5    5    0    0 -0.99220886810E+02  0.12440825154E+02 -0.70577029875E+02  0.12239557041E+03  0.00000000000E+00 0.  1.
        -11    1    5    5    0    0 -0.14777123835E+03  0.42322988437E+02 -0.27996172185E+03  0.31938400075E+03  0.00000000000E+00 0. -1.
          4    1    6    6  503    0  0.49816433404E+03  0.18107116582E+02 -0.12081572578E+03  0.51292495648E+03  0.00000000000E+00 0. -1.
         -4    1    6    6    0  503  0.11677675476E+03 -0.24070586489E+02  0.43286977308E+01  0.11931027286E+03  0.00000000000E+00 0.  1.
<mgrwt>
<rscale>  0 0.13534393E+04</rscale>
<asrwt>0</asrwt>
<pdfrwt beam="1">  1        1 0.17425428E+00 0.13534393E+04</pdfrwt>
<pdfrwt beam="2">  1       -1 0.62202432E-01 0.13534393E+04</pdfrwt>
<totfact> 0.30741209E+01</totfact>
</mgrwt>
</event>
<event>
12    2  0.3751044E-008  0.2347615E+04  0.7818608E-02  0.8459380E-01
          2   -1    0    0  501    0  0.00000000000E+00  0.00000000000E+00  0.18506181679E+04  0.18506181679E+04  0.00000000000E+00 0. -1.
         -2   -1    0    0    0  501 -0.00000000000E+00 -0.00000000000E+00 -0.74452116838E+03  0.74452116838E+03  0.00000000000E+00 0.  1.
         23    2    1    2    0    0 -0.31173924186E+03  0.62359179469E+03  0.12528680480E+04  0.14365835548E+04  0.89698844393E+02 0.  0.
        254    2    1    2    0    0  0.31173924186E+03 -0.62359179469E+03 -0.14677104855E+03  0.11585557815E+04  0.91359820316E+03 0.  0.
         23    2    4    4    0    0  0.51077008011E+03 -0.70682404335E+03  0.11007615225E+02  0.87695373634E+03  0.91871568406E+02 0.  0.
         23    2    4    4    0    0 -0.19903083826E+03  0.83232248660E+02 -0.15777866377E+03  0.28160204516E+03  0.88683275204E+02 0.  0.
          2    1    3    3  502    0 -0.24699110103E+03  0.55011089164E+03  0.11126320545E+04  0.12655341503E+04  0.00000000000E+00 0. -1.
         -2    1    3    3    0  502 -0.64748140825E+02  0.73480903048E+02  0.14023599358E+03  0.17104940441E+03  0.00000000000E+00 0.  1.
         11    1    5    5    0    0  0.10021011202E+02 -0.37128872658E+02 -0.12437619635E+02  0.40418661935E+02  0.00000000000E+00 0. -1.
        -11    1    5    5    0    0  0.50074906891E+03 -0.66969517069E+03  0.23445234861E+02  0.83653507440E+03  0.00000000000E+00 0.  1.
          2    1    6    6  503    0 -0.10077536475E+03  0.62096982027E+02 -0.36036323760E+02  0.12373490190E+03  0.00000000000E+00 0.  1.
         -2    1    6    6    0  503 -0.98255473508E+02  0.21135266634E+02 -0.12174234001E+03  0.15786714326E+03  0.00000000000E+00 0. -1.
<mgrwt>
<rscale>  0 0.23476153E+04</rscale>
<asrwt>0</asrwt>
<pdfrwt beam="1">  1        2 0.28471049E+00 0.23476153E+04</pdfrwt>
<pdfrwt beam="2">  1       -2 0.11454172E+00 0.23476153E+04</pdfrwt>
<totfact> 0.43494346E+00</totfact>
</mgrwt>
</event>
<event>
12    2  0.3751044E-008  0.1500257E+04  0.7818608E-02  0.8884282E-01
          2   -1    0    0  501    0  0.00000000000E+00  0.00000000000E+00  0.11653810001E+04  0.11653810001E+04  0.00000000000E+00 0. -1.
         -2   -1    0    0    0  501 -0.00000000000E+00 -0.00000000000E+00 -0.48284019546E+03  0.48284019546E+03  0.00000000000E+00 0.  1.
         23    2    1    2    0    0 -0.26298727402E+03  0.27744784878E+02 -0.21267064999E+03  0.35138251955E+03  0.91152566023E+02 0.  0.
        254    2    1    2    0    0  0.26298727402E+03 -0.27744784878E+02  0.89521145460E+03  0.12968386760E+04  0.90025269992E+03 0.  0.
         23    2    4    4    0    0  0.40422908183E+03  0.20560954745E+03  0.13273785658E+03  0.48121540350E+03  0.90953226449E+02 0.  0.
         23    2    4    4    0    0 -0.14124180780E+03 -0.23335433233E+03  0.76247359802E+03  0.81562327249E+03  0.97323390109E+02 0.  0.
          1    1    3    3  502    0 -0.94782796045E+02  0.51747715590E+02 -0.10245334205E+03  0.14885661488E+03  0.00000000000E+00 0. -1.
         -1    1    3    3    0  502 -0.16820447798E+03 -0.24002930712E+02 -0.11021730793E+03  0.20252590467E+03  0.00000000000E+00 0.  1.
         11    1    5    5    0    0  0.19892617364E+03  0.13791461502E+03  0.37320092844E+02  0.24491805349E+03  0.00000000000E+00 0.  1.
        -11    1    5    5    0    0  0.20530290818E+03  0.67694932432E+02  0.95417763739E+02  0.23629735001E+03  0.00000000000E+00 0. -1.
          1    1    6    6  503    0 -0.33558592942E+02 -0.15045600660E+02  0.45802289650E+02  0.58740097009E+02  0.00000000000E+00 0. -1.
         -1    1    6    6    0  503 -0.10768321486E+03 -0.21830873167E+03  0.71667130837E+03  0.75688317548E+03  0.00000000000E+00 0.  1.
<mgrwt>
<rscale>  0 0.15002570E+04</rscale>
<asrwt>0</asrwt>
<pdfrwt beam="1">  1        2 0.17928938E+00 0.15002570E+04</pdfrwt>
<pdfrwt beam="2">  1       -2 0.74283107E-01 0.15002570E+04</pdfrwt>
<totfact> 0.31321242E+01</totfact>
</mgrwt>
</event>
<event>
12    2  0.3751044E-008  0.1329972E+04  0.7818608E-02  0.9006129E-01
          2   -1    0    0  501    0  0.00000000000E+00  0.00000000000E+00  0.51336938956E+03  0.51336938956E+03  0.00000000000E+00 0. -1.
         -2   -1    0    0    0  501 -0.00000000000E+00 -0.00000000000E+00 -0.86138111341E+03  0.86138111341E+03  0.00000000000E+00 0.  1.
         23    2    1    2    0    0  0.10941019229E+03  0.25689326131E+03 -0.31543493552E+03  0.43103544998E+03  0.91255809209E+02 0.  0.
        254    2    1    2    0    0 -0.10941019229E+03 -0.25689326131E+03 -0.32576788340E+02  0.94371505299E+03  0.90087297452E+03 0.  0.
         23    2    4    4    0    0  0.36090919529E+03 -0.98641258927E+02 -0.17081019055E+03  0.42073092720E+03  0.88616289121E+02 0.  0.
         23    2    4    4    0    0 -0.47031938759E+03 -0.15825200238E+03  0.13823340221E+03  0.52298412578E+03  0.90332163360E+02 0.  0.
          3    1    3    3  502    0  0.80625154677E+02  0.20743467155E+03 -0.18795934694E+03  0.29130443633E+03  0.00000000000E+00 0. -1.
         -3    1    3    3    0  502  0.28785037616E+02  0.49458589760E+02 -0.12747558858E+03  0.13973101365E+03  0.00000000000E+00 0.  1.
         11    1    5    5    0    0  0.16406493832E+03 -0.88004021237E+02 -0.66456930396E+02  0.19768291615E+03  0.00000000000E+00 0. -1.
        -11    1    5    5    0    0  0.19684425697E+03 -0.10637237690E+02 -0.10435326016E+03  0.22304801105E+03  0.00000000000E+00 0.  1.
          2    1    6    6  503    0 -0.93385145543E+01  0.35931616398E+01  0.16797756930E+02  0.19552066451E+02  0.00000000000E+00 0. -1.
         -2    1    6    6    0  503 -0.46098087303E+03 -0.16184516402E+03  0.12143564528E+03  0.50343205933E+03  0.00000000000E+00 0.  1.
<mgrwt>
<rscale>  0 0.13299725E+04</rscale>
<asrwt>0</asrwt>
<pdfrwt beam="1">  1        2 0.78979906E-01 0.13299725E+04</pdfrwt>
<pdfrwt beam="2">  1       -2 0.13252017E+00 0.13299725E+04</pdfrwt>
<totfact> 0.24144621E+01</totfact>
</mgrwt>
</event>
<event>
12    2  0.3751044E-008  0.2530537E+04  0.7818608E-02  0.8392187E-01
         -2   -1    0    0    0  501 -0.00000000000E+00  0.00000000000E+00  0.70358203081E+03  0.70358203081E+03  0.00000000000E+00 0.  1.
          2   -1    0    0  501    0  0.00000000000E+00 -0.00000000000E+00 -0.22753630299E+04  0.22753630299E+04  0.00000000000E+00 0. -1.
         23    2    1    2    0    0 -0.33257240427E+03 -0.87400042643E+03  0.93866572873E+00  0.93954531332E+03  0.90903053968E+02 0.  0.
        254    2    1    2    0    0  0.33257240427E+03  0.87400042643E+03 -0.15727196648E+04  0.20393997474E+04  0.90067920816E+03 0.  0.
         23    2    4    4    0    0 -0.80848133532E+02  0.79937944116E+03 -0.13013887088E+04  0.15316645339E+04  0.82702848794E+02 0.  0.
         23    2    4    4    0    0  0.41342053780E+03  0.74620985269E+02 -0.27133095598E+03  0.50773521350E+03  0.87691087552E+02 0.  0.
          2    1    3    3  502    0 -0.58048932135E+01 -0.61787301681E+02 -0.15284630691E+02  0.63913905917E+02  0.00000000000E+00 0. -1.
         -2    1    3    3    0  502 -0.32676751106E+03 -0.81221312475E+03  0.16223296420E+02  0.87563140741E+03  0.00000000000E+00 0.  1.
         11    1    5    5    0    0 -0.84348850383E+01  0.70771705443E+02 -0.76027011339E+02  0.10421078653E+03  0.00000000000E+00 0.  1.
        -11    1    5    5    0    0 -0.72413248494E+02  0.72860773571E+03 -0.12253616975E+04  0.14274537473E+04  0.00000000000E+00 0. -1.
          2    1    6    6  503    0  0.30643553381E+03  0.91312514899E+02 -0.18635366328E+03  0.37009242031E+03  0.00000000000E+00 0.  1.
         -2    1    6    6    0  503  0.10698500399E+03 -0.16691529629E+02 -0.84977292699E+02  0.13764279318E+03  0.00000000000E+00 0. -1.
<mgrwt>
<rscale>  0 0.25305371E+04</rscale>
<asrwt>0</asrwt>
<pdfrwt beam="1">  1        2 0.35005584E+00 0.25305371E+04</pdfrwt>
<pdfrwt beam="2">  1       -2 0.10824339E+00 0.25305371E+04</pdfrwt>
<totfact> 0.28448814E+00</totfact>
</mgrwt>
</event>
<event>
12    2  0.3751044E-008  0.1582209E+04  0.7818608E-02  0.8831553E-01
          2   -1    0    0  501    0  0.00000000000E+00  0.00000000000E+00  0.10800235689E+04  0.10800235689E+04  0.00000000000E+00 0. -1.
         -2   -1    0    0    0  501 -0.00000000000E+00 -0.00000000000E+00 -0.57947444481E+03  0.57947444481E+03  0.00000000000E+00 0.  1.
         23    2    1    2    0    0 -0.26044927700E+03  0.38671145105E+03  0.44225041391E+03  0.65159363314E+03  0.10774628479E+03 0.  0.
        254    2    1    2    0    0  0.26044927700E+03 -0.38671145105E+03  0.58298710183E+02  0.10079043806E+04  0.89167983521E+03 0.  0.
         23    2    4    4    0    0  0.30991211732E+03 -0.63465149205E+03 -0.55997125967E+02  0.71556365129E+03  0.10033755088E+03 0.  0.
         23    2    4    4    0    0 -0.49462840326E+02  0.24794004100E+03  0.11429583615E+03  0.29234072929E+03  0.92080005084E+02 0.  0.
          1    1    3    3  502    0 -0.22138746540E+03  0.24225626695E+03  0.28707915344E+03  0.43602173002E+03  0.00000000000E+00 0. -1.
         -1    1    3    3    0  502 -0.39061811600E+02  0.14445518410E+03  0.15517126047E+03  0.21557190312E+03  0.00000000000E+00 0.  1.
         11    1    5    5    0    0  0.15221750643E+03 -0.38602938075E+03  0.45750251814E+01  0.41498166576E+03  0.00000000000E+00 0. -1.
        -11    1    5    5    0    0  0.15769461089E+03 -0.24862211130E+03 -0.60572151148E+02  0.30058198553E+03  0.00000000000E+00 0.  1.
          3    1    6    6  503    0 -0.27800478681E+02  0.19994958621E+03  0.47677041669E+02  0.20742662304E+03  0.00000000000E+00 0. -1.
         -3    1    6    6    0  503 -0.21662361645E+02  0.47990454784E+02  0.66618794481E+02  0.84914106252E+02  0.00000000000E+00 0.  1.
<mgrwt>
<rscale>  0 0.15822087E+04</rscale>
<asrwt>0</asrwt>
<pdfrwt beam="1">  1        2 0.16615747E+00 0.15822087E+04</pdfrwt>
<pdfrwt beam="2">  1       -2 0.89149915E-01 0.15822087E+04</pdfrwt>
<totfact> 0.23256352E+01</totfact>
</mgrwt>
</event>
<event>
12    2  0.3751044E-008  0.2203626E+04  0.7818608E-02  0.8516921E-01
          1   -1    0    0  501    0  0.00000000000E+00  0.00000000000E+00  0.28282234053E+04  0.28282234053E+04  0.00000000000E+00 0. -1.
         -1   -1    0    0    0  501 -0.00000000000E+00 -0.00000000000E+00 -0.42924169671E+03  0.42924169671E+03  0.00000000000E+00 0.  1.
         23    2    1    2    0    0 -0.47675152330E+03  0.15973256644E+03  0.21287157337E+04  0.21891339599E+04  0.89834916106E+02 0.  0.
        254    2    1    2    0    0  0.47675152330E+03 -0.15973256644E+03  0.27026597499E+03  0.10683311421E+04  0.90303999037E+03 0.  0.
         23    2    4    4    0    0  0.11318635197E+03  0.34194736844E+03  0.23802019608E+03  0.44118137251E+03  0.90819803214E+02 0.  0.
         23    2    4    4    0    0  0.36356517133E+03 -0.50167993489E+03  0.32245778912E+02  0.62714976959E+03  0.91731414312E+02 0.  0.
          3    1    3    3  502    0 -0.22440220379E+03  0.11273371054E+03  0.11701902973E+04  0.11968335600E+04  0.00000000000E+00 0. -1.
         -3    1    3    3    0  502 -0.25234931951E+03  0.46998855907E+02  0.95852543636E+03  0.99230039991E+03  0.00000000000E+00 0.  1.
         11    1    5    5    0    0 -0.20436677182E+01  0.12090259783E+03  0.60923856678E+02  0.13540063165E+03  0.00000000000E+00 0. -1.
        -11    1    5    5    0    0  0.11523001969E+03  0.22104477061E+03  0.17709633940E+03  0.30578074086E+03  0.00000000000E+00 0.  1.
          1    1    6    6  503    0  0.17867779048E+03 -0.26020255814E+03  0.61629329193E+02  0.32160425726E+03  0.00000000000E+00 0. -1.
         -1    1    6    6    0  503  0.18488738085E+03 -0.24147737675E+03 -0.29383550280E+02  0.30554551233E+03  0.00000000000E+00 0.  1.
<mgrwt>
<rscale>  0 0.22036256E+04</rscale>
<asrwt>0</asrwt>
<pdfrwt beam="1">  1        1 0.43511128E+00 0.22036256E+04</pdfrwt>
<pdfrwt beam="2">  1       -1 0.66037186E-01 0.22036256E+04</pdfrwt>
<totfact> 0.16860360E+00</totfact>
</mgrwt>
</event>
<event>
12    2  0.3751044E-008  0.1706075E+04  0.7818608E-02  0.8757907E-01
         -1   -1    0    0    0  501 -0.00000000000E+00  0.00000000000E+00  0.39156051722E+03  0.39156051722E+03  0.00000000000E+00 0.  1.
          1   -1    0    0  501    0  0.00000000000E+00 -0.00000000000E+00 -0.18583928534E+04  0.18583928534E+04  0.00000000000E+00 0. -1.
         23    2    1    2    0    0  0.23095410049E+03 -0.28155042119E+03  0.11807580120E+03  0.39363529134E+03  0.91631935234E+02 0.  0.
        254    2    1    2    0    0 -0.23095410049E+03  0.28155042119E+03 -0.15849081373E+04  0.18563180792E+04  0.89519415286E+03 0.  0.
         23    2    4    4    0    0  0.12128272416E+03  0.51004467898E+03 -0.78470172473E+03  0.94817119777E+03  0.91742845856E+02 0.  0.
         23    2    4    4    0    0 -0.35223682465E+03 -0.22849425778E+03 -0.80020641261E+03  0.90814688147E+03  0.90111314834E+02 0.  0.
          2    1    3    3  502    0  0.15023885287E+03 -0.23946608499E+03  0.10552232515E+03  0.30174605196E+03  0.00000000000E+00 0.  1.
         -2    1    3    3    0  502  0.80715247626E+02 -0.42084336202E+02  0.12553476051E+02  0.91889239380E+02  0.00000000000E+00 0. -1.
         11    1    5    5    0    0  0.34353722759E+02  0.11411245918E+03 -0.25216816434E+03  0.27890968917E+03  0.00000000000E+00 0. -1.
        -11    1    5    5    0    0  0.86929001397E+02  0.39593221979E+03 -0.53253356039E+03  0.66926150860E+03  0.00000000000E+00 0.  1.
          3    1    6    6  503    0 -0.84228033680E+02 -0.31992331618E+02 -0.11070278556E+03  0.14273394015E+03  0.00000000000E+00 0. -1.
         -3    1    6    6    0  503 -0.26800879097E+03 -0.19650192617E+03 -0.68950362705E+03  0.76541294132E+03  0.00000000000E+00 0.  1.
<mgrwt>
<rscale>  0 0.17060753E+04</rscale>
<asrwt>0</asrwt>
<pdfrwt beam="1">  1        1 0.28590659E+00 0.17060753E+04</pdfrwt>
<pdfrwt beam="2">  1       -1 0.60240080E-01 0.17060753E+04</pdfrwt>
<totfact> 0.98830224E+00</totfact>
</mgrwt>
</event>
<event>
12    2  0.3751044E-008  0.1948759E+04  0.7818608E-02  0.8630959E-01
          2   -1    0    0  501    0  0.00000000000E+00  0.00000000000E+00  0.10140212648E+04  0.10140212648E+04  0.00000000000E+00 0. -1.
         -2   -1    0    0    0  501 -0.00000000000E+00 -0.00000000000E+00 -0.93628778964E+03  0.93628778964E+03  0.00000000000E+00 0.  1.
         23    2    1    2    0    0 -0.48276893751E+03  0.31534021662E+03  0.52919241149E+03  0.78815122709E+03  0.92910974268E+02 0.  0.
        254    2    1    2    0    0  0.48276893751E+03 -0.31534021662E+03 -0.45145893635E+03  0.11621578273E+04  0.90238037721E+03 0.  0.
         23    2    4    4    0    0 -0.23899311993E+03 -0.74349426633E+02 -0.25945753490E+03  0.37211175141E+03  0.92213852023E+02 0.  0.
         23    2    4    4    0    0  0.72176205744E+03 -0.24099078999E+03 -0.19200140144E+03  0.79004607592E+03  0.91056221662E+02 0.  0.
          2    1    3    3  502    0 -0.12127077560E+03  0.10506563783E+03  0.10088994820E+03  0.18953672709E+03  0.00000000000E+00 0.  1.
         -2    1    3    3    0  502 -0.36149816191E+03  0.21027457879E+03  0.42830246329E+03  0.59861450000E+03  0.00000000000E+00 0. -1.
         11    1    5    5    0    0  0.54798850448E+01 -0.34783432911E+00  0.26774957181E+01  0.61089370716E+01  0.00000000000E+00 0. -1.
        -11    1    5    5    0    0 -0.24447300497E+03 -0.74001592304E+02 -0.26213503062E+03  0.36600281434E+03  0.00000000000E+00 0.  1.
          3    1    6    6  503    0  0.12680412533E+02 -0.54109959102E+00 -0.16843825163E+02  0.21090284419E+02  0.00000000000E+00 0. -1.
         -3    1    6    6    0  503  0.70908164491E+03 -0.24044969040E+03 -0.17515757628E+03  0.76895579150E+03  0.00000000000E+00 0.  1.
<mgrwt>
<rscale>  0 0.19487593E+04</rscale>
<asrwt>0</asrwt>
<pdfrwt beam="1">  1        2 0.15600327E+00 0.19487593E+04</pdfrwt>
<pdfrwt beam="2">  1       -2 0.14404428E+00 0.19487593E+04</pdfrwt>
<totfact> 0.76736707E+00</totfact>
</mgrwt>
</event>
<event>
12    2  0.3751044E-008  0.1941442E+04  0.7818608E-02  0.8634499E-01
          2   -1    0    0  501    0  0.00000000000E+00  0.00000000000E+00  0.26785795307E+04  0.26785795307E+04  0.00000000000E+00 0. -1.
         -2   -1    0    0    0  501 -0.00000000000E+00 -0.00000000000E+00 -0.35179066661E+03  0.35179066661E+03  0.00000000000E+00 0.  1.
         23    2    1    2    0    0 -0.30205722429E+03  0.69039376932E+03  0.77668424376E+03  0.10867612635E+04  0.99646906327E+02 0.  0.
        254    2    1    2    0    0  0.30205722429E+03 -0.69039376932E+03  0.15501046203E+04  0.19436089338E+04  0.89828126445E+03 0.  0.
         23    2    4    4    0    0 -0.17925220314E+03  0.27778450646E+02  0.48716281780E+02  0.20883310811E+03  0.91296200801E+02 0.  0.
         23    2    4    4    0    0  0.48130942744E+03 -0.71817221996E+03  0.15013883385E+04  0.17347758256E+04  0.88600901518E+02 0.  0.
          1    1    3    3  502    0 -0.37351703717E+02  0.40980565915E+02  0.32790898514E+02  0.64418938043E+02  0.00000000000E+00 0. -1.
         -1    1    3    3    0  502 -0.26470552058E+03  0.64941320340E+03  0.74389334525E+03  0.10223423255E+04  0.00000000000E+00 0.  1.
         11    1    5    5    0    0 -0.18498100008E+03  0.35884094630E+02  0.55939225983E+02  0.19655746142E+03  0.00000000000E+00 0. -1.
        -11    1    5    5    0    0  0.57287969329E+01 -0.81056439840E+01 -0.72229442034E+01  0.12275646690E+02  0.00000000000E+00 0.  1.
          3    1    6    6  503    0  0.47785402699E+03 -0.69613326088E+03  0.14797133561E+04  0.17036718006E+04  0.00000000000E+00 0. -1.
         -3    1    6    6    0  503  0.34554004456E+01 -0.22038959085E+02  0.21674982393E+02  0.31104025005E+02  0.00000000000E+00 0.  1.
<mgrwt>
<rscale>  0 0.19414420E+04</rscale>
<asrwt>0</asrwt>
<pdfrwt beam="1">  1        2 0.41208915E+00 0.19414420E+04</pdfrwt>
<pdfrwt beam="2">  1       -2 0.54121643E-01 0.19414420E+04</pdfrwt>
<totfact> 0.82168190E+00</totfact>
</mgrwt>
</event>
<event>
12    2  0.3751044E-008  0.1852300E+04  0.7818608E-02  0.8678971E-01
         -1   -1    0    0    0  501 -0.00000000000E+00  0.00000000000E+00  0.80648688613E+03  0.80648688613E+03  0.00000000000E+00 0.  1.
          1   -1    0    0  501    0  0.00000000000E+00 -0.00000000000E+00 -0.10635677119E+04  0.10635677119E+04  0.00000000000E+00 0. -1.
         23    2    1    2    0    0  0.32144033898E+03  0.17920235974E+03  0.46658670596E+03  0.60112925199E+03  0.90641304931E+02 0.  0.
        254    2    1    2    0    0 -0.32144033898E+03 -0.17920235974E+03 -0.72366753175E+03  0.12689253460E+04  0.97521252046E+03 0.  0.
         23    2    4    4    0    0  0.79895105165E+02  0.34527077391E+03 -0.34001458840E+03  0.49959894928E+03  0.91619073590E+02 0.  0.
         23    2    4    4    0    0 -0.40133544415E+03 -0.52447313366E+03 -0.38365294336E+03  0.76932639677E+03  0.92365129607E+02 0.  0.
          4    1    3    3  502    0  0.12485949745E+03  0.25642701141E+02  0.12869664120E+03  0.18113604744E+03  0.00000000000E+00 0. -1.
         -4    1    3    3    0  502  0.19658084153E+03  0.15355965860E+03  0.33789006476E+03  0.41999320456E+03  0.00000000000E+00 0.  1.
         11    1    5    5    0    0  0.40705330795E+02  0.44286548250E+02 -0.36512516097E+02  0.70366086595E+02  0.00000000000E+00 0.  1.
        -11    1    5    5    0    0  0.39189774370E+02  0.30098422566E+03 -0.30350207230E+03  0.42923286268E+03  0.00000000000E+00 0. -1.
          3    1    6    6  503    0 -0.32347076763E+03 -0.36289518809E+03 -0.25822690828E+03  0.55046107148E+03  0.00000000000E+00 0. -1.
         -3    1    6    6    0  503 -0.77864676520E+02 -0.16157794556E+03 -0.12542603507E+03  0.21886532530E+03  0.00000000000E+00 0.  1.
<mgrwt>
<rscale>  0 0.18522996E+04</rscale>
<asrwt>0</asrwt>
<pdfrwt beam="1">  1        1 0.16362580E+00 0.18522996E+04</pdfrwt>
<pdfrwt beam="2">  1       -1 0.12407491E+00 0.18522996E+04</pdfrwt>
<totfact> 0.72372061E+00</totfact>
</mgrwt>
</event>
<event>
12    2  0.3751044E-008  0.2276879E+04  0.7818608E-02  0.8487094E-01
         -1   -1    0    0    0  501 -0.00000000000E+00  0.00000000000E+00  0.19986227438E+04  0.19986227438E+04  0.00000000000E+00 0.  1.
          1   -1    0    0  501    0  0.00000000000E+00 -0.00000000000E+00 -0.64846888226E+03  0.64846888226E+03  0.00000000000E+00 0. -1.
         23    2    1    2    0    0  0.19216799856E+03  0.63704689895E+03 -0.24676542375E+03  0.71521219314E+03  0.88758186789E+02 0.  0.
        254    2    1    2    0    0 -0.19216799856E+03 -0.63704689895E+03  0.15969192853E+04  0.19318794330E+04  0.85979628313E+03 0.  0.
         23    2    4    4    0    0 -0.39714244182E+03 -0.55317640779E+03  0.15393836905E+04  0.16857912516E+04  0.91998587494E+02 0.  0.
         23    2    4    4    0    0  0.20497444326E+03 -0.83870491163E+02  0.57535594784E+02  0.24608818133E+03  0.90555323682E+02 0.  0.
          1    1    3    3  502    0  0.20030465101E+03  0.60621906325E+03 -0.22653636192E+03  0.67745275048E+03  0.00000000000E+00 0. -1.
         -1    1    3    3    0  502 -0.81366524521E+01  0.30827835700E+02 -0.20229061831E+02  0.37759442655E+02  0.00000000000E+00 0.  1.
         11    1    5    5    0    0 -0.91961380850E+01 -0.50874370824E+02  0.13882817032E+03  0.14814193004E+03  0.00000000000E+00 0. -1.
        -11    1    5    5    0    0 -0.38794630373E+03 -0.50230203697E+03  0.14005555202E+04  0.15376493216E+04  0.00000000000E+00 0.  1.
          2    1    6    6  503    0  0.95133953613E+02 -0.20432010168E+02 -0.17277354455E+02  0.98825316324E+02  0.00000000000E+00 0. -1.
         -2    1    6    6    0  503  0.10984048965E+03 -0.63438480995E+02  0.74812949240E+02  0.14726286501E+03  0.00000000000E+00 0.  1.
<mgrwt>
<rscale>  0 0.22768791E+04</rscale>
<asrwt>0</asrwt>
<pdfrwt beam="1">  1        1 0.99764444E-01 0.22768791E+04</pdfrwt>
<pdfrwt beam="2">  1       -1 0.30748042E+00 0.22768791E+04</pdfrwt>
<totfact> 0.81770543E-01</totfact>
</mgrwt>
</event>
<event>
12    2  0.3751044E-008  0.1465617E+04  0.7818608E-02  0.8907645E-01
          2   -1    0    0  501    0  0.00000000000E+00  0.00000000000E+00  0.39688116363E+03  0.39688116363E+03  0.00000000000E+00 0. -1.
         -2   -1    0    0    0  501 -0.00000000000E+00 -0.00000000000E+00 -0.13530701370E+04  0.13530701370E+04  0.00000000000E+00 0.  1.
         23    2    1    2    0    0  0.10688787787E+03  0.41231287178E+03 -0.18712615881E+03  0.47436748478E+03  0.92635784879E+02 0.  0.
        254    2    1    2    0    0 -0.10688787787E+03 -0.41231287178E+03 -0.76906281456E+03  0.12755838158E+04  0.92424538724E+03 0.  0.
         23    2    4    4    0    0  0.23175436067E+03 -0.22100683827E+03 -0.80833377589E+03  0.87383946478E+03  0.87394569130E+02 0.  0.
         23    2    4    4    0    0 -0.33864223854E+03 -0.19130603351E+03  0.39270961329E+02  0.40174435107E+03  0.92626945462E+02 0.  0.
          4    1    3    3  502    0  0.48426743262E+02  0.14652754667E+03 -0.21560331492E+02  0.15582143399E+03  0.00000000000E+00 0. -1.
         -4    1    3    3    0  502  0.58461134609E+02  0.26578532511E+03 -0.16556582732E+03  0.31854605079E+03  0.00000000000E+00 0.  1.
         11    1    5    5    0    0  0.67522441941E+02 -0.31794404060E+02 -0.26881361703E+03  0.27898194385E+03  0.00000000000E+00 0. -1.
        -11    1    5    5    0    0  0.16423191873E+03 -0.18921243421E+03 -0.53952015886E+03  0.59485752092E+03  0.00000000000E+00 0.  1.
          2    1    6    6  503    0 -0.67882040556E+02 -0.42890268050E+01  0.24664574180E+02  0.72351284719E+02  0.00000000000E+00 0. -1.
         -2    1    6    6    0  503 -0.27076019799E+03 -0.18701700671E+03  0.14606387149E+02  0.32939306635E+03  0.00000000000E+00 0.  1.
<mgrwt>
<rscale>  0 0.14656167E+04</rscale>
<asrwt>0</asrwt>
<pdfrwt beam="1">  1        2 0.61058641E-01 0.14656167E+04</pdfrwt>
<pdfrwt beam="2">  1       -2 0.20816464E+00 0.14656167E+04</pdfrwt>
<totfact> 0.91366560E+00</totfact>
</mgrwt>
</event>
<event>
12    2  0.3751044E-008  0.1317617E+04  0.7818608E-02  0.9015710E-01
          1   -1    0    0  501    0  0.00000000000E+00  0.00000000000E+00  0.79193054727E+03  0.79193054727E+03  0.00000000000E+00 0. -1.
         -1   -1    0    0    0  501 -0.00000000000E+00 -0.00000000000E+00 -0.54806436318E+03  0.54806436318E+03  0.00000000000E+00 0.  1.
         23    2    1    2    0    0  0.38839131831E+01  0.13720288537E+03 -0.24307135226E+03  0.29296235505E+03  0.88901870900E+02 0.  0.
        254    2    1    2    0    0 -0.38839131831E+01 -0.13720288537E+03  0.48693753635E+03  0.10470325554E+04  0.91669476449E+03 0.  0.
         23    2    4    4    0    0  0.41227745890E+03 -0.36157012302E+02  0.43335804936E+03  0.60621561806E+03  0.91750444017E+02 0.  0.
         23    2    4    4    0    0 -0.41616137209E+03 -0.10104587307E+03  0.53579486985E+02  0.44081693734E+03  0.89712065742E+02 0.  0.
          3    1    3    3  502    0 -0.99116464646E+01  0.27543999468E+02 -0.13587794283E+03  0.13899542435E+03  0.00000000000E+00 0. -1.
         -3    1    3    3    0  502  0.13795559648E+02  0.10965888591E+03 -0.10719340944E+03  0.15396693070E+03  0.00000000000E+00 0.  1.
         11    1    5    5    0    0  0.13498280764E+03 -0.45704035579E+02  0.18742086665E+03  0.23544808023E+03  0.00000000000E+00 0. -1.
        -11    1    5    5    0    0  0.27729465126E+03  0.95470232778E+01  0.24593718272E+03  0.37076753784E+03  0.00000000000E+00 0.  1.
          4    1    6    6  503    0 -0.95067117607E+01 -0.33522458843E+01 -0.13913141032E+02  0.17181112140E+02  0.00000000000E+00 0. -1.
         -4    1    6    6    0  503 -0.40665466033E+03 -0.97693627187E+02  0.67492628018E+02  0.42363582520E+03  0.00000000000E+00 0.  1.
<mgrwt>
<rscale>  0 0.13176174E+04</rscale>
<asrwt>0</asrwt>
<pdfrwt beam="1">  1        1 0.12183547E+00 0.13176174E+04</pdfrwt>
<pdfrwt beam="2">  1       -1 0.84317594E-01 0.13176174E+04</pdfrwt>
<totfact> 0.30734732E+01</totfact>
</mgrwt>
</event>
<event>
12    2  0.3751044E-008  0.1504408E+04  0.7818608E-02  0.8881527E-01
         -1   -1    0    0    0  501 -0.00000000000E+00  0.00000000000E+00  0.23072393126E+03  0.23072393126E+03  0.00000000000E+00 0.  1.
          1   -1    0    0  501    0  0.00000000000E+00 -0.00000000000E+00 -0.24523273224E+04  0.24523273224E+04  0.00000000000E+00 0. -1.
         23    2    1    2    0    0  0.22248602158E+03 -0.40491302198E+03 -0.49595984259E+03  0.68384844224E+03  0.90652861627E+02 0.  0.
        254    2    1    2    0    0 -0.22248602158E+03  0.40491302198E+03 -0.17256435486E+04  0.19992028115E+04  0.89750300245E+03 0.  0.
         23    2    4    4    0    0 -0.76512379311E+02  0.15858900892E+03  0.44652886342E+02  0.20336749609E+03  0.91432162118E+02 0.  0.
         23    2    4    4    0    0 -0.14597364227E+03  0.24632401307E+03 -0.17702964349E+04  0.17958353154E+04  0.95347725615E+02 0.  0.
          1    1    3    3  502    0  0.18588874614E+02 -0.10072154714E+03 -0.82389220311E+02  0.13144717548E+03  0.00000000000E+00 0. -1.
         -1    1    3    3    0  502  0.20389714697E+03 -0.30419147485E+03 -0.41357062228E+03  0.55240126676E+03  0.00000000000E+00 0.  1.
         11    1    5    5    0    0 -0.95117815074E+01  0.11203016035E+03  0.46715731220E+02  0.12175216778E+03  0.00000000000E+00 0. -1.
        -11    1    5    5    0    0 -0.67000597803E+02  0.46558848563E+02 -0.20628448780E+01  0.81615328306E+02  0.00000000000E+00 0.  1.
          2    1    6    6  503    0  0.70440953680E+01  0.50370619387E+02 -0.39321432602E+03  0.39649000588E+03  0.00000000000E+00 0.  1.
         -2    1    6    6    0  503 -0.15301773764E+03  0.19595339368E+03 -0.13770821089E+04  0.13993453095E+04  0.00000000000E+00 0. -1.
<mgrwt>
<rscale>  0 0.15044077E+04</rscale>
<asrwt>0</asrwt>
<pdfrwt beam="1">  1        1 0.37728112E+00 0.15044077E+04</pdfrwt>
<pdfrwt beam="2">  1       -1 0.35495990E-01 0.15044077E+04</pdfrwt>
<totfact> 0.10720618E+01</totfact>
</mgrwt>
</event>
<event>
12    2  0.3751044E-008  0.2272945E+04  0.7818608E-02  0.8488666E-01
          2   -1    0    0  501    0  0.00000000000E+00  0.00000000000E+00  0.44594355099E+04  0.44594355099E+04  0.00000000000E+00 0. -1.
         -2   -1    0    0    0  501 -0.00000000000E+00 -0.00000000000E+00 -0.28962615903E+03  0.28962615903E+03  0.00000000000E+00 0.  1.
         23    2    1    2    0    0 -0.35040786590E+03  0.19516266330E+03 -0.49568373704E+02  0.41439456954E+03  0.91606211404E+02 0.  0.
        254    2    1    2    0    0  0.35040786590E+03 -0.19516266330E+03  0.42193777246E+04  0.43346670994E+04  0.90846923024E+03 0.  0.
         23    2    4    4    0    0  0.59721903444E+03 -0.35751690254E+02  0.34958854564E+04  0.35478870844E+04  0.91317472198E+02 0.  0.
         23    2    4    4    0    0 -0.24681116855E+03 -0.15941097305E+03  0.72349226814E+03  0.78678001498E+03  0.96198329913E+02 0.  0.
          1    1    3    3  502    0  0.36000829762E+01  0.26856682744E+01  0.61443370161E+01  0.76109321954E+01  0.00000000000E+00 0. -1.
         -1    1    3    3    0  502 -0.35400794887E+03  0.19247699503E+03 -0.55712710720E+02  0.40678363735E+03  0.00000000000E+00 0.  1.
         11    1    5    5    0    0  0.10310344187E+03 -0.28793614532E+02  0.79389065884E+03  0.80107538357E+03  0.00000000000E+00 0. -1.
        -11    1    5    5    0    0  0.49411559257E+03 -0.69580757220E+01  0.27019947976E+04  0.27468117008E+04  0.00000000000E+00 0.  1.
          3    1    6    6  503    0 -0.96490615010E+02 -0.12735779680E+02  0.19105299655E+03  0.21441521952E+03  0.00000000000E+00 0. -1.
         -3    1    6    6    0  503 -0.15032055354E+03 -0.14667519337E+03  0.53243927158E+03  0.57236479546E+03  0.00000000000E+00 0.  1.
<mgrwt>
<rscale>  0 0.22729445E+04</rscale>
<asrwt>0</asrwt>
<pdfrwt beam="1">  1        2 0.68606695E+00 0.22729445E+04</pdfrwt>
<pdfrwt beam="2">  1       -2 0.44557874E-01 0.22729445E+04</pdfrwt>
<totfact> 0.59058432E-01</totfact>
</mgrwt>
</event>
<event>
12    2  0.3751044E-008  0.3161315E+04  0.7818608E-02  0.8199109E-01
         -1   -1    0    0    0  501 -0.00000000000E+00  0.00000000000E+00  0.14573081083E+04  0.14573081083E+04  0.00000000000E+00 0.  1.
          1   -1    0    0  501    0  0.00000000000E+00 -0.00000000000E+00 -0.17144470433E+04  0.17144470433E+04  0.00000000000E+00 0. -1.
         23    2    1    2    0    0  0.48558812653E+03 -0.13006902767E+04  0.30523424931E+03  0.14243705728E+04  0.89847410460E+02 0.  0.
        254    2    1    2    0    0 -0.48558812653E+03  0.13006902767E+04 -0.56237318434E+03  0.17473845788E+04  0.89972120305E+03 0.  0.
         23    2    4    4    0    0 -0.71721192586E+03  0.11250155658E+04 -0.38454035840E+03  0.13912542727E+04  0.87545384067E+02 0.  0.
         23    2    4    4    0    0  0.23162379933E+03  0.17567471094E+03 -0.17783282594E+03  0.35613030610E+03  0.10340741007E+03 0.  0.
          4    1    3    3  502    0  0.27922560775E+03 -0.82999137401E+03  0.15895747338E+03  0.89001129167E+03  0.00000000000E+00 0. -1.
         -4    1    3    3    0  502  0.20636251878E+03 -0.47069890270E+03  0.14627677593E+03  0.53435928114E+03  0.00000000000E+00 0.  1.
         11    1    5    5    0    0 -0.64234047031E+03  0.95356005988E+03 -0.33973876155E+03  0.11988746781E+04  0.00000000000E+00 0. -1.
        -11    1    5    5    0    0 -0.74871455550E+02  0.17145550590E+03 -0.44801596850E+02  0.19237959466E+03  0.00000000000E+00 0.  1.
          4    1    6    6  503    0  0.21522201534E+03  0.12821365098E+03 -0.17547328446E+03  0.30585965694E+03  0.00000000000E+00 0. -1.
         -4    1    6    6    0  503  0.16401783989E+02  0.47461059957E+02 -0.23595414826E+01  0.50270649153E+02  0.00000000000E+00 0.  1.
<mgrwt>
<rscale>  0 0.31613146E+04</rscale>
<asrwt>0</asrwt>
<pdfrwt beam="1">  1        1 0.26376108E+00 0.31613146E+04</pdfrwt>
<pdfrwt beam="2">  1       -1 0.22420125E+00 0.31613146E+04</pdfrwt>
<totfact> 0.40345460E-01</totfact>
</mgrwt>
</event>
<event>
12    2  0.3751044E-008  0.1585520E+04  0.7818608E-02  0.8829494E-01
         -1   -1    0    0    0  501 -0.00000000000E+00  0.00000000000E+00  0.88684111236E+03  0.88684111236E+03  0.00000000000E+00 0.  1.
          1   -1    0    0  501    0  0.00000000000E+00 -0.00000000000E+00 -0.70865910901E+03  0.70865910901E+03  0.00000000000E+00 0. -1.
         23    2    1    2    0    0 -0.49879228163E+03 -0.10738089532E+02  0.20697692456E+03  0.54890497695E+03  0.97714787180E+02 0.  0.
        254    2    1    2    0    0  0.49879228163E+03  0.10738089532E+02 -0.28794921212E+02  0.10465952444E+04  0.91957784410E+03 0.  0.
         23    2    4    4    0    0  0.31177180270E+03 -0.33060504075E+02  0.43067438887E+03  0.54072059058E+03  0.92755991505E+02 0.  0.
         23    2    4    4    0    0  0.18702047893E+03  0.43798593607E+02 -0.45946931008E+03  0.50587465384E+03  0.88893993870E+02 0.  0.
          4    1    3    3  502    0 -0.34965347559E+02 -0.23382034040E+02  0.33665742618E+01  0.42197498362E+02  0.00000000000E+00 0.  1.
         -4    1    3    3    0  502 -0.46382693407E+03  0.12643944508E+02  0.20361035030E+03  0.50670747858E+03  0.00000000000E+00 0. -1.
         11    1    5    5    0    0  0.47424109314E+02 -0.76600557786E+01  0.20833788510E+02  0.52361907360E+02  0.00000000000E+00 0. -1.
        -11    1    5    5    0    0  0.26434769338E+03 -0.25400448296E+02  0.40984060036E+03  0.48835868322E+03  0.00000000000E+00 0.  1.
          3    1    6    6  503    0  0.50713561207E+02 -0.26466734359E+02 -0.10300264478E+03  0.11782146727E+03  0.00000000000E+00 0. -1.
         -3    1    6    6    0  503  0.13630691773E+03  0.70265327967E+02 -0.35646666530E+03  0.38805318657E+03  0.00000000000E+00 0.  1.
<mgrwt>
<rscale>  0 0.15855195E+04</rscale>
<asrwt>0</asrwt>
<pdfrwt beam="1">  1        1 0.10902448E+00 0.15855195E+04</pdfrwt>
<pdfrwt beam="2">  1       -1 0.13643709E+00 0.15855195E+04</pdfrwt>
<totfact> 0.11515982E+01</totfact>
</mgrwt>
</event>
<event>
12    2  0.3751044E-008  0.1873155E+04  0.7818608E-02  0.8668335E-01
         -3   -1    0    0    0  501 -0.00000000000E+00  0.00000000000E+00  0.55148870583E+03  0.55148870583E+03  0.00000000000E+00 0.  1.
          3   -1    0    0  501    0  0.00000000000E+00 -0.00000000000E+00 -0.15905625661E+04  0.15905625661E+04  0.00000000000E+00 0. -1.
         23    2    1    2    0    0  0.64791489079E+03  0.28066520578E+03 -0.40599132269E+03  0.81984144448E+03  0.93511371271E+02 0.  0.
        254    2    1    2    0    0 -0.64791489079E+03 -0.28066520578E+03 -0.63308253759E+03  0.13222098274E+04  0.92134611573E+03 0.  0.
         23    2    4    4    0    0 -0.36357811660E+03  0.31833401780E+03 -0.29001632037E+03  0.57042220012E+03  0.88013786190E+02 0.  0.
         23    2    4    4    0    0 -0.28433677419E+03 -0.59899922357E+03 -0.34306621722E+03  0.75178762733E+03  0.88559224297E+02 0.  0.
          4    1    3    3  502    0  0.20699353035E+03  0.45840934307E+02 -0.10456018412E+03  0.23639066176E+03  0.00000000000E+00 0. -1.
         -4    1    3    3    0  502  0.44092136044E+03  0.23482427147E+03 -0.30143113857E+03  0.58345078273E+03  0.00000000000E+00 0.  1.
         11    1    5    5    0    0 -0.32924796055E+03  0.31170827809E+03 -0.28385300720E+03  0.53491943304E+03  0.00000000000E+00 0. -1.
        -11    1    5    5    0    0 -0.34330156047E+02  0.66257397094E+01 -0.61633131667E+01  0.35502767076E+02  0.00000000000E+00 0.  1.
          2    1    6    6  503    0 -0.32600467996E+02 -0.67304548843E+02 -0.91335881680E+01  0.75339997620E+02  0.00000000000E+00 0.  1.
         -2    1    6    6    0  503 -0.25173630620E+03 -0.53169467473E+03 -0.33393262905E+03  0.67644762971E+03  0.00000000000E+00 0. -1.
<mgrwt>
<rscale>  0 0.18731549E+04</rscale>
<asrwt>0</asrwt>
<pdfrwt beam="1">  1        3 0.24470193E+00 0.18731549E+04</pdfrwt>
<pdfrwt beam="2">  1       -3 0.84844417E-01 0.18731549E+04</pdfrwt>
<totfact> 0.24808821E-01</totfact>
</mgrwt>
</event>
<event>
12    2  0.3751044E-008  0.1779512E+04  0.7818608E-02  0.8717271E-01
         -2   -1    0    0    0  501 -0.00000000000E+00  0.00000000000E+00  0.44796948213E+03  0.44796948213E+03  0.00000000000E+00 0.  1.
          2   -1    0    0  501    0  0.00000000000E+00 -0.00000000000E+00 -0.17672312920E+04  0.17672312920E+04  0.00000000000E+00 0. -1.
         23    2    1    2    0    0  0.60415981982E+03  0.24321179276E+03 -0.38326622014E+03  0.76088917866E+03  0.88872282967E+02 0.  0.
        254    2    1    2    0    0 -0.60415981982E+03 -0.24321179276E+03 -0.93599558978E+03  0.14543115955E+04  0.90264799824E+03 0.  0.
         23    2    4    4    0    0  0.17314358954E+03 -0.21829446954E+03 -0.43883487342E+03  0.52743579114E+03  0.89338063641E+02 0.  0.
         23    2    4    4    0    0 -0.77730340936E+03 -0.24917323226E+02 -0.49716071636E+03  0.92687580437E+03  0.84312013613E+02 0.  0.
          3    1    3    3  502    0  0.10291942249E+03  0.78523025853E+02 -0.84050046309E+02  0.15434598602E+03  0.00000000000E+00 0. -1.
         -3    1    3    3    0  502  0.50124039733E+03  0.16468876691E+03 -0.29921617383E+03  0.60654319265E+03  0.00000000000E+00 0.  1.
         11    1    5    5    0    0  0.17512664750E+03 -0.20615345512E+03 -0.43839030853E+03  0.51512586068E+03  0.00000000000E+00 0.  1.
        -11    1    5    5    0    0 -0.19830579586E+01 -0.12141014416E+02 -0.44456488155E+00  0.12309930457E+02  0.00000000000E+00 0. -1.
          1    1    6    6  503    0 -0.26305852981E+03 -0.17170811029E+02 -0.12319336799E+03  0.29098321734E+03  0.00000000000E+00 0. -1.
         -1    1    6    6    0  503 -0.51424487955E+03 -0.77465121973E+01 -0.37396734837E+03  0.63589258703E+03  0.00000000000E+00 0.  1.
<mgrwt>
<rscale>  0 0.17795119E+04</rscale>
<asrwt>0</asrwt>
<pdfrwt beam="1">  1        2 0.27188174E+00 0.17795119E+04</pdfrwt>
<pdfrwt beam="2">  1       -2 0.68918381E-01 0.17795119E+04</pdfrwt>
<totfact> 0.16362033E+01</totfact>
</mgrwt>
</event>
<event>
12    2  0.3751044E-008  0.1680245E+04  0.7818608E-02  0.8772712E-01
          1   -1    0    0  501    0  0.00000000000E+00  0.00000000000E+00  0.14174681377E+04  0.14174681377E+04  0.00000000000E+00 0. -1.
         -1   -1    0    0    0  501 -0.00000000000E+00 -0.00000000000E+00 -0.49793399733E+03  0.49793399733E+03  0.00000000000E+00 0.  1.
         23    2    1    2    0    0 -0.22681955983E+03 -0.22065377948E+03 -0.23427403468E+03  0.40414585673E+03  0.91183041528E+02 0.  0.
        254    2    1    2    0    0  0.22681955983E+03  0.22065377948E+03  0.11538081751E+04  0.15112562783E+04  0.92330224239E+03 0.  0.
         23    2    4    4    0    0  0.51831938664E+03  0.60538280105E+02  0.34918794258E+03  0.63584076642E+03  0.10020674166E+03 0.  0.
         23    2    4    4    0    0 -0.29149982681E+03  0.16011549937E+03  0.80462023251E+03  0.87541551192E+03  0.91265972691E+02 0.  0.
          3    1    3    3  502    0 -0.10761725221E+02 -0.53602734351E+02 -0.54402411098E+02  0.77127752417E+02  0.00000000000E+00 0. -1.
         -3    1    3    3    0  502 -0.21605783461E+03 -0.16705104512E+03 -0.17987162359E+03  0.32701810431E+03  0.00000000000E+00 0.  1.
         11    1    5    5    0    0  0.44252963061E+03  0.44415010311E+02  0.25076444635E+03  0.51057612034E+03  0.00000000000E+00 0. -1.
        -11    1    5    5    0    0  0.75789756035E+02  0.16123269794E+02  0.98423496226E+02  0.12526464608E+03  0.00000000000E+00 0.  1.
          3    1    6    6  503    0 -0.15560812632E+03  0.12717191731E+03  0.40669576642E+03  0.45363865791E+03  0.00000000000E+00 0. -1.
         -3    1    6    6    0  503 -0.13589170048E+03  0.32943582066E+02  0.39792446609E+03  0.42177685401E+03  0.00000000000E+00 0.  1.
<mgrwt>
<rscale>  0 0.16802447E+04</rscale>
<asrwt>0</asrwt>
<pdfrwt beam="1">  1        1 0.21807202E+00 0.16802447E+04</pdfrwt>
<pdfrwt beam="2">  1       -1 0.76605231E-01 0.16802447E+04</pdfrwt>
<totfact> 0.12174320E+01</totfact>
</mgrwt>
</event>
<event>
12    2  0.3751044E-008  0.1620906E+04  0.7818608E-02  0.8807806E-01
         -1   -1    0    0    0  501 -0.00000000000E+00  0.00000000000E+00  0.13427878297E+04  0.13427878297E+04  0.00000000000E+00 0.  1.
          1   -1    0    0  501    0  0.00000000000E+00 -0.00000000000E+00 -0.48915711599E+03  0.48915711599E+03  0.00000000000E+00 0. -1.
         23    2    1    2    0    0 -0.20665950029E+03  0.64623283753E+02  0.82839870872E+03  0.86091850004E+03  0.89732520525E+02 0.  0.
        254    2    1    2    0    0  0.20665950029E+03 -0.64623283753E+02  0.25232005007E+02  0.97102644568E+03  0.94624065980E+03 0.  0.
         23    2    4    4    0    0  0.45999617508E+03 -0.27339891433E+03 -0.18136230073E+03  0.57227959733E+03  0.90929675880E+02 0.  0.
         23    2    4    4    0    0 -0.25333667479E+03  0.20877563058E+03  0.20659430574E+03  0.39874684834E+03  0.92472196834E+02 0.  0.
          1    1    3    3  502    0 -0.75860801585E+02 -0.14123671418E+02  0.20347512096E+03  0.21761540423E+03  0.00000000000E+00 0. -1.
         -1    1    3    3    0  502 -0.13079869871E+03  0.78746955171E+02  0.62492358777E+03  0.64330309581E+03  0.00000000000E+00 0.  1.
         11    1    5    5    0    0  0.65203137380E+00 -0.11509505854E+02 -0.12979810169E+02  0.17359992567E+02  0.00000000000E+00 0. -1.
        -11    1    5    5    0    0  0.45934414370E+03 -0.26188940847E+03 -0.16838249056E+03  0.55491960476E+03  0.00000000000E+00 0.  1.
          1    1    6    6  503    0 -0.18342151827E+03  0.15504560999E+03  0.19588038769E+03  0.30992212058E+03  0.00000000000E+00 0. -1.
         -1    1    6    6    0  503 -0.69915156516E+02  0.53730020584E+02  0.10713918046E+02  0.88824727765E+02  0.00000000000E+00 0.  1.
<mgrwt>
<rscale>  0 0.16209062E+04</rscale>
<asrwt>0</asrwt>
<pdfrwt beam="1">  1        1 0.75254941E-01 0.16209062E+04</pdfrwt>
<pdfrwt beam="2">  1       -1 0.20658274E+00 0.16209062E+04</pdfrwt>
<totfact> 0.59343149E+00</totfact>
</mgrwt>
</event>
<event>
12    2  0.3751044E-008  0.4086942E+04  0.7818608E-02  0.7987234E-01
         -2   -1    0    0    0  501 -0.00000000000E+00  0.00000000000E+00  0.21313296454E+04  0.21313296454E+04  0.00000000000E+00 0. -1.
          2   -1    0    0  501    0  0.00000000000E+00 -0.00000000000E+00 -0.19592337535E+04  0.19592337535E+04  0.00000000000E+00 0.  1.
         23    2    1    2    0    0  0.19041672482E+04 -0.22875828284E+03 -0.22568810235E+03  0.19332520724E+04  0.91352039239E+02 0.  0.
        254    2    1    2    0    0 -0.19041672482E+04  0.22875828284E+03  0.39778399428E+03  0.21573113264E+04  0.90419953115E+03 0.  0.
         23    2    4    4    0    0 -0.12000961467E+04 -0.19926682788E+03  0.50619102745E+03  0.13208175455E+04  0.91605688520E+02 0.  0.
         23    2    4    4    0    0 -0.70407110143E+03  0.42802511072E+03 -0.10840703316E+03  0.83649378093E+03  0.95121761032E+02 0.  0.
          1    1    3    3  502    0  0.12874821275E+04 -0.14276253384E+03 -0.19373628592E+03  0.13097805611E+04  0.00000000000E+00 0. -1.
         -1    1    3    3    0  502  0.61668512065E+03 -0.85995748997E+02 -0.31951816422E+02  0.62347151133E+03  0.00000000000E+00 0.  1.
         11    1    5    5    0    0 -0.10829063259E+04 -0.18451757625E+03  0.42685620677E+03  0.11785325909E+04  0.00000000000E+00 0. -1.
        -11    1    5    5    0    0 -0.11718982086E+03 -0.14749251632E+02  0.79334820674E+02  0.14228495461E+03  0.00000000000E+00 0.  1.
          3    1    6    6  503    0 -0.58179803528E+03  0.34370008487E+03 -0.12444642359E+03  0.68709942114E+03  0.00000000000E+00 0. -1.
         -3    1    6    6    0  503 -0.12227306615E+03  0.84325025844E+02  0.16039390428E+02  0.14939435978E+03  0.00000000000E+00 0.  1.
<mgrwt>
<rscale>  0 0.40869416E+04</rscale>
<asrwt>0</asrwt>
<pdfrwt beam="1">  1        2 0.30142058E+00 0.40869416E+04</pdfrwt>
<pdfrwt beam="2">  1       -2 0.32789687E+00 0.40869416E+04</pdfrwt>
<totfact> 0.11795955E-01</totfact>
</mgrwt>
</event>
<event>
12    2  0.3751044E-008  0.1420657E+04  0.7818608E-02  0.8939001E-01
          1   -1    0    0  501    0  0.00000000000E+00  0.00000000000E+00  0.14012918129E+04  0.14012918129E+04  0.00000000000E+00 0. -1.
         -1   -1    0    0    0  501 -0.00000000000E+00 -0.00000000000E+00 -0.36007220572E+03  0.36007220572E+03  0.00000000000E+00 0.  1.
         23    2    1    2    0    0 -0.29869507103E+03  0.26654582841E+03  0.16766931867E+03  0.44365676815E+03  0.91939672621E+02 0.  0.
        254    2    1    2    0    0  0.29869507103E+03 -0.26654582841E+03  0.87355028853E+03  0.13177072505E+04  0.90166338912E+03 0.  0.
         23    2    4    4    0    0 -0.79533335223E+02 -0.46730020312E+03  0.21882628162E+03  0.53007113876E+03  0.91626630249E+02 0.  0.
         23    2    4    4    0    0  0.37822840625E+03  0.20075437471E+03  0.65472400691E+03  0.78763611172E+03  0.91367789716E+02 0.  0.
          3    1    3    3  502    0 -0.21722173291E+03  0.19315610402E+03  0.16441136766E+03  0.33395457713E+03  0.00000000000E+00 0. -1.
         -3    1    3    3    0  502 -0.81473338122E+02  0.73389724388E+02  0.32579510108E+01  0.10970219102E+03  0.00000000000E+00 0.  1.
         11    1    5    5    0    0 -0.47526400726E+02 -0.22076492674E+03  0.15341470782E+03  0.27300546555E+03  0.00000000000E+00 0.  1.
        -11    1    5    5    0    0 -0.32006934497E+02 -0.24653527638E+03  0.65411573795E+02  0.25706567321E+03  0.00000000000E+00 0. -1.
          3    1    6    6  503    0  0.35528931997E+03  0.15784018457E+03  0.59215682576E+03  0.70837400506E+03  0.00000000000E+00 0. -1.
         -3    1    6    6    0  503  0.22939086282E+02  0.42914190143E+02  0.62567181150E+02  0.79262106659E+02  0.00000000000E+00 0.  1.
<mgrwt>
<rscale>  0 0.14206565E+04</rscale>
<asrwt>0</asrwt>
<pdfrwt beam="1">  1        1 0.21558335E+00 0.14206565E+04</pdfrwt>
<pdfrwt beam="2">  1       -1 0.55395725E-01 0.14206565E+04</pdfrwt>
<totfact> 0.24588747E+01</totfact>
</mgrwt>
</event>
<event>
12    2  0.3751044E-008  0.1637417E+04  0.7818608E-02  0.8797885E-01
          2   -1    0    0  501    0  0.00000000000E+00  0.00000000000E+00  0.16760797480E+04  0.16760797480E+04  0.00000000000E+00 0. -1.
         -2   -1    0    0    0  501 -0.00000000000E+00 -0.00000000000E+00 -0.39991163979E+03  0.39991163979E+03  0.00000000000E+00 0.  1.
         23    2    1    2    0    0  0.45314194185E+02  0.24362698177E+03 -0.17985628423E+03  0.31960677982E+03  0.91611834882E+02 0.  0.
        254    2    1    2    0    0 -0.45314194185E+02 -0.24362698177E+03  0.14560243924E+04  0.17563846080E+04  0.95051163974E+03 0.  0.
         23    2    4    4    0    0 -0.28082739588E+03 -0.24378611299E+03  0.14530464022E+04  0.15026244557E+04  0.90778371429E+02 0.  0.
         23    2    4    4    0    0  0.23551320170E+03  0.15913121754E+00  0.29779902182E+01  0.25376015226E+03  0.94439678906E+02 0.  0.
          1    1    3    3  502    0  0.30733436397E+02  0.38105183266E+02 -0.71942340489E+02  0.87018673051E+02  0.00000000000E+00 0. -1.
         -1    1    3    3    0  502  0.14580757788E+02  0.20552179850E+03 -0.10791394374E+03  0.23258810677E+03  0.00000000000E+00 0.  1.
         11    1    5    5    0    0 -0.26093328688E+03 -0.18640972385E+03  0.12651262021E+04  0.13051356529E+04  0.00000000000E+00 0. -1.
        -11    1    5    5    0    0 -0.19894109005E+02 -0.57376389139E+02  0.18792020017E+03  0.19748880281E+03  0.00000000000E+00 0.  1.
          4    1    6    6  503    0  0.23926381937E+03  0.29740098463E+01  0.16102033512E+02  0.23982346732E+03  0.00000000000E+00 0. -1.
         -4    1    6    6    0  503 -0.37506176748E+01 -0.28148786288E+01 -0.13124043294E+02  0.13936684936E+02  0.00000000000E+00 0.  1.
<mgrwt>
<rscale>  0 0.16374172E+04</rscale>
<asrwt>0</asrwt>
<pdfrwt beam="1">  1        2 0.25785842E+00 0.16374172E+04</pdfrwt>
<pdfrwt beam="2">  1       -2 0.61524869E-01 0.16374172E+04</pdfrwt>
<totfact> 0.23741116E+01</totfact>
</mgrwt>
</event>
<event>
12    2  0.3751044E-008  0.1380739E+04  0.7818608E-02  0.8967880E-01
         -1   -1    0    0    0  501 -0.00000000000E+00  0.00000000000E+00  0.20954010823E+03  0.20954010823E+03  0.00000000000E+00 0.  1.
          1   -1    0    0  501    0  0.00000000000E+00 -0.00000000000E+00 -0.22745538268E+04  0.22745538268E+04  0.00000000000E+00 0. -1.
         23    2    1    2    0    0 -0.27369649711E+03 -0.14228551957E+03 -0.10108661308E+04  0.10608467002E+04  0.91599373773E+02 0.  0.
        254    2    1    2    0    0  0.27369649711E+03  0.14228551957E+03 -0.10541475877E+04  0.14232472348E+04  0.90512463950E+03 0.  0.
         23    2    4    4    0    0  0.27520403721E+03  0.13883480501E+03  0.37672902063E+02  0.32693305470E+03  0.10224289475E+03 0.  0.
         23    2    4    4    0    0 -0.15075400952E+01  0.34507145620E+01 -0.10918204898E+04  0.10963141801E+04  0.99088947258E+02 0.  0.
          1    1    3    3  502    0 -0.19534970777E+03 -0.12162735974E+03 -0.85175571790E+03  0.88229389998E+03  0.00000000000E+00 0. -1.
         -1    1    3    3    0  502 -0.78346789341E+02 -0.20658159831E+02 -0.15911041293E+03  0.17855280023E+03  0.00000000000E+00 0.  1.
         11    1    5    5    0    0  0.26789517143E+03  0.13364533500E+03  0.57791592789E+02  0.30490780023E+03  0.00000000000E+00 0.  1.
        -11    1    5    5    0    0  0.73088657757E+01  0.51894700097E+01 -0.20118690726E+02  0.22025254469E+02  0.00000000000E+00 0. -1.
          3    1    6    6  503    0  0.42884300728E+02 -0.21781174327E+02 -0.53077324508E+03  0.53294814053E+03  0.00000000000E+00 0. -1.
         -3    1    6    6    0  503 -0.44391840823E+02  0.25231888889E+02 -0.56104724468E+03  0.56336603954E+03  0.00000000000E+00 0.  1.
<mgrwt>
<rscale>  0 0.13807393E+04</rscale>
<asrwt>0</asrwt>
<pdfrwt beam="1">  1        1 0.34993137E+00 0.13807393E+04</pdfrwt>
<pdfrwt beam="2">  1       -1 0.32236939E-01 0.13807393E+04</pdfrwt>
<totfact> 0.17040358E+01</totfact>
</mgrwt>
</event>
<event>
12    2  0.3751044E-008  0.2054458E+04  0.7818608E-02  0.8581575E-01
         -1   -1    0    0    0  501 -0.00000000000E+00  0.00000000000E+00  0.16244029279E+04  0.16244029279E+04  0.00000000000E+00 0.  1.
          1   -1    0    0  501    0  0.00000000000E+00 -0.00000000000E+00 -0.64959213991E+03  0.64959213991E+03  0.00000000000E+00 0. -1.
         23    2    1    2    0    0 -0.25403483199E+03  0.73293008928E+03  0.70442147843E+03  0.10517396361E+04  0.90699675555E+02 0.  0.
        254    2    1    2    0    0  0.25403483199E+03 -0.73293008928E+03  0.27038930952E+03  0.12222554317E+04  0.90502914318E+03 0.  0.
         23    2    4    4    0    0  0.32554070610E+03 -0.13182746572E+02 -0.16127672773E+03  0.37474300912E+03  0.90948358078E+02 0.  0.
         23    2    4    4    0    0 -0.71505874117E+02 -0.71974734271E+03  0.43166603725E+03  0.84751242259E+03  0.93767858923E+02 0.  0.
          3    1    3    3  502    0 -0.34071663101E+02  0.72036043213E+02  0.11129823099E+03  0.13688449865E+03  0.00000000000E+00 0. -1.
         -3    1    3    3    0  502 -0.21996316888E+03  0.66089404606E+03  0.59312324744E+03  0.91485513741E+03  0.00000000000E+00 0.  1.
         11    1    5    5    0    0  0.26892080633E+03 -0.21214812504E+02 -0.16700789633E+03  0.31726976815E+03  0.00000000000E+00 0. -1.
        -11    1    5    5    0    0  0.56619899777E+02  0.80320659320E+01  0.57311685985E+01  0.57473240969E+02  0.00000000000E+00 0.  1.
          2    1    6    6  503    0 -0.39968665965E+02 -0.13626109392E+03  0.11601777929E+03  0.18337040407E+03  0.00000000000E+00 0. -1.
         -2    1    6    6    0  503 -0.31537208151E+02 -0.58348624878E+03  0.31564825796E+03  0.66414201853E+03  0.00000000000E+00 0.  1.
<mgrwt>
<rscale>  0 0.20544580E+04</rscale>
<asrwt>0</asrwt>
<pdfrwt beam="1">  1        1 0.99937253E-01 0.20544580E+04</pdfrwt>
<pdfrwt beam="2">  1       -1 0.24990814E+00 0.20544580E+04</pdfrwt>
<totfact> 0.19650578E+00</totfact>
</mgrwt>
</event>
<event>
12    2  0.3751044E-008  0.1850474E+04  0.7818608E-02  0.8679909E-01
         -2   -1    0    0    0  501 -0.00000000000E+00  0.00000000000E+00  0.12872772401E+04  0.12872772401E+04  0.00000000000E+00 0.  1.
          2   -1    0    0  501    0  0.00000000000E+00 -0.00000000000E+00 -0.66501876741E+03  0.66501876741E+03  0.00000000000E+00 0. -1.
         23    2    1    2    0    0 -0.80143966991E+02 -0.63400220027E+03  0.47669275562E+03  0.80234744805E+03  0.90241890126E+02 0.  0.
        254    2    1    2    0    0  0.80143966991E+02  0.63400220027E+03  0.14556571705E+03  0.11499485594E+04  0.94488648313E+03 0.  0.
         23    2    4    4    0    0  0.39538250271E+03  0.37819397270E+02 -0.11207896959E+03  0.42270398363E+03  0.91429383107E+02 0.  0.
         23    2    4    4    0    0 -0.31523853572E+03  0.59618280300E+03  0.25764468664E+03  0.72724457582E+03  0.87718980297E+02 0.  0.
          2    1    3    3  502    0 -0.90990413012E+02 -0.61519500730E+03  0.47035854862E+03  0.77973156697E+03  0.00000000000E+00 0. -1.
         -2    1    3    3    0  502  0.10846446021E+02 -0.18807192968E+02  0.63342070059E+01  0.22615881079E+02  0.00000000000E+00 0.  1.
         11    1    5    5    0    0  0.37328346848E+03  0.20701644786E+02 -0.84193702082E+02  0.38322015266E+03  0.00000000000E+00 0.  1.
        -11    1    5    5    0    0  0.22099034230E+02  0.17117752483E+02 -0.27885267508E+02  0.39483830969E+02  0.00000000000E+00 0. -1.
          4    1    6    6  503    0 -0.49122158032E+02  0.17147950559E+03  0.55322831251E+02  0.18675872912E+03  0.00000000000E+00 0. -1.
         -4    1    6    6    0  503 -0.26611637769E+03  0.42470329741E+03  0.20232185539E+03  0.54048584669E+03  0.00000000000E+00 0.  1.
<mgrwt>
<rscale>  0 0.18504740E+04</rscale>
<asrwt>0</asrwt>
<pdfrwt beam="1">  1        2 0.10231058E+00 0.18504740E+04</pdfrwt>
<pdfrwt beam="2">  1       -2 0.19804265E+00 0.18504740E+04</pdfrwt>
<totfact> 0.56257774E+00</totfact>
</mgrwt>
</event>
<event>
12    2  0.3751044E-008  0.1783715E+04  0.7818608E-02  0.8715008E-01
          2   -1    0    0  501    0  0.00000000000E+00  0.00000000000E+00  0.13578267900E+04  0.13578267900E+04  0.00000000000E+00 0. -1.
         -2   -1    0    0    0  501 -0.00000000000E+00 -0.00000000000E+00 -0.58579641925E+03  0.58579641925E+03  0.00000000000E+00 0.  1.
         23    2    1    2    0    0 -0.65467478394E+02 -0.52173732137E+03  0.71510798982E+03  0.89199782503E+03  0.88231850910E+02 0.  0.
        254    2    1    2    0    0  0.65467478394E+02  0.52173732137E+03  0.56922380897E+02  0.10516253842E+04  0.90894442513E+03 0.  0.
         23    2    4    4    0    0 -0.23153186692E+03  0.64371297048E+03  0.15010636385E+03  0.70512782371E+03  0.81853121750E+02 0.  0.
         23    2    4    4    0    0  0.29699934531E+03 -0.12197564911E+03 -0.93183982956E+02  0.34649756047E+03  0.91052922208E+02 0.  0.
          3    1    3    3  502    0 -0.67445396147E+02 -0.51208286840E+03  0.67082190259E+03  0.84662847257E+03  0.00000000000E+00 0. -1.
         -3    1    3    3    0  502  0.19779177529E+01 -0.96544529768E+01  0.44286087228E+02  0.45369352463E+02  0.00000000000E+00 0.  1.
         11    1    5    5    0    0 -0.23162456038E+03  0.58086074747E+03  0.14590640345E+03  0.64213536228E+03  0.00000000000E+00 0. -1.
        -11    1    5    5    0    0  0.92693469671E-01  0.62852223013E+02  0.41999603990E+01  0.62992461431E+02  0.00000000000E+00 0.  1.
          3    1    6    6  503    0  0.22138338462E+03 -0.98966888655E+02 -0.10903810220E+03  0.26588410213E+03  0.00000000000E+00 0. -1.
         -3    1    6    6    0  503  0.75615960687E+02 -0.23008760456E+02  0.15854119239E+02  0.80613458338E+02  0.00000000000E+00 0.  1.
<mgrwt>
<rscale>  0 0.17837153E+04</rscale>
<asrwt>0</asrwt>
<pdfrwt beam="1">  1        2 0.20889643E+00 0.17837153E+04</pdfrwt>
<pdfrwt beam="2">  1       -2 0.90122526E-01 0.17837153E+04</pdfrwt>
<totfact> 0.15239973E+01</totfact>
</mgrwt>
</event>
<event>
12    2  0.3751044E-008  0.1510742E+04  0.7818608E-02  0.8877341E-01
         -1   -1    0    0    0  501 -0.00000000000E+00  0.00000000000E+00  0.33052616710E+03  0.33052616710E+03  0.00000000000E+00 0.  1.
          1   -1    0    0  501    0  0.00000000000E+00 -0.00000000000E+00 -0.17262946965E+04  0.17262946965E+04  0.00000000000E+00 0. -1.
         23    2    1    2    0    0  0.76819272745E+02  0.26895480895E+03 -0.99371745213E+03  0.10361298185E+04  0.88615665625E+02 0.  0.
        254    2    1    2    0    0 -0.76819272745E+02 -0.26895480895E+03 -0.40205107729E+03  0.10206910451E+04  0.89550390895E+03 0.  0.
         23    2    4    4    0    0  0.11657664616E+03 -0.10188848215E+03 -0.63636437850E+03  0.66152074659E+03  0.93159533706E+02 0.  0.
         23    2    4    4    0    0 -0.19339591890E+03 -0.16706632681E+03  0.23431330121E+03  0.35917029854E+03  0.93741352843E+02 0.  0.
          3    1    3    3  502    0  0.26780314820E+02  0.13727724263E+03 -0.64590371915E+03  0.66087354389E+03  0.00000000000E+00 0. -1.
         -3    1    3    3    0  502  0.50038957926E+02  0.13167756632E+03 -0.34781373299E+03  0.37525627461E+03  0.00000000000E+00 0.  1.
         11    1    5    5    0    0  0.16386033134E+02  0.51643626811E+01 -0.14130724528E+02  0.22245226442E+02  0.00000000000E+00 0.  1.
        -11    1    5    5    0    0  0.10019061302E+03 -0.10705284483E+03 -0.62223365397E+03  0.63927552015E+03  0.00000000000E+00 0. -1.
          3    1    6    6  503    0 -0.15868084757E+03 -0.78923825520E+02  0.16006289706E+03  0.23880685216E+03  0.00000000000E+00 0. -1.
         -3    1    6    6    0  503 -0.34715071327E+02 -0.88142501285E+02  0.74250404148E+02  0.12036344639E+03  0.00000000000E+00 0.  1.
<mgrwt>
<rscale>  0 0.15107423E+04</rscale>
<asrwt>0</asrwt>
<pdfrwt beam="1">  1        1 0.26558380E+00 0.15107423E+04</pdfrwt>
<pdfrwt beam="2">  1       -1 0.50850179E-01 0.15107423E+04</pdfrwt>
<totfact> 0.17180429E+01</totfact>
</mgrwt>
</event>
<event>
12    2  0.3751044E-008  0.1552642E+04  0.7818608E-02  0.8850182E-01
         -1   -1    0    0    0  501 -0.00000000000E+00  0.00000000000E+00  0.11722664595E+04  0.11722664595E+04  0.00000000000E+00 0.  1.
          1   -1    0    0  501    0  0.00000000000E+00 -0.00000000000E+00 -0.51411004108E+03  0.51411004108E+03  0.00000000000E+00 0. -1.
         23    2    1    2    0    0 -0.26158283513E+03 -0.25496075271E+03  0.61163867819E+03  0.71849680007E+03  0.93301736235E+02 0.  0.
        254    2    1    2    0    0  0.26158283513E+03  0.25496075271E+03  0.46517740266E+02  0.96787970056E+03  0.89509588846E+03 0.  0.
         23    2    4    4    0    0 -0.18063202010E+03 -0.22792950766E+03 -0.11933616775E+01  0.30379642710E+03  0.87812629255E+02 0.  0.
         23    2    4    4    0    0  0.44221485523E+03  0.48289026037E+03  0.47711101943E+02  0.66408327346E+03  0.99966309791E+02 0.  0.
          2    1    3    3  502    0 -0.26890050373E+03 -0.24102893115E+03  0.58167048432E+03  0.68464806936E+03  0.00000000000E+00 0.  1.
         -2    1    3    3    0  502  0.73176686040E+01 -0.13931821567E+02  0.29968193874E+02  0.33848730701E+02  0.00000000000E+00 0. -1.
         11    1    5    5    0    0 -0.31068956958E+02 -0.37340590155E+02 -0.34036552947E+02  0.59313461340E+02  0.00000000000E+00 0. -1.
        -11    1    5    5    0    0 -0.14956306315E+03 -0.19058891750E+03  0.32843191270E+02  0.24448296576E+03  0.00000000000E+00 0.  1.
          2    1    6    6  503    0  0.24097159377E+03  0.19717443795E+03  0.45023906717E+02  0.31459850629E+03  0.00000000000E+00 0. -1.
         -2    1    6    6    0  503  0.20124326146E+03  0.28571582242E+03  0.26871952266E+01  0.34948476717E+03  0.00000000000E+00 0.  1.
<mgrwt>
<rscale>  0 0.15526416E+04</rscale>
<asrwt>0</asrwt>
<pdfrwt beam="1">  1        1 0.79093853E-01 0.15526416E+04</pdfrwt>
<pdfrwt beam="2">  1       -1 0.18034869E+00 0.15526416E+04</pdfrwt>
<totfact> 0.84978459E+00</totfact>
</mgrwt>
</event>
<event>
12    2  0.3751044E-008  0.1617753E+04  0.7818608E-02  0.8809715E-01
         -3   -1    0    0    0  501 -0.00000000000E+00  0.00000000000E+00  0.58936021388E+03  0.58936021388E+03  0.00000000000E+00 0.  1.
          3   -1    0    0  501    0  0.00000000000E+00 -0.00000000000E+00 -0.11101549247E+04  0.11101549247E+04  0.00000000000E+00 0. -1.
         23    2    1    2    0    0 -0.32174533435E+02 -0.51729349370E+03 -0.38316089329E+03  0.65170582318E+03  0.96335095307E+02 0.  0.
        254    2    1    2    0    0  0.32174533435E+02  0.51729349370E+03 -0.13763381755E+03  0.10478093154E+04  0.90018527787E+03 0.  0.
         23    2    4    4    0    0 -0.23590775368E+03 -0.12745768286E+03 -0.18933972717E+03  0.34181734433E+03  0.95350067789E+02 0.  0.
         23    2    4    4    0    0  0.26808228712E+03  0.64475117657E+03  0.51705909624E+02  0.70599197109E+03  0.90437656966E+02 0.  0.
          2    1    3    3  502    0 -0.38547376557E+02 -0.51301853754E+03 -0.38636399269E+03  0.64339028198E+03  0.00000000000E+00 0. -1.
         -2    1    3    3    0  502  0.63728431217E+01 -0.42749561657E+01  0.32030994004E+01  0.83155411996E+01  0.00000000000E+00 0.  1.
         11    1    5    5    0    0  0.79978841445E+00  0.62193715332E+01  0.46895917931E+01  0.78302308371E+01  0.00000000000E+00 0. -1.
        -11    1    5    5    0    0 -0.23670754210E+03 -0.13367705440E+03 -0.19402931897E+03  0.33398711349E+03  0.00000000000E+00 0.  1.
          1    1    6    6  503    0  0.11345086455E+02  0.38214162329E+02 -0.17882794611E+02  0.43690130834E+02  0.00000000000E+00 0. -1.
         -1    1    6    6    0  503  0.25673720066E+03  0.60653701424E+03  0.69588704235E+02  0.66230184025E+03  0.00000000000E+00 0.  1.
<mgrwt>
<rscale>  0 0.16177529E+04</rscale>
<asrwt>0</asrwt>
<pdfrwt beam="1">  1        3 0.17079306E+00 0.16177529E+04</pdfrwt>
<pdfrwt beam="2">  1       -3 0.90670803E-01 0.16177529E+04</pdfrwt>
<totfact> 0.63019037E-01</totfact>
</mgrwt>
</event>
<event>
12    2  0.3751044E-008  0.2078414E+04  0.7818608E-02  0.8570812E-01
          2   -1    0    0  501    0  0.00000000000E+00  0.00000000000E+00  0.18351741706E+04  0.18351741706E+04  0.00000000000E+00 0. -1.
         -2   -1    0    0    0  501 -0.00000000000E+00 -0.00000000000E+00 -0.58847351128E+03  0.58847351128E+03  0.00000000000E+00 0.  1.
         23    2    1    2    0    0 -0.37381223629E+03  0.22006815469E+03 -0.33256839057E+03  0.55407606700E+03  0.90735731201E+02 0.  0.
        254    2    1    2    0    0  0.37381223629E+03 -0.22006815469E+03  0.15792690499E+04  0.18695716149E+04  0.90168825573E+03 0.  0.
         23    2    4    4    0    0  0.12597392118E+03 -0.55148224286E+03  0.98510961537E+03  0.11396517084E+04  0.91449271247E+02 0.  0.
         23    2    4    4    0    0  0.24783831511E+03  0.33141408817E+03  0.59415943455E+03  0.72991990648E+03  0.92187352389E+02 0.  0.
          1    1    3    3  502    0 -0.83311877258E+02  0.61000354453E+02 -0.35558578465E+02  0.10920771327E+03  0.00000000000E+00 0. -1.
         -1    1    3    3    0  502 -0.29050035903E+03  0.15906780023E+03 -0.29700981210E+03  0.44486835373E+03  0.00000000000E+00 0.  1.
         11    1    5    5    0    0  0.48917805360E+01 -0.79220621886E+02  0.20377460677E+03  0.21868682359E+03  0.00000000000E+00 0.  1.
        -11    1    5    5    0    0  0.12108214064E+03 -0.47226162097E+03  0.78133500860E+03  0.92096488483E+03  0.00000000000E+00 0. -1.
          2    1    6    6  503    0  0.94857083091E+02  0.15697359245E+03  0.33615398808E+03  0.38293351726E+03  0.00000000000E+00 0. -1.
         -2    1    6    6    0  503  0.15298123202E+03  0.17444049572E+03  0.25800544647E+03  0.34698638922E+03  0.00000000000E+00 0.  1.
<mgrwt>
<rscale>  0 0.20784142E+04</rscale>
<asrwt>0</asrwt>
<pdfrwt beam="1">  1        2 0.28233448E+00 0.20784142E+04</pdfrwt>
<pdfrwt beam="2">  1       -2 0.90534387E-01 0.20784142E+04</pdfrwt>
<totfact> 0.79385617E+00</totfact>
</mgrwt>
</event>
<event>
12    2  0.3751044E-008  0.2959063E+04  0.7818608E-02  0.8255518E-01
         -1   -1    0    0    0  501 -0.00000000000E+00  0.00000000000E+00  0.11523979182E+04  0.11523979182E+04  0.00000000000E+00 0.  1.
          1   -1    0    0  501    0  0.00000000000E+00 -0.00000000000E+00 -0.18995290811E+04  0.18995290811E+04  0.00000000000E+00 0. -1.
         23    2    1    2    0    0  0.12982949171E+02  0.78801872804E+03  0.77521784893E+03  0.11092074408E+04  0.90754398113E+02 0.  0.
        254    2    1    2    0    0 -0.12982949171E+02 -0.78801872804E+03 -0.15223490118E+04  0.19427195584E+04  0.91404086131E+03 0.  0.
         23    2    4    4    0    0  0.30347405071E+03 -0.76063292739E+03 -0.80273373672E+03  0.11504892850E+04  0.92656317037E+02 0.  0.
         23    2    4    4    0    0 -0.31645699988E+03 -0.27385800643E+02 -0.71961527510E+03  0.79223027343E+03  0.94274318576E+02 0.  0.
          3    1    3    3  502    0  0.22342354922E+02  0.26650796387E+03  0.20950542064E+03  0.33973253731E+03  0.00000000000E+00 0. -1.
         -3    1    3    3    0  502 -0.93594057505E+01  0.52151076417E+03  0.56571242829E+03  0.76947490351E+03  0.00000000000E+00 0.  1.
         11    1    5    5    0    0  0.60290807070E+02 -0.23053197097E+03 -0.19200405736E+03  0.30601557003E+03  0.00000000000E+00 0.  1.
        -11    1    5    5    0    0  0.24318324364E+03 -0.53010095642E+03 -0.61072967936E+03  0.84447371495E+03  0.00000000000E+00 0. -1.
          4    1    6    6  503    0 -0.16453959446E+03  0.24356033279E+02 -0.43122909051E+03  0.46219587082E+03  0.00000000000E+00 0.  1.
         -4    1    6    6    0  503 -0.15191740542E+03 -0.51741833922E+02 -0.28838618459E+03  0.33003440261E+03  0.00000000000E+00 0. -1.
<mgrwt>
<rscale>  0 0.29590629E+04</rscale>
<asrwt>0</asrwt>
<pdfrwt beam="1">  1        1 0.29223524E+00 0.29590629E+04</pdfrwt>
<pdfrwt beam="2">  1       -1 0.17729199E+00 0.29590629E+04</pdfrwt>
<totfact> 0.64822254E-01</totfact>
</mgrwt>
</event>
<event>
12    2  0.3751044E-008  0.1637657E+04  0.7818608E-02  0.8797742E-01
          2   -1    0    0  501    0  0.00000000000E+00  0.00000000000E+00  0.26082271961E+04  0.26082271961E+04  0.00000000000E+00 0.  1.
         -2   -1    0    0    0  501 -0.00000000000E+00 -0.00000000000E+00 -0.25706352372E+03  0.25706352372E+03  0.00000000000E+00 0. -1.
         23    2    1    2    0    0 -0.29642510786E+02  0.55838418529E+03  0.96551710550E+03  0.11195324352E+04  0.91967470305E+02 0.  0.
        254    2    1    2    0    0  0.29642510786E+02 -0.55838418529E+03  0.13856465668E+04  0.17457582846E+04  0.90276464440E+03 0.  0.
         23    2    4    4    0    0 -0.24045501416E+03  0.14995280843E+03  0.43092178477E+03  0.52332713333E+03  0.88731309590E+02 0.  0.
         23    2    4    4    0    0  0.27009752494E+03 -0.70833699372E+03  0.95472478207E+03  0.12224311513E+04  0.90247107472E+02 0.  0.
          4    1    3    3  502    0 -0.46224417161E+00 -0.16849338755E+00 -0.19570037075E+01  0.20179006931E+01  0.00000000000E+00 0. -1.
         -4    1    3    3    0  502 -0.29180266614E+02  0.55855267868E+03  0.96747410921E+03  0.11175145345E+04  0.00000000000E+00 0.  1.
         11    1    5    5    0    0 -0.73079851589E+00  0.11349272499E+02  0.56502996157E+02  0.57636174643E+02  0.00000000000E+00 0. -1.
        -11    1    5    5    0    0 -0.23972421564E+03  0.13860353593E+03  0.37441878861E+03  0.46569095869E+03  0.00000000000E+00 0.  1.
          1    1    6    6  503    0  0.67889006749E+02 -0.10805808972E+03  0.19837791652E+03  0.23587976970E+03  0.00000000000E+00 0. -1.
         -1    1    6    6    0  503  0.20220851820E+03 -0.60027890400E+03  0.75634686555E+03  0.98655138155E+03  0.00000000000E+00 0.  1.
<mgrwt>
<rscale>  0 0.16376570E+04</rscale>
<asrwt>0</asrwt>
<pdfrwt beam="1">  1        2 0.40126570E+00 0.16376570E+04</pdfrwt>
<pdfrwt beam="2">  1       -2 0.39548236E-01 0.16376570E+04</pdfrwt>
<totfact> 0.17446482E+01</totfact>
</mgrwt>
</event>
<event>
12    2  0.3751044E-008  0.3260693E+04  0.7818608E-02  0.8172970E-01
         -1   -1    0    0    0  501 -0.00000000000E+00  0.00000000000E+00  0.12192104644E+04  0.12192104644E+04  0.00000000000E+00 0.  1.
          1   -1    0    0  501    0  0.00000000000E+00 -0.00000000000E+00 -0.21801241523E+04  0.21801241523E+04  0.00000000000E+00 0. -1.
         23    2    1    2    0    0  0.12855032225E+03 -0.71347370817E+03 -0.18172555582E+04  0.19586542121E+04  0.91316159548E+02 0.  0.
        254    2    1    2    0    0 -0.12855032225E+03  0.71347370817E+03  0.85634187027E+03  0.14406804046E+04  0.90369724567E+03 0.  0.
         23    2    4    4    0    0 -0.31365260727E+03 -0.78104071645E+02  0.19352786947E+03  0.38783366312E+03  0.92107056908E+02 0.  0.
         23    2    4    4    0    0  0.18510228503E+03  0.79157777981E+03  0.66281400080E+03  0.10528467415E+04  0.91135196114E+02 0.  0.
          3    1    3    3  502    0  0.10540903997E+03 -0.68849040899E+03 -0.17398662268E+04  0.18741036781E+04  0.00000000000E+00 0. -1.
         -3    1    3    3    0  502  0.23141282282E+02 -0.24983299177E+02 -0.77389331428E+02  0.84550534016E+02  0.00000000000E+00 0.  1.
         11    1    5    5    0    0 -0.17221221326E+03  0.12496564202E+01  0.80161588084E+02  0.18995917520E+03  0.00000000000E+00 0. -1.
        -11    1    5    5    0    0 -0.14144039401E+03 -0.79353728065E+02  0.11336628139E+03  0.19787448792E+03  0.00000000000E+00 0.  1.
          2    1    6    6  503    0  0.11585989743E+03  0.33559578118E+03  0.25404547668E+03  0.43656288024E+03  0.00000000000E+00 0. -1.
         -2    1    6    6    0  503  0.69242387595E+02  0.45598199863E+03  0.40876852412E+03  0.61628386124E+03  0.00000000000E+00 0.  1.
<mgrwt>
<rscale>  0 0.32606933E+04</rscale>
<asrwt>0</asrwt>
<pdfrwt beam="1">  1        1 0.33540371E+00 0.32606933E+04</pdfrwt>
<pdfrwt beam="2">  1       -1 0.18757084E+00 0.32606933E+04</pdfrwt>
<totfact> 0.34384723E-01</totfact>
</mgrwt>
</event>
<event>
12    2  0.3751044E-008  0.1620299E+04  0.7818608E-02  0.8808174E-01
          2   -1    0    0  501    0  0.00000000000E+00  0.00000000000E+00  0.24433111994E+04  0.24433111994E+04  0.00000000000E+00 0. -1.
         -2   -1    0    0    0  501 -0.00000000000E+00 -0.00000000000E+00 -0.26862813663E+03  0.26862813663E+03  0.00000000000E+00 0.  1.
         23    2    1    2    0    0 -0.25339225129E+03 -0.31387157159E+03  0.10491864851E+03  0.42937289392E+03  0.10310268066E+03 0.  0.
        254    2    1    2    0    0  0.25339225129E+03  0.31387157159E+03  0.20697644143E+04  0.22825664421E+04  0.87376303176E+03 0.  0.
         23    2    4    4    0    0 -0.12290299924E+03  0.39207455275E+03  0.16636150120E+04  0.17163764871E+04  0.97497359597E+02 0.  0.
         23    2    4    4    0    0  0.37629525053E+03 -0.78202981160E+02  0.40614940233E+03  0.56618995509E+03  0.88881417647E+02 0.  0.
          4    1    3    3  502    0 -0.16193447108E+03 -0.19353038417E+03  0.11618033887E+03  0.27780326431E+03  0.00000000000E+00 0.  1.
         -4    1    3    3    0  502 -0.91457780217E+02 -0.12034118742E+03 -0.11261690356E+02  0.15156962961E+03  0.00000000000E+00 0. -1.
         11    1    5    5    0    0 -0.29614167289E+02  0.18818108812E+02  0.19909473922E+03  0.20216289301E+03  0.00000000000E+00 0. -1.
        -11    1    5    5    0    0 -0.93288831949E+02  0.37325644394E+03  0.14645202727E+04  0.15142135940E+04  0.00000000000E+00 0.  1.
          1    1    6    6  503    0  0.69207567424E+02 -0.21938225907E+02  0.33247375197E+02  0.79852120211E+02  0.00000000000E+00 0. -1.
         -1    1    6    6    0  503  0.30708768311E+03 -0.56264755253E+02  0.37290202713E+03  0.48633783488E+03  0.00000000000E+00 0.  1.
<mgrwt>
<rscale>  0 0.16202989E+04</rscale>
<asrwt>0</asrwt>
<pdfrwt beam="1">  1        2 0.37589401E+00 0.16202989E+04</pdfrwt>
<pdfrwt beam="2">  1       -2 0.41327407E-01 0.16202989E+04</pdfrwt>
<totfact> 0.19970292E+01</totfact>
</mgrwt>
</event>
<event>
12    2  0.3751044E-008  0.1544592E+04  0.7818608E-02  0.8855329E-01
         -2   -1    0    0    0  501 -0.00000000000E+00  0.00000000000E+00  0.24197989334E+03  0.24197989334E+03  0.00000000000E+00 0.  1.
          2   -1    0    0  501    0  0.00000000000E+00 -0.00000000000E+00 -0.24648389915E+04  0.24648389915E+04  0.00000000000E+00 0. -1.
         23    2    1    2    0    0  0.32191042213E+03 -0.30659513835E+03 -0.30679448888E+03  0.54788148765E+03  0.91784352538E+02 0.  0.
        254    2    1    2    0    0 -0.32191042213E+03  0.30659513835E+03 -0.19160646093E+04  0.21589373972E+04  0.88998887596E+03 0.  0.
         23    2    4    4    0    0  0.63990206313E+01 -0.17766846196E+03 -0.12562665594E+04  0.12722262837E+04  0.93525497040E+02 0.  0.
         23    2    4    4    0    0 -0.32830944276E+03  0.48426360031E+03 -0.65979804987E+03  0.88671111357E+03  0.92869841872E+02 0.  0.
          1    1    3    3  502    0  0.82655203473E+02 -0.57483693558E+02 -0.29401138576E+02  0.10488414864E+03  0.00000000000E+00 0. -1.
         -1    1    3    3    0  502  0.23925521865E+03 -0.24911144479E+03 -0.27739335030E+03  0.44299733901E+03  0.00000000000E+00 0.  1.
         11    1    5    5    0    0  0.40929994410E+02 -0.15301295739E+03 -0.97784494442E+03  0.99059021037E+03  0.00000000000E+00 0. -1.
        -11    1    5    5    0    0 -0.34530973778E+02 -0.24655504571E+02 -0.27842161503E+03  0.28163607328E+03  0.00000000000E+00 0.  1.
          2    1    6    6  503    0 -0.12635597764E+03  0.16009985588E+03 -0.16937354444E+03  0.26511355019E+03  0.00000000000E+00 0.  1.
         -2    1    6    6    0  503 -0.20195346512E+03  0.32416374443E+03 -0.49042450542E+03  0.62159756338E+03  0.00000000000E+00 0. -1.
<mgrwt>
<rscale>  0 0.15445925E+04</rscale>
<asrwt>0</asrwt>
<pdfrwt beam="1">  1        2 0.37920600E+00 0.15445925E+04</pdfrwt>
<pdfrwt beam="2">  1       -2 0.37227676E-01 0.15445925E+04</pdfrwt>
<totfact> 0.23951537E+01</totfact>
</mgrwt>
</event>
<event>
12    2  0.3751044E-008  0.1906027E+04  0.7818608E-02  0.8651862E-01
         -2   -1    0    0    0  501 -0.00000000000E+00  0.00000000000E+00  0.55215148401E+03  0.55215148401E+03  0.00000000000E+00 0. -1.
          2   -1    0    0  501    0  0.00000000000E+00 -0.00000000000E+00 -0.16449022052E+04  0.16449022052E+04  0.00000000000E+00 0.  1.
         23    2    1    2    0    0  0.51571851721E+02  0.17354257347E+03 -0.12401639959E+04  0.12566424236E+04  0.91470013882E+02 0.  0.
        254    2    1    2    0    0 -0.51571851721E+02 -0.17354257347E+03  0.14741327471E+03  0.94041126557E+03  0.91096980969E+03 0.  0.
         23    2    4    4    0    0 -0.77717479094E+02  0.33449844051E+03 -0.95409507603E+02  0.36908836592E+03  0.95885527867E+02 0.  0.
         23    2    4    4    0    0  0.26145627373E+02 -0.50804101398E+03  0.24282278231E+03  0.57132289966E+03  0.93046689080E+02 0.  0.
          1    1    3    3  502    0 -0.26008263754E+02  0.32896371327E+02 -0.28445968559E+03  0.28753419580E+03  0.00000000000E+00 0. -1.
         -1    1    3    3    0  502  0.77580115475E+02  0.14064620214E+03 -0.95570431026E+03  0.96910822778E+03  0.00000000000E+00 0.  1.
         11    1    5    5    0    0 -0.50395780624E+02  0.27340287141E+03 -0.37385685471E+02  0.28051123735E+03  0.00000000000E+00 0. -1.
        -11    1    5    5    0    0 -0.27321698470E+02  0.61095569099E+02 -0.58023822132E+02  0.88577128569E+02  0.00000000000E+00 0.  1.
          4    1    6    6  503    0 -0.22147630031E+02 -0.32993433491E+03  0.13189130858E+03  0.35600912930E+03  0.00000000000E+00 0. -1.
         -4    1    6    6    0  503  0.48293257403E+02 -0.17810667906E+03  0.11093147374E+03  0.21531377035E+03  0.00000000000E+00 0.  1.
<mgrwt>
<rscale>  0 0.19060275E+04</rscale>
<asrwt>0</asrwt>
<pdfrwt beam="1">  1        2 0.25306188E+00 0.19060275E+04</pdfrwt>
<pdfrwt beam="2">  1       -2 0.84946383E-01 0.19060275E+04</pdfrwt>
<totfact> 0.11888914E+01</totfact>
</mgrwt>
</event>
<event>
12    2  0.3751044E-008  0.3519040E+04  0.7818608E-02  0.8109293E-01
         -2   -1    0    0    0  501 -0.00000000000E+00  0.00000000000E+00  0.80712175722E+03  0.80712175722E+03  0.00000000000E+00 0.  1.
          2   -1    0    0  501    0  0.00000000000E+00 -0.00000000000E+00 -0.38357407951E+04  0.38357407951E+04  0.00000000000E+00 0. -1.
         23    2    1    2    0    0  0.15999200249E+04 -0.14630159187E+02 -0.19284701740E+04  0.25085812351E+04  0.11842497119E+03 0.  0.
        254    2    1    2    0    0 -0.15999200249E+04  0.14630159187E+02 -0.11001488639E+04  0.21342813172E+04  0.88592950648E+03 0.  0.
         23    2    4    4    0    0 -0.78948595723E+03  0.39689164670E+03 -0.32463130281E+03  0.94566654711E+03  0.89937087339E+02 0.  0.
         23    2    4    4    0    0 -0.81043406767E+03 -0.38226148751E+03 -0.77551756110E+03  0.11886147701E+04  0.91925846066E+02 0.  0.
          3    1    3    3  502    0  0.15203361888E+04 -0.19876781645E+02 -0.18675046776E+04  0.24081924620E+04  0.00000000000E+00 0. -1.
         -3    1    3    3    0  502  0.79583836140E+02  0.52466224580E+01 -0.60965496403E+02  0.10038877315E+03  0.00000000000E+00 0.  1.
         11    1    5    5    0    0 -0.48233865113E+03  0.22522574402E+03 -0.23905679404E+03  0.58354550887E+03  0.00000000000E+00 0. -1.
        -11    1    5    5    0    0 -0.30714730611E+03  0.17166590268E+03 -0.85574508768E+02  0.36212103825E+03  0.00000000000E+00 0.  1.
          1    1    6    6  503    0 -0.49436177673E+03 -0.28011148389E+03 -0.50623450689E+03  0.76100550961E+03  0.00000000000E+00 0. -1.
         -1    1    6    6    0  503 -0.31607229094E+03 -0.10215000362E+03 -0.26928305421E+03  0.42760926045E+03  0.00000000000E+00 0.  1.
<mgrwt>
<rscale>  0 0.35190396E+04</rscale>
<asrwt>0</asrwt>
<pdfrwt beam="1">  1        2 0.59011395E+00 0.35190396E+04</pdfrwt>
<pdfrwt beam="2">  1       -2 0.12417258E+00 0.35190396E+04</pdfrwt>
<totfact> 0.18402839E-01</totfact>
</mgrwt>
</event>
<event>
12    2  0.3751044E-008  0.1842723E+04  0.7818608E-02  0.8683904E-01
         -1   -1    0    0    0  501 -0.00000000000E+00  0.00000000000E+00  0.56307304275E+03  0.56307304275E+03  0.00000000000E+00 0.  1.
          1   -1    0    0  501    0  0.00000000000E+00 -0.00000000000E+00 -0.15076322070E+04  0.15076322070E+04  0.00000000000E+00 0. -1.
         23    2    1    2    0    0  0.26547601444E+03  0.46860763026E+03  0.14102005194E+03  0.56421947989E+03  0.91576967957E+02 0.  0.
        254    2    1    2    0    0 -0.26547601444E+03 -0.46860763026E+03 -0.10855792162E+04  0.15064857699E+04  0.89495615246E+03 0.  0.
         23    2    4    4    0    0 -0.44657484654E+03  0.20896705574E+02 -0.75396627239E+03  0.88139396212E+03  0.92327735206E+02 0.  0.
         23    2    4    4    0    0  0.18109883209E+03 -0.48950433583E+03 -0.33161294382E+03  0.62509180777E+03  0.91440373196E+02 0.  0.
          4    1    3    3  502    0  0.15656302754E+03  0.20448028195E+03  0.37040477790E+02  0.26018486561E+03  0.00000000000E+00 0. -1.
         -4    1    3    3    0  502  0.10891298690E+03  0.26412734831E+03  0.10397957415E+03  0.30403461428E+03  0.00000000000E+00 0.  1.
         11    1    5    5    0    0 -0.21931132234E+03 -0.33057976836E+02 -0.33631195488E+03  0.40285979811E+03  0.00000000000E+00 0.  1.
        -11    1    5    5    0    0 -0.22726352420E+03  0.53954682410E+02 -0.41765431751E+03  0.47853416400E+03  0.00000000000E+00 0. -1.
          4    1    6    6  503    0  0.10374874834E+03 -0.28563017849E+03 -0.13908241987E+03  0.33420401129E+03  0.00000000000E+00 0. -1.
         -4    1    6    6    0  503  0.77350083752E+02 -0.20387415734E+03 -0.19253052395E+03  0.29088779648E+03  0.00000000000E+00 0.  1.
<mgrwt>
<rscale>  0 0.18427230E+04</rscale>
<asrwt>0</asrwt>
<pdfrwt beam="1">  1        1 0.23194342E+00 0.18427230E+04</pdfrwt>
<pdfrwt beam="2">  1       -1 0.86626621E-01 0.18427230E+04</pdfrwt>
<totfact> 0.79814445E+00</totfact>
</mgrwt>
</event>
<event>
12    2  0.3751044E-008  0.1846434E+04  0.7818608E-02  0.8681989E-01
         -1   -1    0    0    0  501 -0.00000000000E+00  0.00000000000E+00  0.25729696759E+03  0.25729696759E+03  0.00000000000E+00 0.  1.
          1   -1    0    0  501    0  0.00000000000E+00 -0.00000000000E+00 -0.33126304540E+04  0.33126304540E+04  0.00000000000E+00 0. -1.
         23    2    1    2    0    0 -0.95519582555E+02  0.38687251236E+03 -0.56589682413E+02  0.41312619501E+03  0.93147889810E+02 0.  0.
        254    2    1    2    0    0  0.95519582555E+02 -0.38687251236E+03 -0.29987438040E+04  0.31568012265E+04  0.90229443675E+03 0.  0.
         23    2    4    4    0    0  0.72081366170E+02 -0.72910878397E+02 -0.27310390714E+04  0.27344775668E+04  0.91002387825E+02 0.  0.
         23    2    4    4    0    0  0.23438216385E+02 -0.31396163397E+03 -0.26770473261E+03  0.42232365973E+03  0.87006850951E+02 0.  0.
          1    1    3    3  502    0  0.14606051130E+02  0.14626707454E+02 -0.67551985111E+01  0.21746494143E+02  0.00000000000E+00 0. -1.
         -1    1    3    3    0  502 -0.11012563369E+03  0.37224580491E+03 -0.49834483902E+02  0.39137970087E+03  0.00000000000E+00 0.  1.
         11    1    5    5    0    0  0.50351787724E+02 -0.26544937453E+02 -0.22501843520E+04  0.22509041637E+04  0.00000000000E+00 0. -1.
        -11    1    5    5    0    0  0.21729578446E+02 -0.46365940944E+02 -0.48085471937E+03  0.48357340312E+03  0.00000000000E+00 0.  1.
          1    1    6    6  503    0  0.12640578006E+02 -0.31282476860E+03 -0.26695327766E+03  0.41144036326E+03  0.00000000000E+00 0. -1.
         -1    1    6    6    0  503  0.10797638379E+02 -0.11368653630E+01 -0.75145494577E+00  0.10883296466E+02  0.00000000000E+00 0.  1.
<mgrwt>
<rscale>  0 0.18464342E+04</rscale>
<asrwt>0</asrwt>
<pdfrwt beam="1">  1        1 0.50963546E+00 0.18464342E+04</pdfrwt>
<pdfrwt beam="2">  1       -1 0.39584148E-01 0.18464342E+04</pdfrwt>
<totfact> 0.20476406E+00</totfact>
</mgrwt>
</event>
<event>
12    2  0.3751044E-008  0.1216443E+04  0.7818608E-02  0.9098585E-01
          2   -1    0    0  501    0  0.00000000000E+00  0.00000000000E+00  0.60877228278E+03  0.60877228278E+03  0.00000000000E+00 0. -1.
         -2   -1    0    0    0  501 -0.00000000000E+00 -0.00000000000E+00 -0.60767086705E+03  0.60767086705E+03  0.00000000000E+00 0.  1.
         23    2    1    2    0    0  0.17385715202E+03  0.40221849162E+02 -0.20157854623E+03  0.28386565559E+03  0.90009408768E+02 0.  0.
        254    2    1    2    0    0 -0.17385715202E+03 -0.40221849162E+02  0.20267996195E+03  0.93257749424E+03  0.89262394620E+03 0.  0.
         23    2    4    4    0    0  0.15628513705E+02  0.35085593741E+03  0.30754956717E+03  0.47583882520E+03  0.92150485908E+02 0.  0.
         23    2    4    4    0    0 -0.18948566572E+03 -0.39107778657E+03 -0.10486960521E+03  0.45673866904E+03  0.93626518864E+02 0.  0.
          1    1    3    3  502    0 -0.10143242876E+02 -0.32602234910E+01 -0.84717766307E+01  0.13611959173E+02  0.00000000000E+00 0. -1.
         -1    1    3    3    0  502  0.18400039489E+03  0.43482072653E+02 -0.19310676960E+03  0.27025369642E+03  0.00000000000E+00 0.  1.
         11    1    5    5    0    0 -0.18760120089E+02  0.22565423337E+03  0.14967010948E+03  0.27142755353E+03  0.00000000000E+00 0. -1.
        -11    1    5    5    0    0  0.34388633794E+02  0.12520170404E+03  0.15787945768E+03  0.20441127167E+03  0.00000000000E+00 0.  1.
          2    1    6    6  503    0 -0.82883093907E+02 -0.16923194203E+03  0.19019215799E+01  0.18844806915E+03  0.00000000000E+00 0. -1.
         -2    1    6    6    0  503 -0.10660257181E+03 -0.22184584454E+03 -0.10677152679E+03  0.26829059989E+03  0.00000000000E+00 0.  1.
<mgrwt>
<rscale>  0 0.12164427E+04</rscale>
<asrwt>0</asrwt>
<pdfrwt beam="1">  1        2 0.93657274E-01 0.12164427E+04</pdfrwt>
<pdfrwt beam="2">  1       -2 0.93487826E-01 0.12164427E+04</pdfrwt>
<totfact> 0.46492631E+01</totfact>
</mgrwt>
</event>
<event>
12    2  0.3751044E-008  0.3057048E+04  0.7818608E-02  0.8227625E-01
          2   -1    0    0  501    0  0.00000000000E+00  0.00000000000E+00  0.17836515832E+04  0.17836515832E+04  0.00000000000E+00 0. -1.
         -2   -1    0    0    0  501 -0.00000000000E+00 -0.00000000000E+00 -0.13098893727E+04  0.13098893727E+04  0.00000000000E+00 0.  1.
         23    2    1    2    0    0 -0.70826749878E+03  0.11646737895E+04 -0.10371768103E+03  0.13700298124E+04  0.90091307587E+02 0.  0.
        254    2    1    2    0    0  0.70826749878E+03 -0.11646737895E+04  0.57747989158E+03  0.17235111434E+04  0.88255297322E+03 0.  0.
         23    2    4    4    0    0  0.82177426196E+03 -0.55360148882E+03  0.36700348908E+03  0.10610596186E+04  0.96790532932E+02 0.  0.
         23    2    4    4    0    0 -0.11350676318E+03 -0.61107230072E+03  0.21047640250E+03  0.66245152481E+03  0.90821609340E+02 0.  0.
          3    1    3    3  502    0 -0.56426352890E+03  0.92815097912E+03 -0.46119718566E+02  0.10871911509E+04  0.00000000000E+00 0. -1.
         -3    1    3    3    0  502 -0.14400396988E+03  0.23652281042E+03 -0.57597962462E+02  0.28283866156E+03  0.00000000000E+00 0.  1.
         11    1    5    5    0    0  0.12723784654E+03 -0.13012668190E+03  0.73381578010E+02  0.19623271624E+03  0.00000000000E+00 0. -1.
        -11    1    5    5    0    0  0.69453641542E+03 -0.42347480692E+03  0.29362191107E+03  0.86482690240E+03  0.00000000000E+00 0.  1.
          3    1    6    6  503    0  0.74625485971E+01 -0.10822866306E+03  0.59223443250E+02  0.12359833886E+03  0.00000000000E+00 0. -1.
         -3    1    6    6    0  503 -0.12096931177E+03 -0.50284363766E+03  0.15125295925E+03  0.53885318595E+03  0.00000000000E+00 0.  1.
<mgrwt>
<rscale>  0 0.30570484E+04</rscale>
<asrwt>0</asrwt>
<pdfrwt beam="1">  1        2 0.27440793E+00 0.30570484E+04</pdfrwt>
<pdfrwt beam="2">  1       -2 0.20152144E+00 0.30570484E+04</pdfrwt>
<totfact> 0.97587282E-01</totfact>
</mgrwt>
</event>
<event>
12    2  0.3751044E-008  0.1940134E+04  0.7818608E-02  0.8635133E-01
         -2   -1    0    0    0  501 -0.00000000000E+00  0.00000000000E+00  0.33312583304E+03  0.33312583304E+03  0.00000000000E+00 0. -1.
          2   -1    0    0  501    0  0.00000000000E+00 -0.00000000000E+00 -0.28248489403E+04  0.28248489403E+04  0.00000000000E+00 0.  1.
         23    2    1    2    0    0  0.57744494626E+02  0.74906513747E+03 -0.86683827384E+03  0.11504179217E+04  0.87291436292E+02 0.  0.
        254    2    1    2    0    0 -0.57744494626E+02 -0.74906513747E+03 -0.16248848334E+04  0.20075568516E+04  0.90862576655E+03 0.  0.
         23    2    4    4    0    0  0.84973086532E+02 -0.11574126442E+03  0.74848208945E+02  0.18572338945E+03  0.90964043892E+02 0.  0.
         23    2    4    4    0    0 -0.14271758116E+03 -0.63332387304E+03 -0.16997330424E+04  0.18218334621E+04  0.92289285985E+02 0.  0.
          4    1    3    3  502    0 -0.13444217072E+02  0.41850031242E+02 -0.34473825941E+02  0.55862480813E+02  0.00000000000E+00 0. -1.
         -4    1    3    3    0  502  0.71188711698E+02  0.70721510623E+03 -0.83236444789E+03  0.10945554409E+04  0.00000000000E+00 0.  1.
         11    1    5    5    0    0  0.42171367678E+02 -0.58399225888E+02  0.87205647058E+02  0.11310932196E+03  0.00000000000E+00 0.  1.
        -11    1    5    5    0    0  0.42801718854E+02 -0.57342038536E+02 -0.12357438112E+02  0.72614067487E+02  0.00000000000E+00 0. -1.
          3    1    6    6  503    0 -0.67034560611E+01 -0.25846055213E+02 -0.13880299700E+03  0.14134789305E+03  0.00000000000E+00 0. -1.
         -3    1    6    6    0  503 -0.13601412510E+03 -0.60747781783E+03 -0.15609300454E+04  0.16804855691E+04  0.00000000000E+00 0.  1.
<mgrwt>
<rscale>  0 0.19401342E+04</rscale>
<asrwt>0</asrwt>
<pdfrwt beam="1">  1        2 0.43459213E+00 0.19401342E+04</pdfrwt>
<pdfrwt beam="2">  1       -2 0.51250130E-01 0.19401342E+04</pdfrwt>
<totfact> 0.75156847E+00</totfact>
</mgrwt>
</event>
<event>
12    2  0.3751044E-008  0.1982770E+04  0.7818608E-02  0.8614719E-01
         -2   -1    0    0    0  501 -0.00000000000E+00  0.00000000000E+00  0.58369391713E+03  0.58369391713E+03  0.00000000000E+00 0. -1.
          2   -1    0    0  501    0  0.00000000000E+00 -0.00000000000E+00 -0.16838351101E+04  0.16838351101E+04  0.00000000000E+00 0.  1.
         23    2    1    2    0    0 -0.76003138699E+02 -0.20796451706E+03 -0.12946887859E+04  0.13166499080E+04  0.91226150980E+02 0.  0.
        254    2    1    2    0    0  0.76003138699E+02  0.20796451706E+03  0.19454759295E+03  0.95087911914E+03  0.90404458731E+03 0.  0.
         23    2    4    4    0    0  0.55743392659E+02 -0.20749570414E+03 -0.24555508432E+03  0.33854691745E+03  0.90304611275E+02 0.  0.
         23    2    4    4    0    0  0.20259746040E+02  0.41546022120E+03  0.44010267727E+03  0.61233220169E+03  0.90789349486E+02 0.  0.
          1    1    3    3  502    0 -0.28980029681E+02 -0.16534359509E+03 -0.10731710900E+04  0.10862202976E+04  0.00000000000E+00 0.  1.
         -1    1    3    3    0  502 -0.47023109018E+02 -0.42620921972E+02 -0.22151769591E+03  0.23042961046E+03  0.00000000000E+00 0. -1.
         11    1    5    5    0    0  0.83440492794E+01 -0.89709549186E+01  0.67767272469E+01  0.14000900782E+02  0.00000000000E+00 0. -1.
        -11    1    5    5    0    0  0.47399343380E+02 -0.19852474922E+03 -0.25233181156E+03  0.32454601667E+03  0.00000000000E+00 0.  1.
          4    1    6    6  503    0  0.45234474093E+02  0.14952714113E+03  0.13156701445E+03  0.20424104111E+03  0.00000000000E+00 0. -1.
         -4    1    6    6    0  503 -0.24974728053E+02  0.26593308007E+03  0.30853566282E+03  0.40809116059E+03  0.00000000000E+00 0.  1.
<mgrwt>
<rscale>  0 0.19827701E+04</rscale>
<asrwt>0</asrwt>
<pdfrwt beam="1">  1        2 0.25905155E+00 0.19827701E+04</pdfrwt>
<pdfrwt beam="2">  1       -2 0.89799065E-01 0.19827701E+04</pdfrwt>
<totfact> 0.98950859E+00</totfact>
</mgrwt>
</event>
<event>
12    2  0.3751044E-008  0.2130154E+04  0.7818608E-02  0.8548075E-01
         -1   -1    0    0    0  501 -0.00000000000E+00  0.00000000000E+00  0.54933324444E+03  0.54933324444E+03  0.00000000000E+00 0.  1.
          1   -1    0    0  501    0  0.00000000000E+00 -0.00000000000E+00 -0.20650290722E+04  0.20650290722E+04  0.00000000000E+00 0. -1.
         23    2    1    2    0    0 -0.26940910046E+03  0.57237850625E+03  0.10445334838E+03  0.64793278865E+03  0.93316551577E+02 0.  0.
        254    2    1    2    0    0  0.26940910046E+03 -0.57237850625E+03 -0.16201491762E+04  0.19664295280E+04  0.91747660341E+03 0.  0.
         23    2    4    4    0    0 -0.13477458638E+03 -0.44796751942E+03 -0.26975507798E+03  0.54860035673E+03  0.96723635837E+02 0.  0.
         23    2    4    4    0    0  0.40418368684E+03 -0.12441098683E+03 -0.13503940982E+04  0.14178291713E+04  0.88503063019E+02 0.  0.
          1    1    3    3  502    0 -0.37254926452E+01  0.11172119911E+00  0.91011363253E+01  0.98347577239E+01  0.00000000000E+00 0. -1.
         -1    1    3    3    0  502 -0.26568360782E+03  0.57226678505E+03  0.95352212057E+02  0.63809803093E+03  0.00000000000E+00 0.  1.
         11    1    5    5    0    0  0.22019218869E+01 -0.13214003622E+02 -0.31580714790E+02  0.34304517172E+02  0.00000000000E+00 0. -1.
        -11    1    5    5    0    0 -0.13697650827E+03 -0.43475351579E+03 -0.23817436319E+03  0.51429583956E+03  0.00000000000E+00 0.  1.
          4    1    6    6  503    0  0.32736048113E+03 -0.62251545362E+02 -0.10371578761E+04  0.10893744074E+04  0.00000000000E+00 0. -1.
         -4    1    6    6    0  503  0.76823205708E+02 -0.62159441468E+02 -0.31323622212E+03  0.32845476392E+03  0.00000000000E+00 0.  1.
<mgrwt>
<rscale>  0 0.21301541E+04</rscale>
<asrwt>0</asrwt>
<pdfrwt beam="1">  1        1 0.31769678E+00 0.21301541E+04</pdfrwt>
<pdfrwt beam="2">  1       -1 0.84512808E-01 0.21301541E+04</pdfrwt>
<totfact> 0.34224873E+00</totfact>
</mgrwt>
</event>
<event>
12    2  0.3751044E-008  0.3225725E+04  0.7818608E-02  0.8182056E-01
         -2   -1    0    0    0  501 -0.00000000000E+00  0.00000000000E+00  0.10356757334E+04  0.10356757334E+04  0.00000000000E+00 0.  1.
          2   -1    0    0  501    0  0.00000000000E+00 -0.00000000000E+00 -0.25117174993E+04  0.25117174993E+04  0.00000000000E+00 0. -1.
         23    2    1    2    0    0  0.35291934438E+02 -0.13769796955E+04 -0.76321005224E+02  0.13824651931E+04  0.89813760946E+02 0.  0.
        254    2    1    2    0    0 -0.35291934438E+02  0.13769796955E+04 -0.13997207607E+04  0.21649280396E+04  0.91125002399E+03 0.  0.
         23    2    4    4    0    0  0.10996806291E+02  0.52016972349E+03 -0.85263641172E+01  0.52795725569E+03  0.89267541494E+02 0.  0.
         23    2    4    4    0    0 -0.46288740729E+02  0.85680997203E+03 -0.13911943966E+04  0.16369707839E+04  0.89361751522E+02 0.  0.
          1    1    3    3  502    0  0.57091374806E+02 -0.11331564048E+04 -0.42961692057E+02  0.11354067860E+04  0.00000000000E+00 0. -1.
         -1    1    3    3    0  502 -0.21799440367E+02 -0.24382329074E+03 -0.33359313167E+02  0.24705840702E+03  0.00000000000E+00 0.  1.
         11    1    5    5    0    0  0.39676424970E+02  0.12602345233E+03  0.85701001571E+01  0.13239930458E+03  0.00000000000E+00 0.  1.
        -11    1    5    5    0    0 -0.28679618680E+02  0.39414627116E+03 -0.17096464274E+02  0.39555795111E+03  0.00000000000E+00 0. -1.
          4    1    6    6  503    0  0.24797161267E+02  0.34907075545E+03 -0.55503062456E+03  0.65614349476E+03  0.00000000000E+00 0. -1.
         -4    1    6    6    0  503 -0.71085901996E+02  0.50773921658E+03 -0.83616377201E+03  0.98082728915E+03  0.00000000000E+00 0.  1.
<mgrwt>
<rscale>  0 0.32257246E+04</rscale>
<asrwt>0</asrwt>
<pdfrwt beam="1">  1        2 0.38641807E+00 0.32257246E+04</pdfrwt>
<pdfrwt beam="2">  1       -2 0.15933473E+00 0.32257246E+04</pdfrwt>
<totfact> 0.73349454E-01</totfact>
</mgrwt>
</event>
<event>
12    2  0.3751044E-008  0.3715255E+04  0.7818608E-02  0.8064589E-01
         -2   -1    0    0    0  501 -0.00000000000E+00  0.00000000000E+00  0.13414735709E+04  0.13414735709E+04  0.00000000000E+00 0.  1.
          2   -1    0    0  501    0  0.00000000000E+00 -0.00000000000E+00 -0.25723807505E+04  0.25723807505E+04  0.00000000000E+00 0. -1.
         23    2    1    2    0    0  0.42990794991E+03  0.14908120708E+03 -0.23577039198E+04  0.24027953609E+04  0.87245179342E+02 0.  0.
        254    2    1    2    0    0 -0.42990794991E+03 -0.14908120708E+03  0.11267967401E+04  0.15110589606E+04  0.89809923567E+03 0.  0.
         23    2    4    4    0    0 -0.28408203781E+03 -0.14563500433E+03 -0.37988649749E+02  0.33362601806E+03  0.89168513076E+02 0.  0.
         23    2    4    4    0    0 -0.14582591210E+03 -0.34462027492E+01  0.11647853899E+04  0.11774329425E+04  0.91357849809E+02 0.  0.
          1    1    3    3  502    0  0.38198594429E+03  0.13223753855E+03 -0.22083131472E+04  0.22450048962E+04  0.00000000000E+00 0. -1.
         -1    1    3    3    0  502  0.47922005628E+02  0.16843668533E+02 -0.14939077261E+03  0.15779046464E+03  0.00000000000E+00 0.  1.
         11    1    5    5    0    0 -0.23125567468E+03 -0.74828758516E+02 -0.25188833047E+02  0.24436245105E+03  0.00000000000E+00 0. -1.
        -11    1    5    5    0    0 -0.52826363132E+02 -0.70806245815E+02 -0.12799816702E+02  0.89263567012E+02  0.00000000000E+00 0.  1.
          3    1    6    6  503    0 -0.58139903994E+01 -0.27552079204E+02  0.26626895750E+03  0.26775376240E+03  0.00000000000E+00 0. -1.
         -3    1    6    6    0  503 -0.14001192170E+03  0.24105876455E+02  0.89851643238E+03  0.90967918012E+03  0.00000000000E+00 0.  1.
<mgrwt>
<rscale>  0 0.37152555E+04</rscale>
<asrwt>0</asrwt>
<pdfrwt beam="1">  1        2 0.39575088E+00 0.37152555E+04</pdfrwt>
<pdfrwt beam="2">  1       -2 0.20638055E+00 0.37152555E+04</pdfrwt>
<totfact> 0.30816664E-01</totfact>
</mgrwt>
</event>
<event>
12    2  0.3751044E-008  0.1313595E+04  0.7818608E-02  0.9018853E-01
          1   -1    0    0  501    0  0.00000000000E+00  0.00000000000E+00  0.87273952935E+03  0.87273952935E+03  0.00000000000E+00 0. -1.
         -1   -1    0    0    0  501 -0.00000000000E+00 -0.00000000000E+00 -0.49428615075E+03  0.49428615075E+03  0.00000000000E+00 0.  1.
         23    2    1    2    0    0 -0.29261366106E+03 -0.14708724826E+03  0.25256066042E+03  0.42382459055E+03  0.92644390661E+02 0.  0.
        254    2    1    2    0    0  0.29261366106E+03  0.14708724826E+03  0.12589271817E+03  0.94320108955E+03  0.87551236748E+03 0.  0.
         23    2    4    4    0    0  0.21702587520E+03  0.11152213639E+03 -0.35851497697E+03  0.44315528187E+03  0.91193189040E+02 0.  0.
         23    2    4    4    0    0  0.75587785857E+02  0.35565111874E+02  0.48440769515E+03  0.50004580768E+03  0.91742052001E+02 0.  0.
          2    1    3    3  502    0 -0.29797891285E+03 -0.14412454399E+03  0.25434833707E+03  0.41744028705E+03  0.00000000000E+00 0. -1.
         -2    1    3    3    0  502  0.53652517880E+01 -0.29627042703E+01 -0.17876766493E+01  0.63843034972E+01  0.00000000000E+00 0.  1.
         11    1    5    5    0    0  0.19149588693E+03  0.56475539181E+02 -0.28136965302E+03  0.34500585919E+03  0.00000000000E+00 0.  1.
        -11    1    5    5    0    0  0.25529988275E+02  0.55046597204E+02 -0.77145323955E+02  0.98149422684E+02  0.00000000000E+00 0. -1.
          3    1    6    6  503    0  0.67510975312E+02  0.11777072094E+02  0.15252127011E+03  0.16720995500E+03  0.00000000000E+00 0. -1.
         -3    1    6    6    0  503  0.80768105458E+01  0.23788039780E+02  0.33188642504E+03  0.33283585268E+03  0.00000000000E+00 0.  1.
<mgrwt>
<rscale>  0 0.13135952E+04</rscale>
<asrwt>0</asrwt>
<pdfrwt beam="1">  1        1 0.13426762E+00 0.13135952E+04</pdfrwt>
<pdfrwt beam="2">  1       -1 0.76044023E-01 0.13135952E+04</pdfrwt>
<totfact> 0.32683655E+01</totfact>
</mgrwt>
</event>
<event>
12    2  0.3751044E-008  0.1621694E+04  0.7818608E-02  0.8807331E-01
         -2   -1    0    0    0  501 -0.00000000000E+00  0.00000000000E+00  0.50250100631E+03  0.50250100631E+03  0.00000000000E+00 0.  1.
          2   -1    0    0  501    0  0.00000000000E+00 -0.00000000000E+00 -0.13084004748E+04  0.13084004748E+04  0.00000000000E+00 0. -1.
         23    2    1    2    0    0  0.88608314230E+02  0.55367464199E+03 -0.35566786733E+03  0.67038115750E+03  0.92218338458E+02 0.  0.
        254    2    1    2    0    0 -0.88608314230E+02 -0.55367464199E+03 -0.45023160119E+03  0.11405203236E+04  0.88525198186E+03 0.  0.
         23    2    4    4    0    0 -0.57949195871E+01  0.15680823695E+03  0.12298467027E+03  0.21959937860E+03  0.92066572056E+02 0.  0.
         23    2    4    4    0    0 -0.82813394643E+02 -0.71048287894E+03 -0.57321627147E+03  0.92092094504E+03  0.88738455874E+02 0.  0.
          1    1    3    3  502    0  0.49841189098E+02  0.28259901116E+03 -0.23600321283E+03  0.37154254360E+03  0.00000000000E+00 0. -1.
         -1    1    3    3    0  502  0.38767125132E+02  0.27107563083E+03 -0.11966465450E+03  0.29883861390E+03  0.00000000000E+00 0.  1.
         11    1    5    5    0    0 -0.32755518799E+02  0.40218754760E+02  0.59390859410E+01  0.52208667748E+02  0.00000000000E+00 0. -1.
        -11    1    5    5    0    0  0.26960599212E+02  0.11658948219E+03  0.11704558433E+03  0.16739071085E+03  0.00000000000E+00 0.  1.
          1    1    6    6  503    0 -0.96367388730E+02 -0.68149235317E+03 -0.55448696347E+03  0.88384064949E+03  0.00000000000E+00 0.  1.
         -1    1    6    6    0  503  0.13553994088E+02 -0.28990525771E+02 -0.18729307994E+02  0.37080295551E+02  0.00000000000E+00 0. -1.
<mgrwt>
<rscale>  0 0.16216936E+04</rscale>
<asrwt>0</asrwt>
<pdfrwt beam="1">  1        2 0.20129238E+00 0.16216936E+04</pdfrwt>
<pdfrwt beam="2">  1       -2 0.77307849E-01 0.16216936E+04</pdfrwt>
<totfact> 0.23358467E+01</totfact>
</mgrwt>
</event>
<event>
12    2  0.3751044E-008  0.2059689E+04  0.7818608E-02  0.8579212E-01
         -2   -1    0    0    0  501 -0.00000000000E+00  0.00000000000E+00  0.78187881301E+03  0.78187881301E+03  0.00000000000E+00 0. -1.
          2   -1    0    0  501    0  0.00000000000E+00 -0.00000000000E+00 -0.13564500023E+04  0.13564500023E+04  0.00000000000E+00 0.  1.
         23    2    1    2    0    0 -0.45281395840E+03  0.24385441571E+03 -0.90738225392E+03  0.10468660540E+04  0.89891731167E+02 0.  0.
        254    2    1    2    0    0  0.45281395840E+03 -0.24385441571E+03  0.33281106465E+03  0.10914627613E+04  0.90333952506E+03 0.  0.
         23    2    4    4    0    0 -0.97711005676E+02 -0.42550291122E+03  0.82379055170E+02  0.45358399996E+03  0.91389103295E+02 0.  0.
         23    2    4    4    0    0  0.55052496408E+03  0.18164849551E+03  0.25043200948E+03  0.63787876133E+03  0.89995615401E+02 0.  0.
          3    1    3    3  502    0 -0.14116168055E+03  0.53336656038E+02 -0.19783389919E+03  0.24881654005E+03  0.00000000000E+00 0. -1.
         -3    1    3    3    0  502 -0.31165227785E+03  0.19051775967E+03 -0.70954835473E+03  0.79804951396E+03  0.00000000000E+00 0.  1.
         11    1    5    5    0    0 -0.67750190381E+01 -0.16158655557E+03  0.63682861624E+02  0.17381490928E+03  0.00000000000E+00 0.  1.
        -11    1    5    5    0    0 -0.90935986638E+02 -0.26391635564E+03  0.18696193546E+02  0.27976909067E+03  0.00000000000E+00 0. -1.
          1    1    6    6  503    0  0.18956623785E+03  0.97839784184E+02  0.12167237164E+03  0.24558531700E+03  0.00000000000E+00 0. -1.
         -1    1    6    6    0  503  0.36095872622E+03  0.83808711324E+02  0.12875963783E+03  0.39229344433E+03  0.00000000000E+00 0.  1.
<mgrwt>
<rscale>  0 0.20596888E+04</rscale>
<asrwt>0</asrwt>
<pdfrwt beam="1">  1        2 0.20868461E+00 0.20596888E+04</pdfrwt>
<pdfrwt beam="2">  1       -2 0.12028905E+00 0.20596888E+04</pdfrwt>
<totfact> 0.74826230E+00</totfact>
</mgrwt>
</event>
<event>
12    2  0.3751044E-008  0.1462359E+04  0.7818608E-02  0.8909877E-01
          1   -1    0    0  501    0  0.00000000000E+00  0.00000000000E+00  0.91726870757E+03  0.91726870757E+03  0.00000000000E+00 0. -1.
         -1   -1    0    0    0  501 -0.00000000000E+00 -0.00000000000E+00 -0.58284253098E+03  0.58284253098E+03  0.00000000000E+00 0.  1.
         23    2    1    2    0    0 -0.16027026475E+03 -0.17920080673E+03  0.49065509379E+03  0.55362595009E+03  0.89217625226E+02 0.  0.
        254    2    1    2    0    0  0.16027026475E+03  0.17920080673E+03 -0.15622891720E+03  0.94648528846E+03  0.90201299315E+03 0.  0.
         23    2    4    4    0    0  0.39297014452E+03  0.30785791671E+03 -0.33976247266E+03  0.61038860847E+03  0.89071230818E+02 0.  0.
         23    2    4    4    0    0 -0.23269987978E+03 -0.12865710998E+03  0.18353355546E+03  0.33609667999E+03  0.92598738252E+02 0.  0.
          4    1    3    3  502    0 -0.83906747069E+02 -0.91778919310E+02  0.34896291892E+03  0.37045759678E+03  0.00000000000E+00 0. -1.
         -4    1    3    3    0  502 -0.76363517676E+02 -0.87421887422E+02  0.14169217488E+03  0.18316835331E+03  0.00000000000E+00 0.  1.
         11    1    5    5    0    0  0.14312509040E+03  0.77092421682E+02 -0.73307087392E+02  0.17833104622E+03  0.00000000000E+00 0.  1.
        -11    1    5    5    0    0  0.24984505412E+03  0.23076549503E+03 -0.26645538527E+03  0.43205756225E+03  0.00000000000E+00 0. -1.
          3    1    6    6  503    0 -0.17353884984E+03 -0.13127575158E+03  0.16791248959E+03  0.27485206842E+03  0.00000000000E+00 0. -1.
         -3    1    6    6    0  503 -0.59161029938E+02  0.26186416036E+01  0.15621065870E+02  0.61244611568E+02  0.00000000000E+00 0.  1.
<mgrwt>
<rscale>  0 0.14623587E+04</rscale>
<asrwt>0</asrwt>
<pdfrwt beam="1">  1        1 0.14111826E+00 0.14623587E+04</pdfrwt>
<pdfrwt beam="2">  1       -1 0.89668082E-01 0.14623587E+04</pdfrwt>
<totfact> 0.20820653E+01</totfact>
</mgrwt>
</event>
<event>
12    2  0.3751044E-008  0.2255586E+04  0.7818608E-02  0.8495642E-01
          2   -1    0    0  501    0  0.00000000000E+00  0.00000000000E+00  0.22707433673E+04  0.22707433673E+04  0.00000000000E+00 0. -1.
         -2   -1    0    0    0  501 -0.00000000000E+00 -0.00000000000E+00 -0.56013243840E+03  0.56013243840E+03  0.00000000000E+00 0.  1.
         23    2    1    2    0    0 -0.76220276394E+03 -0.29735463199E+03  0.12768612689E+03  0.83295342382E+03  0.90193285459E+02 0.  0.
        254    2    1    2    0    0  0.76220276394E+03  0.29735463199E+03  0.15829248020E+04  0.19979223818E+04  0.90369800521E+03 0.  0.
         23    2    4    4    0    0  0.12472850907E+03 -0.97900915172E+02  0.10673475218E+04  0.10830990275E+04  0.93439718535E+02 0.  0.
         23    2    4    4    0    0  0.63747425486E+03  0.39525554716E+03  0.51557728022E+03  0.91482335434E+03  0.92094867374E+02 0.  0.
          3    1    3    3  502    0 -0.40692580683E+03 -0.12900820134E+03  0.30494640375E+02  0.42797389099E+03  0.00000000000E+00 0. -1.
         -3    1    3    3    0  502 -0.35527695711E+03 -0.16834643065E+03  0.97191486520E+02  0.40497953283E+03  0.00000000000E+00 0.  1.
         11    1    5    5    0    0  0.91771877492E+02 -0.11444943443E+03  0.82034141042E+03  0.83335513450E+03  0.00000000000E+00 0. -1.
        -11    1    5    5    0    0  0.32956631581E+02  0.16548519255E+02  0.24700611134E+03  0.24974389300E+03  0.00000000000E+00 0.  1.
          1    1    6    6  503    0  0.62934940294E+03  0.38797771753E+03  0.51909283710E+03  0.90336302438E+03  0.00000000000E+00 0. -1.
         -1    1    6    6    0  503  0.81248519218E+01  0.72778296245E+01 -0.35155568746E+01  0.11460329966E+02  0.00000000000E+00 0.  1.
<mgrwt>
<rscale>  0 0.22555860E+04</rscale>
<asrwt>0</asrwt>
<pdfrwt beam="1">  1        2 0.34934513E+00 0.22555860E+04</pdfrwt>
<pdfrwt beam="2">  1       -2 0.86174223E-01 0.22555860E+04</pdfrwt>
<totfact> 0.50040795E+00</totfact>
</mgrwt>
</event>
<event>
12    2  0.3751044E-008  0.2383806E+04  0.7818608E-02  0.8445591E-01
         -2   -1    0    0    0  501 -0.00000000000E+00  0.00000000000E+00  0.10358207387E+04  0.10358207387E+04  0.00000000000E+00 0.  1.
          2   -1    0    0  501    0  0.00000000000E+00 -0.00000000000E+00 -0.13715040241E+04  0.13715040241E+04  0.00000000000E+00 0. -1.
         23    2    1    2    0    0  0.41021716539E+03  0.85022431205E+03  0.24534602401E+03  0.97975923745E+03  0.92595833028E+02 0.  0.
        254    2    1    2    0    0 -0.41021716539E+03 -0.85022431205E+03 -0.58102930939E+03  0.14275655254E+04  0.89954920227E+03 0.  0.
         23    2    4    4    0    0 -0.26180509243E+02 -0.62055363019E+03  0.70226331872E+02  0.63146294390E+03  0.89674326447E+02 0.  0.
         23    2    4    4    0    0 -0.38403665614E+03 -0.22967068186E+03 -0.65125564127E+03  0.79610258148E+03  0.97018733228E+02 0.  0.
          3    1    3    3  502    0  0.33808954980E+03  0.64792499040E+03  0.22154748182E+03  0.76367180357E+03  0.00000000000E+00 0. -1.
         -3    1    3    3    0  502  0.72127615582E+02  0.20229932165E+03  0.23798542191E+02  0.21608743388E+03  0.00000000000E+00 0.  1.
         11    1    5    5    0    0  0.16963780866E+02 -0.46562021614E+03  0.65987012637E+02  0.47057862402E+03  0.00000000000E+00 0. -1.
        -11    1    5    5    0    0 -0.43144290110E+02 -0.15493341404E+03  0.42393192351E+01  0.16088431988E+03  0.00000000000E+00 0.  1.
          1    1    6    6  503    0 -0.38648245134E+03 -0.22612969048E+03 -0.62132576378E+03  0.76586488811E+03  0.00000000000E+00 0. -1.
         -1    1    6    6    0  503  0.24457951931E+01 -0.35409913797E+01 -0.29929877485E+02  0.30237693370E+02  0.00000000000E+00 0.  1.
<mgrwt>
<rscale>  0 0.23838056E+04</rscale>
<asrwt>0</asrwt>
<pdfrwt beam="1">  1        2 0.21100062E+00 0.23838056E+04</pdfrwt>
<pdfrwt beam="2">  1       -2 0.15935704E+00 0.23838056E+04</pdfrwt>
<totfact> 0.34461954E+00</totfact>
</mgrwt>
</event>
<event>
12    2  0.3751044E-008  0.1443508E+04  0.7818608E-02  0.8922913E-01
         -1   -1    0    0    0  501 -0.00000000000E+00  0.00000000000E+00  0.60520082225E+03  0.60520082225E+03  0.00000000000E+00 0.  1.
          1   -1    0    0  501    0  0.00000000000E+00 -0.00000000000E+00 -0.86075400107E+03  0.86075400107E+03  0.00000000000E+00 0. -1.
         23    2    1    2    0    0 -0.18018564883E+03  0.17731954051E+03  0.27869023155E+03  0.38694846225E+03  0.90287207201E+02 0.  0.
        254    2    1    2    0    0  0.18018564883E+03 -0.17731954051E+03 -0.53424341037E+03  0.10790063611E+04  0.90273452255E+03 0.  0.
         23    2    4    4    0    0 -0.22451705173E+03 -0.15471864624E+03 -0.59405253238E+03  0.65997311682E+03  0.91215885095E+02 0.  0.
         23    2    4    4    0    0  0.40470270056E+03 -0.22600894273E+02  0.59809122008E+02  0.41903324425E+03  0.87844478725E+02 0.  0.
          1    1    3    3  502    0 -0.15931456344E+03  0.18660006293E+03  0.25015482137E+03  0.35039712936E+03  0.00000000000E+00 0.  1.
         -1    1    3    3    0  502 -0.20871085392E+02 -0.92805224187E+01  0.28535410185E+02  0.36551332893E+02  0.00000000000E+00 0. -1.
         11    1    5    5    0    0 -0.17139379702E+03 -0.13498767971E+03 -0.53669032655E+03  0.57933929086E+03  0.00000000000E+00 0. -1.
        -11    1    5    5    0    0 -0.53123254707E+02 -0.19730966534E+02 -0.57362205831E+02  0.80633825959E+02  0.00000000000E+00 0.  1.
          3    1    6    6  503    0  0.18460623732E+03 -0.10404046882E+02 -0.16812818852E+02  0.18566199914E+03  0.00000000000E+00 0. -1.
         -3    1    6    6    0  503  0.22009646324E+03 -0.12196847391E+02  0.76621940860E+02  0.23337124510E+03  0.00000000000E+00 0.  1.
<mgrwt>
<rscale>  0 0.14435083E+04</rscale>
<asrwt>0</asrwt>
<pdfrwt beam="1">  1        1 0.13242369E+00 0.14435083E+04</pdfrwt>
<pdfrwt beam="2">  1       -1 0.93107819E-01 0.14435083E+04</pdfrwt>
<totfact> 0.21357895E+01</totfact>
</mgrwt>
</event>
<event>
12    2  0.3751044E-008  0.2673283E+04  0.7818608E-02  0.8343726E-01
         -2   -1    0    0    0  501 -0.00000000000E+00  0.00000000000E+00  0.80368361570E+03  0.80368361570E+03  0.00000000000E+00 0.  1.
          2   -1    0    0  501    0  0.00000000000E+00 -0.00000000000E+00 -0.22230275684E+04  0.22230275684E+04  0.00000000000E+00 0. -1.
         23    2    1    2    0    0  0.90854231595E+03  0.56623230930E+03 -0.11989919031E+04  0.16100341027E+04  0.92520592807E+02 0.  0.
        254    2    1    2    0    0 -0.90854231595E+03 -0.56623230930E+03 -0.22035204958E+03  0.14166770814E+04  0.90130503120E+03 0.  0.
         23    2    4    4    0    0 -0.53166130682E+03  0.20562899615E+02  0.22483972780E+03  0.58474169828E+03  0.91013034776E+02 0.  0.
         23    2    4    4    0    0 -0.37688100912E+03 -0.58679520891E+03 -0.44519177738E+03  0.83193538312E+03  0.86907138978E+02 0.  0.
          2    1    3    3  502    0  0.76551621900E+03  0.43721999749E+03 -0.99940318703E+03  0.13326601735E+04  0.00000000000E+00 0. -1.
         -2    1    3    3    0  502  0.14302609695E+03  0.12901231180E+03 -0.19958871606E+03  0.27737392917E+03  0.00000000000E+00 0.  1.
         11    1    5    5    0    0 -0.10256062836E+03  0.18332852630E+02  0.94571083677E+01  0.10461459207E+03  0.00000000000E+00 0. -1.
        -11    1    5    5    0    0 -0.42910067847E+03  0.22300469850E+01  0.21538261943E+03  0.48012710622E+03  0.00000000000E+00 0.  1.
          4    1    6    6  503    0 -0.13038160012E+03 -0.20665675607E+03 -0.10793400460E+03  0.26712567422E+03  0.00000000000E+00 0. -1.
         -4    1    6    6    0  503 -0.24649940900E+03 -0.38013845284E+03 -0.33725777278E+03  0.56480970890E+03  0.00000000000E+00 0.  1.
<mgrwt>
<rscale>  0 0.26732833E+04</rscale>
<asrwt>0</asrwt>
<pdfrwt beam="1">  1        2 0.34200424E+00 0.26732833E+04</pdfrwt>
<pdfrwt beam="2">  1       -2 0.12364363E+00 0.26732833E+04</pdfrwt>
<totfact> 0.21712608E+00</totfact>
</mgrwt>
</event>
<event>
12    2  0.3751044E-008  0.1438511E+04  0.7818608E-02  0.8926404E-01
         -1   -1    0    0    0  501 -0.00000000000E+00  0.00000000000E+00  0.84428805008E+03  0.84428805008E+03  0.00000000000E+00 0.  1.
          1   -1    0    0  501    0  0.00000000000E+00 -0.00000000000E+00 -0.61273945787E+03  0.61273945787E+03  0.00000000000E+00 0. -1.
         23    2    1    2    0    0 -0.39925483445E+02  0.45561639261E+03  0.10883895456E+03  0.47872799197E+03  0.90300779793E+02 0.  0.
        254    2    1    2    0    0  0.39925483445E+02 -0.45561639261E+03  0.12270963765E+03  0.97829951597E+03  0.85605604159E+03 0.  0.
         23    2    4    4    0    0  0.36344748935E+03 -0.35500280600E+03  0.28735367294E+03  0.59083675467E+03  0.91623509701E+02 0.  0.
         23    2    4    4    0    0 -0.32352200590E+03 -0.10061358660E+03 -0.16464403529E+03  0.38746276131E+03  0.90720179298E+02 0.  0.
          3    1    3    3  502    0 -0.29377106557E+02  0.38115433249E+03  0.54962532367E+02  0.38621563864E+03  0.00000000000E+00 0. -1.
         -3    1    3    3    0  502 -0.10548376888E+02  0.74462060119E+02  0.53876422190E+02  0.92512353338E+02  0.00000000000E+00 0.  1.
         11    1    5    5    0    0  0.34046919119E+03 -0.34065284974E+03  0.24448772406E+03  0.54012765287E+03  0.00000000000E+00 0. -1.
        -11    1    5    5    0    0  0.22978298156E+02 -0.14349956265E+02  0.42865948882E+02  0.50709101791E+02  0.00000000000E+00 0.  1.
          1    1    6    6  503    0 -0.32305311089E+03 -0.86056753510E+02 -0.14878825668E+03  0.36593308487E+03  0.00000000000E+00 0. -1.
         -1    1    6    6    0  503 -0.46889501904E+00 -0.14556833095E+02 -0.15855778607E+02  0.21529676438E+02  0.00000000000E+00 0.  1.
<mgrwt>
<rscale>  0 0.14385112E+04</rscale>
<asrwt>0</asrwt>
<pdfrwt beam="1">  1        1 0.94267608E-01 0.14385112E+04</pdfrwt>
<pdfrwt beam="2">  1       -1 0.12989047E+00 0.14385112E+04</pdfrwt>
<totfact> 0.16416300E+01</totfact>
</mgrwt>
</event>
<event>
12    2  0.3751044E-008  0.1216253E+04  0.7818608E-02  0.9098748E-01
         -1   -1    0    0    0  501 -0.00000000000E+00  0.00000000000E+00  0.51776158688E+03  0.51776158688E+03  0.00000000000E+00 0.  1.
          1   -1    0    0  501    0  0.00000000000E+00 -0.00000000000E+00 -0.71426256715E+03  0.71426256715E+03  0.00000000000E+00 0. -1.
         23    2    1    2    0    0 -0.79978221544E+02  0.16447630296E+03 -0.24986812896E+03  0.32269518892E+03  0.90824737422E+02 0.  0.
        254    2    1    2    0    0  0.79978221544E+02 -0.16447630296E+03  0.53367148690E+02  0.90932896512E+03  0.88914686306E+03 0.  0.
         23    2    4    4    0    0 -0.19803445986E+03  0.21628528360E+03  0.24399403991E+03  0.39289954422E+03  0.94021216456E+02 0.  0.
         23    2    4    4    0    0  0.27801268140E+03 -0.38076158655E+03 -0.19062689122E+03  0.51642942090E+03  0.89946085509E+02 0.  0.
          4    1    3    3  502    0 -0.76716691596E+02  0.15908866841E+03 -0.17871618201E+03  0.25126505705E+03  0.00000000000E+00 0.  1.
         -4    1    3    3    0  502 -0.32615299481E+01  0.53876345511E+01 -0.71151946953E+02  0.71430131870E+02  0.00000000000E+00 0. -1.
         11    1    5    5    0    0 -0.43237252735E+02  0.15798173317E+01  0.34483783084E+02  0.55327092303E+02  0.00000000000E+00 0.  1.
        -11    1    5    5    0    0 -0.15479720712E+03  0.21470546627E+03  0.20951025682E+03  0.33757245191E+03  0.00000000000E+00 0. -1.
          3    1    6    6  503    0  0.28334309432E+03 -0.37844493725E+03 -0.18324280213E+03  0.50703235021E+03  0.00000000000E+00 0. -1.
         -3    1    6    6    0  503 -0.53304129173E+01 -0.23166493066E+01 -0.73840890865E+01  0.93970706880E+01  0.00000000000E+00 0.  1.
<mgrwt>
<rscale>  0 0.12162528E+04</rscale>
<asrwt>0</asrwt>
<pdfrwt beam="1">  1        1 0.10988655E+00 0.12162528E+04</pdfrwt>
<pdfrwt beam="2">  1       -1 0.79655629E-01 0.12162528E+04</pdfrwt>
<totfact> 0.41132331E+01</totfact>
</mgrwt>
</event>
<event>
12    2  0.3751044E-008  0.1440044E+04  0.7818608E-02  0.8925332E-01
         -1   -1    0    0    0  501 -0.00000000000E+00  0.00000000000E+00  0.31291821142E+03  0.31291821142E+03  0.00000000000E+00 0.  1.
          1   -1    0    0  501    0  0.00000000000E+00 -0.00000000000E+00 -0.16567634324E+04  0.16567634324E+04  0.00000000000E+00 0. -1.
         23    2    1    2    0    0  0.24689919129E+03  0.16779466920E+03  0.18937039185E+02  0.31255825660E+03  0.90663061086E+02 0.  0.
        254    2    1    2    0    0 -0.24689919129E+03 -0.16779466920E+03 -0.13627822602E+04  0.16571233872E+04  0.89429758478E+03 0.  0.
         23    2    4    4    0    0  0.14234241939E+03 -0.40522783696E+03 -0.89952896173E+03  0.10008612390E+04  0.89999458630E+02 0.  0.
         23    2    4    4    0    0 -0.38924161068E+03  0.23743316777E+03 -0.46325329843E+03  0.65626214819E+03  0.90514352504E+02 0.  0.
          3    1    3    3  502    0  0.24321455583E+02  0.24219704659E+02  0.32601230810E+02  0.47338858729E+02  0.00000000000E+00 0. -1.
         -3    1    3    3    0  502  0.22257773570E+03  0.14357496454E+03 -0.13664191625E+02  0.26521939787E+03  0.00000000000E+00 0.  1.
         11    1    5    5    0    0  0.69868069949E+02 -0.31526285982E+03 -0.64351615142E+03  0.71998976043E+03  0.00000000000E+00 0. -1.
        -11    1    5    5    0    0  0.72474349441E+02 -0.89964977148E+02 -0.25601281030E+03  0.28087147858E+03  0.00000000000E+00 0.  1.
          2    1    6    6  503    0 -0.30266194793E+03  0.14435295108E+03 -0.36457782041E+03  0.49533727534E+03  0.00000000000E+00 0. -1.
         -2    1    6    6    0  503 -0.86579662745E+02  0.93080216684E+02 -0.98675478020E+02  0.16092487285E+03  0.00000000000E+00 0.  1.
<mgrwt>
<rscale>  0 0.14400437E+04</rscale>
<asrwt>0</asrwt>
<pdfrwt beam="1">  1        1 0.25488668E+00 0.14400437E+04</pdfrwt>
<pdfrwt beam="2">  1       -1 0.48141264E-01 0.14400437E+04</pdfrwt>
<totfact> 0.21390734E+01</totfact>
</mgrwt>
</event>
<event>
12    2  0.3751044E-008  0.1558455E+04  0.7818608E-02  0.8846485E-01
          2   -1    0    0  501    0  0.00000000000E+00  0.00000000000E+00  0.60231646314E+03  0.60231646314E+03  0.00000000000E+00 0. -1.
         -2   -1    0    0    0  501 -0.00000000000E+00 -0.00000000000E+00 -0.10081004963E+04  0.10081004963E+04  0.00000000000E+00 0.  1.
         23    2    1    2    0    0  0.18331352727E+03 -0.53615936017E+02 -0.62561384353E+03  0.66051783821E+03  0.91720311266E+02 0.  0.
        254    2    1    2    0    0 -0.18331352727E+03  0.53615936017E+02  0.21982981038E+03  0.94989912123E+03  0.90415965245E+03 0.  0.
         23    2    4    4    0    0 -0.46363586127E+03  0.27322900185E+03  0.20232854168E+03  0.58193177013E+03  0.89974702010E+02 0.  0.
         23    2    4    4    0    0  0.28032233401E+03 -0.21961306583E+03  0.17501268702E+02  0.36796735110E+03  0.91011908256E+02 0.  0.
          3    1    3    3  502    0  0.85445702358E+02 -0.32964006583E+02 -0.16069108263E+03  0.18495734054E+03  0.00000000000E+00 0. -1.
         -3    1    3    3    0  502  0.97867824909E+02 -0.20651929434E+02 -0.46492276090E+03  0.47556049767E+03  0.00000000000E+00 0.  1.
         11    1    5    5    0    0 -0.45469456421E+03  0.24701547398E+03  0.19721780328E+03  0.55376768869E+03  0.00000000000E+00 0.  1.
        -11    1    5    5    0    0 -0.89412970661E+01  0.26213527868E+02  0.51107383934E+01  0.28164081441E+02  0.00000000000E+00 0. -1.
          4    1    6    6  503    0  0.39662196055E+01 -0.22651748754E+02  0.17012412216E+02  0.28605153189E+02  0.00000000000E+00 0. -1.
         -4    1    6    6    0  503  0.27635611440E+03 -0.19696131708E+03  0.48885648551E+00  0.33936219791E+03  0.00000000000E+00 0.  1.
<mgrwt>
<rscale>  0 0.15584550E+04</rscale>
<asrwt>0</asrwt>
<pdfrwt beam="1">  1        2 0.92664072E-01 0.15584550E+04</pdfrwt>
<pdfrwt beam="2">  1       -2 0.15509238E+00 0.15584550E+04</pdfrwt>
<totfact> 0.13005398E+01</totfact>
</mgrwt>
</event>
<event>
12    2  0.3751044E-008  0.1871315E+04  0.7818608E-02  0.8669268E-01
          2   -1    0    0  501    0  0.00000000000E+00  0.00000000000E+00  0.22815404271E+04  0.22815404271E+04  0.00000000000E+00 0. -1.
         -2   -1    0    0    0  501 -0.00000000000E+00 -0.00000000000E+00 -0.38371213788E+03  0.38371213788E+03  0.00000000000E+00 0.  1.
         23    2    1    2    0    0  0.30251921197E+03 -0.17312132848E+03 -0.15782772223E+03  0.39448354201E+03  0.96014618793E+02 0.  0.
        254    2    1    2    0    0 -0.30251921197E+03  0.17312132848E+03  0.20556560115E+04  0.22707690230E+04  0.89954513525E+03 0.  0.
         23    2    4    4    0    0 -0.41843064391E+03 -0.16069578602E+02  0.19703886950E+04  0.20163362451E+04  0.88531399846E+02 0.  0.
         23    2    4    4    0    0  0.11591143194E+03  0.18919090708E+03  0.85267316515E+02  0.25443277796E+03  0.90757169717E+02 0.  0.
          3    1    3    3  502    0  0.71440024350E+02 -0.90657282330E+02 -0.62539704425E+02  0.13127693837E+03  0.00000000000E+00 0. -1.
         -3    1    3    3    0  502  0.23107918762E+03 -0.82464046151E+02 -0.95288017807E+02  0.26320660363E+03  0.00000000000E+00 0.  1.
         11    1    5    5    0    0 -0.32126772699E+03  0.45995633180E+01  0.13281955976E+04  0.13665056362E+04  0.00000000000E+00 0.  1.
        -11    1    5    5    0    0 -0.97162916926E+02 -0.20669141920E+02  0.64219309738E+03  0.64983060884E+03  0.00000000000E+00 0. -1.
          3    1    6    6  503    0  0.69218616650E+02  0.16925317021E+03  0.41755088063E+02  0.18756689445E+03  0.00000000000E+00 0. -1.
         -3    1    6    6    0  503  0.46692815290E+02  0.19937736875E+02  0.43512228452E+02  0.66865883500E+02  0.00000000000E+00 0.  1.
<mgrwt>
<rscale>  0 0.18713148E+04</rscale>
<asrwt>0</asrwt>
<pdfrwt beam="1">  1        2 0.35100621E+00 0.18713148E+04</pdfrwt>
<pdfrwt beam="2">  1       -2 0.59032638E-01 0.18713148E+04</pdfrwt>
<totfact> 0.11689591E+01</totfact>
</mgrwt>
</event>
<event>
12    2  0.3751044E-008  0.1288616E+04  0.7818608E-02  0.9038642E-01
          2   -1    0    0  501    0  0.00000000000E+00  0.00000000000E+00  0.98704350513E+03  0.98704350513E+03  0.00000000000E+00 0. -1.
         -2   -1    0    0    0  501 -0.00000000000E+00 -0.00000000000E+00 -0.42058199572E+03  0.42058199572E+03  0.00000000000E+00 0.  1.
         23    2    1    2    0    0  0.26384123247E+03 -0.18919449451E+03  0.18760043566E+03  0.38583012136E+03  0.90907680569E+02 0.  0.
        254    2    1    2    0    0 -0.26384123247E+03  0.18919449451E+03  0.37886107376E+03  0.10217953795E+04  0.89169688326E+03 0.  0.
         23    2    4    4    0    0  0.40102802269E+02 -0.94986603401E+02  0.54632191764E+03  0.56347712958E+03  0.91695955690E+02 0.  0.
         23    2    4    4    0    0 -0.30394403474E+03  0.28418109791E+03 -0.16746084388E+03  0.45831824990E+03  0.94189231318E+02 0.  0.
          3    1    3    3  502    0  0.25913262050E+03 -0.16742762920E+03  0.19164780877E+03  0.36319500084E+03  0.00000000000E+00 0. -1.
         -3    1    3    3    0  502  0.47086119729E+01 -0.21766865304E+02 -0.40473731156E+01  0.22635120521E+02  0.00000000000E+00 0.  1.
         11    1    5    5    0    0  0.15399021618E+02 -0.10100873744E+03  0.32458605222E+03  0.34028811351E+03  0.00000000000E+00 0.  1.
        -11    1    5    5    0    0  0.24703780651E+02  0.60221340389E+01  0.22173586543E+03  0.22318901607E+03  0.00000000000E+00 0. -1.
          2    1    6    6  503    0 -0.13619452658E+03  0.11991576841E+03 -0.23663891564E+02  0.18299923592E+03  0.00000000000E+00 0.  1.
         -2    1    6    6    0  503 -0.16774950816E+03  0.16426532950E+03 -0.14379695232E+03  0.27531901398E+03  0.00000000000E+00 0. -1.
<mgrwt>
<rscale>  0 0.12886159E+04</rscale>
<asrwt>0</asrwt>
<pdfrwt beam="1">  1        2 0.15185285E+00 0.12886159E+04</pdfrwt>
<pdfrwt beam="2">  1       -2 0.64704923E-01 0.12886159E+04</pdfrwt>
<totfact> 0.55543248E+01</totfact>
</mgrwt>
</event>
<event>
12    2  0.3751044E-008  0.2282826E+04  0.7818608E-02  0.8484723E-01
          1   -1    0    0  501    0  0.00000000000E+00  0.00000000000E+00  0.28460707997E+04  0.28460707997E+04  0.00000000000E+00 0. -1.
         -1   -1    0    0    0  501 -0.00000000000E+00 -0.00000000000E+00 -0.45776230546E+03  0.45776230546E+03  0.00000000000E+00 0.  1.
         23    2    1    2    0    0 -0.51462331907E+03  0.35386438674E+02 -0.15617593527E+03  0.54692145867E+03  0.92966653294E+02 0.  0.
        254    2    1    2    0    0  0.51462331907E+03 -0.35386438674E+02  0.25444844295E+04  0.27569116465E+04  0.92740037417E+03 0.  0.
         23    2    4    4    0    0  0.78316311749E+01  0.37386799308E+03  0.11924621593E+04  0.12529697704E+04  0.90158934505E+02 0.  0.
         23    2    4    4    0    0  0.50679168789E+03 -0.40925443175E+03  0.13520222703E+04  0.15039418762E+04  0.97723808431E+02 0.  0.
          2    1    3    3  502    0 -0.12901353471E+03  0.13773657289E+02  0.15117759423E+01  0.12975550562E+03  0.00000000000E+00 0. -1.
         -2    1    3    3    0  502 -0.38560978436E+03  0.21612781385E+02 -0.15768771121E+03  0.41716595305E+03  0.00000000000E+00 0.  1.
         11    1    5    5    0    0 -0.29556138111E+01  0.36110866237E+03  0.11729497221E+04  0.12272812442E+04  0.00000000000E+00 0. -1.
        -11    1    5    5    0    0  0.10787244986E+02  0.12759330709E+02  0.19512437175E+02  0.25688526214E+02  0.00000000000E+00 0.  1.
          4    1    6    6  503    0  0.35102123680E+03 -0.32207500620E+03  0.10518620858E+04  0.11547129798E+04  0.00000000000E+00 0. -1.
         -4    1    6    6    0  503  0.15577045109E+03 -0.87179425552E+02  0.30016018449E+03  0.34922889632E+03  0.00000000000E+00 0.  1.
<mgrwt>
<rscale>  0 0.22828263E+04</rscale>
<asrwt>0</asrwt>
<pdfrwt beam="1">  1        1 0.43785704E+00 0.22828263E+04</pdfrwt>
<pdfrwt beam="2">  1       -1 0.70424972E-01 0.22828263E+04</pdfrwt>
<totfact> 0.14253575E+00</totfact>
</mgrwt>
</event>
<event>
12    2  0.3751044E-008  0.1427480E+04  0.7818608E-02  0.8934164E-01
          2   -1    0    0  501    0  0.00000000000E+00  0.00000000000E+00  0.44749770427E+03  0.44749770427E+03  0.00000000000E+00 0. -1.
         -2   -1    0    0    0  501 -0.00000000000E+00 -0.00000000000E+00 -0.11383857975E+04  0.11383857975E+04  0.00000000000E+00 0.  1.
         23    2    1    2    0    0  0.16834424529E+03  0.17668055077E+03  0.17332512366E+03  0.31320387654E+03  0.92191473838E+02 0.  0.
        254    2    1    2    0    0 -0.16834424529E+03 -0.17668055077E+03 -0.86421321688E+03  0.12726796252E+04  0.90182766771E+03 0.  0.
         23    2    4    4    0    0  0.24568185989E+03  0.40056687673E+02 -0.73313489392E+03  0.77951218970E+03  0.90489594500E+02 0.  0.
         23    2    4    4    0    0 -0.41402610518E+03 -0.21673723844E+03 -0.13107832296E+03  0.49316743550E+03  0.87406786870E+02 0.  0.
          2    1    3    3  502    0  0.16908952135E+03  0.18606749207E+03  0.16606772076E+03  0.30131522649E+03  0.00000000000E+00 0. -1.
         -2    1    3    3    0  502 -0.74527606222E+00 -0.93869412970E+01  0.72574028976E+01  0.11888650055E+02  0.00000000000E+00 0.  1.
         11    1    5    5    0    0  0.11321363435E+03 -0.26990478809E+02 -0.31929637501E+03  0.33984700682E+03  0.00000000000E+00 0.  1.
        -11    1    5    5    0    0  0.13246822554E+03  0.67047166482E+02 -0.41383851891E+03  0.43966518289E+03  0.00000000000E+00 0. -1.
          4    1    6    6  503    0 -0.36936458133E+03 -0.21576686524E+03 -0.13436595638E+03  0.44837455805E+03  0.00000000000E+00 0. -1.
         -4    1    6    6    0  503 -0.44661523850E+02 -0.97037320476E+00  0.32876334144E+01  0.44792877450E+02  0.00000000000E+00 0.  1.
<mgrwt>
<rscale>  0 0.14274803E+04</rscale>
<asrwt>0</asrwt>
<pdfrwt beam="1">  1        2 0.68845800E-01 0.14274803E+04</pdfrwt>
<pdfrwt beam="2">  1       -2 0.17513628E+00 0.14274803E+04</pdfrwt>
<totfact> 0.13313818E+01</totfact>
</mgrwt>
</event>
<event>
12    2  0.3751044E-008  0.2087000E+04  0.7818608E-02  0.8566992E-01
         -2   -1    0    0    0  501 -0.00000000000E+00  0.00000000000E+00  0.38901887793E+03  0.38901887793E+03  0.00000000000E+00 0.  1.
          2   -1    0    0  501    0  0.00000000000E+00 -0.00000000000E+00 -0.27990736431E+04  0.27990736431E+04  0.00000000000E+00 0. -1.
         23    2    1    2    0    0  0.77696103031E+02  0.74881847696E+03 -0.15697269378E+04  0.17432789621E+04  0.90626071193E+02 0.  0.
        254    2    1    2    0    0 -0.77696103031E+02 -0.74881847696E+03 -0.84032782739E+03  0.14448135589E+04  0.90253507777E+03 0.  0.
         23    2    4    4    0    0  0.30854003292E+03  0.64380783638E+00 -0.29736661049E+03  0.43791229900E+03  0.90238097158E+02 0.  0.
         23    2    4    4    0    0 -0.38623613595E+03 -0.74946228480E+03 -0.54296121690E+03  0.10069012599E+04  0.90394662813E+02 0.  0.
          4    1    3    3  502    0  0.76918169424E+02  0.44805155673E+03 -0.86891554817E+03  0.98065326804E+03  0.00000000000E+00 0. -1.
         -4    1    3    3    0  502  0.77793360620E+00  0.30076692024E+03 -0.70081138960E+03  0.76262569409E+03  0.00000000000E+00 0.  1.
         11    1    5    5    0    0  0.96210016070E+02  0.29696215001E+02 -0.56307074030E+02  0.11536342125E+03  0.00000000000E+00 0. -1.
        -11    1    5    5    0    0  0.21233001685E+03 -0.29052407164E+02 -0.24105953646E+03  0.32254887774E+03  0.00000000000E+00 0.  1.
          4    1    6    6  503    0 -0.17745435657E+02 -0.44575367075E+02 -0.58203169516E+02  0.75428593904E+02  0.00000000000E+00 0. -1.
         -4    1    6    6    0  503 -0.36849070029E+03 -0.70488691772E+03 -0.48475804739E+03  0.93147266599E+03  0.00000000000E+00 0.  1.
<mgrwt>
<rscale>  0 0.20870002E+04</rscale>
<asrwt>0</asrwt>
<pdfrwt beam="1">  1        2 0.43062672E+00 0.20870002E+04</pdfrwt>
<pdfrwt beam="2">  1       -2 0.59849058E-01 0.20870002E+04</pdfrwt>
<totfact> 0.55679004E+00</totfact>
</mgrwt>
</event>
<event>
12    2  0.3751044E-008  0.2862793E+04  0.7818608E-02  0.8284035E-01
         -2   -1    0    0    0  501 -0.00000000000E+00  0.00000000000E+00  0.11290996003E+04  0.11290996003E+04  0.00000000000E+00 0. -1.
          2   -1    0    0  501    0  0.00000000000E+00 -0.00000000000E+00 -0.18146280299E+04  0.18146280299E+04  0.00000000000E+00 0.  1.
         23    2    1    2    0    0  0.14578702676E+03  0.89289082729E+03  0.63792852924E+03  0.11106789622E+04  0.90261076999E+02 0.  0.
        254    2    1    2    0    0 -0.14578702676E+03 -0.89289082729E+03 -0.13234569588E+04  0.18330486680E+04  0.88883137355E+03 0.  0.
         23    2    4    4    0    0  0.36672984008E+03 -0.40201864619E+03 -0.61303525007E+03  0.82469635969E+03  0.90565447996E+02 0.  0.
         23    2    4    4    0    0 -0.51251686684E+03 -0.49087218110E+03 -0.71042170877E+03  0.10083523083E+04  0.91903951739E+02 0.  0.
          1    1    3    3  502    0  0.12397077431E+03  0.56938173220E+03  0.37206548995E+03  0.69137329907E+03  0.00000000000E+00 0. -1.
         -1    1    3    3    0  502  0.21816252453E+02  0.32350909509E+03  0.26586303929E+03  0.41930566314E+03  0.00000000000E+00 0.  1.
         11    1    5    5    0    0  0.21136228615E+03 -0.29073363628E+03 -0.37519799387E+03  0.51958983620E+03  0.00000000000E+00 0.  1.
        -11    1    5    5    0    0  0.15536755393E+03 -0.11128500991E+03 -0.23783725619E+03  0.30510652349E+03  0.00000000000E+00 0. -1.
          1    1    6    6  503    0 -0.44783066879E+03 -0.43773930920E+03 -0.66362050655E+03  0.91244736147E+03  0.00000000000E+00 0. -1.
         -1    1    6    6    0  503 -0.64686198043E+02 -0.53132871899E+02 -0.46801202218E+02  0.95904946810E+02  0.00000000000E+00 0.  1.
<mgrwt>
<rscale>  0 0.28627929E+04</rscale>
<asrwt>0</asrwt>
<pdfrwt beam="1">  1        2 0.27917354E+00 0.28627929E+04</pdfrwt>
<pdfrwt beam="2">  1       -2 0.17370763E+00 0.28627929E+04</pdfrwt>
<totfact> 0.14711920E+00</totfact>
</mgrwt>
</event>
<event>
12    2  0.3751044E-008  0.1411883E+04  0.7818608E-02  0.8945262E-01
          2   -1    0    0  501    0  0.00000000000E+00  0.00000000000E+00  0.14787619002E+04  0.14787619002E+04  0.00000000000E+00 0. -1.
         -2   -1    0    0    0  501 -0.00000000000E+00 -0.00000000000E+00 -0.33700701022E+03  0.33700701022E+03  0.00000000000E+00 0.  1.
         23    2    1    2    0    0  0.38009697019E+03  0.30923136356E+02  0.54858409753E+03  0.67436147236E+03  0.91591136246E+02 0.  0.
        254    2    1    2    0    0 -0.38009697019E+03 -0.30923136356E+02  0.59317079248E+03  0.11414074381E+04  0.89751289883E+03 0.  0.
         23    2    4    4    0    0 -0.45136501455E+03  0.30469923836E+03  0.55728954665E+03  0.78442581729E+03  0.90444578683E+02 0.  0.
         23    2    4    4    0    0  0.71268044367E+02 -0.33562237471E+03  0.35881245825E+02  0.35698162079E+03  0.91798154801E+02 0.  0.
          3    1    3    3  502    0  0.32486626754E+03  0.38933454023E+02  0.40722821717E+03  0.52238752520E+03  0.00000000000E+00 0. -1.
         -3    1    3    3    0  502  0.55230702648E+02 -0.80103176669E+01  0.14135588035E+03  0.15197394716E+03  0.00000000000E+00 0.  1.
         11    1    5    5    0    0 -0.36949935134E+03  0.27043700595E+03  0.42244097191E+03  0.62299463848E+03  0.00000000000E+00 0. -1.
        -11    1    5    5    0    0 -0.81865663215E+02  0.34262232403E+02  0.13484857475E+03  0.16143117882E+03  0.00000000000E+00 0.  1.
          2    1    6    6  503    0 -0.75254027306E+01 -0.39059618223E+02  0.30428329843E+02  0.50081620571E+02  0.00000000000E+00 0.  1.
         -2    1    6    6    0  503  0.78793447098E+02 -0.29656275649E+03  0.54529159818E+01  0.30690000022E+03  0.00000000000E+00 0. -1.
<mgrwt>
<rscale>  0 0.14118826E+04</rscale>
<asrwt>0</asrwt>
<pdfrwt beam="1">  1        2 0.22750183E+00 0.14118826E+04</pdfrwt>
<pdfrwt beam="2">  1       -2 0.51847233E-01 0.14118826E+04</pdfrwt>
<totfact> 0.44573299E+01</totfact>
</mgrwt>
</event>
<event>
12    2  0.3751044E-008  0.1826497E+04  0.7818608E-02  0.8692334E-01
         -2   -1    0    0    0  501 -0.00000000000E+00  0.00000000000E+00  0.18881317195E+03  0.18881317195E+03  0.00000000000E+00 0.  1.
          2   -1    0    0  501    0  0.00000000000E+00 -0.00000000000E+00 -0.44171841952E+04  0.44171841952E+04  0.00000000000E+00 0. -1.
         23    2    1    2    0    0  0.45567446453E+03  0.18054762716E+03 -0.38989789607E+03  0.63662210663E+03  0.11415197764E+03 0.  0.
        254    2    1    2    0    0 -0.45567446453E+03 -0.18054762716E+03 -0.38384731272E+04  0.39693752606E+04  0.88421001315E+03 0.  0.
         23    2    4    4    0    0 -0.18534963694E+02 -0.42939744739E+03 -0.11188613429E+04  0.12020570531E+04  0.91458961107E+02 0.  0.
         23    2    4    4    0    0 -0.43713950083E+03  0.24884982023E+03 -0.27196117843E+04  0.27673182074E+04  0.93512713822E+02 0.  0.
          3    1    3    3  502    0  0.79057275450E+02  0.81356973128E+02 -0.78108781830E+02  0.13773159288E+03  0.00000000000E+00 0. -1.
         -3    1    3    3    0  502  0.37661718908E+03  0.99190654035E+02 -0.31178911424E+03  0.49889051375E+03  0.00000000000E+00 0.  1.
         11    1    5    5    0    0  0.11484169019E+02 -0.35579799384E+03 -0.97078009576E+03  0.10339913408E+04  0.00000000000E+00 0. -1.
        -11    1    5    5    0    0 -0.30019132713E+02 -0.73599453551E+02 -0.14808124719E+03  0.16806571233E+03  0.00000000000E+00 0.  1.
          3    1    6    6  503    0 -0.37306386845E+03  0.21882127950E+03 -0.21293704494E+04  0.21728501819E+04  0.00000000000E+00 0. -1.
         -3    1    6    6    0  503 -0.64075632385E+02  0.30028540725E+02 -0.59024133492E+03  0.59446802553E+03  0.00000000000E+00 0.  1.
<mgrwt>
<rscale>  0 0.18264967E+04</rscale>
<asrwt>0</asrwt>
<pdfrwt beam="1">  1        2 0.67956677E+00 0.18264967E+04</pdfrwt>
<pdfrwt beam="2">  1       -2 0.29048182E-01 0.18264967E+04</pdfrwt>
<totfact> 0.15479452E+00</totfact>
</mgrwt>
</event>
<event>
12    2  0.3751044E-008  0.1921989E+04  0.7818608E-02  0.8643988E-01
          2   -1    0    0  501    0  0.00000000000E+00  0.00000000000E+00  0.16204650460E+04  0.16204650460E+04  0.00000000000E+00 0. -1.
         -2   -1    0    0    0  501 -0.00000000000E+00 -0.00000000000E+00 -0.56990438177E+03  0.56990438177E+03  0.00000000000E+00 0.  1.
         23    2    1    2    0    0  0.67100339217E+03 -0.27004883679E+03  0.17938585648E+03  0.75101548569E+03  0.93129198851E+02 0.  0.
        254    2    1    2    0    0 -0.67100339217E+03  0.27004883679E+03  0.87117480777E+03  0.14393539421E+04  0.88860694257E+03 0.  0.
         23    2    4    4    0    0 -0.18950471872E+03 -0.10355977640E+03 -0.12672325755E+03  0.26678591181E+03  0.92082968184E+02 0.  0.
         23    2    4    4    0    0 -0.48149867345E+03  0.37360861320E+03  0.99789806532E+03  0.11725680303E+04  0.87697596905E+02 0.  0.
          2    1    3    3  502    0  0.54126712606E+03 -0.24199730098E+03  0.17507845518E+03  0.61821134000E+03  0.00000000000E+00 0.  1.
         -2    1    3    3    0  502  0.12973626611E+03 -0.28051535812E+02  0.43074012988E+01  0.13280414569E+03  0.00000000000E+00 0. -1.
         11    1    5    5    0    0 -0.15220068911E+03 -0.39031605446E+02 -0.65109778003E+02  0.17008174265E+03  0.00000000000E+00 0. -1.
        -11    1    5    5    0    0 -0.37304029613E+02 -0.64528170956E+02 -0.61613479544E+02  0.96704169165E+02  0.00000000000E+00 0.  1.
          4    1    6    6  503    0 -0.46050406844E+03  0.32958678266E+03  0.90322654030E+03  0.10660720555E+04  0.00000000000E+00 0. -1.
         -4    1    6    6    0  503 -0.20994605010E+02  0.44021830536E+02  0.94671525021E+02  0.10649597482E+03  0.00000000000E+00 0.  1.
<mgrwt>
<rscale>  0 0.19219887E+04</rscale>
<asrwt>0</asrwt>
<pdfrwt beam="1">  1        2 0.24930231E+00 0.19219887E+04</pdfrwt>
<pdfrwt beam="2">  1       -2 0.87677598E-01 0.19219887E+04</pdfrwt>
<totfact> 0.11397552E+01</totfact>
</mgrwt>
</event>
<event>
12    2  0.3751044E-008  0.2435484E+04  0.7818608E-02  0.8426337E-01
          1   -1    0    0  501    0  0.00000000000E+00  0.00000000000E+00  0.22531688270E+04  0.22531688270E+04  0.00000000000E+00 0. -1.
         -1   -1    0    0    0  501 -0.00000000000E+00 -0.00000000000E+00 -0.65813784160E+03  0.65813784160E+03  0.00000000000E+00 0.  1.
         23    2    1    2    0    0 -0.96049003586E+02  0.67849094167E+03 -0.26334792197E+03  0.74000745244E+03  0.93185474384E+02 0.  0.
        254    2    1    2    0    0  0.96049003586E+02 -0.67849094167E+03  0.18583789074E+04  0.21712992162E+04  0.88960258191E+03 0.  0.
         23    2    4    4    0    0 -0.23666486723E+03 -0.72180932905E+03  0.11346230282E+04  0.13684178654E+04  0.90438219163E+02 0.  0.
         23    2    4    4    0    0  0.33271387081E+03  0.43318387385E+02  0.72375587920E+03  0.80288135073E+03  0.90669113618E+02 0.  0.
          1    1    3    3  502    0 -0.78874914554E+02  0.24001802824E+03 -0.89944605548E+02  0.26817892925E+03  0.00000000000E+00 0. -1.
         -1    1    3    3    0  502 -0.17174089032E+02  0.43847291343E+03 -0.17340331643E+03  0.47182852319E+03  0.00000000000E+00 0.  1.
         11    1    5    5    0    0 -0.10236375513E+02 -0.11051483326E+03  0.20321884796E+03  0.23155174783E+03  0.00000000000E+00 0. -1.
        -11    1    5    5    0    0 -0.22642849171E+03 -0.61129449580E+03  0.93140418023E+03  0.11368661176E+04  0.00000000000E+00 0.  1.
          3    1    6    6  503    0  0.44961619429E+02 -0.13056147175E+02  0.16942739553E+03  0.17577728112E+03  0.00000000000E+00 0. -1.
         -3    1    6    6    0  503  0.28775225138E+03  0.56374534560E+02  0.55432848367E+03  0.62710406961E+03  0.00000000000E+00 0.  1.
<mgrwt>
<rscale>  0 0.24354841E+04</rscale>
<asrwt>0</asrwt>
<pdfrwt beam="1">  1        1 0.34664135E+00 0.24354841E+04</pdfrwt>
<pdfrwt beam="2">  1       -1 0.10125198E+00 0.24354841E+04</pdfrwt>
<totfact> 0.16576301E+00</totfact>
</mgrwt>
</event>
<event>
12    2  0.3751044E-008  0.2030442E+04  0.7818608E-02  0.8592519E-01
          2   -1    0    0  501    0  0.00000000000E+00  0.00000000000E+00  0.11535510759E+04  0.11535510759E+04  0.00000000000E+00 0. -1.
         -2   -1    0    0    0  501 -0.00000000000E+00 -0.00000000000E+00 -0.89347871563E+03  0.89347871563E+03  0.00000000000E+00 0.  1.
         23    2    1    2    0    0 -0.17332566375E+03  0.31929001216E+03 -0.63146094800E+03  0.73405944196E+03  0.90069072953E+02 0.  0.
        254    2    1    2    0    0  0.17332566375E+03 -0.31929001216E+03  0.89153330823E+03  0.13129703495E+04  0.89278866563E+03 0.  0.
         23    2    4    4    0    0  0.87174469577E+01 -0.60940100150E+03  0.60927508786E+03  0.86662498924E+03  0.91526852725E+02 0.  0.
         23    2    4    4    0    0  0.16460821680E+03  0.29011098935E+03  0.28225822037E+03  0.44634536029E+03  0.91072644146E+02 0.  0.
          2    1    3    3  502    0 -0.14205414599E+03  0.23857166124E+03 -0.54531346372E+03  0.61193348630E+03  0.00000000000E+00 0.  1.
         -2    1    3    3    0  502 -0.31271517760E+02  0.80718350922E+02 -0.86147484280E+02  0.12212595566E+03  0.00000000000E+00 0. -1.
         11    1    5    5    0    0  0.36306401486E+02 -0.48554329339E+03  0.45018432836E+03  0.66312621276E+03  0.00000000000E+00 0. -1.
        -11    1    5    5    0    0 -0.27588954528E+02 -0.12385770812E+03  0.15909075950E+03  0.20349877648E+03  0.00000000000E+00 0.  1.
          1    1    6    6  503    0  0.15896092858E+03  0.28029912871E+03  0.28927064862E+03  0.43302850544E+03  0.00000000000E+00 0. -1.
         -1    1    6    6    0  503  0.56472882155E+01  0.98118606329E+01 -0.70124282456E+01  0.13316854853E+02  0.00000000000E+00 0.  1.
<mgrwt>
<rscale>  0 0.20304417E+04</rscale>
<asrwt>0</asrwt>
<pdfrwt beam="1">  1        2 0.17746940E+00 0.20304417E+04</pdfrwt>
<pdfrwt beam="2">  1       -2 0.13745826E+00 0.20304417E+04</pdfrwt>
<totfact> 0.70523587E+00</totfact>
</mgrwt>
</event>
<event>
12    2  0.3751044E-008  0.1351592E+04  0.7818608E-02  0.8989624E-01
         -2   -1    0    0    0  501 -0.00000000000E+00  0.00000000000E+00  0.12671510256E+03  0.12671510256E+03  0.00000000000E+00 0.  1.
          2   -1    0    0  501    0  0.00000000000E+00 -0.00000000000E+00 -0.36041486417E+04  0.36041486417E+04  0.00000000000E+00 0. -1.
         23    2    1    2    0    0 -0.31997483571E+03  0.10840400166E+03 -0.16504364871E+04  0.16872295251E+04  0.93099674659E+02 0.  0.
        254    2    1    2    0    0  0.31997483571E+03 -0.10840400166E+03 -0.18269970520E+04  0.20436342191E+04  0.85110943504E+03 0.  0.
         23    2    4    4    0    0  0.50369252859E+03  0.15950954344E+02 -0.57886052184E+03  0.77259773969E+03  0.88697053618E+02 0.  0.
         23    2    4    4    0    0 -0.18371769288E+03 -0.12435495600E+03 -0.12481365302E+04  0.12710364794E+04  0.92046663832E+02 0.  0.
          3    1    3    3  502    0 -0.16242760415E+03  0.69811206344E+02 -0.10719942814E+04  0.10864750667E+04  0.00000000000E+00 0. -1.
         -3    1    3    3    0  502 -0.15754723156E+03  0.38592795314E+02 -0.57844220570E+03  0.60075445846E+03  0.00000000000E+00 0.  1.
         11    1    5    5    0    0  0.40131251400E+02 -0.22331888425E+02 -0.41650778040E+02  0.62000144281E+02  0.00000000000E+00 0.  1.
        -11    1    5    5    0    0  0.46356127719E+03  0.38282842770E+02 -0.53720974380E+03  0.71059759541E+03  0.00000000000E+00 0. -1.
          3    1    6    6  503    0 -0.18336383219E+03 -0.12457497856E+03 -0.10615268402E+04  0.10844263243E+04  0.00000000000E+00 0. -1.
         -3    1    6    6    0  503 -0.35386068770E+00  0.22002255617E+00 -0.18660968996E+03  0.18661015518E+03  0.00000000000E+00 0.  1.
<mgrwt>
<rscale>  0 0.13515918E+04</rscale>
<asrwt>0</asrwt>
<pdfrwt beam="1">  1        2 0.55448447E+00 0.13515918E+04</pdfrwt>
<pdfrwt beam="2">  1       -2 0.19494629E-01 0.13515918E+04</pdfrwt>
<totfact> 0.15291446E+01</totfact>
</mgrwt>
</event>
<event>
12    2  0.3751044E-008  0.1711037E+04  0.7818608E-02  0.8755095E-01
          2   -1    0    0  501    0  0.00000000000E+00  0.00000000000E+00  0.59670610441E+03  0.59670610441E+03  0.00000000000E+00 0. -1.
         -2   -1    0    0    0  501 -0.00000000000E+00 -0.00000000000E+00 -0.12265863332E+04  0.12265863332E+04  0.00000000000E+00 0.  1.
         23    2    1    2    0    0  0.53491076516E+03 -0.30361139060E+03 -0.25671032958E+03  0.67191257625E+03  0.85187520338E+02 0.  0.
        254    2    1    2    0    0 -0.53491076516E+03  0.30361139060E+03 -0.37316989916E+03  0.11513798613E+04  0.89894961384E+03 0.  0.
         23    2    4    4    0    0 -0.39882807881E+03  0.61272175141E+03 -0.29244471447E+03  0.79252300387E+03  0.89872240055E+02 0.  0.
         23    2    4    4    0    0 -0.13608268635E+03 -0.30911036081E+03 -0.80725184682E+02  0.35885685745E+03  0.90520583345E+02 0.  0.
          4    1    3    3  502    0  0.18654809671E+03 -0.10422996853E+03 -0.46016718530E+02  0.21859006636E+03  0.00000000000E+00 0. -1.
         -4    1    3    3    0  502  0.34836266845E+03 -0.19938142206E+03 -0.21069361105E+03  0.45332250989E+03  0.00000000000E+00 0.  1.
         11    1    5    5    0    0 -0.84445463483E+02  0.20264870677E+03 -0.98213676868E+02  0.24050667555E+03  0.00000000000E+00 0. -1.
        -11    1    5    5    0    0 -0.31438261533E+03  0.41007304464E+03 -0.19423103761E+03  0.55201632832E+03  0.00000000000E+00 0.  1.
          3    1    6    6  503    0 -0.89260825363E+02 -0.94496497479E+02 -0.31228066546E+02  0.13368722871E+03  0.00000000000E+00 0. -1.
         -3    1    6    6    0  503 -0.46821860988E+02 -0.21461386334E+03 -0.49497118136E+02  0.22516962874E+03  0.00000000000E+00 0.  1.
<mgrwt>
<rscale>  0 0.17110366E+04</rscale>
<asrwt>0</asrwt>
<pdfrwt beam="1">  1        2 0.91800940E-01 0.17110366E+04</pdfrwt>
<pdfrwt beam="2">  1       -2 0.18870559E+00 0.17110366E+04</pdfrwt>
<totfact> 0.74997766E+00</totfact>
</mgrwt>
</event>
<event>
12    2  0.3751044E-008  0.2713580E+04  0.7818608E-02  0.8330612E-01
          2   -1    0    0  501    0  0.00000000000E+00  0.00000000000E+00  0.35815450184E+04  0.35815450184E+04  0.00000000000E+00 0.  1.
         -2   -1    0    0    0  501 -0.00000000000E+00 -0.00000000000E+00 -0.51399015101E+03  0.51399015101E+03  0.00000000000E+00 0. -1.
         23    2    1    2    0    0 -0.83453339117E+03  0.46535686333E+02  0.55479511312E+02  0.84260279073E+03  0.91049083953E+02 0.  0.
        254    2    1    2    0    0  0.83453339117E+03 -0.46535686333E+02  0.30120753561E+04  0.32529323786E+04  0.90019973254E+03 0.  0.
         23    2    4    4    0    0  0.43866685714E+03  0.36196824746E+03  0.20707802065E+04  0.21493311930E+04  0.89689965033E+02 0.  0.
         23    2    4    4    0    0  0.39586653403E+03 -0.40850393379E+03  0.94129514953E+03  0.11036011856E+04  0.91176980203E+02 0.  0.
          1    1    3    3  502    0 -0.67516612775E+02  0.29202898039E+02  0.50140091619E+01  0.73732235436E+02  0.00000000000E+00 0.  1.
         -1    1    3    3    0  502 -0.76701677839E+03  0.17332788293E+02  0.50465502150E+02  0.76887055529E+03  0.00000000000E+00 0. -1.
         11    1    5    5    0    0  0.26649962664E+03  0.16272337494E+03  0.10966771097E+04  0.11402638426E+04  0.00000000000E+00 0.  1.
        -11    1    5    5    0    0  0.17216723051E+03  0.19924487251E+03  0.97410309681E+03  0.10090673504E+04  0.00000000000E+00 0. -1.
          4    1    6    6  503    0  0.49147364922E+02 -0.72225494938E+02  0.20710708036E+03  0.22477839828E+03  0.00000000000E+00 0. -1.
         -4    1    6    6    0  503  0.34671916911E+03 -0.33627843885E+03  0.73418806917E+03  0.87882278735E+03  0.00000000000E+00 0.  1.
<mgrwt>
<rscale>  0 0.27135798E+04</rscale>
<asrwt>0</asrwt>
<pdfrwt beam="1">  1        2 0.55100691E+00 0.27135798E+04</pdfrwt>
<pdfrwt beam="2">  1       -2 0.79075410E-01 0.27135798E+04</pdfrwt>
<totfact> 0.88528931E-01</totfact>
</mgrwt>
</event>
<event>
12    2  0.3751044E-008  0.3616164E+04  0.7818608E-02  0.8086799E-01
         -2   -1    0    0    0  501 -0.00000000000E+00  0.00000000000E+00  0.11506937907E+04  0.11506937907E+04  0.00000000000E+00 0. -1.
          2   -1    0    0  501    0  0.00000000000E+00 -0.00000000000E+00 -0.28410344654E+04  0.28410344654E+04  0.00000000000E+00 0.  1.
         23    2    1    2    0    0  0.37139246976E+03 -0.10141731503E+04  0.64889663876E+03  0.12631683090E+04  0.89709441285E+02 0.  0.
        254    2    1    2    0    0 -0.37139246976E+03  0.10141731503E+04 -0.23392373135E+04  0.27285599471E+04  0.89806939074E+03 0.  0.
         23    2    4    4    0    0 -0.28068839116E+02  0.21419392106E+03 -0.47872488339E+01  0.23571576876E+03  0.94191880434E+02 0.  0.
         23    2    4    4    0    0 -0.34332363064E+03  0.79997922921E+03 -0.23344500647E+04  0.24928441783E+04  0.82323207115E+02 0.  0.
          2    1    3    3  502    0  0.28810308065E+03 -0.77623713552E+03  0.54035471708E+03  0.98870152013E+03  0.00000000000E+00 0. -1.
         -2    1    3    3    0  502  0.83289389114E+02 -0.23793601475E+03  0.10854192168E+03  0.27446678891E+03  0.00000000000E+00 0.  1.
         11    1    5    5    0    0  0.12068014884E+02  0.18062948880E+03  0.10111612838E+02  0.18131435111E+03  0.00000000000E+00 0.  1.
        -11    1    5    5    0    0 -0.40136854000E+02  0.33564432268E+02 -0.14898861672E+02  0.54401417644E+02  0.00000000000E+00 0. -1.
          3    1    6    6  503    0 -0.69936738764E+02  0.12479181820E+03 -0.46423524750E+03  0.48577619368E+03  0.00000000000E+00 0. -1.
         -3    1    6    6    0  503 -0.27338689188E+03  0.67518741101E+03 -0.18702148172E+04  0.20070679846E+04  0.00000000000E+00 0.  1.
<mgrwt>
<rscale>  0 0.36161641E+04</rscale>
<asrwt>0</asrwt>
<pdfrwt beam="1">  1        2 0.43708223E+00 0.36161641E+04</pdfrwt>
<pdfrwt beam="2">  1       -2 0.17702981E+00 0.36161641E+04</pdfrwt>
<totfact> 0.33778372E-01</totfact>
</mgrwt>
</event>
<event>
12    2  0.3751044E-008  0.2062317E+04  0.7818608E-02  0.8578027E-01
         -1   -1    0    0    0  501 -0.00000000000E+00  0.00000000000E+00  0.72774394283E+03  0.72774394283E+03  0.00000000000E+00 0.  1.
          1   -1    0    0  501    0  0.00000000000E+00 -0.00000000000E+00 -0.14610744830E+04  0.14610744830E+04  0.00000000000E+00 0. -1.
         23    2    1    2    0    0  0.86823865900E+02 -0.50455378662E+03 -0.99448793508E+03  0.11222206551E+04  0.90884753757E+02 0.  0.
        254    2    1    2    0    0 -0.86823865900E+02  0.50455378662E+03  0.26115739496E+03  0.10665977707E+04  0.89850693496E+03 0.  0.
         23    2    4    4    0    0 -0.38751884958E+03  0.18892710934E+03  0.40524367091E+03  0.59850940687E+03  0.90148576671E+02 0.  0.
         23    2    4    4    0    0  0.30069498368E+03  0.31562667729E+03 -0.14408627595E+03  0.46808836380E+03  0.91149266501E+02 0.  0.
          4    1    3    3  502    0  0.65281499287E+02 -0.42753784348E+03 -0.89933121104E+03  0.99792129395E+03  0.00000000000E+00 0. -1.
         -4    1    3    3    0  502  0.21542366612E+02 -0.77015943147E+02 -0.95156724034E+02  0.12429936117E+03  0.00000000000E+00 0.  1.
         11    1    5    5    0    0 -0.30737752582E+03  0.14238862677E+03  0.26355591249E+03  0.42920529287E+03  0.00000000000E+00 0. -1.
        -11    1    5    5    0    0 -0.80141323758E+02  0.46538482567E+02  0.14168775841E+03  0.16930411400E+03  0.00000000000E+00 0.  1.
          1    1    6    6  503    0  0.22676656878E+03  0.27330578795E+03 -0.87282579922E+02  0.36570121575E+03  0.00000000000E+00 0. -1.
         -1    1    6    6    0  503  0.73928414903E+02  0.42320889339E+02 -0.56803696025E+02  0.10238714805E+03  0.00000000000E+00 0.  1.
<mgrwt>
<rscale>  0 0.20623172E+04</rscale>
<asrwt>0</asrwt>
<pdfrwt beam="1">  1        1 0.22478069E+00 0.20623172E+04</pdfrwt>
<pdfrwt beam="2">  1       -1 0.11196061E+00 0.20623172E+04</pdfrwt>
<totfact> 0.47013038E+00</totfact>
</mgrwt>
</event>
<event>
12    2  0.3751044E-008  0.1413965E+04  0.7818608E-02  0.8943772E-01
          2   -1    0    0  501    0  0.00000000000E+00  0.00000000000E+00  0.35954840432E+03  0.35954840432E+03  0.00000000000E+00 0.  1.
         -2   -1    0    0    0  501 -0.00000000000E+00 -0.00000000000E+00 -0.13901443215E+04  0.13901443215E+04  0.00000000000E+00 0. -1.
         23    2    1    2    0    0  0.17268677592E+03 -0.28853177270E+03 -0.60655393279E+01  0.34583987222E+03  0.80604714605E+02 0.  0.
        254    2    1    2    0    0 -0.17268677592E+03  0.28853177270E+03 -0.10245303779E+04  0.14038528536E+04  0.89892660047E+03 0.  0.
         23    2    4    4    0    0  0.22392509702E+03  0.41101755413E+03 -0.77803912421E+03  0.91256055775E+03  0.91345573962E+02 0.  0.
         23    2    4    4    0    0 -0.39661187294E+03 -0.12248578143E+03 -0.24649125367E+03  0.49129229588E+03  0.91139659022E+02 0.  0.
          3    1    3    3  502    0  0.35584247589E+02 -0.11330860438E+03 -0.28764206047E+02  0.12219843720E+03  0.00000000000E+00 0. -1.
         -3    1    3    3    0  502  0.13710252833E+03 -0.17522316832E+03  0.22698666719E+02  0.22364143503E+03  0.00000000000E+00 0.  1.
         11    1    5    5    0    0  0.17821200123E+03  0.38313751480E+03 -0.67294381785E+03  0.79461138590E+03  0.00000000000E+00 0. -1.
        -11    1    5    5    0    0  0.45713095791E+02  0.27880039329E+02 -0.10509530636E+03  0.11794917184E+03  0.00000000000E+00 0.  1.
          3    1    6    6  503    0 -0.38669790974E+03 -0.12042007509E+03 -0.21568477324E+03  0.45886402048E+03  0.00000000000E+00 0. -1.
         -3    1    6    6    0  503 -0.99139632046E+01 -0.20657063373E+01 -0.30806480437E+02  0.32428275409E+02  0.00000000000E+00 0.  1.
<mgrwt>
<rscale>  0 0.14139649E+04</rscale>
<asrwt>0</asrwt>
<pdfrwt beam="1">  1        2 0.55315140E-01 0.14139649E+04</pdfrwt>
<pdfrwt beam="2">  1       -2 0.21386835E+00 0.14139649E+04</pdfrwt>
<totfact> 0.94215517E+00</totfact>
</mgrwt>
</event>
<event>
12    2  0.3751044E-008  0.1574144E+04  0.7818608E-02  0.8836592E-01
         -1   -1    0    0    0  501 -0.00000000000E+00  0.00000000000E+00  0.94082151712E+03  0.94082151712E+03  0.00000000000E+00 0.  1.
          1   -1    0    0  501    0  0.00000000000E+00 -0.00000000000E+00 -0.65844847732E+03  0.65844847732E+03  0.00000000000E+00 0. -1.
         23    2    1    2    0    0  0.39124652841E+03  0.30888840784E+03 -0.64790558473E+02  0.51106142051E+03  0.92195794781E+02 0.  0.
        254    2    1    2    0    0 -0.39124652841E+03 -0.30888840784E+03  0.34716359827E+03  0.10882085739E+04  0.90287842034E+03 0.  0.
         23    2    4    4    0    0 -0.18560465870E+03  0.24067209652E+03 -0.11284727280E+03  0.33739761481E+03  0.93437123928E+02 0.  0.
         23    2    4    4    0    0 -0.20564186971E+03 -0.54956050436E+03  0.46001087107E+03  0.75081095912E+03  0.88327619123E+02 0.  0.
          1    1    3    3  502    0  0.21507892598E+03  0.15757258822E+03 -0.79902236796E+02  0.27833870088E+03  0.00000000000E+00 0. -1.
         -1    1    3    3    0  502  0.17616760243E+03  0.15131581961E+03  0.15111678322E+02  0.23272271963E+03  0.00000000000E+00 0.  1.
         11    1    5    5    0    0 -0.11317968723E+03  0.17547807295E+03 -0.11794438977E+03  0.23981883739E+03  0.00000000000E+00 0. -1.
        -11    1    5    5    0    0 -0.72424971468E+02  0.65194023568E+02  0.50971169757E+01  0.97578777419E+02  0.00000000000E+00 0.  1.
          3    1    6    6  503    0 -0.10548224074E+02 -0.12314737658E+03  0.79879781540E+02  0.14716426499E+03  0.00000000000E+00 0. -1.
         -3    1    6    6    0  503 -0.19509364564E+03 -0.42641312777E+03  0.38013108953E+03  0.60364669413E+03  0.00000000000E+00 0.  1.
<mgrwt>
<rscale>  0 0.15741442E+04</rscale>
<asrwt>0</asrwt>
<pdfrwt beam="1">  1        1 0.10129977E+00 0.15741442E+04</pdfrwt>
<pdfrwt beam="2">  1       -1 0.14474177E+00 0.15741442E+04</pdfrwt>
<totfact> 0.11029937E+01</totfact>
</mgrwt>
</event>
<event>
12    2  0.3751044E-008  0.3285341E+04  0.7818608E-02  0.8166635E-01
          1   -1    0    0  501    0  0.00000000000E+00  0.00000000000E+00  0.34455524124E+04  0.34455524124E+04  0.00000000000E+00 0. -1.
         -1   -1    0    0    0  501 -0.00000000000E+00 -0.00000000000E+00 -0.78314474129E+03  0.78314474129E+03  0.00000000000E+00 0.  1.
         23    2    1    2    0    0  0.48515761325E+03 -0.13729034660E+04  0.17883606021E+04  0.23080220468E+04  0.92142762640E+02 0.  0.
        254    2    1    2    0    0 -0.48515761325E+03  0.13729034660E+04  0.87404706897E+03  0.19206751069E+04  0.89710241925E+03 0.  0.
         23    2    4    4    0    0 -0.83430178308E+02 -0.26943443140E+02  0.34546954101E+03  0.36861842958E+03  0.94041475346E+02 0.  0.
         23    2    4    4    0    0 -0.40172743494E+03  0.13998469092E+04  0.52857752797E+03  0.15520566773E+04  0.92354888004E+02 0.  0.
          2    1    3    3  502    0  0.38586139595E+03 -0.11280705848E+04  0.15148363728E+04  0.19277348099E+04  0.00000000000E+00 0. -1.
         -2    1    3    3    0  502  0.99296217302E+02 -0.24483288125E+03  0.27352422936E+03  0.38028723691E+03  0.00000000000E+00 0.  1.
         11    1    5    5    0    0 -0.21329895383E+02 -0.51837476752E+02  0.21246104667E+03  0.21973116480E+03  0.00000000000E+00 0.  1.
        -11    1    5    5    0    0 -0.62100282925E+02  0.24894033612E+02  0.13300849434E+03  0.14888726478E+03  0.00000000000E+00 0. -1.
          4    1    6    6  503    0 -0.32512071335E+03  0.12353380420E+04  0.47470988702E+03  0.13627593453E+04  0.00000000000E+00 0. -1.
         -4    1    6    6    0  503 -0.76606721591E+02  0.16450886716E+03  0.53867640952E+02  0.18929733202E+03  0.00000000000E+00 0.  1.
<mgrwt>
<rscale>  0 0.32853409E+04</rscale>
<asrwt>0</asrwt>
<pdfrwt beam="1">  1        1 0.53008498E+00 0.32853409E+04</pdfrwt>
<pdfrwt beam="2">  1       -1 0.12048381E+00 0.32853409E+04</pdfrwt>
<totfact> 0.14021782E-01</totfact>
</mgrwt>
</event>
<event>
12    2  0.3751044E-008  0.1275955E+04  0.7818608E-02  0.9048853E-01
         -1   -1    0    0    0  501 -0.00000000000E+00  0.00000000000E+00  0.22021730447E+03  0.22021730447E+03  0.00000000000E+00 0.  1.
          1   -1    0    0  501    0  0.00000000000E+00 -0.00000000000E+00 -0.18482443187E+04  0.18482443187E+04  0.00000000000E+00 0. -1.
         23    2    1    2    0    0 -0.18048963807E+03 -0.13531881741E+03 -0.76447378198E+03  0.80243378182E+03  0.92693684123E+02 0.  0.
        254    2    1    2    0    0  0.18048963807E+03  0.13531881741E+03 -0.86355323221E+03  0.12660278413E+04  0.89789454743E+03 0.  0.
         23    2    4    4    0    0 -0.26134625489E+03  0.24311523374E+03 -0.66783191798E+03  0.76279895938E+03  0.91955967390E+02 0.  0.
         23    2    4    4    0    0  0.44183589295E+03 -0.10779641633E+03 -0.19572131423E+03  0.50322888192E+03  0.89963609751E+02 0.  0.
          2    1    3    3  502    0 -0.17918684216E+03 -0.12819626056E+03 -0.76404838604E+03  0.79518057184E+03  0.00000000000E+00 0. -1.
         -2    1    3    3    0  502 -0.13027959106E+01 -0.71225568535E+01 -0.42539594152E+00  0.72532099806E+01  0.00000000000E+00 0.  1.
         11    1    5    5    0    0 -0.19198247463E+03  0.11747245850E+03 -0.40560398115E+03  0.46386597051E+03  0.00000000000E+00 0. -1.
        -11    1    5    5    0    0 -0.69363780259E+02  0.12564277524E+03 -0.26222793683E+03  0.29893298888E+03  0.00000000000E+00 0.  1.
          4    1    6    6  503    0  0.27698706348E+03 -0.68670086514E+02 -0.16913011781E+03  0.33172640966E+03  0.00000000000E+00 0. -1.
         -4    1    6    6    0  503  0.16484882947E+03 -0.39126329817E+02 -0.26591196419E+02  0.17150247226E+03  0.00000000000E+00 0.  1.
<mgrwt>
<rscale>  0 0.12759551E+04</rscale>
<asrwt>0</asrwt>
<pdfrwt beam="1">  1        1 0.28434527E+00 0.12759551E+04</pdfrwt>
<pdfrwt beam="2">  1       -1 0.33879587E-01 0.12759551E+04</pdfrwt>
<totfact> 0.30606845E+01</totfact>
</mgrwt>
</event>
<event>
12    2  0.3751044E-008  0.2878001E+04  0.7818608E-02  0.8279453E-01
         -2   -1    0    0    0  501 -0.00000000000E+00  0.00000000000E+00  0.62957272977E+03  0.62957272977E+03  0.00000000000E+00 0.  1.
          2   -1    0    0  501    0  0.00000000000E+00 -0.00000000000E+00 -0.32890926148E+04  0.32890926148E+04  0.00000000000E+00 0. -1.
         23    2    1    2    0    0  0.11185148299E+04 -0.63200503743E+03 -0.95696086657E+03  0.16045809743E+04  0.91652665029E+02 0.  0.
        254    2    1    2    0    0 -0.11185148299E+04  0.63200503743E+03 -0.17025590185E+04  0.23140843702E+04  0.89764885624E+03 0.  0.
         23    2    4    4    0    0 -0.71919087685E+02 -0.19084353853E+03 -0.32318184414E+03  0.39488241208E+03  0.99458552277E+02 0.  0.
         23    2    4    4    0    0 -0.10465957422E+04  0.82284857595E+03 -0.13793771743E+04  0.19192019581E+04  0.90621964745E+02 0.  0.
          4    1    3    3  502    0  0.11182271994E+04 -0.62555107008E+03 -0.95410445172E+03  0.15975172974E+04  0.00000000000E+00 0. -1.
         -4    1    3    3    0  502  0.28763050480E+00 -0.64539673484E+01 -0.28564148538E+01  0.70636769220E+01  0.00000000000E+00 0.  1.
         11    1    5    5    0    0 -0.53873675393E+02 -0.15897489831E+03 -0.31563123101E+03  0.35748911198E+03  0.00000000000E+00 0.  1.
        -11    1    5    5    0    0 -0.18045412292E+02 -0.31868640221E+02 -0.75506131273E+01  0.37393300107E+02  0.00000000000E+00 0. -1.
          3    1    6    6  503    0 -0.24077419557E+03  0.17862724893E+03 -0.36538225552E+03  0.47263527160E+03  0.00000000000E+00 0. -1.
         -3    1    6    6    0  503 -0.80582154666E+03  0.64422132703E+03 -0.10139949188E+04  0.14465666865E+04  0.00000000000E+00 0.  1.
<mgrwt>
<rscale>  0 0.28780014E+04</rscale>
<asrwt>0</asrwt>
<pdfrwt beam="1">  1        2 0.50601425E+00 0.28780014E+04</pdfrwt>
<pdfrwt beam="2">  1       -2 0.96857342E-01 0.28780014E+04</pdfrwt>
<totfact> 0.87178346E-01</totfact>
</mgrwt>
</event>
<event>
12    2  0.3751044E-008  0.1578798E+04  0.7818608E-02  0.8833680E-01
         -1   -1    0    0    0  501 -0.00000000000E+00  0.00000000000E+00  0.13579206825E+04  0.13579206825E+04  0.00000000000E+00 0.  1.
          1   -1    0    0  501    0  0.00000000000E+00 -0.00000000000E+00 -0.45890052820E+03  0.45890052820E+03  0.00000000000E+00 0. -1.
         23    2    1    2    0    0 -0.46224015689E+03  0.27978114447E+03  0.35338412003E+03  0.65198746453E+03  0.90905809312E+02 0.  0.
        254    2    1    2    0    0  0.46224015689E+03 -0.27978114447E+03  0.54563603427E+03  0.11648337462E+04  0.87588556493E+03 0.  0.
         23    2    4    4    0    0  0.10093282948E+03  0.12420351539E+03  0.58574565289E+03  0.61357855837E+03  0.88129042390E+02 0.  0.
         23    2    4    4    0    0  0.36130732741E+03 -0.40398465986E+03 -0.40109618616E+02  0.55125518779E+03  0.92341270936E+02 0.  0.
          1    1    3    3  502    0 -0.71798638501E+00 -0.53394947891E+01  0.42054992384E+01  0.68346128563E+01  0.00000000000E+00 0. -1.
         -1    1    3    3    0  502 -0.46152217051E+03  0.28512063926E+03  0.34917862079E+03  0.64515285168E+03  0.00000000000E+00 0.  1.
         11    1    5    5    0    0  0.65773580824E+02  0.34053034151E+02  0.36680303304E+03  0.37420614388E+03  0.00000000000E+00 0.  1.
        -11    1    5    5    0    0  0.35159248656E+02  0.90150481236E+02  0.21894261984E+03  0.23937241449E+03  0.00000000000E+00 0. -1.
          2    1    6    6  503    0  0.22319519150E+03 -0.31089471323E+03 -0.16885424660E+02  0.38308841511E+03  0.00000000000E+00 0. -1.
         -2    1    6    6    0  503  0.13811213592E+03 -0.93089946628E+02 -0.23224193957E+02  0.16816677269E+03  0.00000000000E+00 0.  1.
<mgrwt>
<rscale>  0 0.15787977E+04</rscale>
<asrwt>0</asrwt>
<pdfrwt beam="1">  1        1 0.70600082E-01 0.15787977E+04</pdfrwt>
<pdfrwt beam="2">  1       -1 0.20891087E+00 0.15787977E+04</pdfrwt>
<totfact> 0.62660099E+00</totfact>
</mgrwt>
</event>
<event>
12    2  0.3751044E-008  0.1874552E+04  0.7818608E-02  0.8667628E-01
         -2   -1    0    0    0  501 -0.00000000000E+00  0.00000000000E+00  0.61788625076E+03  0.61788625076E+03  0.00000000000E+00 0. -1.
          2   -1    0    0  501    0  0.00000000000E+00 -0.00000000000E+00 -0.14217605772E+04  0.14217605772E+04  0.00000000000E+00 0.  1.
         23    2    1    2    0    0  0.59388932678E+02 -0.23532027109E+03 -0.10416158112E+04  0.10729924489E+04  0.86293811482E+02 0.  0.
        254    2    1    2    0    0 -0.59388932678E+02  0.23532027109E+03  0.23774148471E+03  0.96665437913E+03  0.90498453016E+03 0.  0.
         23    2    4    4    0    0 -0.10276661470E+03 -0.30649213830E+03 -0.58613172831E+02  0.34088501785E+03  0.90932301350E+02 0.  0.
         23    2    4    4    0    0  0.43377682026E+02  0.54181240939E+03  0.29635465755E+03  0.62576936128E+03  0.91208005181E+02 0.  0.
          2    1    3    3  502    0  0.47389447258E+02 -0.12353233659E+03 -0.39220541596E+03  0.41392159427E+03  0.00000000000E+00 0. -1.
         -2    1    3    3    0  502  0.11999485420E+02 -0.11178793450E+03 -0.64941039523E+03  0.65907085460E+03  0.00000000000E+00 0.  1.
         11    1    5    5    0    0 -0.10911559990E+03 -0.20653106078E+03 -0.23572084928E+02  0.23476996485E+03  0.00000000000E+00 0.  1.
        -11    1    5    5    0    0  0.63489851941E+01 -0.99961077518E+02 -0.35041087903E+02  0.10611505300E+03  0.00000000000E+00 0. -1.
          3    1    6    6  503    0 -0.10977463125E+02  0.13714938639E+03  0.11365495310E+03  0.17845981971E+03  0.00000000000E+00 0. -1.
         -3    1    6    6    0  503  0.54355145151E+02  0.40466302300E+03  0.18269970444E+03  0.44730954158E+03  0.00000000000E+00 0.  1.
<mgrwt>
<rscale>  0 0.18745520E+04</rscale>
<asrwt>0</asrwt>
<pdfrwt beam="1">  1        2 0.21873239E+00 0.18745520E+04</pdfrwt>
<pdfrwt beam="2">  1       -2 0.95059425E-01 0.18745520E+04</pdfrwt>
<totfact> 0.12282564E+01</totfact>
</mgrwt>
</event>
<event>
12    2  0.3751044E-008  0.1705384E+04  0.7818608E-02  0.8758300E-01
         -2   -1    0    0    0  501 -0.00000000000E+00  0.00000000000E+00  0.35496009507E+03  0.35496009507E+03  0.00000000000E+00 0.  1.
          2   -1    0    0  501    0  0.00000000000E+00 -0.00000000000E+00 -0.20483526014E+04  0.20483526014E+04  0.00000000000E+00 0. -1.
         23    2    1    2    0    0  0.14644701951E+03  0.31714115808E+03  0.92711445673E+02  0.37299900899E+03  0.92236678573E+02 0.  0.
        254    2    1    2    0    0 -0.14644701951E+03 -0.31714115808E+03 -0.17861039520E+04  0.20303136875E+04  0.89998949914E+03 0.  0.
         23    2    4    4    0    0 -0.16531781564E+03 -0.58831481401E+03 -0.15136823144E+04  0.16349080731E+04  0.90807258455E+02 0.  0.
         23    2    4    4    0    0  0.18870796130E+02  0.27117365593E+03 -0.27242163763E+03  0.39540561435E+03  0.90778811402E+02 0.  0.
          2    1    3    3  502    0  0.95491902880E+02  0.17137901637E+03  0.96294823665E+02  0.21854556466E+03  0.00000000000E+00 0. -1.
         -2    1    3    3    0  502  0.50955116630E+02  0.14576214171E+03 -0.35833779922E+01  0.15445344433E+03  0.00000000000E+00 0.  1.
         11    1    5    5    0    0 -0.13341998831E+03 -0.33202342158E+03 -0.81839938449E+03  0.89320658209E+03  0.00000000000E+00 0.  1.
        -11    1    5    5    0    0 -0.31897827332E+02 -0.25629139243E+03 -0.69528292987E+03  0.74170149103E+03  0.00000000000E+00 0. -1.
          1    1    6    6  503    0  0.66924999231E+00  0.24415969952E+02 -0.74972877354E+02  0.78851251245E+02  0.00000000000E+00 0. -1.
         -1    1    6    6    0  503  0.18201546138E+02  0.24675768597E+03 -0.19744876027E+03  0.31655436311E+03  0.00000000000E+00 0.  1.
<mgrwt>
<rscale>  0 0.17053838E+04</rscale>
<asrwt>0</asrwt>
<pdfrwt beam="1">  1        2 0.31513117E+00 0.17053838E+04</pdfrwt>
<pdfrwt beam="2">  1       -2 0.54609246E-01 0.17053838E+04</pdfrwt>
<totfact> 0.18849441E+01</totfact>
</mgrwt>
</event>
<event>
12    2  0.3751044E-008  0.2193537E+04  0.7818608E-02  0.8521123E-01
         -1   -1    0    0    0  501 -0.00000000000E+00  0.00000000000E+00  0.55384773460E+03  0.55384773460E+03  0.00000000000E+00 0. -1.
          1   -1    0    0  501    0  0.00000000000E+00 -0.00000000000E+00 -0.21718987431E+04  0.21718987431E+04  0.00000000000E+00 0.  1.
         23    2    1    2    0    0 -0.62387998772E+03  0.55345628951E+03 -0.11531645608E+04  0.14266912640E+04  0.10059500553E+03 0.  0.
        254    2    1    2    0    0  0.62387998772E+03 -0.55345628951E+03 -0.46488644769E+03  0.12990552136E+04  0.88084330921E+03 0.  0.
         23    2    4    4    0    0  0.43661634436E+03 -0.52966777528E+02 -0.59104439453E+03  0.74235735449E+03  0.91223098935E+02 0.  0.
         23    2    4    4    0    0  0.18726364337E+03 -0.50048951198E+03  0.12615794683E+03  0.55669785916E+03  0.91865418485E+02 0.  0.
          3    1    3    3  502    0 -0.33294664523E+03  0.24064250679E+03 -0.61497034741E+03  0.73956122995E+03  0.00000000000E+00 0. -1.
         -3    1    3    3    0  502 -0.29093334249E+03  0.31281378272E+03 -0.53819421334E+03  0.68713003406E+03  0.00000000000E+00 0.  1.
         11    1    5    5    0    0  0.13174768022E+03  0.25905535180E+02 -0.17762595048E+03  0.22266460491E+03  0.00000000000E+00 0. -1.
        -11    1    5    5    0    0  0.30486866413E+03 -0.78872312708E+02 -0.41341844405E+03  0.51969274958E+03  0.00000000000E+00 0.  1.
          2    1    6    6  503    0  0.16351045398E+02 -0.14863600699E+03  0.16435804345E+02  0.15043322413E+03  0.00000000000E+00 0. -1.
         -2    1    6    6    0  503  0.17091259797E+03 -0.35185350500E+03  0.10972214249E+03  0.40626463503E+03  0.00000000000E+00 0.  1.
<mgrwt>
<rscale>  0 0.21935371E+04</rscale>
<asrwt>0</asrwt>
<pdfrwt beam="1">  1        1 0.33413827E+00 0.21935371E+04</pdfrwt>
<pdfrwt beam="2">  1       -1 0.85207343E-01 0.21935371E+04</pdfrwt>
<totfact> 0.28281434E+00</totfact>
</mgrwt>
</event>
<event>
12    2  0.3751044E-008  0.1958315E+04  0.7818608E-02  0.8626362E-01
         -1   -1    0    0    0  501 -0.00000000000E+00  0.00000000000E+00  0.43701040598E+03  0.43701040598E+03  0.00000000000E+00 0.  1.
          1   -1    0    0  501    0  0.00000000000E+00 -0.00000000000E+00 -0.21938826235E+04  0.21938826235E+04  0.00000000000E+00 0. -1.
         23    2    1    2    0    0  0.56147689726E+03 -0.20220374554E+03 -0.53999763580E+02  0.60594412161E+03  0.90053557242E+02 0.  0.
        254    2    1    2    0    0 -0.56147689726E+03  0.20220374554E+03 -0.17028724539E+04  0.20249489079E+04  0.91896725961E+03 0.  0.
         23    2    4    4    0    0 -0.51144887609E+03 -0.60716947114E+02 -0.31912718739E+03  0.61270225404E+03  0.91079030790E+02 0.  0.
         23    2    4    4    0    0 -0.50028021169E+02  0.26292069265E+03 -0.13837452665E+04  0.14122466538E+04  0.89775024626E+02 0.  0.
          4    1    3    3  502    0  0.69709783664E+01  0.18004617692E+01  0.92548853922E+01  0.11725574851E+02  0.00000000000E+00 0. -1.
         -4    1    3    3    0  502  0.55450591890E+03 -0.20400420731E+03 -0.63254648972E+02  0.59421854676E+03  0.00000000000E+00 0.  1.
         11    1    5    5    0    0 -0.51310690996E+03 -0.65095113714E+02 -0.31959988991E+03  0.60799684580E+03  0.00000000000E+00 0. -1.
        -11    1    5    5    0    0  0.16580338618E+01  0.43781666006E+01  0.47270251155E+00  0.47054082431E+01  0.00000000000E+00 0.  1.
          1    1    6    6  503    0 -0.54943123462E+01 -0.68030152549E+01 -0.52306097946E+02  0.53032031519E+02  0.00000000000E+00 0.  1.
         -1    1    6    6    0  503 -0.44533708823E+02  0.26972370791E+03 -0.13314391686E+04  0.13592146223E+04  0.00000000000E+00 0. -1.
<mgrwt>
<rscale>  0 0.19583151E+04</rscale>
<asrwt>0</asrwt>
<pdfrwt beam="1">  1        1 0.33752040E+00 0.19583151E+04</pdfrwt>
<pdfrwt beam="2">  1       -1 0.67232371E-01 0.19583151E+04</pdfrwt>
<totfact> 0.45891773E+00</totfact>
</mgrwt>
</event>
<event>
12    2  0.3751044E-008  0.1471495E+04  0.7818608E-02  0.8903633E-01
         -1   -1    0    0    0  501 -0.00000000000E+00  0.00000000000E+00  0.19111233599E+04  0.19111233599E+04  0.00000000000E+00 0.  1.
          1   -1    0    0  501    0  0.00000000000E+00 -0.00000000000E+00 -0.28324932486E+03  0.28324932486E+03  0.00000000000E+00 0. -1.
         23    2    1    2    0    0  0.80482129422E+02 -0.20876060434E+02 -0.15541146045E+03  0.19837252257E+03  0.91026109529E+02 0.  0.
        254    2    1    2    0    0 -0.80482129422E+02  0.20876060434E+02  0.17832854955E+04  0.19960001622E+04  0.89274649594E+03 0.  0.
         23    2    4    4    0    0 -0.47945679628E+02  0.39974449636E+02  0.18650682506E+04  0.18683259589E+04  0.90915149701E+02 0.  0.
         23    2    4    4    0    0 -0.32536449794E+02 -0.19098389202E+02 -0.81782755059E+02  0.12767420336E+03  0.90492619268E+02 0.  0.
          3    1    3    3  502    0  0.23921949004E+02 -0.31335968934E+02 -0.12935041000E+03  0.13522474316E+03  0.00000000000E+00 0. -1.
         -3    1    3    3    0  502  0.56560180418E+02  0.10459908500E+02 -0.26061050448E+02  0.63147779416E+02  0.00000000000E+00 0.  1.
         11    1    5    5    0    0 -0.25697821660E+02  0.50920913317E+02  0.53596809127E+03  0.53899453829E+03  0.00000000000E+00 0. -1.
        -11    1    5    5    0    0 -0.22247857968E+02 -0.10946463681E+02  0.13291001593E+04  0.13293314206E+04  0.00000000000E+00 0.  1.
          2    1    6    6  503    0 -0.20725936035E+02  0.11485501577E+02  0.13247641046E+02  0.27147397008E+02  0.00000000000E+00 0. -1.
         -2    1    6    6    0  503 -0.11810513759E+02 -0.30583890779E+02 -0.95030396106E+02  0.10052680635E+03  0.00000000000E+00 0.  1.
<mgrwt>
<rscale>  0 0.14714950E+04</rscale>
<asrwt>0</asrwt>
<pdfrwt beam="1">  1        1 0.43576820E-01 0.14714950E+04</pdfrwt>
<pdfrwt beam="2">  1       -1 0.29401897E+00 0.14714950E+04</pdfrwt>
<totfact> 0.33170153E+00</totfact>
</mgrwt>
</event>
<event>
12    2  0.3751044E-008  0.2164553E+04  0.7818608E-02  0.8533328E-01
          1   -1    0    0  501    0  0.00000000000E+00  0.00000000000E+00  0.31823507593E+04  0.31823507593E+04  0.00000000000E+00 0. -1.
         -1   -1    0    0    0  501 -0.00000000000E+00 -0.00000000000E+00 -0.36806831653E+03  0.36806831653E+03  0.00000000000E+00 0.  1.
         23    2    1    2    0    0  0.72319931854E+03 -0.27073437718E+03  0.39858924285E+03  0.87401538763E+03  0.93354999817E+02 0.  0.
        254    2    1    2    0    0 -0.72319931854E+03  0.27073437718E+03  0.24156932000E+04  0.26764036882E+04  0.85513081385E+03 0.  0.
         23    2    4    4    0    0 -0.46201169958E+03 -0.22107961036E+03  0.16162495424E+04  0.16978871217E+04  0.90703307966E+02 0.  0.
         23    2    4    4    0    0 -0.26118761895E+03  0.49181398753E+03  0.79944365757E+03  0.97851656655E+03  0.91019441618E+02 0.  0.
          3    1    3    3  502    0  0.30626720962E+03 -0.13112643471E+03  0.12319902142E+03  0.35520662219E+03  0.00000000000E+00 0. -1.
         -3    1    3    3    0  502  0.41693210891E+03 -0.13960794246E+03  0.27539022142E+03  0.51880876544E+03  0.00000000000E+00 0.  1.
         11    1    5    5    0    0 -0.43416095640E+03 -0.21893063015E+03  0.14512576537E+04  0.15305473316E+04  0.00000000000E+00 0.  1.
        -11    1    5    5    0    0 -0.27850743181E+02 -0.21489802079E+01  0.16499188869E+03  0.16733979009E+03  0.00000000000E+00 0. -1.
          2    1    6    6  503    0 -0.18603455561E+03  0.42297834338E+03  0.66619506006E+03  0.81076222957E+03  0.00000000000E+00 0.  1.
         -2    1    6    6    0  503 -0.75153063349E+02  0.68835644146E+02  0.13324859752E+03  0.16775433698E+03  0.00000000000E+00 0. -1.
<mgrwt>
<rscale>  0 0.21645531E+04</rscale>
<asrwt>0</asrwt>
<pdfrwt beam="1">  1        1 0.48959241E+00 0.21645531E+04</pdfrwt>
<pdfrwt beam="2">  1       -1 0.56625897E-01 0.21645531E+04</pdfrwt>
<totfact> 0.12671959E+00</totfact>
</mgrwt>
</event>
<event>
12    2  0.3751044E-008  0.1876254E+04  0.7818608E-02  0.8666767E-01
         -2   -1    0    0    0  501 -0.00000000000E+00  0.00000000000E+00  0.15724697073E+04  0.15724697073E+04  0.00000000000E+00 0.  1.
          2   -1    0    0  501    0  0.00000000000E+00 -0.00000000000E+00 -0.55968171156E+03  0.55968171156E+03  0.00000000000E+00 0. -1.
         23    2    1    2    0    0  0.59631429235E+03  0.35382373641E+03  0.16964187778E+03  0.71963744128E+03  0.91201471914E+02 0.  0.
        254    2    1    2    0    0 -0.59631429235E+03 -0.35382373641E+03  0.84314611793E+03  0.14125139776E+04  0.89639187240E+03 0.  0.
         23    2    4    4    0    0 -0.81638074782E+03 -0.24409258276E+03  0.55017013056E+03  0.10183510415E+04  0.91065672906E+02 0.  0.
         23    2    4    4    0    0  0.22006645546E+03 -0.10973115365E+03  0.29297598738E+03  0.39416293607E+03  0.95180460640E+02 0.  0.
          4    1    3    3  502    0 -0.95479019109E+00  0.50230364886E+01  0.77497682860E+01  0.92844724331E+01  0.00000000000E+00 0. -1.
         -4    1    3    3    0  502  0.59726908254E+03  0.34880069992E+03  0.16189210949E+03  0.71035296884E+03  0.00000000000E+00 0.  1.
         11    1    5    5    0    0 -0.18592183485E+03 -0.85896706078E+02  0.16321865153E+03  0.26188833689E+03  0.00000000000E+00 0.  1.
        -11    1    5    5    0    0 -0.63045891296E+03 -0.15819587668E+03  0.38695147903E+03  0.75646270460E+03  0.00000000000E+00 0. -1.
          3    1    6    6  503    0  0.18380576972E+03 -0.11653876957E+03  0.28089348719E+03  0.35534067730E+03  0.00000000000E+00 0. -1.
         -3    1    6    6    0  503  0.36260685746E+02  0.68076159210E+01  0.12082500185E+02  0.38822258770E+02  0.00000000000E+00 0.  1.
<mgrwt>
<rscale>  0 0.18762543E+04</rscale>
<asrwt>0</asrwt>
<pdfrwt beam="1">  1        2 0.86104879E-01 0.18762543E+04</pdfrwt>
<pdfrwt beam="2">  1       -2 0.24191842E+00 0.18762543E+04</pdfrwt>
<totfact> 0.36457002E+00</totfact>
</mgrwt>
</event>
<event>
12    2  0.3751044E-008  0.1515595E+04  0.7818608E-02  0.8874148E-01
          1   -1    0    0  501    0  0.00000000000E+00  0.00000000000E+00  0.14603837789E+04  0.14603837789E+04  0.00000000000E+00 0. -1.
         -1   -1    0    0    0  501 -0.00000000000E+00 -0.00000000000E+00 -0.39322342624E+03  0.39322342624E+03  0.00000000000E+00 0.  1.
         23    2    1    2    0    0 -0.48373035216E+03 -0.10743521539E+03  0.39173648948E+03  0.63898964985E+03  0.96503452350E+02 0.  0.
        254    2    1    2    0    0  0.48373035216E+03  0.10743521539E+03  0.67542386314E+03  0.12146175552E+04  0.87952318417E+03 0.  0.
         23    2    4    4    0    0  0.47387646107E+02 -0.34953629635E+03  0.30972286190E+03  0.47829262144E+03  0.91729870127E+02 0.  0.
         23    2    4    4    0    0  0.43634270606E+03  0.45697151174E+03  0.36570100125E+03  0.73632493380E+03  0.96017009736E+02 0.  0.
          1    1    3    3  502    0 -0.35403581445E+03 -0.10723915316E+03  0.32838354083E+03  0.49464870744E+03  0.00000000000E+00 0. -1.
         -1    1    3    3    0  502 -0.12969453771E+03 -0.19606222152E+00  0.63352948656E+02  0.14434094241E+03  0.00000000000E+00 0.  1.
         11    1    5    5    0    0  0.46312941990E+02 -0.20439294616E+03  0.12743955329E+03  0.24527984992E+03  0.00000000000E+00 0.  1.
        -11    1    5    5    0    0  0.10747041166E+01 -0.14514335019E+03  0.18228330861E+03  0.23301277152E+03  0.00000000000E+00 0. -1.
          2    1    6    6  503    0  0.26179712013E+03  0.25898177801E+03  0.15915763244E+03  0.40117383440E+03  0.00000000000E+00 0. -1.
         -2    1    6    6    0  503  0.17454558593E+03  0.19798973373E+03  0.20654336881E+03  0.33515109940E+03  0.00000000000E+00 0.  1.
<mgrwt>
<rscale>  0 0.15155951E+04</rscale>
<asrwt>0</asrwt>
<pdfrwt beam="1">  1        1 0.22467443E+00 0.15155951E+04</pdfrwt>
<pdfrwt beam="2">  1       -1 0.60495912E-01 0.15155951E+04</pdfrwt>
<totfact> 0.18658395E+01</totfact>
</mgrwt>
</event>
<event>
12    2  0.3751044E-008  0.1415839E+04  0.7818608E-02  0.8942433E-01
         -1   -1    0    0    0  501 -0.00000000000E+00  0.00000000000E+00  0.44575237760E+03  0.44575237760E+03  0.00000000000E+00 0.  1.
          1   -1    0    0  501    0  0.00000000000E+00 -0.00000000000E+00 -0.11242785021E+04  0.11242785021E+04  0.00000000000E+00 0. -1.
         23    2    1    2    0    0  0.42610624029E+03 -0.13407221821E+03 -0.24998404460E+03  0.51906027993E+03  0.85963154489E+02 0.  0.
        254    2    1    2    0    0 -0.42610624029E+03  0.13407221821E+03 -0.42854207990E+03  0.10509705998E+04  0.84932267108E+03 0.  0.
         23    2    4    4    0    0  0.12225153460E+03 -0.93098187164E+02  0.13764361934E+03  0.22572070730E+03  0.91604375422E+02 0.  0.
         23    2    4    4    0    0 -0.54835777489E+03  0.22717040538E+03 -0.56618569924E+03  0.82524989246E+03  0.90379735703E+02 0.  0.
          3    1    3    3  502    0  0.35611343976E+03 -0.10357931206E+03 -0.24074203094E+03  0.44215628609E+03  0.00000000000E+00 0. -1.
         -3    1    3    3    0  502  0.69992800533E+02 -0.30492906151E+02 -0.92420136589E+01  0.76903993839E+02  0.00000000000E+00 0.  1.
         11    1    5    5    0    0 -0.52179410597E+01 -0.72579502554E+01 -0.94386642994E+01  0.12999735942E+02  0.00000000000E+00 0.  1.
        -11    1    5    5    0    0  0.12746947565E+03 -0.85840236909E+02  0.14708228364E+03  0.21272097136E+03  0.00000000000E+00 0. -1.
          1    1    6    6  503    0 -0.38039224053E+03  0.18396236646E+03 -0.44514703124E+03  0.61375588662E+03  0.00000000000E+00 0. -1.
         -1    1    6    6    0  503 -0.16796553436E+03  0.43208038914E+02 -0.12103866800E+03  0.21149400585E+03  0.00000000000E+00 0.  1.
<mgrwt>
<rscale>  0 0.14158387E+04</rscale>
<asrwt>0</asrwt>
<pdfrwt beam="1">  1        1 0.17296592E+00 0.14158387E+04</pdfrwt>
<pdfrwt beam="2">  1       -1 0.68577289E-01 0.14158387E+04</pdfrwt>
<totfact> 0.25480914E+01</totfact>
</mgrwt>
</event>
<event>
12    2  0.3751044E-008  0.1217853E+04  0.7818608E-02  0.9097372E-01
         -1   -1    0    0    0  501 -0.00000000000E+00  0.00000000000E+00  0.26575490984E+03  0.26575490984E+03  0.00000000000E+00 0.  1.
          1   -1    0    0  501    0  0.00000000000E+00 -0.00000000000E+00 -0.13952391619E+04  0.13952391619E+04  0.00000000000E+00 0. -1.
         23    2    1    2    0    0 -0.21925594265E+03  0.15097358439E+03 -0.32099341604E+03  0.42167186837E+03  0.62483596763E+02 0.  0.
        254    2    1    2    0    0  0.21925594265E+03 -0.15097358439E+03 -0.80849083606E+03  0.12393222034E+04  0.90077516633E+03 0.  0.
         23    2    4    4    0    0  0.52574842268E+03 -0.18756944773E+03 -0.30788649415E+03  0.64409671869E+03  0.92047748903E+02 0.  0.
         23    2    4    4    0    0 -0.30649248003E+03  0.36595863335E+02 -0.50060434191E+03  0.59522548471E+03  0.91715718233E+02 0.  0.
          1    1    3    3  502    0 -0.10781786095E+03  0.10645891034E+03 -0.15407859734E+03  0.21609813717E+03  0.00000000000E+00 0. -1.
         -1    1    3    3    0  502 -0.11143808170E+03  0.44514674055E+02 -0.16691481870E+03  0.20557373120E+03  0.00000000000E+00 0.  1.
         11    1    5    5    0    0  0.28539425319E+02 -0.33204339002E+02 -0.12577857292E+02  0.45554686039E+02  0.00000000000E+00 0. -1.
        -11    1    5    5    0    0  0.49720899736E+03 -0.15436510873E+03 -0.29530863686E+03  0.59854203265E+03  0.00000000000E+00 0.  1.
          3    1    6    6  503    0 -0.46471433163E+02  0.66152867729E+00 -0.15135791579E+03  0.15833272054E+03  0.00000000000E+00 0. -1.
         -3    1    6    6    0  503 -0.26002104687E+03  0.35934334658E+02 -0.34924642612E+03  0.43689276417E+03  0.00000000000E+00 0.  1.
<mgrwt>
<rscale>  0 0.12178533E+04</rscale>
<asrwt>0</asrwt>
<pdfrwt beam="1">  1        1 0.21465217E+00 0.12178533E+04</pdfrwt>
<pdfrwt beam="2">  1       -1 0.40885372E-01 0.12178533E+04</pdfrwt>
<totfact> 0.44761268E+01</totfact>
</mgrwt>
</event>
<event>
12    2  0.3751044E-008  0.1489978E+04  0.7818608E-02  0.8891145E-01
         -1   -1    0    0    0  501 -0.00000000000E+00  0.00000000000E+00  0.35194713534E+03  0.35194713534E+03  0.00000000000E+00 0.  1.
          1   -1    0    0  501    0  0.00000000000E+00 -0.00000000000E+00 -0.15769663752E+04  0.15769663752E+04  0.00000000000E+00 0. -1.
         23    2    1    2    0    0  0.21652749433E+03 -0.83847268409E+01  0.14318653387E+03  0.27658667910E+03  0.95096520062E+02 0.  0.
        254    2    1    2    0    0 -0.21652749433E+03  0.83847268409E+01 -0.13682057738E+04  0.16523268315E+04  0.90068999061E+03 0.  0.
         23    2    4    4    0    0 -0.24322926801E+03  0.21189192916E+03 -0.79072351444E+02  0.34373389647E+03  0.88554437270E+02 0.  0.
         23    2    4    4    0    0  0.26701773676E+02 -0.20350720232E+03 -0.12891334223E+04  0.13085929350E+04  0.91773214321E+02 0.  0.
          1    1    3    3  502    0 -0.89624702403E+01 -0.49767479133E+01  0.11630749305E+02  0.15503813144E+02  0.00000000000E+00 0. -1.
         -1    1    3    3    0  502  0.22548996458E+03 -0.34079789275E+01  0.13155578457E+03  0.26108286596E+03  0.00000000000E+00 0.  1.
         11    1    5    5    0    0 -0.16374737744E+03  0.18878655105E+03 -0.74758613396E+02  0.26084941202E+03  0.00000000000E+00 0. -1.
        -11    1    5    5    0    0 -0.79481890575E+02  0.23105378114E+02 -0.43137380476E+01  0.82884484453E+02  0.00000000000E+00 0.  1.
          3    1    6    6  503    0 -0.19876939376E+02 -0.15656138353E+03 -0.95930510743E+03  0.97220000446E+03  0.00000000000E+00 0. -1.
         -3    1    6    6    0  503  0.46578713052E+02 -0.46945818792E+02 -0.32982831489E+03  0.33639293053E+03  0.00000000000E+00 0.  1.
<mgrwt>
<rscale>  0 0.14899783E+04</rscale>
<asrwt>0</asrwt>
<pdfrwt beam="1">  1        1 0.24261021E+00 0.14899783E+04</pdfrwt>
<pdfrwt beam="2">  1       -1 0.54145713E-01 0.14899783E+04</pdfrwt>
<totfact> 0.19297046E+01</totfact>
</mgrwt>
</event>
<event>
12    2  0.3751044E-008  0.1713299E+04  0.7818608E-02  0.8753815E-01
         -2   -1    0    0    0  501 -0.00000000000E+00  0.00000000000E+00  0.51028481899E+03  0.51028481899E+03  0.00000000000E+00 0. -1.
          2   -1    0    0  501    0  0.00000000000E+00 -0.00000000000E+00 -0.14381159036E+04  0.14381159036E+04  0.00000000000E+00 0.  1.
         23    2    1    2    0    0  0.12097020089E+03  0.35365187563E+03  0.22235933744E+03  0.44488188702E+03  0.93663118738E+02 0.  0.
        254    2    1    2    0    0 -0.12097020089E+03 -0.35365187563E+03 -0.11501904221E+04  0.15035188356E+04  0.89326784525E+03 0.  0.
         23    2    4    4    0    0  0.29132192888E+03  0.12493503046E+03 -0.39519097554E+03  0.51488877660E+03  0.91963672366E+02 0.  0.
         23    2    4    4    0    0 -0.41229212978E+03 -0.47858690609E+03 -0.75499944653E+03  0.98863005900E+03  0.91296234050E+02 0.  0.
          2    1    3    3  502    0  0.13321784174E+03  0.27489393814E+03  0.18130364031E+03  0.35522483102E+03  0.00000000000E+00 0. -1.
         -2    1    3    3    0  502 -0.12247640845E+02  0.78757937491E+02  0.41055697130E+02  0.89657056002E+02  0.00000000000E+00 0.  1.
         11    1    5    5    0    0  0.13192643019E+03  0.91172311722E+02 -0.14427240870E+03  0.21571161610E+03  0.00000000000E+00 0.  1.
        -11    1    5    5    0    0  0.15939549870E+03  0.33762718736E+02 -0.25091856684E+03  0.29917716050E+03  0.00000000000E+00 0. -1.
          3    1    6    6  503    0 -0.35324601204E+03 -0.44437514938E+03 -0.69813026393E+03  0.89979880186E+03  0.00000000000E+00 0. -1.
         -3    1    6    6    0  503 -0.59046117734E+02 -0.34211756711E+02 -0.56869182597E+02  0.88831257145E+02  0.00000000000E+00 0.  1.
<mgrwt>
<rscale>  0 0.17132994E+04</rscale>
<asrwt>0</asrwt>
<pdfrwt beam="1">  1        2 0.22124860E+00 0.17132994E+04</pdfrwt>
<pdfrwt beam="2">  1       -2 0.78505357E-01 0.17132994E+04</pdfrwt>
<totfact> 0.18866538E+01</totfact>
</mgrwt>
</event>
<event>
12    2  0.3751044E-008  0.2089828E+04  0.7818608E-02  0.8565737E-01
          2   -1    0    0  501    0  0.00000000000E+00  0.00000000000E+00  0.69806711479E+03  0.69806711479E+03  0.00000000000E+00 0. -1.
         -2   -1    0    0    0  501 -0.00000000000E+00 -0.00000000000E+00 -0.15640978574E+04  0.15640978574E+04  0.00000000000E+00 0.  1.
         23    2    1    2    0    0 -0.15061363384E+03  0.10840995819E+03  0.53482688400E+03  0.57407686560E+03  0.95327152635E+02 0.  0.
        254    2    1    2    0    0  0.15061363384E+03 -0.10840995819E+03 -0.14008576266E+04  0.16880881066E+04  0.92347289070E+03 0.  0.
         23    2    4    4    0    0  0.30258523349E+03  0.12022186378E+03 -0.96188609302E+02  0.35178496009E+03  0.92137340577E+02 0.  0.
         23    2    4    4    0    0 -0.15197159965E+03 -0.22863182197E+03 -0.13046690173E+04  0.13363031465E+04  0.90426641642E+02 0.  0.
          4    1    3    3  502    0 -0.38875288387E+02  0.33939861828E+02  0.53349405443E+02  0.74225072106E+02  0.00000000000E+00 0.  1.
         -4    1    3    3    0  502 -0.11173834545E+03  0.74470096363E+02  0.48147747856E+03  0.49985179349E+03  0.00000000000E+00 0. -1.
         11    1    5    5    0    0  0.95655013774E+02  0.51044592116E+02 -0.76535735099E+02  0.13271454627E+03  0.00000000000E+00 0.  1.
        -11    1    5    5    0    0  0.20693021972E+03  0.69177271662E+02 -0.19652874203E+02  0.21907041382E+03  0.00000000000E+00 0. -1.
          4    1    6    6  503    0 -0.76539187342E+02 -0.14192998557E+03 -0.94681820653E+03  0.96045150019E+03  0.00000000000E+00 0. -1.
         -4    1    6    6    0  503 -0.75432412311E+02 -0.86701836401E+02 -0.35785081076E+03  0.37585164629E+03  0.00000000000E+00 0.  1.
<mgrwt>
<rscale>  0 0.20898280E+04</rscale>
<asrwt>0</asrwt>
<pdfrwt beam="1">  1        2 0.10739494E+00 0.20898280E+04</pdfrwt>
<pdfrwt beam="2">  1       -2 0.24063044E+00 0.20898280E+04</pdfrwt>
<totfact> 0.27831168E+00</totfact>
</mgrwt>
</event>
<event>
12    2  0.3751044E-008  0.2670781E+04  0.7818608E-02  0.8344548E-01
         -2   -1    0    0    0  501 -0.00000000000E+00  0.00000000000E+00  0.11047509459E+04  0.11047509459E+04  0.00000000000E+00 0.  1.
          2   -1    0    0  501    0  0.00000000000E+00 -0.00000000000E+00 -0.16141807670E+04  0.16141807670E+04  0.00000000000E+00 0. -1.
         23    2    1    2    0    0  0.37131427284E+02 -0.35260189458E+03 -0.13796770187E+04  0.14274511329E+04  0.91658179067E+02 0.  0.
        254    2    1    2    0    0 -0.37131427284E+02  0.35260189458E+03  0.87024719758E+03  0.12914805800E+04  0.88593739320E+03 0.  0.
         23    2    4    4    0    0 -0.23007438124E+03  0.52774006479E+03  0.29568237155E+03  0.65398687538E+03  0.93951963470E+02 0.  0.
         23    2    4    4    0    0  0.19294295396E+03 -0.17513817020E+03  0.57456482603E+03  0.63749370462E+03  0.91504764746E+02 0.  0.
          4    1    3    3  502    0  0.40765038587E+02 -0.33450124587E+03 -0.13569769189E+04  0.13981914140E+04  0.00000000000E+00 0. -1.
         -4    1    3    3    0  502 -0.36336113033E+01 -0.18100648714E+02 -0.22700099878E+02  0.29259718888E+02  0.00000000000E+00 0.  1.
         11    1    5    5    0    0 -0.16464990500E+02  0.69969291793E+01 -0.63265267282E+00  0.17901206091E+02  0.00000000000E+00 0. -1.
        -11    1    5    5    0    0 -0.21360939074E+03  0.52074313561E+03  0.29631502422E+03  0.63608566929E+03  0.00000000000E+00 0.  1.
          3    1    6    6  503    0  0.10557522211E+03 -0.82111380633E+02  0.19036786319E+03  0.23265495844E+03  0.00000000000E+00 0. -1.
         -3    1    6    6    0  503  0.87367731843E+02 -0.93026789572E+02  0.38419696285E+03  0.40483874618E+03  0.00000000000E+00 0.  1.
<mgrwt>
<rscale>  0 0.26707810E+04</rscale>
<asrwt>0</asrwt>
<pdfrwt beam="1">  1        2 0.24833550E+00 0.26707810E+04</pdfrwt>
<pdfrwt beam="2">  1       -2 0.16996168E+00 0.26707810E+04</pdfrwt>
<totfact> 0.20539836E+00</totfact>
</mgrwt>
</event>
<event>
12    2  0.3751044E-008  0.3822880E+04  0.7818608E-02  0.8041263E-01
         -1   -1    0    0    0  501 -0.00000000000E+00  0.00000000000E+00  0.23413289659E+04  0.23413289659E+04  0.00000000000E+00 0.  1.
          1   -1    0    0  501    0  0.00000000000E+00 -0.00000000000E+00 -0.15604824282E+04  0.15604824282E+04  0.00000000000E+00 0. -1.
         23    2    1    2    0    0 -0.82459675363E+03  0.15442662017E+04  0.81266684711E+03  0.19315335275E+04  0.75342257903E+02 0.  0.
        254    2    1    2    0    0  0.82459675363E+03 -0.15442662017E+04 -0.31820309335E+02  0.19702778666E+04  0.90347353678E+03 0.  0.
         23    2    4    4    0    0 -0.12470280612E+02 -0.57273707566E+03  0.28494264953E+03  0.64630150671E+03  0.91269153207E+02 0.  0.
         23    2    4    4    0    0  0.83706703425E+03 -0.97152912602E+03 -0.31676295887E+03  0.13239763599E+04  0.89579946518E+02 0.  0.
          3    1    3    3  502    0 -0.65102122235E+03  0.11529747488E+04  0.62359900199E+03  0.14635761403E+04  0.00000000000E+00 0. -1.
         -3    1    3    3    0  502 -0.17357553129E+03  0.39129145289E+03  0.18906784512E+03  0.46795738718E+03  0.00000000000E+00 0.  1.
         11    1    5    5    0    0  0.29353867841E+02 -0.40421640849E+03  0.21816436081E+03  0.46026975001E+03  0.00000000000E+00 0. -1.
        -11    1    5    5    0    0 -0.41824148453E+02 -0.16852066717E+03  0.66778288723E+02  0.18603175670E+03  0.00000000000E+00 0.  1.
          2    1    6    6  503    0  0.19630304993E+03 -0.23966240015E+03 -0.11560900636E+03  0.33066356892E+03  0.00000000000E+00 0. -1.
         -2    1    6    6    0  503  0.64076398431E+03 -0.73186672587E+03 -0.20115395251E+03  0.99331279093E+03  0.00000000000E+00 0.  1.
<mgrwt>
<rscale>  0 0.38228799E+04</rscale>
<asrwt>0</asrwt>
<pdfrwt beam="1">  1        1 0.24007422E+00 0.38228799E+04</pdfrwt>
<pdfrwt beam="2">  1       -1 0.36020446E+00 0.38228799E+04</pdfrwt>
<totfact> 0.62665606E-02</totfact>
</mgrwt>
</event>
<event>
12    2  0.3751044E-008  0.1979415E+04  0.7818608E-02  0.8616306E-01
         -1   -1    0    0    0  501 -0.00000000000E+00  0.00000000000E+00  0.75833138124E+03  0.75833138124E+03  0.00000000000E+00 0.  1.
          1   -1    0    0  501    0  0.00000000000E+00 -0.00000000000E+00 -0.12916787016E+04  0.12916787016E+04  0.00000000000E+00 0. -1.
         23    2    1    2    0    0  0.38161121257E+03  0.49522093588E+03  0.27670257200E+03  0.69012746255E+03  0.94025040949E+02 0.  0.
        254    2    1    2    0    0 -0.38161121257E+03 -0.49522093588E+03 -0.81004989234E+03  0.13598826203E+04  0.89567238425E+03 0.  0.
         23    2    4    4    0    0 -0.66431453810E+03 -0.28173754654E+03 -0.55059924619E+03  0.91169658026E+03  0.85681234184E+02 0.  0.
         23    2    4    4    0    0  0.28270332554E+03 -0.21348338934E+03 -0.25945064615E+03  0.44818603999E+03  0.89776170904E+02 0.  0.
          1    1    3    3  502    0  0.50532788435E+02  0.24263058030E+02  0.32430759347E+02  0.64761198598E+02  0.00000000000E+00 0. -1.
         -1    1    3    3    0  502  0.33107842413E+03  0.47095787785E+03  0.24427181266E+03  0.62536626395E+03  0.00000000000E+00 0.  1.
         11    1    5    5    0    0 -0.57883352690E+03 -0.24435272588E+03 -0.44022617367E+03  0.76717376812E+03  0.00000000000E+00 0. -1.
        -11    1    5    5    0    0 -0.85481011201E+02 -0.37384820665E+02 -0.11037307251E+03  0.14452281214E+03  0.00000000000E+00 0.  1.
          4    1    6    6  503    0  0.21592166788E+03 -0.18826261017E+03 -0.16773565402E+03  0.33196419488E+03  0.00000000000E+00 0. -1.
         -4    1    6    6    0  503  0.66781657654E+02 -0.25220779167E+02 -0.91714992129E+02  0.11622184512E+03  0.00000000000E+00 0.  1.
<mgrwt>
<rscale>  0 0.19794146E+04</rscale>
<asrwt>0</asrwt>
<pdfrwt beam="1">  1        1 0.19871980E+00 0.19794146E+04</pdfrwt>
<pdfrwt beam="2">  1       -1 0.11666637E+00 0.19794146E+04</pdfrwt>
<totfact> 0.56507805E+00</totfact>
</mgrwt>
</event>
<event>
12    2  0.3751044E-008  0.1892550E+04  0.7818608E-02  0.8658574E-01
          1   -1    0    0  501    0  0.00000000000E+00  0.00000000000E+00  0.17252287320E+04  0.17252287320E+04  0.00000000000E+00 0. -1.
         -1   -1    0    0    0  501 -0.00000000000E+00 -0.00000000000E+00 -0.51902470938E+03  0.51902470938E+03  0.00000000000E+00 0.  1.
         23    2    1    2    0    0 -0.13149729062E+03 -0.32351562317E+03 -0.29209891716E+03  0.46470287226E+03  0.93129405708E+02 0.  0.
        254    2    1    2    0    0  0.13149729062E+03  0.32351562317E+03  0.14983029398E+04  0.17795505691E+04  0.89439064891E+03 0.  0.
         23    2    4    4    0    0 -0.21143976732E+03  0.94540175863E+02  0.12809572318E+04  0.13043913430E+04  0.83311018573E+02 0.  0.
         23    2    4    4    0    0  0.34293705793E+03  0.22897544731E+03  0.21734570798E+03  0.47515922618E+03  0.92203862544E+02 0.  0.
          3    1    3    3  502    0 -0.80940356545E+02 -0.24005660778E+03 -0.15696231796E+03  0.29801960593E+03  0.00000000000E+00 0. -1.
         -3    1    3    3    0  502 -0.50556934070E+02 -0.83459015388E+02 -0.13513659920E+03  0.16668326634E+03  0.00000000000E+00 0.  1.
         11    1    5    5    0    0 -0.54723062855E+02  0.67542745080E+02  0.47731613276E+03  0.48516731816E+03  0.00000000000E+00 0.  1.
        -11    1    5    5    0    0 -0.15671670446E+03  0.26997430784E+02  0.80364109906E+03  0.81922402481E+03  0.00000000000E+00 0. -1.
          1    1    6    6  503    0  0.24706222134E+03  0.19991796640E+03  0.19381469683E+03  0.37225135488E+03  0.00000000000E+00 0. -1.
         -1    1    6    6    0  503  0.95874836595E+02  0.29057480906E+02  0.23531011151E+02  0.10290787130E+03  0.00000000000E+00 0.  1.
<mgrwt>
<rscale>  0 0.18925500E+04</rscale>
<asrwt>0</asrwt>
<pdfrwt beam="1">  1        1 0.26541980E+00 0.18925500E+04</pdfrwt>
<pdfrwt beam="2">  1       -1 0.79849956E-01 0.18925500E+04</pdfrwt>
<totfact> 0.67159301E+00</totfact>
</mgrwt>
</event>
<event>
12    2  0.3751044E-008  0.3539397E+04  0.7818608E-02  0.8104516E-01
          2   -1    0    0  501    0  0.00000000000E+00  0.00000000000E+00  0.11174953067E+04  0.11174953067E+04  0.00000000000E+00 0. -1.
         -2   -1    0    0    0  501 -0.00000000000E+00 -0.00000000000E+00 -0.28025465923E+04  0.28025465923E+04  0.00000000000E+00 0.  1.
         23    2    1    2    0    0  0.74043234883E+03 -0.14613705371E+04 -0.53448184466E+03  0.17256744619E+04  0.91856389254E+02 0.  0.
        254    2    1    2    0    0 -0.74043234883E+03  0.14613705371E+04 -0.11505694409E+04  0.21943674371E+04  0.89866261795E+03 0.  0.
         23    2    4    4    0    0  0.18893559866E+03  0.34480128375E+03 -0.16334923127E+03  0.43556410576E+03  0.91915902573E+02 0.  0.
         23    2    4    4    0    0 -0.92936794749E+03  0.11165692533E+04 -0.98722020960E+03  0.17588033314E+04  0.91289302804E+02 0.  0.
          4    1    3    3  502    0  0.67244759560E+03 -0.13036923345E+04 -0.45044669202E+03  0.15345037290E+04  0.00000000000E+00 0. -1.
         -4    1    3    3    0  502  0.67984753236E+02 -0.15767820257E+03 -0.84035152633E+02  0.19117073290E+03  0.00000000000E+00 0.  1.
         11    1    5    5    0    0  0.15427831418E+03  0.29640816808E+03 -0.17131378504E+03  0.37551033711E+03  0.00000000000E+00 0.  1.
        -11    1    5    5    0    0  0.34657284485E+02  0.48393115675E+02  0.79645537632E+01  0.60053768652E+02  0.00000000000E+00 0. -1.
          4    1    6    6  503    0 -0.10907165958E+03  0.15489816294E+03 -0.97471550247E+02  0.21305109930E+03  0.00000000000E+00 0. -1.
         -4    1    6    6    0  503 -0.82029628792E+03  0.96167109040E+03 -0.88974865936E+03  0.15457522321E+04  0.00000000000E+00 0.  1.
<mgrwt>
<rscale>  0 0.35393969E+04</rscale>
<asrwt>0</asrwt>
<pdfrwt beam="1">  1        2 0.17192236E+00 0.35393969E+04</pdfrwt>
<pdfrwt beam="2">  1       -2 0.43116100E+00 0.35393969E+04</pdfrwt>
<totfact> 0.80442947E-02</totfact>
</mgrwt>
</event>
<event>
12    2  0.3751044E-008  0.1732024E+04  0.7818608E-02  0.8743308E-01
          2   -1    0    0  501    0  0.00000000000E+00  0.00000000000E+00  0.13105014354E+04  0.13105014354E+04  0.00000000000E+00 0. -1.
         -2   -1    0    0    0  501 -0.00000000000E+00 -0.00000000000E+00 -0.57228259841E+03  0.57228259841E+03  0.00000000000E+00 0.  1.
         23    2    1    2    0    0 -0.58661640506E+03  0.12528476180E+03  0.47789734748E+03  0.77191424630E+03  0.87467998116E+02 0.  0.
        254    2    1    2    0    0  0.58661640506E+03 -0.12528476180E+03  0.26032148955E+03  0.11108697876E+04  0.89802523837E+03 0.  0.
         23    2    4    4    0    0  0.12508968740E+03 -0.35755837040E+03 -0.17669351889E+03  0.42814210724E+03  0.92680344390E+02 0.  0.
         23    2    4    4    0    0  0.46152671766E+03  0.23227360860E+03  0.43701500844E+03  0.68272768031E+03  0.90426918020E+02 0.  0.
          4    1    3    3  502    0 -0.46629563987E+03  0.10736731551E+03  0.33425805531E+03  0.58368468520E+03  0.00000000000E+00 0. -1.
         -4    1    3    3    0  502 -0.12032076519E+03  0.17917446293E+02  0.14363929217E+03  0.18822956110E+03  0.00000000000E+00 0.  1.
         11    1    5    5    0    0 -0.12614252152E+02 -0.11583125843E+02 -0.12361223368E+02  0.21120795554E+02  0.00000000000E+00 0. -1.
        -11    1    5    5    0    0  0.13770393956E+03 -0.34597524455E+03 -0.16433229552E+03  0.40702131168E+03  0.00000000000E+00 0.  1.
          1    1    6    6  503    0  0.12386942018E+03  0.20722695471E+02  0.11751020052E+03  0.17199334461E+03  0.00000000000E+00 0. -1.
         -1    1    6    6    0  503  0.33765729747E+03  0.21155091313E+03  0.31950480792E+03  0.51073433570E+03  0.00000000000E+00 0.  1.
<mgrwt>
<rscale>  0 0.17320244E+04</rscale>
<asrwt>0</asrwt>
<pdfrwt beam="1">  1        2 0.20161560E+00 0.17320244E+04</pdfrwt>
<pdfrwt beam="2">  1       -2 0.88043477E-01 0.17320244E+04</pdfrwt>
<totfact> 0.17201286E+01</totfact>
</mgrwt>
</event>
<event>
12    2  0.3751044E-008  0.1105505E+04  0.7818608E-02  0.9199843E-01
         -1   -1    0    0    0  501 -0.00000000000E+00  0.00000000000E+00  0.26244542796E+03  0.26244542796E+03  0.00000000000E+00 0.  1.
          1   -1    0    0  501    0  0.00000000000E+00 -0.00000000000E+00 -0.11641861095E+04  0.11641861095E+04  0.00000000000E+00 0. -1.
         23    2    1    2    0    0 -0.33497914767E+02 -0.15318096081E+03 -0.11285265620E+03  0.21687911035E+03  0.98561196465E+02 0.  0.
        254    2    1    2    0    0  0.33497914767E+02  0.15318096081E+03 -0.78888802530E+03  0.12097524271E+04  0.90364268453E+03 0.  0.
         23    2    4    4    0    0  0.39008247887E+03  0.23086184906E+02 -0.91158128043E+02  0.41028014660E+03  0.85572671616E+02 0.  0.
         23    2    4    4    0    0 -0.35658456410E+03  0.13009477590E+03 -0.69772989726E+03  0.79947228048E+03  0.90838954509E+02 0.  0.
          1    1    3    3  502    0  0.10464735154E+02 -0.69118201360E+00 -0.41627610284E+02  0.42928386324E+02  0.00000000000E+00 0. -1.
         -1    1    3    3    0  502 -0.43962649922E+02 -0.15248977879E+03 -0.71225045916E+02  0.17395072403E+03  0.00000000000E+00 0.  1.
         11    1    5    5    0    0  0.38740533650E+02  0.23122932224E+02  0.65873800854E+01  0.45594873819E+02  0.00000000000E+00 0. -1.
        -11    1    5    5    0    0  0.35134194522E+03 -0.36747318384E-01 -0.97745508128E+02  0.36468527278E+03  0.00000000000E+00 0.  1.
          2    1    6    6  503    0 -0.16897499601E+02  0.32701698219E+02 -0.71552212107E+02  0.80465182635E+02  0.00000000000E+00 0. -1.
         -2    1    6    6    0  503 -0.33968706450E+03  0.97393077681E+02 -0.62617768515E+03  0.71900709785E+03  0.00000000000E+00 0.  1.
<mgrwt>
<rscale>  0 0.11055050E+04</rscale>
<asrwt>0</asrwt>
<pdfrwt beam="1">  1        1 0.17910555E+00 0.11055050E+04</pdfrwt>
<pdfrwt beam="2">  1       -1 0.40376220E-01 0.11055050E+04</pdfrwt>
<totfact> 0.67669324E+01</totfact>
</mgrwt>
</event>
<event>
12    2  0.3751044E-008  0.1588508E+04  0.7818608E-02  0.8827639E-01
          2   -1    0    0  501    0  0.00000000000E+00  0.00000000000E+00  0.92669735013E+03  0.92669735013E+03  0.00000000000E+00 0. -1.
         -2   -1    0    0    0  501 -0.00000000000E+00 -0.00000000000E+00 -0.68073928279E+03  0.68073928279E+03  0.00000000000E+00 0.  1.
         23    2    1    2    0    0  0.37675112572E+03 -0.15847629572E+03  0.43217931737E+03  0.60194115204E+03  0.92184820478E+02 0.  0.
        254    2    1    2    0    0 -0.37675112572E+03  0.15847629572E+03 -0.18622125003E+03  0.10054954809E+04  0.89960361331E+03 0.  0.
         23    2    4    4    0    0 -0.61611893921E+03 -0.74016188076E+02 -0.20057876818E+03  0.65847407750E+03  0.90968814138E+02 0.  0.
         23    2    4    4    0    0  0.23936781349E+03  0.23249248379E+03  0.14357518158E+02  0.34702140338E+03  0.94170116927E+02 0.  0.
          1    1    3    3  502    0  0.34386850873E+03 -0.11134716462E+03  0.37684186741E+03  0.52216236497E+03  0.00000000000E+00 0. -1.
         -1    1    3    3    0  502  0.32882616992E+02 -0.47129131095E+02  0.55337449960E+02  0.79778787069E+02  0.00000000000E+00 0.  1.
         11    1    5    5    0    0 -0.30439525969E+03  0.92004212426E+01 -0.95861291550E+02  0.31926557768E+03  0.00000000000E+00 0. -1.
        -11    1    5    5    0    0 -0.31172367952E+03 -0.83216609319E+02 -0.10471747663E+03  0.33920849982E+03  0.00000000000E+00 0.  1.
          4    1    6    6  503    0  0.22029324959E+03  0.19184710169E+03 -0.16427996962E+02  0.29258213433E+03  0.00000000000E+00 0. -1.
         -4    1    6    6    0  503  0.19074563898E+02  0.40645382099E+02  0.30785515119E+02  0.54439269053E+02  0.00000000000E+00 0.  1.
<mgrwt>
<rscale>  0 0.15885078E+04</rscale>
<asrwt>0</asrwt>
<pdfrwt beam="1">  1        2 0.14256882E+00 0.15885078E+04</pdfrwt>
<pdfrwt beam="2">  1       -2 0.10472912E+00 0.15885078E+04</pdfrwt>
<totfact> 0.19975651E+01</totfact>
</mgrwt>
</event>
<event>
12    2  0.3751044E-008  0.1856749E+04  0.7818608E-02  0.8676690E-01
          2   -1    0    0  501    0  0.00000000000E+00  0.00000000000E+00  0.15953013303E+04  0.15953013303E+04  0.00000000000E+00 0. -1.
         -2   -1    0    0    0  501 -0.00000000000E+00 -0.00000000000E+00 -0.54026124362E+03  0.54026124362E+03  0.00000000000E+00 0.  1.
         23    2    1    2    0    0 -0.24494714677E+03  0.21526242457E+03  0.11414240220E+04  0.11905933062E+04  0.91250241242E+02 0.  0.
        254    2    1    2    0    0  0.24494714677E+03 -0.21526242457E+03 -0.86383935367E+02  0.94496926772E+03  0.88270477313E+03 0.  0.
         23    2    4    4    0    0  0.53892485328E+02  0.16902016435E+03 -0.37139553933E+03  0.42184940132E+03  0.92466506507E+02 0.  0.
         23    2    4    4    0    0  0.19105466144E+03 -0.38428258892E+03  0.28501160396E+03  0.52311986640E+03  0.90817335505E+02 0.  0.
          2    1    3    3  502    0 -0.15366915250E+02  0.32687189023E+02  0.59441116501E+02  0.69554588213E+02  0.00000000000E+00 0.  1.
         -2    1    3    3    0  502 -0.22958023152E+03  0.18257523554E+03  0.10819829055E+04  0.11210387180E+04  0.00000000000E+00 0. -1.
         11    1    5    5    0    0  0.19124112745E+02  0.94178769596E+02 -0.29171360936E+03  0.30713547860E+03  0.00000000000E+00 0.  1.
        -11    1    5    5    0    0  0.34768372583E+02  0.74841394753E+02 -0.79681929971E+02  0.11471392271E+03  0.00000000000E+00 0. -1.
          2    1    6    6  503    0  0.87815931119E+02 -0.15491057044E+03  0.67007311646E+02  0.19026009147E+03  0.00000000000E+00 0. -1.
         -2    1    6    6    0  503  0.10323873032E+03 -0.22937201847E+03  0.21800429232E+03  0.33285977493E+03  0.00000000000E+00 0.  1.
<mgrwt>
<rscale>  0 0.18567493E+04</rscale>
<asrwt>0</asrwt>
<pdfrwt beam="1">  1        2 0.24543097E+00 0.18567493E+04</pdfrwt>
<pdfrwt beam="2">  1       -2 0.83117115E-01 0.18567493E+04</pdfrwt>
<totfact> 0.13368450E+01</totfact>
</mgrwt>
</event>
<event>
12    2  0.3751044E-008  0.1628321E+04  0.7818608E-02  0.8803336E-01
          1   -1    0    0  501    0  0.00000000000E+00  0.00000000000E+00  0.51889013742E+03  0.51889013742E+03  0.00000000000E+00 0. -1.
         -1   -1    0    0    0  501 -0.00000000000E+00 -0.00000000000E+00 -0.12774522672E+04  0.12774522672E+04  0.00000000000E+00 0.  1.
         23    2    1    2    0    0  0.11852378899E+03  0.68747296863E+02  0.33872840975E+03  0.37655682815E+03  0.91016646137E+02 0.  0.
        254    2    1    2    0    0 -0.11852378899E+03 -0.68747296863E+02 -0.10972905395E+04  0.14197855765E+04  0.89048889697E+03 0.  0.
         23    2    4    4    0    0  0.37240270749E+03 -0.10829852340E+03 -0.53105768481E+03  0.66390958511E+03  0.91330859408E+02 0.  0.
         23    2    4    4    0    0 -0.49092649648E+03  0.39551226542E+02 -0.56623285470E+03  0.75587599135E+03  0.90309158426E+02 0.  0.
          2    1    3    3  502    0  0.94011782075E+02  0.90939249082E+02  0.28284634357E+03  0.31162512136E+03  0.00000000000E+00 0. -1.
         -2    1    3    3    0  502  0.24512006914E+02 -0.22191952219E+02  0.55882066176E+02  0.64931706788E+02  0.00000000000E+00 0.  1.
         11    1    5    5    0    0  0.35475145626E+03 -0.86764638536E+02 -0.51626168355E+03  0.63237870309E+03  0.00000000000E+00 0. -1.
        -11    1    5    5    0    0  0.17651251232E+02 -0.21533884868E+02 -0.14796001267E+02  0.31530882022E+02  0.00000000000E+00 0.  1.
          3    1    6    6  503    0 -0.48503975605E+03  0.28598137255E+02 -0.53745736777E+03  0.72452870238E+03  0.00000000000E+00 0. -1.
         -3    1    6    6    0  503 -0.58867404281E+01  0.10953089287E+02 -0.28775486929E+02  0.31347288971E+02  0.00000000000E+00 0.  1.
<mgrwt>
<rscale>  0 0.16283211E+04</rscale>
<asrwt>0</asrwt>
<pdfrwt beam="1">  1        1 0.79829252E-01 0.16283211E+04</pdfrwt>
<pdfrwt beam="2">  1       -1 0.19653112E+00 0.16283211E+04</pdfrwt>
<totfact> 0.64090649E+00</totfact>
</mgrwt>
</event>
<event>
12    2  0.3751044E-008  0.1816334E+04  0.7818608E-02  0.8697661E-01
         -2   -1    0    0    0  501 -0.00000000000E+00  0.00000000000E+00  0.34579340736E+03  0.34579340736E+03  0.00000000000E+00 0.  1.
          2   -1    0    0  501    0  0.00000000000E+00 -0.00000000000E+00 -0.23851445974E+04  0.23851445974E+04  0.00000000000E+00 0. -1.
         23    2    1    2    0    0 -0.59478092882E+01  0.31707649036E+03 -0.16852539211E+04  0.17172351840E+04  0.90791086302E+02 0.  0.
        254    2    1    2    0    0  0.59478092882E+01 -0.31707649036E+03 -0.35409726896E+03  0.10137028208E+04  0.89534108352E+03 0.  0.
         23    2    4    4    0    0 -0.15011112506E+03 -0.55652032800E+03 -0.40344271194E+03  0.70966544494E+03  0.92794377990E+02 0.  0.
         23    2    4    4    0    0  0.15605893435E+03  0.23944383764E+03  0.49345442978E+02  0.30403737586E+03  0.91192164182E+02 0.  0.
          3    1    3    3  502    0 -0.42458521592E+02  0.15970347479E+03 -0.96882234878E+03  0.98281466686E+03  0.00000000000E+00 0.  1.
         -3    1    3    3    0  502  0.36510712304E+02  0.15737301557E+03 -0.71643157232E+03  0.73442051712E+03  0.00000000000E+00 0. -1.
         11    1    5    5    0    0  0.11998631515E+02 -0.67769536063E+02 -0.51246236738E+02  0.85807074045E+02  0.00000000000E+00 0.  1.
        -11    1    5    5    0    0 -0.16210975657E+03 -0.48875079193E+03 -0.35219647520E+03  0.62385837089E+03  0.00000000000E+00 0. -1.
          2    1    6    6  503    0  0.10445918649E+03  0.13074215657E+03  0.70984389622E+02  0.18178013290E+03  0.00000000000E+00 0. -1.
         -2    1    6    6    0  503  0.51599747856E+02  0.10870168107E+03 -0.21638946644E+02  0.12225724297E+03  0.00000000000E+00 0.  1.
<mgrwt>
<rscale>  0 0.18163340E+04</rscale>
<asrwt>0</asrwt>
<pdfrwt beam="1">  1        2 0.36694532E+00 0.18163340E+04</pdfrwt>
<pdfrwt beam="2">  1       -2 0.53198986E-01 0.18163340E+04</pdfrwt>
<totfact> 0.12743054E+01</totfact>
</mgrwt>
</event>
<event>
12    2  0.3751044E-008  0.1950725E+04  0.7818608E-02  0.8630011E-01
         -1   -1    0    0    0  501 -0.00000000000E+00  0.00000000000E+00  0.11565261829E+04  0.11565261829E+04  0.00000000000E+00 0.  1.
          1   -1    0    0  501    0  0.00000000000E+00 -0.00000000000E+00 -0.82257672712E+03  0.82257672712E+03  0.00000000000E+00 0. -1.
         23    2    1    2    0    0  0.57223414244E+03 -0.49928144947E+03  0.45106822066E+02  0.76627964461E+03  0.91738698489E+02 0.  0.
        254    2    1    2    0    0 -0.57223414244E+03  0.49928144947E+03  0.28884263370E+03  0.12128232654E+04  0.90043118919E+03 0.  0.
         23    2    4    4    0    0 -0.38992071246E+03  0.61472811822E+03  0.50754314677E+03  0.89223502338E+03  0.92490376666E+02 0.  0.
         23    2    4    4    0    0 -0.18231342997E+03 -0.11544666876E+03 -0.21870051307E+03  0.32058824200E+03  0.91546635205E+02 0.  0.
          3    1    3    3  502    0  0.10440115532E+03 -0.10242155379E+03 -0.26481536633E+02  0.14863057456E+03  0.00000000000E+00 0. -1.
         -3    1    3    3    0  502  0.46783298712E+03 -0.39685989568E+03  0.71588358700E+02  0.61764907005E+03  0.00000000000E+00 0.  1.
         11    1    5    5    0    0 -0.22036115082E+03  0.36613480889E+03  0.24313067005E+03  0.49165664624E+03  0.00000000000E+00 0. -1.
        -11    1    5    5    0    0 -0.16955956164E+03  0.24859330933E+03  0.26441247673E+03  0.40057837715E+03  0.00000000000E+00 0.  1.
          1    1    6    6  503    0 -0.13081463176E+03 -0.31215989461E+02 -0.14191308689E+03  0.19551529380E+03  0.00000000000E+00 0. -1.
         -1    1    6    6    0  503 -0.51498798213E+02 -0.84230679294E+02 -0.76787426187E+02  0.12507294820E+03  0.00000000000E+00 0.  1.
<mgrwt>
<rscale>  0 0.19507245E+04</rscale>
<asrwt>0</asrwt>
<pdfrwt beam="1">  1        1 0.12655027E+00 0.19507245E+04</pdfrwt>
<pdfrwt beam="2">  1       -1 0.17792710E+00 0.19507245E+04</pdfrwt>
<totfact> 0.42407984E+00</totfact>
</mgrwt>
</event>
<event>
12    2  0.3751044E-008  0.1931475E+04  0.7818608E-02  0.8639346E-01
         -1   -1    0    0    0  501 -0.00000000000E+00  0.00000000000E+00  0.67184557627E+03  0.67184557627E+03  0.00000000000E+00 0.  1.
          1   -1    0    0  501    0  0.00000000000E+00 -0.00000000000E+00 -0.13881889534E+04  0.13881889534E+04  0.00000000000E+00 0. -1.
         23    2    1    2    0    0  0.57243919598E+03 -0.47349412768E+02 -0.80140593344E+03  0.99019979948E+03  0.91189762313E+02 0.  0.
        254    2    1    2    0    0 -0.57243919598E+03  0.47349412768E+02  0.85062556261E+02  0.10698347302E+04  0.89854444050E+03 0.  0.
         23    2    4    4    0    0 -0.71699026938E+03  0.23628471509E+03 -0.83167176881E+02  0.76502023699E+03  0.91835019063E+02 0.  0.
         23    2    4    4    0    0  0.14455107340E+03 -0.18893530232E+03  0.16822973314E+03  0.30481449324E+03  0.89549265161E+02 0.  0.
          2    1    3    3  502    0  0.38891523918E+03 -0.59090668981E+01 -0.48041357744E+03  0.61813201319E+03  0.00000000000E+00 0. -1.
         -2    1    3    3    0  502  0.18352395680E+03 -0.41440345870E+02 -0.32099235600E+03  0.37206778629E+03  0.00000000000E+00 0.  1.
         11    1    5    5    0    0 -0.46272543038E+03  0.19065763624E+03 -0.30598425332E+02  0.50139946331E+03  0.00000000000E+00 0.  1.
        -11    1    5    5    0    0 -0.25426483900E+03  0.45627078850E+02 -0.52568751549E+02  0.26362077368E+03  0.00000000000E+00 0. -1.
          4    1    6    6  503    0  0.15850699812E+02 -0.14648860740E+02  0.57677366088E+02  0.61583377338E+02  0.00000000000E+00 0. -1.
         -4    1    6    6    0  503  0.12870037359E+03 -0.17428644158E+03  0.11055236705E+03  0.24323111590E+03  0.00000000000E+00 0.  1.
<mgrwt>
<rscale>  0 0.19314747E+04</rscale>
<asrwt>0</asrwt>
<pdfrwt beam="1">  1        1 0.21356753E+00 0.19314747E+04</pdfrwt>
<pdfrwt beam="2">  1       -1 0.10336086E+00 0.19314747E+04</pdfrwt>
<totfact> 0.64533961E+00</totfact>
</mgrwt>
</event>
<event>
12    2  0.3751044E-008  0.1798104E+04  0.7818608E-02  0.8707308E-01
          1   -1    0    0  501    0  0.00000000000E+00  0.00000000000E+00  0.28940594481E+04  0.28940594481E+04  0.00000000000E+00 0. -1.
         -1   -1    0    0    0  501 -0.00000000000E+00 -0.00000000000E+00 -0.27929432179E+03  0.27929432179E+03  0.00000000000E+00 0.  1.
         23    2    1    2    0    0 -0.32995827365E+03 -0.51883185565E+03  0.52803972318E+03  0.81549756010E+03  0.90284907252E+02 0.  0.
        254    2    1    2    0    0  0.32995827365E+03  0.51883185565E+03  0.20867254031E+04  0.23578562098E+04  0.90939762545E+03 0.  0.
         23    2    4    4    0    0  0.22918200802E+03 -0.21707290857E+03  0.43922942652E+03  0.54833315164E+03  0.90009530752E+02 0.  0.
         23    2    4    4    0    0  0.10077626563E+03  0.73590476422E+03  0.16474959766E+04  0.18095230581E+04  0.91755257687E+02 0.  0.
          3    1    3    3  502    0 -0.29265835563E+02 -0.95658341827E+02  0.60767971800E+02  0.11704594777E+03  0.00000000000E+00 0. -1.
         -3    1    3    3    0  502 -0.30069243809E+03 -0.42317351383E+03  0.46727175138E+03  0.69845161233E+03  0.00000000000E+00 0.  1.
         11    1    5    5    0    0  0.15006008324E+03 -0.16212779619E+03  0.23504830873E+03  0.32256961778E+03  0.00000000000E+00 0.  1.
        -11    1    5    5    0    0  0.79121924776E+02 -0.54945112381E+02  0.20418111780E+03  0.22576353386E+03  0.00000000000E+00 0. -1.
          4    1    6    6  503    0  0.24070727713E+02  0.36681042009E+02  0.12236772839E+03  0.12999522963E+03  0.00000000000E+00 0.  1.
         -4    1    6    6    0  503  0.76705537918E+02  0.69922372221E+03  0.15251282482E+04  0.16795278285E+04  0.00000000000E+00 0. -1.
<mgrwt>
<rscale>  0 0.17981039E+04</rscale>
<asrwt>0</asrwt>
<pdfrwt beam="1">  1        1 0.44523990E+00 0.17981039E+04</pdfrwt>
<pdfrwt beam="2">  1       -1 0.42968359E-01 0.17981039E+04</pdfrwt>
<totfact> 0.36035803E+00</totfact>
</mgrwt>
</event>
<event>
12    2  0.3751044E-008  0.2134993E+04  0.7818608E-02  0.8545984E-01
         -2   -1    0    0    0  501 -0.00000000000E+00  0.00000000000E+00  0.87454200166E+03  0.87454200166E+03  0.00000000000E+00 0.  1.
          2   -1    0    0  501    0  0.00000000000E+00 -0.00000000000E+00 -0.13030229265E+04  0.13030229265E+04  0.00000000000E+00 0. -1.
         23    2    1    2    0    0  0.37092172099E+03 -0.79842373928E+03 -0.21083777266E+03  0.90987963130E+03  0.91460300264E+02 0.  0.
        254    2    1    2    0    0 -0.37092172099E+03  0.79842373928E+03 -0.21764315219E+03  0.12676852969E+04  0.88577315362E+03 0.  0.
         23    2    4    4    0    0 -0.16420416911E+02 -0.17814776254E+03 -0.53198097544E+02  0.21195746382E+03  0.10044736680E+03 0.  0.
         23    2    4    4    0    0 -0.35450130408E+03  0.97657150182E+03 -0.16444505464E+03  0.10557278331E+04  0.90310623674E+02 0.  0.
          1    1    3    3  502    0  0.28458641110E+03 -0.50993449542E+03 -0.14140187775E+03  0.60084699054E+03  0.00000000000E+00 0.  1.
         -1    1    3    3    0  502  0.86335309891E+02 -0.28848924386E+03 -0.69435894908E+02  0.30903264076E+03  0.00000000000E+00 0. -1.
         11    1    5    5    0    0  0.31481672564E+02 -0.14640393252E+02 -0.11149513564E+02  0.36465716429E+02  0.00000000000E+00 0.  1.
        -11    1    5    5    0    0 -0.47902089475E+02 -0.16350736929E+03 -0.42048583980E+02  0.17549174739E+03  0.00000000000E+00 0. -1.
          1    1    6    6  503    0 -0.35326442788E+03  0.95951679415E+03 -0.17232295176E+03  0.10369008795E+04  0.00000000000E+00 0. -1.
         -1    1    6    6    0  503 -0.12368761962E+01  0.17054707669E+02  0.78778971174E+01  0.18826953534E+02  0.00000000000E+00 0.  1.
<mgrwt>
<rscale>  0 0.21349925E+04</rscale>
<asrwt>0</asrwt>
<pdfrwt beam="1">  1        2 0.20046507E+00 0.21349925E+04</pdfrwt>
<pdfrwt beam="2">  1       -2 0.13454492E+00 0.21349925E+04</pdfrwt>
<totfact> 0.60215279E+00</totfact>
</mgrwt>
</event>
<event>
12    2  0.3751044E-008  0.1693574E+04  0.7818608E-02  0.8765038E-01
         -2   -1    0    0    0  501 -0.00000000000E+00  0.00000000000E+00  0.12316298568E+04  0.12316298568E+04  0.00000000000E+00 0.  1.
          2   -1    0    0  501    0  0.00000000000E+00 -0.00000000000E+00 -0.58219463127E+03  0.58219463127E+03  0.00000000000E+00 0. -1.
         23    2    1    2    0    0  0.54383512665E+02 -0.27952357270E+03 -0.33390057798E+03  0.44810390967E+03  0.90645042576E+02 0.  0.
        254    2    1    2    0    0 -0.54383512665E+02  0.27952357270E+03  0.98333580355E+03  0.13657205784E+04  0.90396482325E+03 0.  0.
         23    2    4    4    0    0 -0.39043229480E+03  0.46414061996E+02  0.82769234383E+03  0.91971000412E+03  0.78741562582E+02 0.  0.
         23    2    4    4    0    0  0.33604878213E+03  0.23310951070E+03  0.15564345972E+03  0.44601057431E+03  0.86207412036E+02 0.  0.
          4    1    3    3  502    0  0.16326890664E+02 -0.15426375288E+03 -0.24456581322E+03  0.28961407046E+03  0.00000000000E+00 0. -1.
         -4    1    3    3    0  502  0.38056622001E+02 -0.12525981982E+03 -0.89334764763E+02  0.15848983922E+03  0.00000000000E+00 0.  1.
         11    1    5    5    0    0 -0.29516302395E+03  0.32111605469E+02  0.53895089633E+03  0.61532140753E+03  0.00000000000E+00 0. -1.
        -11    1    5    5    0    0 -0.95269270853E+02  0.14302456528E+02  0.28874144750E+03  0.30438859659E+03  0.00000000000E+00 0.  1.
          2    1    6    6  503    0  0.33647659657E+03  0.23856671942E+03  0.15299518477E+03  0.43992966053E+03  0.00000000000E+00 0. -1.
         -2    1    6    6    0  503 -0.42781443066E+00 -0.54572087198E+01  0.26482749475E+01  0.60809137797E+01  0.00000000000E+00 0.  1.
<mgrwt>
<rscale>  0 0.16935741E+04</rscale>
<asrwt>0</asrwt>
<pdfrwt beam="1">  1        2 0.89568406E-01 0.16935741E+04</pdfrwt>
<pdfrwt beam="2">  1       -2 0.18948151E+00 0.16935741E+04</pdfrwt>
<totfact> 0.76438074E+00</totfact>
</mgrwt>
</event>
<event>
12    2  0.3751044E-008  0.1656987E+04  0.7818608E-02  0.8786284E-01
          1   -1    0    0  501    0  0.00000000000E+00  0.00000000000E+00  0.29152242523E+04  0.29152242523E+04  0.00000000000E+00 0. -1.
         -1   -1    0    0    0  501 -0.00000000000E+00 -0.00000000000E+00 -0.23545409496E+03  0.23545409496E+03  0.00000000000E+00 0.  1.
         23    2    1    2    0    0  0.19951000737E+03 -0.44557979752E+03  0.36128001717E+03  0.61402154554E+03  0.90297334274E+02 0.  0.
        254    2    1    2    0    0 -0.19951000737E+03  0.44557979752E+03  0.23184901402E+04  0.25366568017E+04  0.90602737302E+03 0.  0.
         23    2    4    4    0    0 -0.14196380313E+03 -0.13474864072E+03  0.94813750427E+02  0.23579375765E+03  0.91094079391E+02 0.  0.
         23    2    4    4    0    0 -0.57546204243E+02  0.58032843825E+03  0.22236763898E+04  0.23008630441E+04  0.95610665912E+02 0.  0.
          4    1    3    3  502    0  0.81852213516E+02 -0.11255117473E+03  0.13901656681E+03  0.19670576412E+03  0.00000000000E+00 0. -1.
         -4    1    3    3    0  502  0.11765779386E+03 -0.33302862280E+03  0.22226345036E+03  0.41731578142E+03  0.00000000000E+00 0.  1.
         11    1    5    5    0    0 -0.47799628754E+02 -0.20840207019E+02 -0.11921554790E+02  0.53490580537E+02  0.00000000000E+00 0.  1.
        -11    1    5    5    0    0 -0.94164174374E+02 -0.11390843370E+03  0.10673530522E+03  0.18230317711E+03  0.00000000000E+00 0. -1.
          1    1    6    6  503    0 -0.84535381200E+01  0.46979946238E+03  0.17476929017E+04  0.18097550873E+04  0.00000000000E+00 0. -1.
         -1    1    6    6    0  503 -0.49092666123E+02  0.11052897587E+03  0.47598348802E+03  0.49110795681E+03  0.00000000000E+00 0.  1.
<mgrwt>
<rscale>  0 0.16569870E+04</rscale>
<asrwt>0</asrwt>
<pdfrwt beam="1">  1        1 0.44849601E+00 0.16569870E+04</pdfrwt>
<pdfrwt beam="2">  1       -1 0.36223709E-01 0.16569870E+04</pdfrwt>
<totfact> 0.48171551E+00</totfact>
</mgrwt>
</event>
<event>
12    2  0.3751044E-008  0.2147884E+04  0.7818608E-02  0.8540439E-01
         -1   -1    0    0    0  501 -0.00000000000E+00  0.00000000000E+00  0.17199533411E+04  0.17199533411E+04  0.00000000000E+00 0.  1.
          1   -1    0    0  501    0  0.00000000000E+00 -0.00000000000E+00 -0.67057104753E+03  0.67057104753E+03  0.00000000000E+00 0. -1.
         23    2    1    2    0    0  0.65890359450E+03  0.58237608392E+03  0.52411405050E+03  0.10281492411E+04  0.95286274809E+02 0.  0.
        254    2    1    2    0    0 -0.65890359450E+03 -0.58237608392E+03  0.52526824306E+03  0.13623751475E+04  0.89824465782E+03 0.  0.
         23    2    4    4    0    0  0.80153324437E+02  0.15483419697E+03  0.20937495698E+02  0.19904231888E+03  0.93708494846E+02 0.  0.
         23    2    4    4    0    0 -0.73905691893E+03 -0.73721028090E+03  0.50433074736E+03  0.11633328286E+04  0.96486473976E+02 0.  0.
          3    1    3    3  502    0  0.49640446292E+03  0.45932595376E+03  0.35810940939E+03  0.76527124061E+03  0.00000000000E+00 0. -1.
         -3    1    3    3    0  502  0.16249913158E+03  0.12305013016E+03  0.16600464112E+03  0.26287800054E+03  0.00000000000E+00 0.  1.
         11    1    5    5    0    0 -0.13807044815E+02  0.23379023341E-01 -0.75265485595E+01  0.15725265223E+02  0.00000000000E+00 0.  1.
        -11    1    5    5    0    0  0.93960369252E+02  0.15481081795E+03  0.28464044258E+02  0.18331705365E+03  0.00000000000E+00 0. -1.
          4    1    6    6  503    0 -0.30946943621E+03 -0.34671561615E+03  0.18035932270E+03  0.49851031656E+03  0.00000000000E+00 0. -1.
         -4    1    6    6    0  503 -0.42958748272E+03 -0.39049466475E+03  0.32397142467E+03  0.66482251204E+03  0.00000000000E+00 0.  1.
<mgrwt>
<rscale>  0 0.21478835E+04</rscale>
<asrwt>0</asrwt>
<pdfrwt beam="1">  1        1 0.10316478E+00 0.21478835E+04</pdfrwt>
<pdfrwt beam="2">  1       -1 0.26460820E+00 0.21478835E+04</pdfrwt>
<totfact> 0.14912924E+00</totfact>
</mgrwt>
</event>
<event>
12    2  0.3751044E-008  0.2234768E+04  0.7818608E-02  0.8504095E-01
         -2   -1    0    0    0  501 -0.00000000000E+00  0.00000000000E+00  0.98180569038E+03  0.98180569038E+03  0.00000000000E+00 0.  1.
          2   -1    0    0  501    0  0.00000000000E+00 -0.00000000000E+00 -0.12716848838E+04  0.12716848838E+04  0.00000000000E+00 0. -1.
         23    2    1    2    0    0 -0.65164137616E+02 -0.48966228987E+03  0.67961465806E+03  0.84521689767E+03  0.92195432118E+02 0.  0.
        254    2    1    2    0    0  0.65164137616E+02  0.48966228987E+03 -0.96949385145E+03  0.14082736765E+04  0.89403629510E+03 0.  0.
         23    2    4    4    0    0  0.12690527359E+03  0.32621727272E+03  0.54902395292E+02  0.36518284299E+03  0.88439687474E+02 0.  0.
         23    2    4    4    0    0 -0.61741135970E+02  0.16344501715E+03 -0.10243962467E+04  0.10430908335E+04  0.90136424914E+02 0.  0.
          3    1    3    3  502    0 -0.17260721459E+02 -0.29794125650E+03  0.47325064836E+03  0.55949361123E+03  0.00000000000E+00 0. -1.
         -3    1    3    3    0  502 -0.47903416157E+02 -0.19172103337E+03  0.20636400970E+03  0.28572328644E+03  0.00000000000E+00 0.  1.
         11    1    5    5    0    0  0.22306950256E+01  0.37429171140E+02  0.32866299933E+02  0.49860931839E+02  0.00000000000E+00 0. -1.
        -11    1    5    5    0    0  0.12467457856E+03  0.28878810158E+03  0.22036095359E+02  0.31532191115E+03  0.00000000000E+00 0.  1.
          4    1    6    6  503    0  0.10208641930E+02  0.74837852817E+02 -0.28060204078E+03  0.29058978969E+03  0.00000000000E+00 0. -1.
         -4    1    6    6    0  503 -0.71949777900E+02  0.88607164332E+02 -0.74379420596E+03  0.75250104381E+03  0.00000000000E+00 0.  1.
<mgrwt>
<rscale>  0 0.22347684E+04</rscale>
<asrwt>0</asrwt>
<pdfrwt beam="1">  1        2 0.19564383E+00 0.22347684E+04</pdfrwt>
<pdfrwt beam="2">  1       -2 0.15104703E+00 0.22347684E+04</pdfrwt>
<totfact> 0.46049006E+00</totfact>
</mgrwt>
</event>
<event>
12    2  0.3751044E-008  0.2335147E+04  0.7818608E-02  0.8464191E-01
          1   -1    0    0  501    0  0.00000000000E+00  0.00000000000E+00  0.27850022882E+04  0.27850022882E+04  0.00000000000E+00 0. -1.
         -1   -1    0    0    0  501 -0.00000000000E+00 -0.00000000000E+00 -0.48948913819E+03  0.48948913819E+03  0.00000000000E+00 0.  1.
         23    2    1    2    0    0 -0.21924348625E+03  0.28968422864E+03  0.22660728271E+04  0.22970642406E+04  0.97125739256E+02 0.  0.
        254    2    1    2    0    0  0.21924348625E+03 -0.28968422864E+03  0.29440322886E+02  0.97742718575E+03  0.90692475556E+03 0.  0.
         23    2    4    4    0    0  0.31523455349E+03 -0.32874472611E+03  0.38036040227E+03  0.60046124268E+03  0.91835448929E+02 0.  0.
         23    2    4    4    0    0 -0.95991067247E+02  0.39060497471E+02 -0.35092007938E+03  0.37696594307E+03  0.90655461334E+02 0.  0.
          4    1    3    3  502    0 -0.12438066755E+03  0.18489621421E+03  0.16502782282E+04  0.16652553531E+04  0.00000000000E+00 0. -1.
         -4    1    3    3    0  502 -0.94862818693E+02  0.10478801443E+03  0.61579459885E+03  0.63180888749E+03  0.00000000000E+00 0.  1.
         11    1    5    5    0    0 -0.10091001824E+01  0.25648328081E+01 -0.23329112353E+01  0.36109729081E+01  0.00000000000E+00 0.  1.
        -11    1    5    5    0    0  0.31624365368E+03 -0.33130955892E+03  0.38269331350E+03  0.59685026977E+03  0.00000000000E+00 0. -1.
          4    1    6    6  503    0 -0.79159215341E+02  0.61310137801E+02 -0.32009959187E+03  0.33539359429E+03  0.00000000000E+00 0. -1.
         -4    1    6    6    0  503 -0.16831851906E+02 -0.22249640330E+02 -0.30820487509E+02  0.41572348787E+02  0.00000000000E+00 0.  1.
<mgrwt>
<rscale>  0 0.23351474E+04</rscale>
<asrwt>0</asrwt>
<pdfrwt beam="1">  1        1 0.42846188E+00 0.23351474E+04</pdfrwt>
<pdfrwt beam="2">  1       -1 0.75306023E-01 0.23351474E+04</pdfrwt>
<totfact> 0.13646562E+00</totfact>
</mgrwt>
</event>
<event>
12    2  0.3751044E-008  0.2693180E+04  0.7818608E-02  0.8337221E-01
         -1   -1    0    0    0  501 -0.00000000000E+00  0.00000000000E+00  0.10226239550E+04  0.10226239550E+04  0.00000000000E+00 0.  1.
          1   -1    0    0  501    0  0.00000000000E+00 -0.00000000000E+00 -0.17731885830E+04  0.17731885830E+04  0.00000000000E+00 0. -1.
         23    2    1    2    0    0 -0.94598083426E+03  0.62388654720E+03 -0.72526419219E+03  0.13486035511E+04  0.92785920214E+02 0.  0.
        254    2    1    2    0    0  0.94598083426E+03 -0.62388654720E+03 -0.25300435843E+02  0.14472089870E+04  0.89981085643E+03 0.  0.
         23    2    4    4    0    0 -0.27142147629E+02 -0.35369633421E+03  0.18694037612E+03  0.41121153748E+03  0.91161567119E+02 0.  0.
         23    2    4    4    0    0  0.97312298189E+03 -0.27019021299E+03 -0.21224081196E+03  0.10359974495E+04  0.90958584050E+02 0.  0.
          3    1    3    3  502    0 -0.58428568376E+02  0.15272857444E+02 -0.30636343439E+02  0.67718116603E+02  0.00000000000E+00 0. -1.
         -3    1    3    3    0  502 -0.88755226588E+03  0.60861368975E+03 -0.69462784875E+03  0.12808854345E+04  0.00000000000E+00 0.  1.
         11    1    5    5    0    0 -0.43592458372E+00 -0.14992532604E+03  0.12874154799E+03  0.19761624326E+03  0.00000000000E+00 0. -1.
        -11    1    5    5    0    0 -0.26706223045E+02 -0.20377100816E+03  0.58198828130E+02  0.21359529422E+03  0.00000000000E+00 0.  1.
          1    1    6    6  503    0  0.29989172325E+03 -0.12486134229E+03 -0.53834819160E+02  0.32927737278E+03  0.00000000000E+00 0. -1.
         -1    1    6    6    0  503  0.67323125864E+03 -0.14532887070E+03 -0.15840599280E+03  0.70672007671E+03  0.00000000000E+00 0.  1.
<mgrwt>
<rscale>  0 0.26931804E+04</rscale>
<asrwt>0</asrwt>
<pdfrwt beam="1">  1        1 0.27279824E+00 0.26931804E+04</pdfrwt>
<pdfrwt beam="2">  1       -1 0.15732676E+00 0.26931804E+04</pdfrwt>
<totfact> 0.11368556E+00</totfact>
</mgrwt>
</event>
<event>
12    2  0.3751044E-008  0.2270138E+04  0.7818608E-02  0.8489789E-01
         -2   -1    0    0    0  501 -0.00000000000E+00  0.00000000000E+00  0.47230984107E+03  0.47230984107E+03  0.00000000000E+00 0. -1.
          2   -1    0    0  501    0  0.00000000000E+00 -0.00000000000E+00 -0.27278319606E+04  0.27278319606E+04  0.00000000000E+00 0.  1.
         23    2    1    2    0    0  0.62685487574E+03  0.57678561605E+03 -0.34924313361E+03  0.92511636161E+03  0.90779039616E+02 0.  0.
        254    2    1    2    0    0 -0.62685487574E+03 -0.57678561605E+03 -0.19062789859E+04  0.22750254401E+04  0.90344479557E+03 0.  0.
         23    2    4    4    0    0 -0.23550561613E+03 -0.39864924050E+03 -0.17431586221E+04  0.18059202946E+04  0.91444061032E+02 0.  0.
         23    2    4    4    0    0 -0.39134925961E+03 -0.17813637555E+03 -0.16312036383E+03  0.46910514551E+03  0.92544979116E+02 0.  0.
          2    1    3    3  502    0  0.55778764432E+03  0.52736122521E+03 -0.34046547582E+03  0.83973427835E+03  0.00000000000E+00 0. -1.
         -2    1    3    3    0  502  0.69067231427E+02  0.49424390832E+02 -0.87776577843E+01  0.85382083262E+02  0.00000000000E+00 0.  1.
         11    1    5    5    0    0 -0.74239417733E+02 -0.15116592729E+03 -0.80214582645E+03  0.81963440362E+03  0.00000000000E+00 0. -1.
        -11    1    5    5    0    0 -0.16126619840E+03 -0.24748331321E+03 -0.94101279567E+03  0.98628589094E+03  0.00000000000E+00 0.  1.
          2    1    6    6  503    0 -0.32690024344E+03 -0.13661061089E+03 -0.16834678135E+03  0.39225867353E+03  0.00000000000E+00 0. -1.
         -2    1    6    6    0  503 -0.64449016169E+02 -0.41525764659E+02  0.52264175237E+01  0.76846471980E+02  0.00000000000E+00 0.  1.
<mgrwt>
<rscale>  0 0.22701382E+04</rscale>
<asrwt>0</asrwt>
<pdfrwt beam="1">  1        2 0.41966645E+00 0.22701382E+04</pdfrwt>
<pdfrwt beam="2">  1       -2 0.72663053E-01 0.22701382E+04</pdfrwt>
<totfact> 0.39791743E+00</totfact>
</mgrwt>
</event>
<event>
12    2  0.3751044E-008  0.1250888E+04  0.7818608E-02  0.9069444E-01
          2   -1    0    0  501    0  0.00000000000E+00  0.00000000000E+00  0.11737282309E+04  0.11737282309E+04  0.00000000000E+00 0. -1.
         -2   -1    0    0    0  501 -0.00000000000E+00 -0.00000000000E+00 -0.33328006307E+03  0.33328006307E+03  0.00000000000E+00 0.  1.
         23    2    1    2    0    0  0.20403241093E+03 -0.58706625156E+02 -0.27969950780E+02  0.23544806311E+03  0.97866131672E+02 0.  0.
        254    2    1    2    0    0 -0.20403241093E+03  0.58706625156E+02  0.86841811860E+03  0.12715602308E+04  0.90423431665E+03 0.  0.
         23    2    4    4    0    0 -0.33816716372E+03  0.13645094128E+03 -0.97625155426E+01  0.37525844698E+03  0.88021050489E+02 0.  0.
         23    2    4    4    0    0  0.13413475279E+03 -0.77744316122E+02  0.87818063414E+03  0.89630178386E+03  0.90107441313E+02 0.  0.
          3    1    3    3  502    0  0.74703388764E+01  0.16899240089E+02 -0.16108991846E+02  0.24513055640E+02  0.00000000000E+00 0. -1.
         -3    1    3    3    0  502  0.19656207205E+03 -0.75605865245E+02 -0.11860958934E+02  0.21093500747E+03  0.00000000000E+00 0.  1.
         11    1    5    5    0    0 -0.23242421406E+03  0.13619050007E+03 -0.64492848368E+01  0.26946328297E+03  0.00000000000E+00 0. -1.
        -11    1    5    5    0    0 -0.10574294966E+03  0.26044120735E+00 -0.33132307058E+01  0.10579516402E+03  0.00000000000E+00 0.  1.
          4    1    6    6  503    0  0.77297393385E+02 -0.77331720597E+02  0.39720106505E+03  0.41197544600E+03  0.00000000000E+00 0. -1.
         -4    1    6    6    0  503  0.56837359407E+02 -0.41259552500E+00  0.48097956909E+03  0.48432633786E+03  0.00000000000E+00 0.  1.
<mgrwt>
<rscale>  0 0.12508880E+04</rscale>
<asrwt>0</asrwt>
<pdfrwt beam="1">  1        2 0.18057357E+00 0.12508880E+04</pdfrwt>
<pdfrwt beam="2">  1       -2 0.51273856E-01 0.12508880E+04</pdfrwt>
<totfact> 0.69413193E+01</totfact>
</mgrwt>
</event>
<event>
12    2  0.3751044E-008  0.2258795E+04  0.7818608E-02  0.8494347E-01
         -2   -1    0    0    0  501 -0.00000000000E+00  0.00000000000E+00  0.44620837857E+03  0.44620837857E+03  0.00000000000E+00 0.  1.
          2   -1    0    0  501    0  0.00000000000E+00 -0.00000000000E+00 -0.28586174812E+04  0.28586174812E+04  0.00000000000E+00 0. -1.
         23    2    1    2    0    0 -0.18043919610E+03 -0.39349914226E+03 -0.22845503083E+04  0.23269926092E+04  0.91239321155E+02 0.  0.
        254    2    1    2    0    0  0.18043919610E+03  0.39349914226E+03 -0.12785879434E+03  0.97783325056E+03  0.86741576891E+03 0.  0.
         23    2    4    4    0    0  0.37456361806E+03  0.48997329142E+03  0.12202633148E+03  0.63481092503E+03  0.87879205074E+02 0.  0.
         23    2    4    4    0    0 -0.19412442196E+03 -0.96474149157E+02 -0.24988512582E+03  0.34302232553E+03  0.90720378362E+02 0.  0.
          3    1    3    3  502    0 -0.18254730519E+03 -0.31674887584E+03 -0.19000435058E+04  0.19348950083E+04  0.00000000000E+00 0. -1.
         -3    1    3    3    0  502  0.21081090888E+01 -0.76750266419E+02 -0.38450680242E+03  0.39209760089E+03  0.00000000000E+00 0.  1.
         11    1    5    5    0    0  0.36632291892E+03  0.46531679494E+03  0.13238479055E+03  0.60682611459E+03  0.00000000000E+00 0. -1.
        -11    1    5    5    0    0  0.82406991480E+01  0.24656496473E+02 -0.10358459079E+02  0.27984810438E+02  0.00000000000E+00 0.  1.
          3    1    6    6  503    0 -0.18113974534E+03 -0.53426124212E+02 -0.18752138415E+03  0.26613948900E+03  0.00000000000E+00 0. -1.
         -3    1    6    6    0  503 -0.12984676621E+02 -0.43048024945E+02 -0.62363741662E+02  0.76882836529E+02  0.00000000000E+00 0.  1.
<mgrwt>
<rscale>  0 0.22587953E+04</rscale>
<asrwt>0</asrwt>
<pdfrwt beam="1">  1        2 0.43978732E+00 0.22587953E+04</pdfrwt>
<pdfrwt beam="2">  1       -2 0.68647440E-01 0.22587953E+04</pdfrwt>
<totfact> 0.37608402E+00</totfact>
</mgrwt>
</event>
<event>
12    2  0.3751044E-008  0.1381636E+04  0.7818608E-02  0.8967220E-01
          2   -1    0    0  501    0  0.00000000000E+00  0.00000000000E+00  0.14011535156E+04  0.14011535156E+04  0.00000000000E+00 0. -1.
         -2   -1    0    0    0  501 -0.00000000000E+00 -0.00000000000E+00 -0.34059746405E+03  0.34059746405E+03  0.00000000000E+00 0.  1.
         23    2    1    2    0    0  0.10481759492E+03  0.14697394858E+03  0.75878780867E+03  0.78525718370E+03  0.91004594318E+02 0.  0.
        254    2    1    2    0    0 -0.10481759492E+03 -0.14697394858E+03  0.30176824292E+03  0.95649379601E+03  0.88951011214E+03 0.  0.
         23    2    4    4    0    0 -0.18535597969E+03 -0.48364024314E+03  0.71161377267E+02  0.53115047137E+03  0.93766505889E+02 0.  0.
         23    2    4    4    0    0  0.80538384776E+02  0.33666629456E+03  0.23060686565E+03  0.42534332464E+03  0.88920144000E+02 0.  0.
          3    1    3    3  502    0  0.11235753149E+03  0.14084785802E+03  0.75230123543E+03  0.77357577704E+03  0.00000000000E+00 0. -1.
         -3    1    3    3    0  502 -0.75399365703E+01  0.61260905621E+01  0.64865732459E+01  0.11681406659E+02  0.00000000000E+00 0.  1.
         11    1    5    5    0    0 -0.77267560938E+01  0.12397778613E+01  0.75171925583E+01  0.10851174722E+02  0.00000000000E+00 0.  1.
        -11    1    5    5    0    0 -0.17762922360E+03 -0.48488002100E+03  0.63644184708E+02  0.52029929665E+03  0.00000000000E+00 0. -1.
          4    1    6    6  503    0 -0.18355038151E+00  0.44072210695E+01 -0.74864606947E+01  0.86893257524E+01  0.00000000000E+00 0.  1.
         -4    1    6    6    0  503  0.80721935158E+02  0.33225907350E+03  0.23809332635E+03  0.41665399889E+03  0.00000000000E+00 0. -1.
<mgrwt>
<rscale>  0 0.13816357E+04</rscale>
<asrwt>0</asrwt>
<pdfrwt beam="1">  1        2 0.21556208E+00 0.13816357E+04</pdfrwt>
<pdfrwt beam="2">  1       -2 0.52399611E-01 0.13816357E+04</pdfrwt>
<totfact> 0.48389708E+01</totfact>
</mgrwt>
</event>
<event>
12    2  0.3751044E-008  0.1746363E+04  0.7818608E-02  0.8735355E-01
         -2   -1    0    0    0  501 -0.00000000000E+00  0.00000000000E+00  0.29018370380E+03  0.29018370380E+03  0.00000000000E+00 0.  1.
          2   -1    0    0  501    0  0.00000000000E+00 -0.00000000000E+00 -0.26274604583E+04  0.26274604583E+04  0.00000000000E+00 0. -1.
         23    2    1    2    0    0  0.21470567215E+03  0.44488938498E+03 -0.13602240093E+04  0.14500358278E+04  0.91484729948E+02 0.  0.
        254    2    1    2    0    0 -0.21470567215E+03 -0.44488938498E+03 -0.97705274513E+03  0.14676083343E+04  0.97735206834E+03 0.  0.
         23    2    4    4    0    0  0.76176983188E+02  0.26049329073E+03 -0.45740808375E+03  0.53955982787E+03  0.90790778665E+02 0.  0.
         23    2    4    4    0    0 -0.29088265534E+03 -0.70538267571E+03 -0.51964466137E+03  0.92804850638E+03  0.95215638116E+02 0.  0.
          1    1    3    3  502    0  0.85779886061E+02  0.18727118506E+03 -0.70051726662E+03  0.73017335369E+03  0.00000000000E+00 0. -1.
         -1    1    3    3    0  502  0.12892578609E+03  0.25761819992E+03 -0.65970674272E+03  0.71986247412E+03  0.00000000000E+00 0.  1.
         11    1    5    5    0    0  0.87471200860E+02  0.21248946609E+03 -0.32306681997E+03  0.39645321835E+03  0.00000000000E+00 0. -1.
        -11    1    5    5    0    0 -0.11294217672E+02  0.48003824635E+02 -0.13434126378E+03  0.14310660952E+03  0.00000000000E+00 0.  1.
          4    1    6    6  503    0 -0.19460796287E+03 -0.46900015874E+03 -0.39875514058E+03  0.64563075380E+03  0.00000000000E+00 0. -1.
         -4    1    6    6    0  503 -0.96274692471E+02 -0.23638251697E+03 -0.12088952079E+03  0.28241775258E+03  0.00000000000E+00 0.  1.
<mgrwt>
<rscale>  0 0.17463633E+04</rscale>
<asrwt>0</asrwt>
<pdfrwt beam="1">  1        2 0.40422468E+00 0.17463633E+04</pdfrwt>
<pdfrwt beam="2">  1       -2 0.44643647E-01 0.17463633E+04</pdfrwt>
<totfact> 0.13253886E+01</totfact>
</mgrwt>
</event>
<event>
12    2  0.3751044E-008  0.2170801E+04  0.7818608E-02  0.8530680E-01
         -1   -1    0    0    0  501 -0.00000000000E+00  0.00000000000E+00  0.11853670086E+04  0.11853670086E+04  0.00000000000E+00 0.  1.
          1   -1    0    0  501    0  0.00000000000E+00 -0.00000000000E+00 -0.99386480808E+03  0.99386480808E+03  0.00000000000E+00 0. -1.
         23    2    1    2    0    0  0.30799613593E+03 -0.26245774936E+03 -0.73059065652E+03  0.84073373834E+03  0.96565115024E+02 0.  0.
        254    2    1    2    0    0 -0.30799613593E+03  0.26245774936E+03  0.92209285707E+03  0.13384980784E+04  0.88180280039E+03 0.  0.
         23    2    4    4    0    0 -0.51146795497E+03  0.43722085484E+03  0.72544525823E+03  0.99362329731E+03  0.90856421839E+02 0.  0.
         23    2    4    4    0    0  0.20347181904E+03 -0.17476310547E+03  0.19664759884E+03  0.34487478106E+03  0.91243697349E+02 0.  0.
          3    1    3    3  502    0  0.23200191307E+03 -0.24496005958E+03 -0.57439236260E+03  0.66615081225E+03  0.00000000000E+00 0. -1.
         -3    1    3    3    0  502  0.75994222869E+02 -0.17497689784E+02 -0.15619829392E+03  0.17458292609E+03  0.00000000000E+00 0.  1.
         11    1    5    5    0    0 -0.15402080893E+03  0.12701796754E+03  0.27846587601E+03  0.34263569248E+03  0.00000000000E+00 0. -1.
        -11    1    5    5    0    0 -0.35744714604E+03  0.31020288729E+03  0.44697938222E+03  0.65098760482E+03  0.00000000000E+00 0.  1.
          2    1    6    6  503    0  0.10651718377E+03 -0.34881331626E+02  0.63807334217E+02  0.12897284068E+03  0.00000000000E+00 0. -1.
         -2    1    6    6    0  503  0.96954635272E+02 -0.13988177385E+03  0.13284026462E+03  0.21590194038E+03  0.00000000000E+00 0.  1.
<mgrwt>
<rscale>  0 0.21708013E+04</rscale>
<asrwt>0</asrwt>
<pdfrwt beam="1">  1        1 0.15290228E+00 0.21708013E+04</pdfrwt>
<pdfrwt beam="2">  1       -1 0.18236416E+00 0.21708013E+04</pdfrwt>
<totfact> 0.27989130E+00</totfact>
</mgrwt>
</event>
<event>
12    2  0.3751044E-008  0.2227466E+04  0.7818608E-02  0.8507082E-01
          2   -1    0    0  501    0  0.00000000000E+00  0.00000000000E+00  0.10109230431E+04  0.10109230431E+04  0.00000000000E+00 0. -1.
         -2   -1    0    0    0  501 -0.00000000000E+00 -0.00000000000E+00 -0.12269990036E+04  0.12269990036E+04  0.00000000000E+00 0.  1.
         23    2    1    2    0    0  0.86096943765E+03 -0.20176788564E+03 -0.37677661429E+03  0.96569351531E+03  0.92869242464E+02 0.  0.
        254    2    1    2    0    0 -0.86096943765E+03  0.20176788564E+03  0.16070065372E+03  0.12722285314E+04  0.90042328028E+03 0.  0.
         23    2    4    4    0    0 -0.41904492873E+03  0.27640400240E+03  0.49102961854E+03  0.70795003398E+03  0.89918515822E+02 0.  0.
         23    2    4    4    0    0 -0.44192450892E+03 -0.74636116757E+02 -0.33032896483E+03  0.56427849738E+03  0.91788758018E+02 0.  0.
          4    1    3    3  502    0  0.79642566058E+03 -0.17986055705E+03 -0.31988222177E+03  0.87690836957E+03  0.00000000000E+00 0.  1.
         -4    1    3    3    0  502  0.64543777065E+02 -0.21907328591E+02 -0.56894392520E+02  0.88785145740E+02  0.00000000000E+00 0. -1.
         11    1    5    5    0    0 -0.28343035766E+03  0.15744215525E+03  0.26490688147E+03  0.41868419572E+03  0.00000000000E+00 0. -1.
        -11    1    5    5    0    0 -0.13561457107E+03  0.11896184715E+03  0.22612273707E+03  0.28926583826E+03  0.00000000000E+00 0.  1.
          3    1    6    6  503    0 -0.24081996438E+03 -0.82994763403E+02 -0.20697072843E+03  0.32820613709E+03  0.00000000000E+00 0. -1.
         -3    1    6    6    0  503 -0.20110454454E+03  0.83586466465E+01 -0.12335823640E+03  0.23607236030E+03  0.00000000000E+00 0.  1.
<mgrwt>
<rscale>  0 0.22274663E+04</rscale>
<asrwt>0</asrwt>
<pdfrwt beam="1">  1        2 0.15552662E+00 0.22274663E+04</pdfrwt>
<pdfrwt beam="2">  1       -2 0.18876908E+00 0.22274663E+04</pdfrwt>
<totfact> 0.35702726E+00</totfact>
</mgrwt>
</event>
<event>
12    2  0.3751044E-008  0.2195960E+04  0.7818608E-02  0.8520112E-01
          2   -1    0    0  501    0  0.00000000000E+00  0.00000000000E+00  0.64492972115E+03  0.64492972115E+03  0.00000000000E+00 0. -1.
         -2   -1    0    0    0  501 -0.00000000000E+00 -0.00000000000E+00 -0.18692886012E+04  0.18692886012E+04  0.00000000000E+00 0.  1.
         23    2    1    2    0    0 -0.27989398189E+03  0.15352803246E+03  0.46817989319E+03  0.57428294716E+03  0.93257670823E+02 0.  0.
        254    2    1    2    0    0  0.27989398189E+03 -0.15352803246E+03 -0.16925387733E+04  0.19399353752E+04  0.89260868426E+03 0.  0.
         23    2    4    4    0    0  0.40121204946E+01 -0.57756310310E+01  0.90036820174E+02  0.12786525269E+03  0.90517616154E+02 0.  0.
         23    2    4    4    0    0  0.27588186139E+03 -0.14775240143E+03 -0.17825755935E+04  0.18120701226E+04  0.89893320605E+02 0.  0.
          3    1    3    3  502    0 -0.27497421218E+03  0.16458440506E+03  0.45198052209E+03  0.55406248394E+03  0.00000000000E+00 0. -1.
         -3    1    3    3    0  502 -0.49197697059E+01 -0.11056372605E+02  0.16199371096E+02  0.20220463225E+02  0.00000000000E+00 0.  1.
         11    1    5    5    0    0  0.75762997176E+01 -0.20146257946E+02  0.10478173082E+03  0.10696954305E+03  0.00000000000E+00 0.  1.
        -11    1    5    5    0    0 -0.35641792230E+01  0.14370626915E+02 -0.14744910646E+02  0.20895709642E+02  0.00000000000E+00 0. -1.
          3    1    6    6  503    0  0.90420690501E+02 -0.44809681522E+01 -0.55263464522E+03  0.56000092093E+03  0.00000000000E+00 0. -1.
         -3    1    6    6    0  503  0.18546117089E+03 -0.14327143327E+03 -0.12299409482E+04  0.12520692016E+04  0.00000000000E+00 0.  1.
<mgrwt>
<rscale>  0 0.21959597E+04</rscale>
<asrwt>0</asrwt>
<pdfrwt beam="1">  1        2 0.99219960E-01 0.21959597E+04</pdfrwt>
<pdfrwt beam="2">  1       -2 0.28758285E+00 0.21959597E+04</pdfrwt>
<totfact> 0.15719666E+00</totfact>
</mgrwt>
</event>
<event>
12    2  0.3751044E-008  0.1246094E+04  0.7818608E-02  0.9073441E-01
         -1   -1    0    0    0  501 -0.00000000000E+00  0.00000000000E+00  0.19163862276E+03  0.19163862276E+03  0.00000000000E+00 0.  1.
          1   -1    0    0  501    0  0.00000000000E+00 -0.00000000000E+00 -0.20256214778E+04  0.20256214778E+04  0.00000000000E+00 0. -1.
         23    2    1    2    0    0  0.65889762016E+02  0.28168478010E+02 -0.96772094711E+03  0.97468027531E+03  0.91558089234E+02 0.  0.
        254    2    1    2    0    0 -0.65889762016E+02 -0.28168478010E+02 -0.86626190795E+03  0.12425798253E+04  0.88795270434E+03 0.  0.
         23    2    4    4    0    0 -0.28128787042E+03  0.30007593941E+03 -0.67825785128E+03  0.79831574565E+03  0.90032668907E+02 0.  0.
         23    2    4    4    0    0  0.21539810840E+03 -0.32824441742E+03 -0.18800405667E+03  0.44426407963E+03  0.88793605929E+02 0.  0.
          1    1    3    3  502    0  0.10467136030E+02  0.53788056031E+02 -0.49880299213E+03  0.50180388686E+03  0.00000000000E+00 0. -1.
         -1    1    3    3    0  502  0.55422625985E+02 -0.25619578021E+02 -0.46891795498E+03  0.47287638845E+03  0.00000000000E+00 0.  1.
         11    1    5    5    0    0 -0.92275278038E+01 -0.22983395111E+01 -0.42673064500E+02  0.43719790344E+02  0.00000000000E+00 0. -1.
        -11    1    5    5    0    0 -0.27206034262E+03  0.30237427892E+03 -0.63558478678E+03  0.75459595531E+03  0.00000000000E+00 0.  1.
          2    1    6    6  503    0  0.34027380356E+02 -0.99530217138E+02 -0.83223472327E+02  0.13412782367E+03  0.00000000000E+00 0. -1.
         -2    1    6    6    0  503  0.18137072805E+03 -0.22871420028E+03 -0.10478058434E+03  0.31013625596E+03  0.00000000000E+00 0.  1.
<mgrwt>
<rscale>  0 0.12460936E+04</rscale>
<asrwt>0</asrwt>
<pdfrwt beam="1">  1        1 0.31163407E+00 0.12460936E+04</pdfrwt>
<pdfrwt beam="2">  1       -1 0.29482865E-01 0.12460936E+04</pdfrwt>
<totfact> 0.29761900E+01</totfact>
</mgrwt>
</event>
<event>
12    2  0.3751044E-008  0.3556144E+04  0.7818608E-02  0.8100612E-01
          2   -1    0    0  501    0  0.00000000000E+00  0.00000000000E+00  0.34607526388E+04  0.34607526388E+04  0.00000000000E+00 0. -1.
         -2   -1    0    0    0  501 -0.00000000000E+00 -0.00000000000E+00 -0.91354104450E+03  0.91354104450E+03  0.00000000000E+00 0.  1.
         23    2    1    2    0    0  0.14992166089E+04 -0.23833627913E+03  0.20241268126E+04  0.25317479967E+04  0.90575619251E+02 0.  0.
        254    2    1    2    0    0 -0.14992166089E+04  0.23833627913E+03  0.52308478168E+03  0.18425456866E+04  0.90382647450E+03 0.  0.
         23    2    4    4    0    0 -0.88282691594E+03 -0.60269123895E+02 -0.12105635159E+03  0.89800088730E+03  0.93462412357E+02 0.  0.
         23    2    4    4    0    0 -0.61638969298E+03  0.29860540303E+03  0.64414113327E+03  0.94454479931E+03  0.90253188337E+02 0.  0.
          3    1    3    3  502    0  0.14494053383E+04 -0.24404298398E+03  0.19710706023E+04  0.24587501159E+04  0.00000000000E+00 0. -1.
         -3    1    3    3    0  502  0.49811270595E+02  0.57067048543E+01  0.53056210285E+02  0.72997880848E+02  0.00000000000E+00 0.  1.
         11    1    5    5    0    0 -0.72257350656E+03 -0.51493145970E+02 -0.62260660064E+02  0.72707661650E+03  0.00000000000E+00 0.  1.
        -11    1    5    5    0    0 -0.16025340938E+03 -0.87759779248E+01 -0.58795691531E+02  0.17092427080E+03  0.00000000000E+00 0. -1.
          2    1    6    6  503    0 -0.36963215562E+03  0.12939947231E+03  0.36350354529E+03  0.53432853315E+03  0.00000000000E+00 0. -1.
         -2    1    6    6    0  503 -0.24675753737E+03  0.16920593072E+03  0.28063758798E+03  0.41021626616E+03  0.00000000000E+00 0.  1.
<mgrwt>
<rscale>  0 0.35561437E+04</rscale>
<asrwt>0</asrwt>
<pdfrwt beam="1">  1        2 0.53242347E+00 0.35561437E+04</pdfrwt>
<pdfrwt beam="2">  1       -2 0.14054478E+00 0.35561437E+04</pdfrwt>
<totfact> 0.25141523E-01</totfact>
</mgrwt>
</event>
<event>
12    2  0.3751044E-008  0.1729062E+04  0.7818608E-02  0.8744960E-01
         -1   -1    0    0    0  501 -0.00000000000E+00  0.00000000000E+00  0.78397587116E+03  0.78397587116E+03  0.00000000000E+00 0.  1.
          1   -1    0    0  501    0  0.00000000000E+00 -0.00000000000E+00 -0.95336381146E+03  0.95336381146E+03  0.00000000000E+00 0. -1.
         23    2    1    2    0    0  0.49156746854E+03  0.35427947922E+03 -0.23151598794E+03  0.65508797387E+03  0.91586436336E+02 0.  0.
        254    2    1    2    0    0 -0.49156746854E+03 -0.35427947922E+03  0.62128047641E+02  0.10822517087E+04  0.89457047864E+03 0.  0.
         23    2    4    4    0    0  0.10617684201E+03  0.20854979152E+03  0.50123349972E+02  0.25631108758E+03  0.91741408757E+02 0.  0.
         23    2    4    4    0    0 -0.59774431055E+03 -0.56282927074E+03  0.12004697668E+02  0.82594062117E+03  0.89211816112E+02 0.  0.
          1    1    3    3  502    0  0.28185567166E+03  0.20626897427E+03 -0.84737531108E+02  0.35940222394E+03  0.00000000000E+00 0. -1.
         -1    1    3    3    0  502  0.20971179688E+03  0.14801050495E+03 -0.14677845683E+03  0.29568574994E+03  0.00000000000E+00 0.  1.
         11    1    5    5    0    0  0.80023441811E+02  0.66680183731E+02  0.40400212611E+02  0.11172365605E+03  0.00000000000E+00 0. -1.
        -11    1    5    5    0    0  0.26153400196E+02  0.14186960779E+03  0.97231373611E+01  0.14458743153E+03  0.00000000000E+00 0.  1.
          3    1    6    6  503    0 -0.43277260476E+03 -0.45604325678E+03 -0.46379571832E+01  0.62872020020E+03  0.00000000000E+00 0.  1.
         -3    1    6    6    0  503 -0.16497170579E+03 -0.10678601396E+03  0.16642654851E+02  0.19722042097E+03  0.00000000000E+00 0. -1.
<mgrwt>
<rscale>  0 0.17290624E+04</rscale>
<asrwt>0</asrwt>
<pdfrwt beam="1">  1        1 0.14667136E+00 0.17290624E+04</pdfrwt>
<pdfrwt beam="2">  1       -1 0.12061167E+00 0.17290624E+04</pdfrwt>
<totfact> 0.95623695E+00</totfact>
</mgrwt>
</event>
<event>
12    2  0.3751044E-008  0.1669197E+04  0.7818608E-02  0.8779130E-01
          1   -1    0    0  501    0  0.00000000000E+00  0.00000000000E+00  0.60694859259E+03  0.60694859259E+03  0.00000000000E+00 0. -1.
         -1   -1    0    0    0  501 -0.00000000000E+00 -0.00000000000E+00 -0.11476337143E+04  0.11476337143E+04  0.00000000000E+00 0.  1.
         23    2    1    2    0    0  0.31175292631E+03 -0.39256287878E+03  0.11321088978E+03  0.52175755406E+03  0.90104044294E+02 0.  0.
        254    2    1    2    0    0 -0.31175292631E+03  0.39256287878E+03 -0.65389601152E+03  0.12328247529E+04  0.91705036750E+03 0.  0.
         23    2    4    4    0    0  0.17455313428E+03  0.34900552725E+03  0.12597637185E+02  0.40123065007E+03  0.92486103579E+02 0.  0.
         23    2    4    4    0    0 -0.48630606059E+03  0.43557351537E+02 -0.66649364870E+03  0.83159410279E+03  0.94573466699E+02 0.  0.
          3    1    3    3  502    0  0.27056234911E+03 -0.29233689261E+03  0.66857815132E+02  0.40389950604E+03  0.00000000000E+00 0. -1.
         -3    1    3    3    0  502  0.41190577200E+02 -0.10022598617E+03  0.46353074651E+02  0.11785804802E+03  0.00000000000E+00 0.  1.
         11    1    5    5    0    0  0.13825795250E+03  0.31568804696E+03 -0.14615502596E+02  0.34494610787E+03  0.00000000000E+00 0.  1.
        -11    1    5    5    0    0  0.36295181779E+02  0.33317480290E+02  0.27213139781E+02  0.56284542194E+02  0.00000000000E+00 0. -1.
          1    1    6    6  503    0 -0.33726235455E+02  0.58431623765E+01 -0.14857361038E+02  0.37314108344E+02  0.00000000000E+00 0. -1.
         -1    1    6    6    0  503 -0.45257982513E+03  0.37714189160E+02 -0.65163628766E+03  0.79427999445E+03  0.00000000000E+00 0.  1.
<mgrwt>
<rscale>  0 0.16691970E+04</rscale>
<asrwt>0</asrwt>
<pdfrwt beam="1">  1        1 0.93376708E-01 0.16691970E+04</pdfrwt>
<pdfrwt beam="2">  1       -1 0.17655903E+00 0.16691970E+04</pdfrwt>
<totfact> 0.70803560E+00</totfact>
</mgrwt>
</event>
<event>
12    2  0.3751044E-008  0.1779178E+04  0.7818608E-02  0.8717452E-01
          1   -1    0    0  501    0  0.00000000000E+00  0.00000000000E+00  0.96453713537E+03  0.96453713537E+03  0.00000000000E+00 0. -1.
         -1   -1    0    0    0  501 -0.00000000000E+00 -0.00000000000E+00 -0.82046439553E+03  0.82046439553E+03  0.00000000000E+00 0.  1.
         23    2    1    2    0    0  0.34940663718E+01 -0.41515653899E+03  0.56729913753E+03  0.70870229400E+03  0.89796824636E+02 0.  0.
        254    2    1    2    0    0 -0.34940663718E+01  0.41515653899E+03 -0.42322639769E+03  0.10762992369E+04  0.89829410734E+03 0.  0.
         23    2    4    4    0    0 -0.42888491505E+03  0.15060594290E+03 -0.10354604112E+03  0.47501936912E+03  0.91088956603E+02 0.  0.
         23    2    4    4    0    0  0.42539084868E+03  0.26455059609E+03 -0.31968035657E+03  0.60127986778E+03  0.91638185178E+02 0.  0.
          4    1    3    3  502    0 -0.34254006417E+02 -0.31001968786E+03  0.39392087354E+03  0.50245318033E+03  0.00000000000E+00 0. -1.
         -4    1    3    3    0  502  0.37748072789E+02 -0.10513685113E+03  0.17337826399E+03  0.20624911367E+03  0.00000000000E+00 0.  1.
         11    1    5    5    0    0 -0.39950237567E+03  0.11171559103E+03 -0.94196940881E+02  0.42538874587E+03  0.00000000000E+00 0. -1.
        -11    1    5    5    0    0 -0.29382539388E+02  0.38890351868E+02 -0.93491002407E+01  0.49630623254E+02  0.00000000000E+00 0.  1.
          4    1    6    6  503    0  0.35618247142E+03  0.25531889417E+03 -0.28941811682E+03  0.52518238452E+03  0.00000000000E+00 0. -1.
         -4    1    6    6    0  503  0.69208377260E+02  0.92317019268E+01 -0.30262239747E+02  0.76097483256E+02  0.00000000000E+00 0.  1.
<mgrwt>
<rscale>  0 0.17791778E+04</rscale>
<asrwt>0</asrwt>
<pdfrwt beam="1">  1        1 0.14839033E+00 0.17791778E+04</pdfrwt>
<pdfrwt beam="2">  1       -1 0.12622529E+00 0.17791778E+04</pdfrwt>
<totfact> 0.83330530E+00</totfact>
</mgrwt>
</event>
<event>
12    2  0.3751044E-008  0.1503087E+04  0.7818608E-02  0.8882403E-01
          2   -1    0    0  501    0  0.00000000000E+00  0.00000000000E+00  0.15834513021E+04  0.15834513021E+04  0.00000000000E+00 0.  1.
         -2   -1    0    0    0  501 -0.00000000000E+00 -0.00000000000E+00 -0.35670040887E+03  0.35670040887E+03  0.00000000000E+00 0. -1.
         23    2    1    2    0    0  0.38939665892E+02 -0.31923025907E+03 -0.64967916233E+02  0.33919510142E+03  0.86071079928E+02 0.  0.
        254    2    1    2    0    0 -0.38939665892E+02  0.31923025907E+03  0.12917188094E+04  0.16009566095E+04  0.88943820866E+03 0.  0.
         23    2    4    4    0    0  0.13389906058E+03  0.40879514358E+03  0.13134891854E+04  0.13850473167E+04  0.89776397856E+02 0.  0.
         23    2    4    4    0    0 -0.17283872647E+03 -0.89564884509E+02 -0.21770375939E+02  0.21590929280E+03  0.90817286577E+02 0.  0.
          4    1    3    3  502    0  0.62565223372E+02 -0.28172252240E+03 -0.56546400894E+02  0.29407394012E+03  0.00000000000E+00 0. -1.
         -4    1    3    3    0  502 -0.23625557480E+02 -0.37507736676E+02 -0.84215153396E+01  0.45121161304E+02  0.00000000000E+00 0.  1.
         11    1    5    5    0    0  0.11672787161E+03  0.30965969695E+03  0.11060568856E+04  0.11545026453E+04  0.00000000000E+00 0. -1.
        -11    1    5    5    0    0  0.17171188969E+02  0.99135446631E+02  0.20743229980E+03  0.23054467140E+03  0.00000000000E+00 0.  1.
          3    1    6    6  503    0 -0.16209633754E+03 -0.50102135157E+02 -0.18272440895E+00  0.16966284207E+03  0.00000000000E+00 0. -1.
         -3    1    6    6    0  503 -0.10742388937E+02 -0.39462749352E+02 -0.21587651530E+02  0.46246450729E+02  0.00000000000E+00 0.  1.
<mgrwt>
<rscale>  0 0.15030871E+04</rscale>
<asrwt>0</asrwt>
<pdfrwt beam="1">  1        2 0.24360789E+00 0.15030871E+04</pdfrwt>
<pdfrwt beam="2">  1       -2 0.54876987E-01 0.15030871E+04</pdfrwt>
<totfact> 0.34368121E+01</totfact>
</mgrwt>
</event>
<event>
12    2  0.3751044E-008  0.1728004E+04  0.7818608E-02  0.8745552E-01
         -2   -1    0    0    0  501 -0.00000000000E+00  0.00000000000E+00  0.45820909884E+03  0.45820909884E+03  0.00000000000E+00 0. -1.
          2   -1    0    0  501    0  0.00000000000E+00 -0.00000000000E+00 -0.16291684794E+04  0.16291684794E+04  0.00000000000E+00 0.  1.
         23    2    1    2    0    0 -0.21064962003E+03  0.11262607382E+03 -0.11753978528E+04  0.12032066298E+04  0.95331981862E+02 0.  0.
        254    2    1    2    0    0  0.21064962003E+03 -0.11262607382E+03  0.44384721679E+01  0.88417094849E+03  0.85128178131E+03 0.  0.
         23    2    4    4    0    0  0.26939989229E+03  0.73360338400E+02  0.36216755263E+03  0.46635957658E+03  0.91476102211E+02 0.  0.
         23    2    4    4    0    0 -0.58750272261E+02 -0.18598641222E+03 -0.35772908046E+03  0.41781137191E+03  0.92486255566E+02 0.  0.
          3    1    3    3  502    0 -0.61757944144E+02 -0.53002141714E+01 -0.19621922047E+03  0.20577686560E+03  0.00000000000E+00 0. -1.
         -3    1    3    3    0  502 -0.14889167589E+03  0.11792628799E+03 -0.97917863229E+03  0.99742976418E+03  0.00000000000E+00 0.  1.
         11    1    5    5    0    0  0.11039982177E+01  0.18668056613E+02  0.35408879024E+02  0.40043774341E+02  0.00000000000E+00 0.  1.
        -11    1    5    5    0    0  0.26829589408E+03  0.54692281787E+02  0.32675867360E+03  0.42631580224E+03  0.00000000000E+00 0. -1.
          1    1    6    6  503    0 -0.49078772725E+02 -0.15893250050E+03 -0.35082798331E+03  0.38826349239E+03  0.00000000000E+00 0. -1.
         -1    1    6    6    0  503 -0.96714995359E+01 -0.27053911715E+02 -0.69010971526E+01  0.29547879522E+02  0.00000000000E+00 0.  1.
<mgrwt>
<rscale>  0 0.17280044E+04</rscale>
<asrwt>0</asrwt>
<pdfrwt beam="1">  1        2 0.25064131E+00 0.17280044E+04</pdfrwt>
<pdfrwt beam="2">  1       -2 0.70493707E-01 0.17280044E+04</pdfrwt>
<totfact> 0.18666050E+01</totfact>
</mgrwt>
</event>
<event>
12    2  0.3751044E-008  0.1369976E+04  0.7818608E-02  0.8975843E-01
          2   -1    0    0  501    0  0.00000000000E+00  0.00000000000E+00  0.53033978410E+03  0.53033978410E+03  0.00000000000E+00 0. -1.
         -2   -1    0    0    0  501 -0.00000000000E+00 -0.00000000000E+00 -0.88473214339E+03  0.88473214339E+03  0.00000000000E+00 0.  1.
         23    2    1    2    0    0 -0.82708951218E+02 -0.13199816408E+02 -0.40312264539E+03  0.42336523467E+03  0.98565962366E+02 0.  0.
        254    2    1    2    0    0  0.82708951218E+02  0.13199816408E+02  0.48730286097E+02  0.99170669282E+03  0.98696125457E+03 0.  0.
         23    2    4    4    0    0  0.87952382853E+02  0.42788229288E+03 -0.21214327759E+03  0.49410046809E+03  0.91168109165E+02 0.  0.
         23    2    4    4    0    0 -0.52434316344E+01 -0.41468247648E+03  0.26087356369E+03  0.49760622472E+03  0.86993613436E+02 0.  0.
          4    1    3    3  502    0 -0.83549339566E+01 -0.52687245468E+01  0.30728502722E+01  0.10344408565E+02  0.00000000000E+00 0. -1.
         -4    1    3    3    0  502 -0.74354017262E+02 -0.79310918611E+01 -0.40619549566E+03  0.41302082611E+03  0.00000000000E+00 0.  1.
         11    1    5    5    0    0  0.62403978997E+02  0.40088125009E+03 -0.17595439762E+03  0.44222164500E+03  0.00000000000E+00 0. -1.
        -11    1    5    5    0    0  0.25548403855E+02  0.27001042797E+02 -0.36188879973E+02  0.51878823092E+02  0.00000000000E+00 0.  1.
          3    1    6    6  503    0 -0.22137165065E+02 -0.37364520725E+03  0.20671789381E+03  0.42758985324E+03  0.00000000000E+00 0. -1.
         -3    1    6    6    0  503  0.16893733430E+02 -0.41037269230E+02  0.54155669879E+02  0.70016371479E+02  0.00000000000E+00 0.  1.
<mgrwt>
<rscale>  0 0.13699761E+04</rscale>
<asrwt>0</asrwt>
<pdfrwt beam="1">  1        2 0.81590737E-01 0.13699761E+04</pdfrwt>
<pdfrwt beam="2">  1       -2 0.13611264E+00 0.13699761E+04</pdfrwt>
<totfact> 0.21642745E+01</totfact>
</mgrwt>
</event>
<event>
12    2  0.3751044E-008  0.1808519E+04  0.7818608E-02  0.8701782E-01
         -1   -1    0    0    0  501 -0.00000000000E+00  0.00000000000E+00  0.12899906065E+04  0.12899906065E+04  0.00000000000E+00 0.  1.
          1   -1    0    0  501    0  0.00000000000E+00 -0.00000000000E+00 -0.63386894021E+03  0.63386894021E+03  0.00000000000E+00 0. -1.
         23    2    1    2    0    0  0.12459231783E+03  0.21666798358E+01  0.95704687884E+03  0.96892645722E+03  0.85742702526E+02 0.  0.
        254    2    1    2    0    0 -0.12459231783E+03 -0.21666798358E+01 -0.30092521257E+03  0.95493308947E+03  0.89767103197E+03 0.  0.
         23    2    4    4    0    0  0.10570567305E+03 -0.38246346511E+03  0.51294412455E+01  0.40743565777E+03  0.92333702404E+02 0.  0.
         23    2    4    4    0    0 -0.23029799088E+03  0.38029678527E+03 -0.30605465382E+03  0.54749743169E+03  0.91766971675E+02 0.  0.
          3    1    3    3  502    0 -0.51790963580E+01  0.18006054172E+02  0.78455533750E+02  0.80661712119E+02  0.00000000000E+00 0. -1.
         -3    1    3    3    0  502  0.12977141419E+03 -0.15839374336E+02  0.87859134509E+03  0.88826474510E+03  0.00000000000E+00 0.  1.
         11    1    5    5    0    0 -0.29620268105E+01 -0.13079705705E+03  0.22540156422E+02  0.13275805959E+03  0.00000000000E+00 0. -1.
        -11    1    5    5    0    0  0.10866769986E+03 -0.25166640806E+03 -0.17410715176E+02  0.27467759818E+03  0.00000000000E+00 0.  1.
          3    1    6    6  503    0 -0.80899651463E+02  0.73638747049E+02 -0.10449751217E+03  0.15128499173E+03  0.00000000000E+00 0. -1.
         -3    1    6    6    0  503 -0.14939833942E+03  0.30665803822E+03 -0.20155714165E+03  0.39621243996E+03  0.00000000000E+00 0.  1.
<mgrwt>
<rscale>  0 0.18085187E+04</rscale>
<asrwt>0</asrwt>
<pdfrwt beam="1">  1        1 0.97518299E-01 0.18085187E+04</pdfrwt>
<pdfrwt beam="2">  1       -1 0.19846009E+00 0.18085187E+04</pdfrwt>
<totfact> 0.45963730E+00</totfact>
</mgrwt>
</event>
<event>
12    2  0.3751044E-008  0.3178724E+04  0.7818608E-02  0.8194459E-01
          2   -1    0    0  501    0  0.00000000000E+00  0.00000000000E+00  0.35414563349E+04  0.35414563349E+04  0.00000000000E+00 0.  1.
         -2   -1    0    0    0  501 -0.00000000000E+00 -0.00000000000E+00 -0.71328590762E+03  0.71328590762E+03  0.00000000000E+00 0. -1.
         23    2    1    2    0    0 -0.73203848280E+03 -0.11900612676E+04  0.74081428015E+03  0.15841809185E+04  0.93258908992E+02 0.  0.
        254    2    1    2    0    0  0.73203848280E+03  0.11900612676E+04  0.20873561471E+04  0.26705613240E+04  0.90703690079E+03 0.  0.
         23    2    4    4    0    0  0.32443705958E+03  0.26659776411E+03  0.13528471248E+04  0.14189146293E+04  0.82399081552E+02 0.  0.
         23    2    4    4    0    0  0.40760142323E+03  0.92346350345E+03  0.73450902234E+03  0.12516466947E+04  0.90510673978E+02 0.  0.
          2    1    3    3  502    0 -0.31018014324E+03 -0.45485364027E+03  0.24951175257E+03  0.60444989039E+03  0.00000000000E+00 0.  1.
         -2    1    3    3    0  502 -0.42185833957E+03 -0.73520762729E+03  0.49130252758E+03  0.97973102814E+03  0.00000000000E+00 0. -1.
         11    1    5    5    0    0  0.18428066251E+03  0.20243831876E+03  0.87389569806E+03  0.91576979998E+03  0.00000000000E+00 0.  1.
        -11    1    5    5    0    0  0.14015639707E+03  0.64159445353E+02  0.47895142672E+03  0.50314482928E+03  0.00000000000E+00 0. -1.
          4    1    6    6  503    0  0.30795041879E+03  0.60371239099E+03  0.51519650545E+03  0.85131049019E+03  0.00000000000E+00 0. -1.
         -4    1    6    6    0  503  0.99651004433E+02  0.31975111246E+03  0.21931251689E+03  0.40033620454E+03  0.00000000000E+00 0.  1.
<mgrwt>
<rscale>  0 0.31787236E+04</rscale>
<asrwt>0</asrwt>
<pdfrwt beam="1">  1        2 0.54483943E+00 0.31787236E+04</pdfrwt>
<pdfrwt beam="2">  1       -2 0.10973630E+00 0.31787236E+04</pdfrwt>
<totfact> 0.42318614E-01</totfact>
</mgrwt>
</event>
<event>
12    2  0.3751044E-008  0.1665093E+04  0.7818608E-02  0.8781527E-01
         -1   -1    0    0    0  501 -0.00000000000E+00  0.00000000000E+00  0.15916764990E+04  0.15916764990E+04  0.00000000000E+00 0.  1.
          1   -1    0    0  501    0  0.00000000000E+00 -0.00000000000E+00 -0.43547418284E+03  0.43547418284E+03  0.00000000000E+00 0. -1.
         23    2    1    2    0    0 -0.14616887706E+03  0.11125514996E+03  0.10741399795E+04  0.10935635546E+04  0.91441256007E+02 0.  0.
        254    2    1    2    0    0  0.14616887706E+03 -0.11125514996E+03  0.82062336621E+02  0.93358712723E+03  0.91165105607E+03 0.  0.
         23    2    4    4    0    0  0.46210688624E+03 -0.29375453900E+03  0.64952035819E+02  0.55816184773E+03  0.86552745833E+02 0.  0.
         23    2    4    4    0    0 -0.31593800919E+03  0.18249938904E+03  0.17110300802E+02  0.37542527950E+03  0.86767075812E+02 0.  0.
          3    1    3    3  502    0 -0.18409268889E+02 -0.48205404868E+01  0.32048910683E+02  0.37272932104E+02  0.00000000000E+00 0. -1.
         -3    1    3    3    0  502 -0.12775960817E+03  0.11607569045E+03  0.10420910688E+04  0.10562906225E+04  0.00000000000E+00 0.  1.
         11    1    5    5    0    0  0.47101596148E+02 -0.16478526012E+02 -0.16268591428E+02  0.52485895688E+02  0.00000000000E+00 0.  1.
        -11    1    5    5    0    0  0.41500529010E+03 -0.27727601299E+03  0.81220627246E+02  0.50567595205E+03  0.00000000000E+00 0. -1.
          3    1    6    6  503    0 -0.26997680800E+03  0.11547444762E+03  0.17469262028E+02  0.29415472124E+03  0.00000000000E+00 0. -1.
         -3    1    6    6    0  503 -0.45961201183E+02  0.67024941417E+02 -0.35896122579E+00  0.81270558257E+02  0.00000000000E+00 0.  1.
<mgrwt>
<rscale>  0 0.16650934E+04</rscale>
<asrwt>0</asrwt>
<pdfrwt beam="1">  1        1 0.66996029E-01 0.16650934E+04</pdfrwt>
<pdfrwt beam="2">  1       -1 0.24487330E+00 0.16650934E+04</pdfrwt>
<totfact> 0.38485877E+00</totfact>
</mgrwt>
</event>
<event>
12    2  0.3751044E-008  0.2362720E+04  0.7818608E-02  0.8453594E-01
          2   -1    0    0  501    0  0.00000000000E+00  0.00000000000E+00  0.13147564966E+04  0.13147564966E+04  0.00000000000E+00 0. -1.
         -2   -1    0    0    0  501 -0.00000000000E+00 -0.00000000000E+00 -0.10614980431E+04  0.10614980431E+04  0.00000000000E+00 0.  1.
         23    2    1    2    0    0 -0.47240780526E+03 -0.88624260474E+03  0.45707673357E+02  0.10090192242E+04  0.86229429525E+02 0.  0.
        254    2    1    2    0    0  0.47240780526E+03  0.88624260474E+03  0.20755078012E+03  0.13672353155E+04  0.90424553779E+03 0.  0.
         23    2    4    4    0    0  0.45153135671E+03  0.66374618584E+03 -0.25340288735E+03  0.84657764637E+03  0.89672307314E+02 0.  0.
         23    2    4    4    0    0  0.20876448548E+02  0.22249641890E+03  0.46095366747E+03  0.52065766910E+03  0.93089431791E+02 0.  0.
          3    1    3    3  502    0 -0.12930105686E+03 -0.30121536622E+03  0.44491962252E+02  0.33080053637E+03  0.00000000000E+00 0. -1.
         -3    1    3    3    0  502 -0.34310674840E+03 -0.58502723852E+03  0.12157111050E+01  0.67821868786E+03  0.00000000000E+00 0.  1.
         11    1    5    5    0    0  0.28360156291E+03  0.48086756228E+03 -0.15386096658E+03  0.57908259857E+03  0.00000000000E+00 0. -1.
        -11    1    5    5    0    0  0.16792979381E+03  0.18287862357E+03 -0.99541920770E+02  0.26749504780E+03  0.00000000000E+00 0.  1.
          4    1    6    6  503    0  0.53739518229E+01  0.10533686903E+02 -0.12912059519E+01  0.11895592914E+02  0.00000000000E+00 0. -1.
         -4    1    6    6    0  503  0.15502496725E+02  0.21196273199E+03  0.46224487342E+03  0.50876207619E+03  0.00000000000E+00 0.  1.
<mgrwt>
<rscale>  0 0.23627200E+04</rscale>
<asrwt>0</asrwt>
<pdfrwt beam="1">  1        2 0.20227023E+00 0.23627200E+04</pdfrwt>
<pdfrwt beam="2">  1       -2 0.16330739E+00 0.23627200E+04</pdfrwt>
<totfact> 0.34822073E+00</totfact>
</mgrwt>
</event>
<event>
12    2  0.3751044E-008  0.1589899E+04  0.7818608E-02  0.8826778E-01
          1   -1    0    0  501    0  0.00000000000E+00  0.00000000000E+00  0.73503476929E+03  0.73503476929E+03  0.00000000000E+00 0. -1.
         -1   -1    0    0    0  501 -0.00000000000E+00 -0.00000000000E+00 -0.85974764855E+03  0.85974764855E+03  0.00000000000E+00 0.  1.
         23    2    1    2    0    0 -0.49870536430E+03  0.14023820782E+02  0.16372059895E+03  0.53275251638E+03  0.90094956837E+02 0.  0.
        254    2    1    2    0    0  0.49870536430E+03 -0.14023820782E+02 -0.28843347821E+03  0.10620299015E+04  0.89208179687E+03 0.  0.
         23    2    4    4    0    0 -0.19191226562E+02  0.31772095614E+03  0.79795603065E+02  0.33945577167E+03  0.86879074009E+02 0.  0.
         23    2    4    4    0    0  0.51789659087E+03 -0.33174477693E+03 -0.36822908128E+03  0.72257412979E+03  0.90825331799E+02 0.  0.
          3    1    3    3  502    0 -0.47267422004E+03 -0.33789546880E+01  0.16688306247E+03  0.50128065210E+03  0.00000000000E+00 0. -1.
         -3    1    3    3    0  502 -0.26031144262E+02  0.17402775470E+02 -0.31624635179E+01  0.31471864279E+02  0.00000000000E+00 0.  1.
         11    1    5    5    0    0  0.21185749985E+01  0.48593392564E+02 -0.18655859257E+02  0.52094599005E+02  0.00000000000E+00 0. -1.
        -11    1    5    5    0    0 -0.21309801561E+02  0.26912756358E+03  0.98451462322E+02  0.28736117266E+03  0.00000000000E+00 0.  1.
          3    1    6    6  503    0  0.90124355145E+02 -0.26724932580E+02 -0.34374275963E+02  0.10009101988E+03  0.00000000000E+00 0. -1.
         -3    1    6    6    0  503  0.42777223572E+03 -0.30501984435E+03 -0.33385480531E+03  0.62248310992E+03  0.00000000000E+00 0.  1.
<mgrwt>
<rscale>  0 0.15898986E+04</rscale>
<asrwt>0</asrwt>
<pdfrwt beam="1">  1        1 0.11308227E+00 0.15898986E+04</pdfrwt>
<pdfrwt beam="2">  1       -1 0.13226887E+00 0.15898986E+04</pdfrwt>
<totfact> 0.11782460E+01</totfact>
</mgrwt>
</event>
<event>
12    2  0.3751044E-008  0.1445982E+04  0.7818608E-02  0.8921191E-01
         -2   -1    0    0    0  501 -0.00000000000E+00  0.00000000000E+00  0.23179799964E+03  0.23179799964E+03  0.00000000000E+00 0.  1.
          2   -1    0    0  501    0  0.00000000000E+00 -0.00000000000E+00 -0.22550499186E+04  0.22550499186E+04  0.00000000000E+00 0. -1.
         23    2    1    2    0    0 -0.57069097391E+02 -0.42513203843E+03 -0.50181393326E+03  0.66670443822E+03  0.93185043558E+02 0.  0.
        254    2    1    2    0    0  0.57069097391E+02  0.42513203843E+03 -0.15214379857E+04  0.18201434801E+04  0.90230516546E+03 0.  0.
         23    2    4    4    0    0  0.35408384632E+03  0.28370663767E+03 -0.13677669304E+04  0.14443280467E+04  0.97120049078E+02 0.  0.
         23    2    4    4    0    0 -0.29701474893E+03  0.14142540076E+03 -0.15367105529E+03  0.37581543339E+03  0.96971860207E+02 0.  0.
          3    1    3    3  502    0  0.15145624971E+02 -0.17811762009E+03 -0.16905086799E+03  0.24603551067E+03  0.00000000000E+00 0. -1.
         -3    1    3    3    0  502 -0.72214722362E+02 -0.24701441835E+03 -0.33276306527E+03  0.42066892755E+03  0.00000000000E+00 0.  1.
         11    1    5    5    0    0  0.15418153074E+03  0.18563647072E+03 -0.71866004626E+03  0.75809307198E+03  0.00000000000E+00 0.  1.
        -11    1    5    5    0    0  0.19990231558E+03  0.98070166955E+02 -0.64910688417E+03  0.68623497470E+03  0.00000000000E+00 0. -1.
          3    1    6    6  503    0 -0.82462604769E+02  0.90421342733E+02 -0.51679122302E+02  0.13284137943E+03  0.00000000000E+00 0. -1.
         -3    1    6    6    0  503 -0.21455214416E+03  0.51004058029E+02 -0.10199193299E+03  0.24297405395E+03  0.00000000000E+00 0.  1.
<mgrwt>
<rscale>  0 0.14459821E+04</rscale>
<asrwt>0</asrwt>
<pdfrwt beam="1">  1        2 0.34693074E+00 0.14459821E+04</pdfrwt>
<pdfrwt beam="2">  1       -2 0.35661232E-01 0.14459821E+04</pdfrwt>
<totfact> 0.34521697E+01</totfact>
</mgrwt>
</event>
<event>
12    2  0.3751044E-008  0.2061229E+04  0.7818608E-02  0.8578517E-01
          2   -1    0    0  501    0  0.00000000000E+00  0.00000000000E+00  0.22872474040E+04  0.22872474040E+04  0.00000000000E+00 0. -1.
         -2   -1    0    0    0  501 -0.00000000000E+00 -0.00000000000E+00 -0.46438640983E+03  0.46438640983E+03  0.00000000000E+00 0.  1.
         23    2    1    2    0    0 -0.29815688760E+03 -0.36330406585E+03 -0.17933912892E+03  0.51069201218E+03  0.88070620807E+02 0.  0.
        254    2    1    2    0    0  0.29815688760E+03  0.36330406585E+03  0.20022001231E+04  0.22409418016E+04  0.89001542210E+03 0.  0.
         23    2    4    4    0    0 -0.66820732888E+02 -0.42878593665E+02  0.14635648174E+04  0.14684533813E+04  0.89609007048E+02 0.  0.
         23    2    4    4    0    0  0.36497762049E+03  0.40618265952E+03  0.53863530567E+03  0.77248842034E+03  0.91746120870E+02 0.  0.
          1    1    3    3  502    0 -0.39377926606E+02 -0.11559217896E+02 -0.21736240572E+02  0.46440292595E+02  0.00000000000E+00 0. -1.
         -1    1    3    3    0  502 -0.25877896100E+03 -0.35174484796E+03 -0.15760288835E+03  0.46425171959E+03  0.00000000000E+00 0.  1.
         11    1    5    5    0    0 -0.55532838724E+02 -0.49597147505E+02  0.57612343349E+03  0.58091478191E+03  0.00000000000E+00 0. -1.
        -11    1    5    5    0    0 -0.11287894164E+02  0.67185538398E+01  0.88744138389E+03  0.88753859936E+03  0.00000000000E+00 0.  1.
          2    1    6    6  503    0  0.32025752825E+02  0.35418239254E+02  0.90399368080E+02  0.10223573869E+03  0.00000000000E+00 0. -1.
         -2    1    6    6    0  503  0.33295186767E+03  0.37076442027E+03  0.44823593759E+03  0.67025268166E+03  0.00000000000E+00 0.  1.
<mgrwt>
<rscale>  0 0.20612294E+04</rscale>
<asrwt>0</asrwt>
<pdfrwt beam="1">  1        2 0.35188421E+00 0.20612294E+04</pdfrwt>
<pdfrwt beam="2">  1       -2 0.71444064E-01 0.20612294E+04</pdfrwt>
<totfact> 0.75756345E+00</totfact>
</mgrwt>
</event>
<event>
12    2  0.3751044E-008  0.1443366E+04  0.7818608E-02  0.8923013E-01
         -2   -1    0    0    0  501 -0.00000000000E+00  0.00000000000E+00  0.25713902644E+03  0.25713902644E+03  0.00000000000E+00 0.  1.
          2   -1    0    0  501    0  0.00000000000E+00 -0.00000000000E+00 -0.20254657499E+04  0.20254657499E+04  0.00000000000E+00 0. -1.
         23    2    1    2    0    0  0.39188772572E+03 -0.12605513705E+03 -0.32095468039E+03  0.52977949030E+03  0.90490410168E+02 0.  0.
        254    2    1    2    0    0 -0.39188772572E+03  0.12605513705E+03 -0.14473720431E+04  0.17528252861E+04  0.89891310213E+03 0.  0.
         23    2    4    4    0    0 -0.13754978371E+03 -0.36077728506E+03 -0.38411992218E+03  0.55218067587E+03  0.90968081046E+02 0.  0.
         23    2    4    4    0    0 -0.25433794201E+03  0.48683242211E+03 -0.10632521209E+04  0.12006446102E+04  0.96689251769E+02 0.  0.
          1    1    3    3  502    0  0.39591784589E+03 -0.12798448495E+03 -0.31306218968E+03  0.52070999961E+03  0.00000000000E+00 0. -1.
         -1    1    3    3    0  502 -0.40301201655E+01  0.19293479070E+01 -0.78924907094E+01  0.90694906964E+01  0.00000000000E+00 0.  1.
         11    1    5    5    0    0 -0.12092011978E+03 -0.20385985788E+03 -0.25640683039E+03  0.34917757616E+03  0.00000000000E+00 0. -1.
        -11    1    5    5    0    0 -0.16629663929E+02 -0.15691742718E+03 -0.12771309180E+03  0.20300309971E+03  0.00000000000E+00 0.  1.
          2    1    6    6  503    0 -0.46550212265E+02  0.29130687102E+02 -0.11290384745E+03  0.12554998193E+03  0.00000000000E+00 0. -1.
         -2    1    6    6    0  503 -0.20778772975E+03  0.45770173501E+03 -0.95034827345E+03  0.10750946283E+04  0.00000000000E+00 0.  1.
<mgrwt>
<rscale>  0 0.14433659E+04</rscale>
<asrwt>0</asrwt>
<pdfrwt beam="1">  1        2 0.31161010E+00 0.14433659E+04</pdfrwt>
<pdfrwt beam="2">  1       -2 0.39559852E-01 0.14433659E+04</pdfrwt>
<totfact> 0.37942591E+01</totfact>
</mgrwt>
</event>
<event>
12    2  0.3751044E-008  0.1472341E+04  0.7818608E-02  0.8903057E-01
         -2   -1    0    0    0  501 -0.00000000000E+00  0.00000000000E+00  0.21231558523E+03  0.21231558523E+03  0.00000000000E+00 0.  1.
          2   -1    0    0  501    0  0.00000000000E+00 -0.00000000000E+00 -0.25525526966E+04  0.25525526966E+04  0.00000000000E+00 0. -1.
         23    2    1    2    0    0  0.23928050696E+02  0.30885674191E+02 -0.15615282583E+04  0.15662978638E+04  0.11572389622E+03 0.  0.
        254    2    1    2    0    0 -0.23928050696E+02 -0.30885674191E+02 -0.77870885311E+03  0.11985704181E+04  0.91030604344E+03 0.  0.
         23    2    4    4    0    0 -0.27595171469E+03 -0.37092282197E+03 -0.33302867477E+03  0.57710755821E+03  0.91716666041E+02 0.  0.
         23    2    4    4    0    0  0.25202366399E+03  0.34003714778E+03 -0.44568017834E+03  0.62146285988E+03  0.91891652279E+02 0.  0.
          1    1    3    3  502    0  0.38810889923E+02  0.14725252855E+02 -0.15061360603E+04  0.15067079844E+04  0.00000000000E+00 0. -1.
         -1    1    3    3    0  502 -0.14882839227E+02  0.16160421336E+02 -0.55392198016E+02  0.59589879361E+02  0.00000000000E+00 0.  1.
         11    1    5    5    0    0 -0.72718102905E+02 -0.10563355374E+03 -0.14530146592E+03  0.19380115109E+03  0.00000000000E+00 0. -1.
        -11    1    5    5    0    0 -0.20323361178E+03 -0.26528926823E+03 -0.18772720884E+03  0.38330640711E+03  0.00000000000E+00 0.  1.
          3    1    6    6  503    0  0.25134106214E+02  0.97543643588E+02 -0.94206513508E+02  0.13791792083E+03  0.00000000000E+00 0. -1.
         -3    1    6    6    0  503  0.22688955778E+03  0.24249350419E+03 -0.35147366483E+03  0.48354493904E+03  0.00000000000E+00 0.  1.
<mgrwt>
<rscale>  0 0.14723406E+04</rscale>
<asrwt>0</asrwt>
<pdfrwt beam="1">  1        2 0.39270041E+00 0.14723406E+04</pdfrwt>
<pdfrwt beam="2">  1       -2 0.32663936E-01 0.14723406E+04</pdfrwt>
<totfact> 0.27541638E+01</totfact>
</mgrwt>
</event>
<event>
12    2  0.3751044E-008  0.1824956E+04  0.7818608E-02  0.8693140E-01
         -2   -1    0    0    0  501 -0.00000000000E+00  0.00000000000E+00  0.73466006610E+03  0.73466006610E+03  0.00000000000E+00 0.  1.
          2   -1    0    0  501    0  0.00000000000E+00 -0.00000000000E+00 -0.11333350042E+04  0.11333350042E+04  0.00000000000E+00 0. -1.
         23    2    1    2    0    0 -0.58818491198E+03  0.27311434824E+03 -0.33083966823E+03  0.73388753222E+03  0.92644945796E+02 0.  0.
        254    2    1    2    0    0  0.58818491198E+03 -0.27311434824E+03 -0.67835269913E+02  0.11341075381E+04  0.92792529133E+03 0.  0.
         23    2    4    4    0    0 -0.14887359728E+03 -0.84732377630E+02 -0.28088773112E+03  0.33869332722E+03  0.80450783875E+02 0.  0.
         23    2    4    4    0    0  0.73705850926E+03 -0.18838197061E+03  0.21305246120E+03  0.79541421091E+03  0.92462980555E+02 0.  0.
          4    1    3    3  502    0 -0.44472373169E+02 -0.23986538794E+01 -0.33301213168E+02  0.55610397537E+02  0.00000000000E+00 0.  1.
         -4    1    3    3    0  502 -0.54371253881E+03  0.27551300212E+03 -0.29753845506E+03  0.67827713469E+03  0.00000000000E+00 0. -1.
         11    1    5    5    0    0 -0.15190036301E+02 -0.75465932610E+01  0.13335161024E+01  0.17013716169E+02  0.00000000000E+00 0.  1.
        -11    1    5    5    0    0 -0.13368356097E+03 -0.77185784369E+02 -0.28222124722E+03  0.32167961105E+03  0.00000000000E+00 0. -1.
          1    1    6    6  503    0  0.51235761975E+03 -0.11784893508E+03  0.18900633003E+03  0.55867888345E+03  0.00000000000E+00 0. -1.
         -1    1    6    6    0  503  0.22470088950E+03 -0.70533035523E+02  0.24046131177E+02  0.23673532746E+03  0.00000000000E+00 0.  1.
<mgrwt>
<rscale>  0 0.18249559E+04</rscale>
<asrwt>0</asrwt>
<pdfrwt beam="1">  1        2 0.17435923E+00 0.18249559E+04</pdfrwt>
<pdfrwt beam="2">  1       -2 0.11302463E+00 0.18249559E+04</pdfrwt>
<totfact> 0.12046485E+01</totfact>
</mgrwt>
</event>
<event>
12    2  0.3751044E-008  0.1608025E+04  0.7818608E-02  0.8815633E-01
         -2   -1    0    0    0  501 -0.00000000000E+00  0.00000000000E+00  0.24503401448E+03  0.24503401448E+03  0.00000000000E+00 0.  1.
          2   -1    0    0  501    0  0.00000000000E+00 -0.00000000000E+00 -0.26381489928E+04  0.26381489928E+04  0.00000000000E+00 0. -1.
         23    2    1    2    0    0  0.66282771259E+02 -0.17024364096E+03  0.92083807940E+02  0.22369853190E+03  0.90472661269E+02 0.  0.
        254    2    1    2    0    0 -0.66282771259E+02  0.17024364096E+03 -0.24851987863E+04  0.26594844754E+04  0.92912236249E+03 0.  0.
         23    2    4    4    0    0 -0.12330383086E+03  0.98498324579E+02 -0.12119704963E+02  0.18308431248E+03  0.92017517780E+02 0.  0.
         23    2    4    4    0    0  0.57021059605E+02  0.71745316379E+02 -0.24730790813E+04  0.24764001629E+04  0.89659537969E+02 0.  0.
          2    1    3    3  502    0  0.56988712107E+02 -0.13305969484E+03  0.10959587796E+03  0.18155950034E+03  0.00000000000E+00 0.  1.
         -2    1    3    3    0  502  0.92940591519E+01 -0.37183946121E+02 -0.17512070018E+02  0.42139031562E+02  0.00000000000E+00 0. -1.
         11    1    5    5    0    0 -0.12221895654E+03  0.55613325070E+02  0.10316451193E+02  0.13467273083E+03  0.00000000000E+00 0. -1.
        -11    1    5    5    0    0 -0.10848743208E+01  0.42884999509E+02 -0.22436156156E+02  0.48411581654E+02  0.00000000000E+00 0.  1.
          1    1    6    6  503    0  0.28191174549E+02  0.67798955850E+02 -0.88080660150E+03  0.88386181611E+03  0.00000000000E+00 0. -1.
         -1    1    6    6    0  503  0.28829885056E+02  0.39463605288E+01 -0.15922724798E+04  0.15925383468E+04  0.00000000000E+00 0.  1.
<mgrwt>
<rscale>  0 0.16080252E+04</rscale>
<asrwt>0</asrwt>
<pdfrwt beam="1">  1        2 0.40586908E+00 0.16080252E+04</pdfrwt>
<pdfrwt beam="2">  1       -2 0.37697541E-01 0.16080252E+04</pdfrwt>
<totfact> 0.18440567E+01</totfact>
</mgrwt>
</event>
<event>
12    2  0.3751044E-008  0.3085645E+04  0.7818608E-02  0.8219688E-01
         -1   -1    0    0    0  501 -0.00000000000E+00  0.00000000000E+00  0.79684736858E+03  0.79684736858E+03  0.00000000000E+00 0.  1.
          1   -1    0    0  501    0  0.00000000000E+00 -0.00000000000E+00 -0.29871489153E+04  0.29871489153E+04  0.00000000000E+00 0. -1.
         23    2    1    2    0    0 -0.12993826704E+04 -0.75144525572E+01 -0.33703838892E+03  0.13456686146E+04  0.93687531491E+02 0.  0.
        254    2    1    2    0    0  0.12993826704E+04  0.75144525572E+01 -0.18532631578E+04  0.24383276693E+04  0.90686586639E+03 0.  0.
         23    2    4    4    0    0  0.14031477089E+04  0.96770832934E+02 -0.17515040739E+04  0.22483933030E+04  0.96528943418E+02 0.  0.
         23    2    4    4    0    0 -0.10376503849E+03 -0.89256380377E+02 -0.10175908388E+03  0.18993436629E+03  0.83583896148E+02 0.  0.
          2    1    3    3  502    0 -0.27393827317E+03 -0.22595827092E+02 -0.10463003953E+03  0.29410915334E+03  0.00000000000E+00 0. -1.
         -2    1    3    3    0  502 -0.10254443972E+04  0.15081374535E+02 -0.23240834939E+03  0.10515594613E+04  0.00000000000E+00 0.  1.
         11    1    5    5    0    0  0.86252974988E+03  0.59358764956E+02 -0.11506461737E+04  0.14392594100E+04  0.00000000000E+00 0.  1.
        -11    1    5    5    0    0  0.54061795902E+03  0.37412067978E+02 -0.60085790027E+03  0.80913389298E+03  0.00000000000E+00 0. -1.
          4    1    6    6  503    0 -0.19002562979E+02 -0.49995419209E+02 -0.23708873130E+01  0.53537467705E+02  0.00000000000E+00 0.  1.
         -4    1    6    6    0  503 -0.84762475513E+02 -0.39260961168E+02 -0.99388196572E+02  0.13639689859E+03  0.00000000000E+00 0. -1.
<mgrwt>
<rscale>  0 0.30856453E+04</rscale>
<asrwt>0</asrwt>
<pdfrwt beam="1">  1        1 0.45956137E+00 0.30856453E+04</pdfrwt>
<pdfrwt beam="2">  1       -1 0.12259190E+00 0.30856453E+04</pdfrwt>
<totfact> 0.30283991E-01</totfact>
</mgrwt>
</event>
<event>
12    2  0.3751044E-008  0.1212579E+04  0.7818608E-02  0.9101917E-01
         -2   -1    0    0    0  501 -0.00000000000E+00  0.00000000000E+00  0.21172569548E+03  0.21172569548E+03  0.00000000000E+00 0.  1.
          2   -1    0    0  501    0  0.00000000000E+00 -0.00000000000E+00 -0.17361466696E+04  0.17361466696E+04  0.00000000000E+00 0. -1.
         23    2    1    2    0    0  0.17496303388E+03  0.28714486639E+02 -0.29417573261E+02  0.19791617472E+03  0.82878426816E+02 0.  0.
        254    2    1    2    0    0 -0.17496303388E+03 -0.28714486639E+02 -0.14950034009E+04  0.17499561904E+04  0.89211821786E+03 0.  0.
         23    2    4    4    0    0  0.47917667647E+02 -0.39792885260E+03 -0.41736876597E+03  0.58573312345E+03  0.90791687382E+02 0.  0.
         23    2    4    4    0    0 -0.22288070153E+03  0.36921436596E+03 -0.10776346349E+04  0.11642230669E+04  0.90132613807E+02 0.  0.
          1    1    3    3  502    0  0.44579970411E+02  0.46152510666E+02 -0.88882778545E+01  0.64779854012E+02  0.00000000000E+00 0. -1.
         -1    1    3    3    0  502  0.13038306347E+03 -0.17438024027E+02 -0.20529295407E+02  0.13313632071E+03  0.00000000000E+00 0.  1.
         11    1    5    5    0    0 -0.11463202279E+02 -0.12933186000E+03 -0.89227663449E+02  0.15754272735E+03  0.00000000000E+00 0. -1.
        -11    1    5    5    0    0  0.59380869925E+02 -0.26859699260E+03 -0.32814110252E+03  0.42819039610E+03  0.00000000000E+00 0.  1.
          4    1    6    6  503    0 -0.39532484611E+02  0.68963197975E+02 -0.30630549778E+03  0.31645188890E+03  0.00000000000E+00 0. -1.
         -4    1    6    6    0  503 -0.18334821692E+03  0.30025116798E+03 -0.77132913710E+03  0.84777117801E+03  0.00000000000E+00 0.  1.
<mgrwt>
<rscale>  0 0.12125788E+04</rscale>
<asrwt>0</asrwt>
<pdfrwt beam="1">  1        2 0.26709950E+00 0.12125788E+04</pdfrwt>
<pdfrwt beam="2">  1       -2 0.32573183E-01 0.12125788E+04</pdfrwt>
<totfact> 0.81088448E+01</totfact>
</mgrwt>
</event>
<event>
12    2  0.3751044E-008  0.1672290E+04  0.7818608E-02  0.8777328E-01
          2   -1    0    0  501    0  0.00000000000E+00  0.00000000000E+00  0.38890227223E+04  0.38890227223E+04  0.00000000000E+00 0. -1.
         -2   -1    0    0    0  501 -0.00000000000E+00 -0.00000000000E+00 -0.17977232199E+03  0.17977232199E+03  0.00000000000E+00 0.  1.
         23    2    1    2    0    0  0.19973626652E+03  0.51647704910E+03  0.84340914158E+03  0.10133884388E+04  0.94731353702E+02 0.  0.
        254    2    1    2    0    0 -0.19973626652E+03 -0.51647704910E+03  0.28658412587E+04  0.30554066055E+04  0.90322770452E+03 0.  0.
         23    2    4    4    0    0  0.35177103982E+03 -0.19704887010E+03  0.10262061627E+04  0.11062226863E+04  0.89768712645E+02 0.  0.
         23    2    4    4    0    0 -0.55150730634E+03 -0.31942817900E+03  0.18396350961E+04  0.19491839192E+04  0.94159405185E+02 0.  0.
          1    1    3    3  502    0  0.40051878588E+01  0.56953284798E+01  0.45232749781E+02  0.45765488624E+02  0.00000000000E+00 0. -1.
         -1    1    3    3    0  502  0.19573107866E+03  0.51078172062E+03  0.79817639179E+03  0.96762295017E+03  0.00000000000E+00 0.  1.
         11    1    5    5    0    0  0.50357693772E+02 -0.46377037160E+02  0.10527506701E+03  0.12557693511E+03  0.00000000000E+00 0.  1.
        -11    1    5    5    0    0  0.30141334605E+03 -0.15067183294E+03  0.92093109565E+03  0.98064575120E+03  0.00000000000E+00 0. -1.
          2    1    6    6  503    0 -0.37477162764E+00  0.38656468672E+01  0.25935739482E+02  0.26224916815E+02  0.00000000000E+00 0.  1.
         -2    1    6    6    0  503 -0.55113253472E+03 -0.32329382587E+03  0.18136993566E+04  0.19229590023E+04  0.00000000000E+00 0. -1.
<mgrwt>
<rscale>  0 0.16722902E+04</rscale>
<asrwt>0</asrwt>
<pdfrwt beam="1">  1        2 0.59831113E+00 0.16722902E+04</pdfrwt>
<pdfrwt beam="2">  1       -2 0.27657283E-01 0.16722902E+04</pdfrwt>
<totfact> 0.48458381E+00</totfact>
</mgrwt>
</event>
<event>
12    2  0.3751044E-008  0.2381911E+04  0.7818608E-02  0.8446307E-01
         -1   -1    0    0    0  501 -0.00000000000E+00  0.00000000000E+00  0.48160959721E+03  0.48160959721E+03  0.00000000000E+00 0. -1.
          1   -1    0    0  501    0  0.00000000000E+00 -0.00000000000E+00 -0.29450712984E+04  0.29450712984E+04  0.00000000000E+00 0.  1.
         23    2    1    2    0    0  0.59332001980E+02  0.95640446799E+03 -0.55815225793E+03  0.11126702401E+04  0.90946837826E+02 0.  0.
        254    2    1    2    0    0 -0.59332001980E+02 -0.95640446799E+03 -0.19053094432E+04  0.23140106555E+04  0.89789278113E+03 0.  0.
         23    2    4    4    0    0  0.16076194362E+03  0.11104063642E+03 -0.25325500117E+03  0.33275455366E+03  0.91722799290E+02 0.  0.
         23    2    4    4    0    0 -0.22009394560E+03 -0.10674451044E+04 -0.16520544421E+04  0.19812561018E+04  0.90617137880E+02 0.  0.
          3    1    3    3  502    0  0.42989034020E+02  0.91554657130E+03 -0.54662724861E+03  0.10671808329E+04  0.00000000000E+00 0. -1.
         -3    1    3    3    0  502  0.16342967961E+02  0.40857896698E+02 -0.11525009318E+02  0.45489407164E+02  0.00000000000E+00 0.  1.
         11    1    5    5    0    0  0.21748014232E+02  0.27847736585E+02 -0.11325204645E+03  0.11863599193E+03  0.00000000000E+00 0.  1.
        -11    1    5    5    0    0  0.13901392939E+03  0.83192899835E+02 -0.14000295472E+03  0.21411856173E+03  0.00000000000E+00 0. -1.
          1    1    6    6  503    0 -0.10777858348E+03 -0.32322362599E+03 -0.53617203949E+03  0.63527174609E+03  0.00000000000E+00 0. -1.
         -1    1    6    6    0  503 -0.11231536212E+03 -0.74422147843E+03 -0.11158824026E+04  0.13459843557E+04  0.00000000000E+00 0.  1.
<mgrwt>
<rscale>  0 0.23819107E+04</rscale>
<asrwt>0</asrwt>
<pdfrwt beam="1">  1        1 0.45308788E+00 0.23819107E+04</pdfrwt>
<pdfrwt beam="2">  1       -1 0.74093786E-01 0.23819107E+04</pdfrwt>
<totfact> 0.10789993E+00</totfact>
</mgrwt>
</event>
<event>
12    2  0.3751044E-008  0.2130255E+04  0.7818608E-02  0.8548032E-01
         -2   -1    0    0    0  501 -0.00000000000E+00  0.00000000000E+00  0.42980122041E+03  0.42980122041E+03  0.00000000000E+00 0.  1.
          2   -1    0    0  501    0  0.00000000000E+00 -0.00000000000E+00 -0.26395837856E+04  0.26395837856E+04  0.00000000000E+00 0. -1.
         23    2    1    2    0    0 -0.14342315604E+02  0.14411048681E+03  0.34862957559E+03  0.38809313470E+03  0.90000921117E+02 0.  0.
        254    2    1    2    0    0  0.14342315604E+02 -0.14411048681E+03 -0.25584121408E+04  0.26812918713E+04  0.78922739603E+03 0.  0.
         23    2    4    4    0    0  0.17448425158E+03 -0.74815771959E+02 -0.24421474787E+04  0.24511410850E+04  0.89253331516E+02 0.  0.
         23    2    4    4    0    0 -0.16014193598E+03 -0.69294714851E+02 -0.11626466212E+03  0.23015078633E+03  0.94893180069E+02 0.  0.
          2    1    3    3  502    0  0.93797347478E+01  0.99354747370E+02  0.13120286913E+03  0.16484398113E+03  0.00000000000E+00 0. -1.
         -2    1    3    3    0  502 -0.23722050352E+02  0.44755739440E+02  0.21742670647E+03  0.22324915357E+03  0.00000000000E+00 0.  1.
         11    1    5    5    0    0  0.80630958824E+02 -0.41934467614E+02 -0.66089316519E+03  0.66711290415E+03  0.00000000000E+00 0.  1.
        -11    1    5    5    0    0  0.93853292758E+02 -0.32881304345E+02 -0.17812543135E+04  0.17840281808E+04  0.00000000000E+00 0. -1.
          3    1    6    6  503    0 -0.99305831855E+02 -0.49843160336E+02 -0.17425185885E+02  0.11247055604E+03  0.00000000000E+00 0. -1.
         -3    1    6    6    0  503 -0.60836104123E+02 -0.19451554515E+02 -0.98839476235E+02  0.11768023029E+03  0.00000000000E+00 0.  1.
<mgrwt>
<rscale>  0 0.21302548E+04</rscale>
<asrwt>0</asrwt>
<pdfrwt beam="1">  1        2 0.40608981E+00 0.21302548E+04</pdfrwt>
<pdfrwt beam="2">  1       -2 0.66123264E-01 0.21302548E+04</pdfrwt>
<totfact> 0.55810329E+00</totfact>
</mgrwt>
</event>
<event>
12    2  0.3751044E-008  0.2425285E+04  0.7818608E-02  0.8430097E-01
         -2   -1    0    0    0  501 -0.00000000000E+00  0.00000000000E+00  0.47905546403E+03  0.47905546403E+03  0.00000000000E+00 0. -1.
          2   -1    0    0  501    0  0.00000000000E+00 -0.00000000000E+00 -0.30695861777E+04  0.30695861777E+04  0.00000000000E+00 0.  1.
         23    2    1    2    0    0 -0.77932413773E+03 -0.65496335964E+03 -0.14628115053E+04  0.17847144139E+04  0.95209900425E+02 0.  0.
        254    2    1    2    0    0  0.77932413773E+03  0.65496335964E+03 -0.11277192084E+04  0.17639272278E+04  0.89630660933E+03 0.  0.
         23    2    4    4    0    0  0.62482629507E+03  0.70850284397E+03 -0.43131868105E+03  0.10425001768E+04  0.91578573113E+02 0.  0.
         23    2    4    4    0    0  0.15449784266E+03 -0.53539484331E+02 -0.69640052735E+03  0.72142705103E+03  0.93526657673E+02 0.  0.
          4    1    3    3  502    0 -0.13410631919E+03 -0.82744259560E+02 -0.27322964049E+03  0.31541330628E+03  0.00000000000E+00 0. -1.
         -4    1    3    3    0  502 -0.64521781854E+03 -0.57221910008E+03 -0.11895818648E+04  0.14693011076E+04  0.00000000000E+00 0.  1.
         11    1    5    5    0    0  0.30055655425E+03  0.35138293481E+03 -0.26083310964E+03  0.53088428143E+03  0.00000000000E+00 0. -1.
        -11    1    5    5    0    0  0.32426974082E+03  0.35711990916E+03 -0.17048557141E+03  0.51161589536E+03  0.00000000000E+00 0.  1.
          1    1    6    6  503    0  0.68283092750E+02 -0.69488574382E+02 -0.43272691211E+03  0.44355813959E+03  0.00000000000E+00 0. -1.
         -1    1    6    6    0  503  0.86214749910E+02  0.15949090051E+02 -0.26367361524E+03  0.27786891145E+03  0.00000000000E+00 0.  1.
<mgrwt>
<rscale>  0 0.24252852E+04</rscale>
<asrwt>0</asrwt>
<pdfrwt beam="1">  1        2 0.47224403E+00 0.24252852E+04</pdfrwt>
<pdfrwt beam="2">  1       -2 0.73700840E-01 0.24252852E+04</pdfrwt>
<totfact> 0.23450473E+00</totfact>
</mgrwt>
</event>
<event>
12    2  0.3751044E-008  0.1637074E+04  0.7818608E-02  0.8798090E-01
         -2   -1    0    0    0  501 -0.00000000000E+00  0.00000000000E+00  0.24437919129E+03  0.24437919129E+03  0.00000000000E+00 0.  1.
          2   -1    0    0  501    0  0.00000000000E+00 -0.00000000000E+00 -0.27416541310E+04  0.27416541310E+04  0.00000000000E+00 0. -1.
         23    2    1    2    0    0 -0.41806067796E+03  0.21733119220E+03 -0.14181758907E+04  0.14964039375E+04  0.77422927278E+02 0.  0.
        254    2    1    2    0    0  0.41806067796E+03 -0.21733119220E+03 -0.10790990491E+04  0.14896293848E+04  0.91243266541E+03 0.  0.
         23    2    4    4    0    0 -0.86421458563E+02  0.88680341298E+02  0.89084232608E+02  0.17767024128E+03  0.91092495328E+02 0.  0.
         23    2    4    4    0    0  0.50448213652E+03 -0.30601153350E+03 -0.11681832817E+04  0.13119591436E+04  0.91865826376E+02 0.  0.
          1    1    3    3  502    0 -0.16896074741E+03  0.76116919181E+02 -0.67489272374E+03  0.69987263706E+03  0.00000000000E+00 0. -1.
         -1    1    3    3    0  502 -0.24909993055E+03  0.14121427302E+03 -0.74328316695E+03  0.79653130043E+03  0.00000000000E+00 0.  1.
         11    1    5    5    0    0 -0.78436189631E+02  0.68652377258E+02  0.21103209068E+02  0.10635191667E+03  0.00000000000E+00 0. -1.
        -11    1    5    5    0    0 -0.79852689315E+01  0.20027964040E+02  0.67981023541E+02  0.71318324610E+02  0.00000000000E+00 0.  1.
          2    1    6    6  503    0  0.33485616199E+03 -0.21802021953E+03 -0.87612066932E+03  0.96293763690E+03  0.00000000000E+00 0.  1.
         -2    1    6    6    0  503  0.16962597453E+03 -0.87991313969E+02 -0.29206261236E+03  0.34902150665E+03  0.00000000000E+00 0. -1.
<mgrwt>
<rscale>  0 0.16370745E+04</rscale>
<asrwt>0</asrwt>
<pdfrwt beam="1">  1        2 0.42179296E+00 0.16370745E+04</pdfrwt>
<pdfrwt beam="2">  1       -2 0.37596797E-01 0.16370745E+04</pdfrwt>
<totfact> 0.16056600E+01</totfact>
</mgrwt>
</event>
<event>
12    2  0.3751044E-008  0.2411516E+04  0.7818608E-02  0.8435205E-01
         -2   -1    0    0    0  501 -0.00000000000E+00  0.00000000000E+00  0.61894996190E+03  0.61894996190E+03  0.00000000000E+00 0.  1.
          2   -1    0    0  501    0  0.00000000000E+00 -0.00000000000E+00 -0.23489010369E+04  0.23489010369E+04  0.00000000000E+00 0. -1.
         23    2    1    2    0    0 -0.73023564191E+03 -0.51512412823E+03 -0.13932936943E+04  0.16574351136E+04  0.85011040622E+02 0.  0.
        254    2    1    2    0    0  0.73023564191E+03  0.51512412823E+03 -0.33665738068E+03  0.13104158852E+04  0.89735981634E+03 0.  0.
         23    2    4    4    0    0  0.37929480335E+03  0.61591781648E+03  0.97630541651E+02  0.73576524684E+03  0.92733334293E+02 0.  0.
         23    2    4    4    0    0  0.35094083856E+03 -0.10079368825E+03 -0.43428792233E+03  0.57465063834E+03  0.91096195908E+02 0.  0.
          3    1    3    3  502    0 -0.27820966308E+03 -0.21658129066E+03 -0.62073646643E+03  0.71387802379E+03  0.00000000000E+00 0. -1.
         -3    1    3    3    0  502 -0.45202597883E+03 -0.29854283757E+03 -0.77255722786E+03  0.94355708980E+03  0.00000000000E+00 0.  1.
         11    1    5    5    0    0  0.37941431078E+03  0.59591636962E+03  0.83701390935E+02  0.71139121561E+03  0.00000000000E+00 0. -1.
        -11    1    5    5    0    0 -0.11950743496E+00  0.20001446865E+02  0.13929150716E+02  0.24374031229E+02  0.00000000000E+00 0.  1.
          4    1    6    6  503    0  0.26881485877E+03 -0.82004224654E+02 -0.26851684733E+03  0.38869965070E+03  0.00000000000E+00 0. -1.
         -4    1    6    6    0  503  0.82125979791E+02 -0.18789463599E+02 -0.16577107500E+03  0.18595098764E+03  0.00000000000E+00 0.  1.
<mgrwt>
<rscale>  0 0.24115159E+04</rscale>
<asrwt>0</asrwt>
<pdfrwt beam="1">  1        2 0.36136939E+00 0.24115159E+04</pdfrwt>
<pdfrwt beam="2">  1       -2 0.95223071E-01 0.24115159E+04</pdfrwt>
<totfact> 0.35403723E+00</totfact>
</mgrwt>
</event>
<event>
12    2  0.3751044E-008  0.1077797E+04  0.7818608E-02  0.9227107E-01
          2   -1    0    0  501    0  0.00000000000E+00  0.00000000000E+00  0.33288457023E+04  0.33288457023E+04  0.00000000000E+00 0. -1.
         -2   -1    0    0    0  501 -0.00000000000E+00 -0.00000000000E+00 -0.87240905097E+02  0.87240905097E+02  0.00000000000E+00 0.  1.
         23    2    1    2    0    0 -0.50989880351E+02 -0.74540791832E+02  0.15893574069E+03  0.20410694888E+03  0.90789753639E+02 0.  0.
        254    2    1    2    0    0  0.50989880351E+02  0.74540791832E+02  0.30826690565E+04  0.32119796586E+04  0.89766837821E+03 0.  0.
         23    2    4    4    0    0 -0.19443745472E+03 -0.27501401664E+03  0.62367376092E+03  0.71449498014E+03  0.89974904479E+02 0.  0.
         23    2    4    4    0    0  0.24542733507E+03  0.34955480847E+03  0.24589952956E+04  0.24974846784E+04  0.91371297946E+02 0.  0.
          3    1    3    3  502    0 -0.39177234879E+02 -0.28365578068E+02  0.14730988599E+03  0.15504729685E+03  0.00000000000E+00 0. -1.
         -3    1    3    3    0  502 -0.11812645472E+02 -0.46175213764E+02  0.11625854704E+02  0.49059652025E+02  0.00000000000E+00 0.  1.
         11    1    5    5    0    0 -0.26213695048E+02 -0.81359461130E+01  0.22171217319E+02  0.35283343162E+02  0.00000000000E+00 0.  1.
        -11    1    5    5    0    0 -0.16822375967E+03 -0.26687807053E+03  0.60150254360E+03  0.67921163698E+03  0.00000000000E+00 0. -1.
          1    1    6    6  503    0  0.22845533220E+03  0.35153503377E+03  0.23822694491E+04  0.24188791716E+04  0.00000000000E+00 0. -1.
         -1    1    6    6    0  503  0.16972002872E+02 -0.19802252989E+01  0.76725846533E+02  0.78605506804E+02  0.00000000000E+00 0.  1.
<mgrwt>
<rscale>  0 0.10777968E+04</rscale>
<asrwt>0</asrwt>
<pdfrwt beam="1">  1        2 0.51213001E+00 0.10777968E+04</pdfrwt>
<pdfrwt beam="2">  1       -2 0.13421680E-01 0.10777968E+04</pdfrwt>
<totfact> 0.46140856E+01</totfact>
</mgrwt>
</event>
<event>
12    2  0.3751044E-008  0.1103341E+04  0.7818608E-02  0.9201941E-01
          1   -1    0    0  501    0  0.00000000000E+00  0.00000000000E+00  0.20202441439E+03  0.20202441439E+03  0.00000000000E+00 0. -1.
         -1   -1    0    0    0  501 -0.00000000000E+00 -0.00000000000E+00 -0.15064543244E+04  0.15064543244E+04  0.00000000000E+00 0.  1.
         23    2    1    2    0    0 -0.99842957731E+02 -0.50384974861E+02 -0.40807619641E+03  0.43270557767E+03  0.90557567149E+02 0.  0.
        254    2    1    2    0    0  0.99842957731E+02  0.50384974861E+02 -0.89635371358E+03  0.12757731611E+04  0.90091060424E+03 0.  0.
         23    2    4    4    0    0  0.28246818924E+03 -0.34765581583E+03 -0.50373887937E+03  0.68051401752E+03  0.93239612015E+02 0.  0.
         23    2    4    4    0    0 -0.18262523151E+03  0.39804079069E+03 -0.39261483421E+03  0.59525914358E+03  0.91643841775E+02 0.  0.
          1    1    3    3  502    0 -0.95772657253E+02 -0.45288066673E+02 -0.21661906450E+03  0.24113736742E+03  0.00000000000E+00 0. -1.
         -1    1    3    3    0  502 -0.40703004785E+01 -0.50969081880E+01 -0.19145713191E+03  0.19156821025E+03  0.00000000000E+00 0.  1.
         11    1    5    5    0    0  0.18386024795E+03 -0.19473769693E+03 -0.35966360921E+03  0.44842532619E+03  0.00000000000E+00 0.  1.
        -11    1    5    5    0    0  0.98607941282E+02 -0.15291811890E+03 -0.14407527016E+03  0.23208869133E+03  0.00000000000E+00 0. -1.
          1    1    6    6  503    0 -0.10676293818E+03  0.30127660737E+03 -0.32084968252E+03  0.45289119874E+03  0.00000000000E+00 0. -1.
         -1    1    6    6    0  503 -0.75862293321E+02  0.96764183315E+02 -0.71765151688E+02  0.14236794484E+03  0.00000000000E+00 0.  1.
<mgrwt>
<rscale>  0 0.11033414E+04</rscale>
<asrwt>0</asrwt>
<pdfrwt beam="1">  1        1 0.31080678E-01 0.11033414E+04</pdfrwt>
<pdfrwt beam="2">  1       -1 0.23176221E+00 0.11033414E+04</pdfrwt>
<totfact> 0.13475162E+01</totfact>
</mgrwt>
</event>
<event>
12    2  0.3751044E-008  0.1233504E+04  0.7818608E-02  0.9084026E-01
          1   -1    0    0  501    0  0.00000000000E+00  0.00000000000E+00  0.15206564265E+04  0.15206564265E+04  0.00000000000E+00 0. -1.
         -1   -1    0    0    0  501 -0.00000000000E+00 -0.00000000000E+00 -0.25014383075E+03  0.25014383075E+03  0.00000000000E+00 0.  1.
         23    2    1    2    0    0  0.28881079433E+02  0.15834414285E+03 -0.19308298747E+02  0.18909572384E+03  0.97351928850E+02 0.  0.
        254    2    1    2    0    0 -0.28881079433E+02 -0.15834414285E+03  0.12898208945E+04  0.15817045334E+04  0.90124597465E+03 0.  0.
         23    2    4    4    0    0 -0.39774607153E+03  0.61518710770E+02  0.91672384405E+03  0.10054716904E+04  0.92758960280E+02 0.  0.
         23    2    4    4    0    0  0.36886499210E+03 -0.21986285362E+03  0.37309705047E+03  0.57623284305E+03  0.91879396777E+02 0.  0.
          4    1    3    3  502    0 -0.87876834847E+01 -0.59150490637E+01  0.13753662695E+02  0.17360138939E+02  0.00000000000E+00 0. -1.
         -4    1    3    3    0  502  0.37668762917E+02  0.16425919191E+03 -0.33061961442E+02  0.17173558490E+03  0.00000000000E+00 0.  1.
         11    1    5    5    0    0 -0.96926554759E+02  0.42032241008E+02  0.31891679143E+03  0.33596039373E+03  0.00000000000E+00 0. -1.
        -11    1    5    5    0    0 -0.30081951677E+03  0.19486469761E+02  0.59780705262E+03  0.66951129664E+03  0.00000000000E+00 0.  1.
          4    1    6    6  503    0  0.35640870775E+03 -0.18419046358E+03  0.34529166906E+03  0.52931996992E+03  0.00000000000E+00 0.  1.
         -4    1    6    6    0  503  0.12456284349E+02 -0.35672390035E+02  0.27805381404E+02  0.46912873133E+02  0.00000000000E+00 0. -1.
<mgrwt>
<rscale>  0 0.12335037E+04</rscale>
<asrwt>0</asrwt>
<pdfrwt beam="1">  1        1 0.23394714E+00 0.12335037E+04</pdfrwt>
<pdfrwt beam="2">  1       -1 0.38483667E-01 0.12335037E+04</pdfrwt>
<totfact> 0.40842499E+01</totfact>
</mgrwt>
</event>
<event>
12    2  0.3751044E-008  0.1096521E+04  0.7818608E-02  0.9208589E-01
          2   -1    0    0  501    0  0.00000000000E+00  0.00000000000E+00  0.28605858436E+03  0.28605858436E+03  0.00000000000E+00 0. -1.
         -2   -1    0    0    0  501 -0.00000000000E+00 -0.00000000000E+00 -0.10507976706E+04  0.10507976706E+04  0.00000000000E+00 0.  1.
         23    2    1    2    0    0  0.50529653049E+02 -0.43148082544E+02  0.43485544669E+02  0.11970303352E+03  0.89570200253E+02 0.  0.
        254    2    1    2    0    0 -0.50529653049E+02  0.43148082544E+02 -0.80822463092E+03  0.12171532214E+04  0.90764525426E+03 0.  0.
         23    2    4    4    0    0  0.21883814276E+03  0.39005780831E+03 -0.46958722926E+03  0.65481687315E+03  0.90762023572E+02 0.  0.
         23    2    4    4    0    0 -0.26936779580E+03 -0.34690972577E+03 -0.33863740166E+03  0.56233634830E+03  0.92959730903E+02 0.  0.
          1    1    3    3  502    0  0.13056758867E+02 -0.27259459800E+02  0.66427386544E+02  0.72980509615E+02  0.00000000000E+00 0. -1.
         -1    1    3    3    0  502  0.37472894183E+02 -0.15888622744E+02 -0.22941841874E+02  0.46722523901E+02  0.00000000000E+00 0.  1.
         11    1    5    5    0    0  0.20441990433E+03  0.36417328231E+03 -0.46470457150E+03  0.62478797653E+03  0.00000000000E+00 0. -1.
        -11    1    5    5    0    0  0.14418238422E+02  0.25884526002E+02 -0.48826577605E+01  0.30028896622E+02  0.00000000000E+00 0.  1.
          4    1    6    6  503    0 -0.18402785512E+03 -0.22293014732E+03 -0.16618216434E+03  0.33343757105E+03  0.00000000000E+00 0. -1.
         -4    1    6    6    0  503 -0.85339940684E+02 -0.12397957845E+03 -0.17245523731E+03  0.22889877725E+03  0.00000000000E+00 0.  1.
<mgrwt>
<rscale>  0 0.10965212E+04</rscale>
<asrwt>0</asrwt>
<pdfrwt beam="1">  1        2 0.44009013E-01 0.10965212E+04</pdfrwt>
<pdfrwt beam="2">  1       -2 0.16166118E+00 0.10965212E+04</pdfrwt>
<totfact> 0.28124986E+01</totfact>
</mgrwt>
</event>
<event>
12    2  0.3751044E-008  0.1726087E+04  0.7818608E-02  0.8746624E-01
          2   -1    0    0  501    0  0.00000000000E+00  0.00000000000E+00  0.20349866593E+04  0.20349866593E+04  0.00000000000E+00 0.  1.
         -2   -1    0    0    0  501 -0.00000000000E+00 -0.00000000000E+00 -0.36601926352E+03  0.36601926352E+03  0.00000000000E+00 0. -1.
         23    2    1    2    0    0 -0.56843322997E+03 -0.43628664181E+02  0.96478114003E+03  0.11243583626E+04  0.91429109673E+02 0.  0.
        254    2    1    2    0    0  0.56843322997E+03  0.43628664181E+02  0.70418625578E+03  0.12766475603E+04  0.89940586667E+03 0.  0.
         23    2    4    4    0    0  0.28614942896E+03 -0.34284330840E+03  0.64050107500E+03  0.78532123266E+03  0.84052255115E+02 0.  0.
         23    2    4    4    0    0  0.28228380101E+03  0.38647197258E+03  0.63685180784E+02  0.49132632759E+03  0.91109977666E+02 0.  0.
          2    1    3    3  502    0 -0.28491268511E+02 -0.23505999513E+02  0.67927453723E+02  0.77320264898E+02  0.00000000000E+00 0. -1.
         -2    1    3    3    0  502 -0.53994196146E+03 -0.20122664668E+02  0.89685368631E+03  0.10470380977E+04  0.00000000000E+00 0.  1.
         11    1    5    5    0    0  0.29961295759E+02 -0.46130894268E+02  0.13393304814E+03  0.14478881184E+03  0.00000000000E+00 0. -1.
        -11    1    5    5    0    0  0.25618813320E+03 -0.29671241413E+03  0.50656802686E+03  0.64053242082E+03  0.00000000000E+00 0.  1.
          1    1    6    6  503    0  0.20674642927E+03  0.27640003066E+03  0.42474575925E+01  0.34519429871E+03  0.00000000000E+00 0. -1.
         -1    1    6    6    0  503  0.75537371745E+02  0.11007194192E+03  0.59437723191E+02  0.14613202889E+03  0.00000000000E+00 0.  1.
<mgrwt>
<rscale>  0 0.17260873E+04</rscale>
<asrwt>0</asrwt>
<pdfrwt beam="1">  1        2 0.31307487E+00 0.17260873E+04</pdfrwt>
<pdfrwt beam="2">  1       -2 0.56310657E-01 0.17260873E+04</pdfrwt>
<totfact> 0.17957348E+01</totfact>
</mgrwt>
</event>
<event>
12    2  0.3751044E-008  0.1362471E+04  0.7818608E-02  0.8981441E-01
         -2   -1    0    0    0  501 -0.00000000000E+00  0.00000000000E+00  0.40022263207E+03  0.40022263207E+03  0.00000000000E+00 0.  1.
          2   -1    0    0  501    0  0.00000000000E+00 -0.00000000000E+00 -0.11595585712E+04  0.11595585712E+04  0.00000000000E+00 0. -1.
         23    2    1    2    0    0 -0.81793024288E+02  0.22459159678E+02  0.21697326783E+03  0.25061066044E+03  0.92378522917E+02 0.  0.
        254    2    1    2    0    0  0.81793024288E+02 -0.22459159678E+02 -0.97630920694E+03  0.13091705428E+04  0.86807449561E+03 0.  0.
         23    2    4    4    0    0 -0.18523701624E+03 -0.31412872785E+03 -0.18508967878E+03  0.42005415175E+03  0.95904595101E+02 0.  0.
         23    2    4    4    0    0  0.26703004053E+03  0.29166956817E+03 -0.79121952816E+03  0.88911639107E+03  0.90130103626E+02 0.  0.
          4    1    3    3  502    0 -0.12951702834E+02  0.29773057899E+02  0.12594455909E+02  0.34825305492E+02  0.00000000000E+00 0. -1.
         -4    1    3    3    0  502 -0.68841321454E+02 -0.73138982206E+01  0.20437881192E+03  0.21578535495E+03  0.00000000000E+00 0.  1.
         11    1    5    5    0    0 -0.18117875042E+03 -0.29203539135E+03 -0.19540079255E+03  0.39533767735E+03  0.00000000000E+00 0.  1.
        -11    1    5    5    0    0 -0.40582658148E+01 -0.22093336502E+02  0.10311113770E+02  0.24716474392E+02  0.00000000000E+00 0. -1.
          3    1    6    6  503    0  0.61669423423E+02  0.31941346633E+02 -0.19687353899E+03  0.20876435942E+03  0.00000000000E+00 0. -1.
         -3    1    6    6    0  503  0.20536061710E+03  0.25972822154E+03 -0.59434598917E+03  0.68035203165E+03  0.00000000000E+00 0.  1.
<mgrwt>
<rscale>  0 0.13624707E+04</rscale>
<asrwt>0</asrwt>
<pdfrwt beam="1">  1        2 0.17839363E+00 0.13624707E+04</pdfrwt>
<pdfrwt beam="2">  1       -2 0.61572713E-01 0.13624707E+04</pdfrwt>
<totfact> 0.47930543E+01</totfact>
</mgrwt>
</event>
<event>
12    2  0.3751044E-008  0.1505319E+04  0.7818608E-02  0.8880924E-01
          1   -1    0    0  501    0  0.00000000000E+00  0.00000000000E+00  0.57206010932E+03  0.57206010932E+03  0.00000000000E+00 0. -1.
         -1   -1    0    0    0  501 -0.00000000000E+00 -0.00000000000E+00 -0.99027370083E+03  0.99027370083E+03  0.00000000000E+00 0.  1.
         23    2    1    2    0    0 -0.15687846192E+03  0.38941025402E+03 -0.37275075079E+03  0.56987473749E+03  0.97790063201E+02 0.  0.
        254    2    1    2    0    0  0.15687846192E+03 -0.38941025402E+03 -0.45462840723E+02  0.99245907266E+03  0.89814082597E+03 0.  0.
         23    2    4    4    0    0  0.37986830154E+03 -0.38844401511E+03 -0.31174833799E+03  0.63291970515E+03  0.90618141298E+02 0.  0.
         23    2    4    4    0    0 -0.22298983961E+03 -0.96623890677E+00  0.26628549727E+03  0.35953936751E+03  0.92925715210E+02 0.  0.
          1    1    3    3  502    0 -0.14473318449E+03  0.35052808998E+03 -0.28919604784E+03  0.47691927058E+03  0.00000000000E+00 0. -1.
         -1    1    3    3    0  502 -0.12145277433E+02  0.38882164038E+02 -0.83554702945E+02  0.92955466909E+02  0.00000000000E+00 0.  1.
         11    1    5    5    0    0  0.10814067168E+03 -0.62447284939E+02 -0.51454180965E+02  0.13506147121E+03  0.00000000000E+00 0.  1.
        -11    1    5    5    0    0  0.27172762985E+03 -0.32599673018E+03 -0.26029415703E+03  0.49785823393E+03  0.00000000000E+00 0. -1.
          3    1    6    6  503    0 -0.16132881122E+03 -0.30226125023E+02  0.22906080985E+03  0.28179683918E+03  0.00000000000E+00 0. -1.
         -3    1    6    6    0  503 -0.61661028391E+02  0.29259886116E+02  0.37224687422E+02  0.77742528332E+02  0.00000000000E+00 0.  1.
<mgrwt>
<rscale>  0 0.15053187E+04</rscale>
<asrwt>0</asrwt>
<pdfrwt beam="1">  1        1 0.88009249E-01 0.15053187E+04</pdfrwt>
<pdfrwt beam="2">  1       -1 0.15234980E+00 0.15053187E+04</pdfrwt>
<totfact> 0.11865029E+01</totfact>
</mgrwt>
</event>
<event>
12    2  0.3751044E-008  0.1843916E+04  0.7818608E-02  0.8683288E-01
          1   -1    0    0  501    0  0.00000000000E+00  0.00000000000E+00  0.11571757410E+04  0.11571757410E+04  0.00000000000E+00 0. -1.
         -1   -1    0    0    0  501 -0.00000000000E+00 -0.00000000000E+00 -0.73455243465E+03  0.73455243465E+03  0.00000000000E+00 0.  1.
         23    2    1    2    0    0 -0.57221761277E+03 -0.30368561779E+03  0.42179492208E+03  0.77857420345E+03  0.92784067467E+02 0.  0.
        254    2    1    2    0    0  0.57221761277E+03  0.30368561779E+03  0.82838428830E+00  0.11131539722E+04  0.90523650436E+03 0.  0.
         23    2    4    4    0    0  0.27872406134E+03  0.27631441620E+03 -0.42619732347E+03  0.58667980545E+03  0.92261999817E+02 0.  0.
         23    2    4    4    0    0  0.29349355143E+03  0.27371201582E+02  0.42702570776E+03  0.52647416677E+03  0.89086731794E+02 0.  0.
          4    1    3    3  502    0 -0.46063597026E+02 -0.39006828318E+02  0.70417224114E+02  0.92746822470E+02  0.00000000000E+00 0. -1.
         -4    1    3    3    0  502 -0.52615401575E+03 -0.26467878947E+03  0.35137769797E+03  0.68582738098E+03  0.00000000000E+00 0.  1.
         11    1    5    5    0    0  0.11329430503E+03  0.17636240362E+03 -0.23257134697E+03  0.31309539823E+03  0.00000000000E+00 0. -1.
        -11    1    5    5    0    0  0.16542975632E+03  0.99952012579E+02 -0.19362597650E+03  0.27358440721E+03  0.00000000000E+00 0.  1.
          3    1    6    6  503    0  0.64756159927E+02  0.98376046455E+01  0.40538064324E+02  0.77029042398E+02  0.00000000000E+00 0. -1.
         -3    1    6    6    0  503  0.22873739150E+03  0.17533596936E+02  0.38648764344E+03  0.44944512437E+03  0.00000000000E+00 0.  1.
<mgrwt>
<rscale>  0 0.18439157E+04</rscale>
<asrwt>0</asrwt>
<pdfrwt beam="1">  1        1 0.17802704E+00 0.18439157E+04</pdfrwt>
<pdfrwt beam="2">  1       -1 0.11300807E+00 0.18439157E+04</pdfrwt>
<totfact> 0.77325207E+00</totfact>
</mgrwt>
</event>
<event>
12    2  0.3751044E-008  0.1305858E+04  0.7818608E-02  0.9024933E-01
         -2   -1    0    0    0  501 -0.00000000000E+00  0.00000000000E+00  0.40481381958E+03  0.40481381958E+03  0.00000000000E+00 0. -1.
          2   -1    0    0  501    0  0.00000000000E+00 -0.00000000000E+00 -0.10531170402E+04  0.10531170402E+04  0.00000000000E+00 0.  1.
         23    2    1    2    0    0 -0.21936253113E+03 -0.42802022190E+02 -0.44471001108E+03  0.50613202335E+03  0.91927677750E+02 0.  0.
        254    2    1    2    0    0  0.21936253113E+03  0.42802022190E+02 -0.20359320958E+03  0.95179883647E+03  0.90250700659E+03 0.  0.
         23    2    4    4    0    0  0.47264393175E+03  0.33689668073E+02  0.15226335005E+03  0.50572583243E+03  0.89706242029E+02 0.  0.
         23    2    4    4    0    0 -0.25328140062E+03  0.91123541174E+01 -0.35585655963E+03  0.44607300404E+03  0.90070700023E+02 0.  0.
          1    1    3    3  502    0 -0.17133596996E+02 -0.70936982043E+01 -0.26906592130E+01  0.18738205550E+02  0.00000000000E+00 0. -1.
         -1    1    3    3    0  502 -0.20222893414E+03 -0.35708323986E+02 -0.44201935187E+03  0.48739381780E+03  0.00000000000E+00 0.  1.
         11    1    5    5    0    0  0.21390538575E+03 -0.10656414943E+02  0.30434913574E+02  0.21632234558E+03  0.00000000000E+00 0. -1.
        -11    1    5    5    0    0  0.25873854600E+03  0.44346083016E+02  0.12182843647E+03  0.28940348685E+03  0.00000000000E+00 0.  1.
          3    1    6    6  503    0 -0.20290404698E+03  0.38471250653E+02 -0.30701763318E+03  0.37001340043E+03  0.00000000000E+00 0. -1.
         -3    1    6    6    0  503 -0.50377353636E+02 -0.29358896536E+02 -0.48838926444E+02  0.76059603611E+02  0.00000000000E+00 0.  1.
<mgrwt>
<rscale>  0 0.13058581E+04</rscale>
<asrwt>0</asrwt>
<pdfrwt beam="1">  1        2 0.16201801E+00 0.13058581E+04</pdfrwt>
<pdfrwt beam="2">  1       -2 0.62279049E-01 0.13058581E+04</pdfrwt>
<totfact> 0.54634801E+01</totfact>
</mgrwt>
</event>
<event>
12    2  0.3751044E-008  0.2253143E+04  0.7818608E-02  0.8496629E-01
         -2   -1    0    0    0  501 -0.00000000000E+00  0.00000000000E+00  0.21780795761E+04  0.21780795761E+04  0.00000000000E+00 0. -1.
          2   -1    0    0  501    0  0.00000000000E+00 -0.00000000000E+00 -0.58269845736E+03  0.58269845736E+03  0.00000000000E+00 0.  1.
         23    2    1    2    0    0 -0.57040642783E+03  0.60021318133E+03  0.12252098796E+04  0.14814255485E+04  0.88673845021E+02 0.  0.
        254    2    1    2    0    0  0.57040642783E+03 -0.60021318133E+03  0.37017123913E+03  0.12793524849E+04  0.90227306202E+03 0.  0.
         23    2    4    4    0    0  0.62309572022E+03 -0.19478151852E+02  0.23721224828E+03  0.67299947934E+03  0.89615698989E+02 0.  0.
         23    2    4    4    0    0 -0.52689292386E+02 -0.58073502948E+03  0.13295899086E+03  0.60635300559E+03  0.99782454065E+02 0.  0.
          3    1    3    3  502    0 -0.40366623791E+03  0.43830184740E+03  0.94752522819E+03  0.11193118418E+04  0.00000000000E+00 0. -1.
         -3    1    3    3    0  502 -0.16674018992E+03  0.16191133393E+03  0.27768465138E+03  0.36211370673E+03  0.00000000000E+00 0.  1.
         11    1    5    5    0    0  0.14789495347E+03  0.22132026653E+02  0.28101229823E+02  0.15215920276E+03  0.00000000000E+00 0. -1.
        -11    1    5    5    0    0  0.47520076675E+03 -0.41610178505E+02  0.20911101845E+03  0.52084027658E+03  0.00000000000E+00 0.  1.
          4    1    6    6  503    0 -0.18652303503E+02 -0.53086775797E+03  0.12106232479E+03  0.54481608948E+03  0.00000000000E+00 0. -1.
         -4    1    6    6    0  503 -0.34036988882E+02 -0.49867271511E+02  0.11896666063E+02  0.61536916104E+02  0.00000000000E+00 0.  1.
<mgrwt>
<rscale>  0 0.22531432E+04</rscale>
<asrwt>0</asrwt>
<pdfrwt beam="1">  1        2 0.89645917E-01 0.22531432E+04</pdfrwt>
<pdfrwt beam="2">  1       -2 0.33508916E+00 0.22531432E+04</pdfrwt>
<totfact> 0.90327613E-01</totfact>
</mgrwt>
</event>
<event>
12    2  0.3751044E-008  0.1227193E+04  0.7818608E-02  0.9089382E-01
          1   -1    0    0  501    0  0.00000000000E+00  0.00000000000E+00  0.14294214152E+04  0.14294214152E+04  0.00000000000E+00 0. -1.
         -1   -1    0    0    0  501 -0.00000000000E+00 -0.00000000000E+00 -0.26339395365E+03  0.26339395365E+03  0.00000000000E+00 0.  1.
         23    2    1    2    0    0 -0.17780120824E+03 -0.29702539647E+02  0.52612346626E+03  0.56339440242E+03  0.90065756055E+02 0.  0.
        254    2    1    2    0    0  0.17780120824E+03  0.29702539647E+02  0.63990399527E+03  0.11294209664E+04  0.91302742877E+03 0.  0.
         23    2    4    4    0    0  0.52286708285E+03 -0.10709180480E+03  0.43289632743E+03  0.69312493862E+03  0.90356567342E+02 0.  0.
         23    2    4    4    0    0 -0.34506587461E+03  0.13679434445E+03  0.20700766784E+03  0.43629602779E+03  0.98584475578E+02 0.  0.
          2    1    3    3  502    0 -0.15595517600E+03 -0.38213242491E+02  0.51065913777E+03  0.53530834462E+03  0.00000000000E+00 0. -1.
         -2    1    3    3    0  502 -0.21846032236E+02  0.85107028439E+01  0.15464328488E+02  0.28086057804E+02  0.00000000000E+00 0.  1.
         11    1    5    5    0    0  0.55426886996E+02 -0.28129351842E+02  0.84080612529E+02  0.10456074617E+03  0.00000000000E+00 0. -1.
        -11    1    5    5    0    0  0.46744019585E+03 -0.78962452957E+02  0.34881571490E+03  0.58856419245E+03  0.00000000000E+00 0.  1.
          1    1    6    6  503    0 -0.60093748202E+02  0.62647476068E+02  0.70027414444E+02  0.11153386752E+03  0.00000000000E+00 0. -1.
         -1    1    6    6    0  503 -0.28497212641E+03  0.74146868378E+02  0.13698025340E+03  0.32476216026E+03  0.00000000000E+00 0.  1.
<mgrwt>
<rscale>  0 0.12271935E+04</rscale>
<asrwt>0</asrwt>
<pdfrwt beam="1">  1        1 0.21991098E+00 0.12271935E+04</pdfrwt>
<pdfrwt beam="2">  1       -1 0.40522148E-01 0.12271935E+04</pdfrwt>
<totfact> 0.43029048E+01</totfact>
</mgrwt>
</event>
<event>
12    2  0.3751044E-008  0.2049915E+04  0.7818608E-02  0.8583633E-01
          2   -1    0    0  501    0  0.00000000000E+00  0.00000000000E+00  0.28117833783E+04  0.28117833783E+04  0.00000000000E+00 0. -1.
         -2   -1    0    0    0  501 -0.00000000000E+00 -0.00000000000E+00 -0.37361977525E+03  0.37361977525E+03  0.00000000000E+00 0.  1.
         23    2    1    2    0    0  0.22437086388E+03  0.17681136335E+03  0.22040467914E+04  0.22243176858E+04  0.90345813800E+02 0.  0.
        254    2    1    2    0    0 -0.22437086388E+03 -0.17681136335E+03  0.23411681167E+03  0.96108546774E+03  0.88728239700E+03 0.  0.
         23    2    4    4    0    0 -0.33454032904E+02  0.28087254759E+03 -0.14534067746E+03  0.33007816947E+03  0.88425817075E+02 0.  0.
         23    2    4    4    0    0 -0.19091683097E+03 -0.45768391094E+03  0.37945748914E+03  0.63100729827E+03  0.90875880884E+02 0.  0.
          1    1    3    3  502    0  0.18435536716E+03  0.16861590812E+03  0.20409188894E+04  0.20561537246E+04  0.00000000000E+00 0. -1.
         -1    1    3    3    0  502  0.40015496713E+02  0.81954552271E+01  0.16312790195E+03  0.16816396124E+03  0.00000000000E+00 0.  1.
         11    1    5    5    0    0 -0.62551616299E+01  0.12770603102E+03 -0.11418985600E+03  0.17142718752E+03  0.00000000000E+00 0. -1.
        -11    1    5    5    0    0 -0.27198871274E+02  0.15316651657E+03 -0.31150821465E+02  0.15865098195E+03  0.00000000000E+00 0.  1.
          2    1    6    6  503    0 -0.18346792642E+03 -0.45666004444E+03  0.38207998777E+03  0.62304413429E+03  0.00000000000E+00 0. -1.
         -2    1    6    6    0  503 -0.74489045477E+01 -0.10238664976E+01 -0.26224986303E+01  0.79631639837E+01  0.00000000000E+00 0.  1.
<mgrwt>
<rscale>  0 0.20499150E+04</rscale>
<asrwt>0</asrwt>
<pdfrwt beam="1">  1        2 0.43258204E+00 0.20499150E+04</pdfrwt>
<pdfrwt beam="2">  1       -2 0.57479967E-01 0.20499150E+04</pdfrwt>
<totfact> 0.59752294E+00</totfact>
</mgrwt>
</event>
<event>
12    2  0.3751044E-008  0.2667647E+04  0.7818608E-02  0.8345579E-01
         -1   -1    0    0    0  501 -0.00000000000E+00  0.00000000000E+00  0.73550806193E+03  0.73550806193E+03  0.00000000000E+00 0.  1.
          1   -1    0    0  501    0  0.00000000000E+00 -0.00000000000E+00 -0.24188527756E+04  0.24188527756E+04  0.00000000000E+00 0. -1.
         23    2    1    2    0    0  0.72071866552E+03 -0.89699443505E+03 -0.33794104609E+03  0.12025760005E+04  0.89165436361E+02 0.  0.
        254    2    1    2    0    0 -0.72071866552E+03  0.89699443505E+03 -0.13454036676E+04  0.19517848370E+04  0.82177771322E+03 0.  0.
         23    2    4    4    0    0 -0.65968056220E+02  0.32824961149E+03 -0.91528996836E+03  0.97900230262E+03  0.92683280412E+02 0.  0.
         23    2    4    4    0    0 -0.65475060930E+03  0.56874482356E+03 -0.43011369921E+03  0.97278253439E+03  0.95598275418E+02 0.  0.
          4    1    3    3  502    0  0.66806034809E+03 -0.78881771944E+03 -0.30759193186E+03  0.10784947008E+04  0.00000000000E+00 0.  1.
         -4    1    3    3    0  502  0.52658317435E+02 -0.10817671561E+03 -0.30349114230E+02  0.12408129968E+03  0.00000000000E+00 0. -1.
         11    1    5    5    0    0 -0.81755681949E+02  0.19677969288E+03 -0.51357561693E+03  0.55602711568E+03  0.00000000000E+00 0. -1.
        -11    1    5    5    0    0  0.15787625728E+02  0.13146991861E+03 -0.40171435143E+03  0.42297518694E+03  0.00000000000E+00 0.  1.
          3    1    6    6  503    0 -0.39840328668E+03  0.34831388287E+03 -0.20991384015E+03  0.56930796597E+03  0.00000000000E+00 0. -1.
         -3    1    6    6    0  503 -0.25634732263E+03  0.22043094069E+03 -0.22019985906E+03  0.40347456842E+03  0.00000000000E+00 0.  1.
<mgrwt>
<rscale>  0 0.26676474E+04</rscale>
<asrwt>0</asrwt>
<pdfrwt beam="1">  1        1 0.37213119E+00 0.26676474E+04</pdfrwt>
<pdfrwt beam="2">  1       -1 0.11315509E+00 0.26676474E+04</pdfrwt>
<totfact> 0.96288283E-01</totfact>
</mgrwt>
</event>
<event>
12    2  0.3751044E-008  0.1461749E+04  0.7818608E-02  0.8910296E-01
         -1   -1    0    0    0  501 -0.00000000000E+00  0.00000000000E+00  0.67871926451E+03  0.67871926451E+03  0.00000000000E+00 0. -1.
          1   -1    0    0  501    0  0.00000000000E+00 -0.00000000000E+00 -0.78703723232E+03  0.78703723232E+03  0.00000000000E+00 0.  1.
         23    2    1    2    0    0 -0.34745824387E+03 -0.90662917544E+02  0.23347105524E+03  0.43801021185E+03  0.91636325741E+02 0.  0.
        254    2    1    2    0    0  0.34745824387E+03  0.90662917544E+02 -0.34178902305E+03  0.10277462850E+04  0.90027534353E+03 0.  0.
         23    2    4    4    0    0  0.39826406916E+01 -0.11390414391E+03  0.26097987030E+03  0.29898025998E+03  0.91042230467E+02 0.  0.
         23    2    4    4    0    0  0.34347560318E+03  0.20456706145E+03 -0.60276889335E+03  0.72876602500E+03  0.89142626134E+02 0.  0.
          3    1    3    3  502    0 -0.33973196762E+03 -0.10097135956E+03  0.23467581528E+03  0.42507148052E+03  0.00000000000E+00 0. -1.
         -3    1    3    3    0  502 -0.77262762548E+01  0.10308442018E+02 -0.12047600428E+01  0.12938731327E+02  0.00000000000E+00 0.  1.
         11    1    5    5    0    0 -0.23840986951E+02 -0.97828490291E+02  0.24087859125E+03  0.26107719527E+03  0.00000000000E+00 0. -1.
        -11    1    5    5    0    0  0.27823627643E+02 -0.16075653615E+02  0.20101279056E+02  0.37903064705E+02  0.00000000000E+00 0.  1.
          1    1    6    6  503    0  0.30330480190E+03  0.15534284788E+03 -0.54571304699E+03  0.64337231281E+03  0.00000000000E+00 0. -1.
         -1    1    6    6    0  503  0.40170801280E+02  0.49224213569E+02 -0.57055846369E+02  0.85393712192E+02  0.00000000000E+00 0.  1.
<mgrwt>
<rscale>  0 0.14617487E+04</rscale>
<asrwt>0</asrwt>
<pdfrwt beam="1">  1        1 0.12108265E+00 0.14617487E+04</pdfrwt>
<pdfrwt beam="2">  1       -1 0.10441835E+00 0.14617487E+04</pdfrwt>
<totfact> 0.19000813E+01</totfact>
</mgrwt>
</event>
<event>
12    2  0.3751044E-008  0.1723950E+04  0.7818608E-02  0.8747821E-01
         -1   -1    0    0    0  501 -0.00000000000E+00  0.00000000000E+00  0.16847010755E+04  0.16847010755E+04  0.00000000000E+00 0.  1.
          1   -1    0    0  501    0  0.00000000000E+00 -0.00000000000E+00 -0.44102831208E+03  0.44102831208E+03  0.00000000000E+00 0. -1.
         23    2    1    2    0    0  0.22512087795E+03 -0.27467574858E+02 -0.26195800630E+03  0.35850136315E+03  0.92018220785E+02 0.  0.
        254    2    1    2    0    0 -0.22512087795E+03  0.27467574858E+02  0.15056307697E+04  0.17672280244E+04  0.89707134513E+03 0.  0.
         23    2    4    4    0    0  0.28729053601E+03  0.11876875267E+03  0.26462625474E+03  0.41816251684E+03  0.90503961755E+02 0.  0.
         23    2    4    4    0    0 -0.51241141397E+03 -0.91301177807E+02  0.12410045150E+04  0.13490655076E+04  0.94784889919E+02 0.  0.
          4    1    3    3  502    0  0.22531765285E+03 -0.27725210414E+02 -0.26869415518E+03  0.35175741785E+03  0.00000000000E+00 0. -1.
         -4    1    3    3    0  502 -0.19677489744E+00  0.25763555578E+00  0.67361488862E+01  0.67439453035E+01  0.00000000000E+00 0.  1.
         11    1    5    5    0    0  0.80208613487E+02  0.41740197977E+01  0.10704759163E+03  0.13382836393E+03  0.00000000000E+00 0. -1.
        -11    1    5    5    0    0  0.20708192253E+03  0.11459473287E+03  0.15757866311E+03  0.28433415290E+03  0.00000000000E+00 0.  1.
          4    1    6    6  503    0 -0.23488066103E+03 -0.25306083816E+02  0.45088197214E+03  0.50902247062E+03  0.00000000000E+00 0. -1.
         -4    1    6    6    0  503 -0.27753075294E+03 -0.65995093991E+02  0.79012254285E+03  0.84004303698E+03  0.00000000000E+00 0.  1.
<mgrwt>
<rscale>  0 0.17239500E+04</rscale>
<asrwt>0</asrwt>
<pdfrwt beam="1">  1        1 0.67850511E-01 0.17239500E+04</pdfrwt>
<pdfrwt beam="2">  1       -1 0.25918478E+00 0.17239500E+04</pdfrwt>
<totfact> 0.30364474E+00</totfact>
</mgrwt>
</event>
<event>
12    2  0.3751044E-008  0.3096539E+04  0.7818608E-02  0.8216688E-01
         -2   -1    0    0    0  501 -0.00000000000E+00  0.00000000000E+00  0.11414010118E+04  0.11414010118E+04  0.00000000000E+00 0.  1.
          2   -1    0    0  501    0  0.00000000000E+00 -0.00000000000E+00 -0.21001714616E+04  0.21001714616E+04  0.00000000000E+00 0. -1.
         23    2    1    2    0    0  0.90545518846E+03 -0.10960552487E+04 -0.60938608647E+03  0.15493670563E+04  0.89446444474E+02 0.  0.
        254    2    1    2    0    0 -0.90545518846E+03  0.10960552487E+04 -0.34938436328E+03  0.16922054171E+04  0.84870697769E+03 0.  0.
         23    2    4    4    0    0 -0.89226602398E+03  0.92973017218E+03 -0.56034928953E+03  0.14080419107E+04  0.89743218491E+02 0.  0.
         23    2    4    4    0    0 -0.13189164482E+02  0.16632507649E+03  0.21096492624E+03  0.28416350647E+03  0.91677222766E+02 0.  0.
          4    1    3    3  502    0  0.17206497137E+03 -0.21552149933E+03 -0.80744574712E+02  0.28735963076E+03  0.00000000000E+00 0. -1.
         -4    1    3    3    0  502  0.73339021709E+03 -0.88053374934E+03 -0.52864151176E+03  0.12620074256E+04  0.00000000000E+00 0.  1.
         11    1    5    5    0    0 -0.41262157160E+03  0.40640186486E+03 -0.29717897014E+03  0.65094882856E+03  0.00000000000E+00 0. -1.
        -11    1    5    5    0    0 -0.47964445237E+03  0.52332830733E+03 -0.26317031939E+03  0.75709308209E+03  0.00000000000E+00 0.  1.
          2    1    6    6  503    0 -0.28642641305E+02  0.13307938887E+03  0.10464645732E+03  0.17170150166E+03  0.00000000000E+00 0. -1.
         -2    1    6    6    0  503  0.15453476823E+02  0.33245687617E+02  0.10631846892E+03  0.11246200480E+03  0.00000000000E+00 0.  1.
<mgrwt>
<rscale>  0 0.30965386E+04</rscale>
<asrwt>0</asrwt>
<pdfrwt beam="1">  1        2 0.32310330E+00 0.30965386E+04</pdfrwt>
<pdfrwt beam="2">  1       -2 0.17560016E+00 0.30965386E+04</pdfrwt>
<totfact> 0.97081876E-01</totfact>
</mgrwt>
</event>
<event>
12    2  0.3751044E-008  0.1416632E+04  0.7818608E-02  0.8941867E-01
          1   -1    0    0  501    0  0.00000000000E+00  0.00000000000E+00  0.40640456016E+03  0.40640456016E+03  0.00000000000E+00 0. -1.
         -1   -1    0    0    0  501 -0.00000000000E+00 -0.00000000000E+00 -0.12345125720E+04  0.12345125720E+04  0.00000000000E+00 0.  1.
         23    2    1    2    0    0 -0.25512355406E+03  0.25980628257E+03 -0.45347319527E+03  0.58870133967E+03  0.91345477219E+02 0.  0.
        254    2    1    2    0    0  0.25512355406E+03 -0.25980628257E+03 -0.37463481655E+03  0.10522157925E+04  0.91335617140E+03 0.  0.
         23    2    4    4    0    0 -0.29196471776E+03 -0.29848156245E+03 -0.14692059582E+03  0.45169367787E+03  0.90038200828E+02 0.  0.
         23    2    4    4    0    0  0.54708827181E+03  0.38675279886E+02 -0.22771422073E+03  0.60052211459E+03  0.89284317570E+02 0.  0.
          2    1    3    3  502    0 -0.23505267329E+03  0.23186094111E+03 -0.35696772106E+03  0.48624603763E+03  0.00000000000E+00 0.  1.
         -2    1    3    3    0  502 -0.20070880767E+02  0.27945341459E+02 -0.96505474215E+02  0.10245530205E+03  0.00000000000E+00 0. -1.
         11    1    5    5    0    0 -0.26728581420E+03 -0.22425510587E+03 -0.11888190940E+03  0.36859865350E+03  0.00000000000E+00 0.  1.
        -11    1    5    5    0    0 -0.24678903557E+02 -0.74226456584E+02 -0.28038686425E+02  0.83095024365E+02  0.00000000000E+00 0. -1.
          3    1    6    6  503    0  0.18425164223E+03 -0.23400164067E+02 -0.53589883777E+02  0.19330833140E+03  0.00000000000E+00 0. -1.
         -3    1    6    6    0  503  0.36283662958E+03  0.62075443953E+02 -0.17412433695E+03  0.40721378320E+03  0.00000000000E+00 0.  1.
<mgrwt>
<rscale>  0 0.14166320E+04</rscale>
<asrwt>0</asrwt>
<pdfrwt beam="1">  1        1 0.62523779E-01 0.14166320E+04</pdfrwt>
<pdfrwt beam="2">  1       -1 0.18992501E+00 0.14166320E+04</pdfrwt>
<totfact> 0.10117611E+01</totfact>
</mgrwt>
</event>
<event>
12    2  0.3751044E-008  0.1866396E+04  0.7818608E-02  0.8671766E-01
         -1   -1    0    0    0  501 -0.00000000000E+00  0.00000000000E+00  0.53611121654E+03  0.53611121654E+03  0.00000000000E+00 0.  1.
          1   -1    0    0  501    0  0.00000000000E+00 -0.00000000000E+00 -0.16243993922E+04  0.16243993922E+04  0.00000000000E+00 0. -1.
         23    2    1    2    0    0  0.64409051588E+03 -0.22819519007E+03 -0.20669700136E+03  0.72005948731E+03  0.94002007862E+02 0.  0.
        254    2    1    2    0    0 -0.64409051588E+03  0.22819519007E+03 -0.88159117435E+03  0.14404511215E+04  0.91146628969E+03 0.  0.
         23    2    4    4    0    0 -0.12273542239E+03  0.51226065880E+02  0.17952057821E+03  0.24154613957E+03  0.91808527948E+02 0.  0.
         23    2    4    4    0    0 -0.52135509349E+03  0.17696912419E+03 -0.10611117526E+04  0.11989049819E+04  0.91026368614E+02 0.  0.
          3    1    3    3  502    0  0.23094773546E+03 -0.38059227756E+02 -0.52926945847E+02  0.23997212948E+03  0.00000000000E+00 0. -1.
         -3    1    3    3    0  502  0.41314278043E+03 -0.19013596231E+03 -0.15377005551E+03  0.48008735783E+03  0.00000000000E+00 0.  1.
         11    1    5    5    0    0 -0.31027333101E+02 -0.32461680921E+01 -0.17231601631E+01  0.31244236070E+02  0.00000000000E+00 0.  1.
        -11    1    5    5    0    0 -0.91708089291E+02  0.54472233972E+02  0.18124373837E+03  0.21030190350E+03  0.00000000000E+00 0. -1.
          3    1    6    6  503    0 -0.40723306262E+03  0.11424025858E+03 -0.73918292566E+03  0.85163431211E+03  0.00000000000E+00 0. -1.
         -3    1    6    6    0  503 -0.11412203087E+03  0.62728865612E+02 -0.32192882689E+03  0.34727066979E+03  0.00000000000E+00 0.  1.
<mgrwt>
<rscale>  0 0.18663962E+04</rscale>
<asrwt>0</asrwt>
<pdfrwt beam="1">  1        1 0.24990760E+00 0.18663962E+04</pdfrwt>
<pdfrwt beam="2">  1       -1 0.82478650E-01 0.18663962E+04</pdfrwt>
<totfact> 0.73603204E+00</totfact>
</mgrwt>
</event>
<event>
12    2  0.3751044E-008  0.1398125E+04  0.7818608E-02  0.8955177E-01
          1   -1    0    0  501    0  0.00000000000E+00  0.00000000000E+00  0.58955455204E+03  0.58955455204E+03  0.00000000000E+00 0. -1.
         -1   -1    0    0    0  501 -0.00000000000E+00 -0.00000000000E+00 -0.82891155819E+03  0.82891155819E+03  0.00000000000E+00 0.  1.
         23    2    1    2    0    0 -0.38315928342E+03 -0.33832341970E+02  0.83899727468E+02  0.40484241257E+03  0.94353330156E+02 0.  0.
        254    2    1    2    0    0  0.38315928342E+03  0.33832341970E+02 -0.32325673362E+03  0.10136236977E+04  0.88033085870E+03 0.  0.
         23    2    4    4    0    0  0.50414023270E+03  0.66478982315E+02  0.13247681128E+03  0.53345549695E+03  0.91912090520E+02 0.  0.
         23    2    4    4    0    0 -0.12098094928E+03 -0.32646640345E+02 -0.45573354490E+03  0.48016820071E+03  0.84653669806E+02 0.  0.
          4    1    3    3  502    0 -0.27044441080E+03 -0.48469851308E+02  0.94826331401E+02  0.29065708136E+03  0.00000000000E+00 0. -1.
         -4    1    3    3    0  502 -0.11271487263E+03  0.14637509338E+02 -0.10926603933E+02  0.11418533121E+03  0.00000000000E+00 0.  1.
         11    1    5    5    0    0  0.73785865802E+02 -0.16164931593E+02  0.40428575740E+02  0.85674551309E+02  0.00000000000E+00 0. -1.
        -11    1    5    5    0    0  0.43035436690E+03  0.82643913909E+02  0.92048235538E+02  0.44778094564E+03  0.00000000000E+00 0.  1.
          4    1    6    6  503    0 -0.19007966846E+02  0.18627142847E+02 -0.33526691898E+02  0.42805517447E+02  0.00000000000E+00 0. -1.
         -4    1    6    6    0  503 -0.10197298243E+03 -0.51273783192E+02 -0.42220685300E+03  0.43736268326E+03  0.00000000000E+00 0.  1.
<mgrwt>
<rscale>  0 0.13981253E+04</rscale>
<asrwt>0</asrwt>
<pdfrwt beam="1">  1        1 0.90700700E-01 0.13981253E+04</pdfrwt>
<pdfrwt beam="2">  1       -1 0.12752486E+00 0.13981253E+04</pdfrwt>
<totfact> 0.18241379E+01</totfact>
</mgrwt>
</event>
<event>
12    2  0.3751044E-008  0.2148730E+04  0.7818608E-02  0.8540076E-01
         -1   -1    0    0    0  501 -0.00000000000E+00  0.00000000000E+00  0.40626350957E+03  0.40626350957E+03  0.00000000000E+00 0.  1.
          1   -1    0    0  501    0  0.00000000000E+00 -0.00000000000E+00 -0.28411614809E+04  0.28411614809E+04  0.00000000000E+00 0. -1.
         23    2    1    2    0    0  0.85538981001E+03 -0.24169835259E+03 -0.11201632586E+04  0.14329082022E+04  0.91380354661E+02 0.  0.
        254    2    1    2    0    0 -0.85538981001E+03  0.24169835259E+03 -0.13147347127E+04  0.18145167883E+04  0.87967834430E+03 0.  0.
         23    2    4    4    0    0  0.10444150538E+03 -0.13654216557E+01 -0.53173518167E+03  0.54889149856E+03  0.87348047169E+02 0.  0.
         23    2    4    4    0    0 -0.95983131540E+03  0.24306377424E+03 -0.78299953104E+03  0.12656252897E+04  0.91449199005E+02 0.  0.
          3    1    3    3  502    0  0.47866199221E+03 -0.10059082854E+03 -0.56481097825E+03  0.74715946004E+03  0.00000000000E+00 0. -1.
         -3    1    3    3    0  502  0.37672781780E+03 -0.14110752405E+03 -0.55535228033E+03  0.68574874212E+03  0.00000000000E+00 0.  1.
         11    1    5    5    0    0  0.84613221389E+02 -0.68157746486E+00 -0.20805071994E+03  0.22459956334E+03  0.00000000000E+00 0. -1.
        -11    1    5    5    0    0  0.19828283994E+02 -0.68384419080E+00 -0.32368446173E+03  0.32429193523E+03  0.00000000000E+00 0.  1.
          4    1    6    6  503    0 -0.43619513401E+03  0.10273556973E+03 -0.41179815099E+03  0.60860373757E+03  0.00000000000E+00 0. -1.
         -4    1    6    6    0  503 -0.52363618139E+03  0.14032820451E+03 -0.37120138005E+03  0.65702155215E+03  0.00000000000E+00 0.  1.
<mgrwt>
<rscale>  0 0.21487301E+04</rscale>
<asrwt>0</asrwt>
<pdfrwt beam="1">  1        1 0.43710179E+00 0.21487301E+04</pdfrwt>
<pdfrwt beam="2">  1       -1 0.62502076E-01 0.21487301E+04</pdfrwt>
<totfact> 0.18531264E+00</totfact>
</mgrwt>
</event>
<event>
12    2  0.3751044E-008  0.1694079E+04  0.7818608E-02  0.8764748E-01
          2   -1    0    0  501    0  0.00000000000E+00  0.00000000000E+00  0.10613876203E+04  0.10613876203E+04  0.00000000000E+00 0.  1.
         -2   -1    0    0    0  501 -0.00000000000E+00 -0.00000000000E+00 -0.67597921900E+03  0.67597921900E+03  0.00000000000E+00 0. -1.
         23    2    1    2    0    0  0.45185280825E+03 -0.12568190692E+03  0.52240902006E+03  0.70788225344E+03  0.90659795068E+02 0.  0.
        254    2    1    2    0    0 -0.45185280825E+03  0.12568190692E+03 -0.13700061874E+03  0.10294845859E+04  0.90614703056E+03 0.  0.
         23    2    4    4    0    0 -0.61414399022E+03  0.68085642470E+00 -0.35597387217E+03  0.71614186983E+03  0.94702036772E+02 0.  0.
         23    2    4    4    0    0  0.16229118197E+03  0.12500105049E+03  0.21897325343E+03  0.31334271606E+03  0.90943287932E+02 0.  0.
          1    1    3    3  502    0  0.97892723198E+02 -0.67611554318E+02  0.12703120955E+03  0.17404377533E+03  0.00000000000E+00 0. -1.
         -1    1    3    3    0  502  0.35396008505E+03 -0.58070352598E+02  0.39537781051E+03  0.53383847810E+03  0.00000000000E+00 0.  1.
         11    1    5    5    0    0 -0.20659018035E+02 -0.15107927499E+02 -0.38619141240E+01  0.25883563900E+02  0.00000000000E+00 0.  1.
        -11    1    5    5    0    0 -0.59348497218E+03  0.15788783924E+02 -0.35211195805E+03  0.69025830593E+03  0.00000000000E+00 0. -1.
          2    1    6    6  503    0  0.12205322522E+03  0.12046266614E+03  0.21129461032E+03  0.27212801412E+03  0.00000000000E+00 0. -1.
         -2    1    6    6    0  503  0.40237956749E+02  0.45383843525E+01  0.76786431151E+01  0.41214701939E+02  0.00000000000E+00 0.  1.
<mgrwt>
<rscale>  0 0.16940791E+04</rscale>
<asrwt>0</asrwt>
<pdfrwt beam="1">  1        2 0.16329040E+00 0.16940791E+04</pdfrwt>
<pdfrwt beam="2">  1       -2 0.10399680E+00 0.16940791E+04</pdfrwt>
<totfact> 0.16491746E+01</totfact>
</mgrwt>
</event>
<event>
12    2  0.3751044E-008  0.2813883E+04  0.7818608E-02  0.8298971E-01
          2   -1    0    0  501    0  0.00000000000E+00  0.00000000000E+00  0.19962181516E+04  0.19962181516E+04  0.00000000000E+00 0. -1.
         -2   -1    0    0    0  501 -0.00000000000E+00 -0.00000000000E+00 -0.99161738857E+03  0.99161738857E+03  0.00000000000E+00 0.  1.
         23    2    1    2    0    0 -0.59323850265E+03  0.56303313464E+03  0.14710913418E+04  0.16856188522E+04  0.90900755318E+02 0.  0.
        254    2    1    2    0    0  0.59323850265E+03 -0.56303313464E+03 -0.46649057881E+03  0.13022166879E+04  0.89956467830E+03 0.  0.
         23    2    4    4    0    0 -0.46115426936E+02 -0.41794123875E+03  0.87965012937E+02  0.43902643940E+03  0.90580678639E+02 0.  0.
         23    2    4    4    0    0  0.63935392959E+03 -0.14509189589E+03 -0.55445559175E+03  0.86319024852E+03  0.88607541342E+02 0.  0.
          1    1    3    3  502    0 -0.33362960837E+03  0.31139894497E+03  0.72764092468E+03  0.85891753607E+03  0.00000000000E+00 0. -1.
         -1    1    3    3    0  502 -0.25960889428E+03  0.25163418967E+03  0.74345041715E+03  0.82670131618E+03  0.00000000000E+00 0.  1.
         11    1    5    5    0    0 -0.11158010476E+02 -0.31214211148E+03  0.97471133814E+02  0.32719691454E+03  0.00000000000E+00 0.  1.
        -11    1    5    5    0    0 -0.34957416460E+02 -0.10579912727E+03 -0.95061208771E+01  0.11182952486E+03  0.00000000000E+00 0. -1.
          4    1    6    6  503    0  0.31160657927E+03 -0.50501356367E+02 -0.31836024710E+03  0.44833279399E+03  0.00000000000E+00 0. -1.
         -4    1    6    6    0  503  0.32774735032E+03 -0.94590539521E+02 -0.23609534465E+03  0.41485745452E+03  0.00000000000E+00 0.  1.
<mgrwt>
<rscale>  0 0.28138832E+04</rscale>
<asrwt>0</asrwt>
<pdfrwt beam="1">  1        2 0.30711048E+00 0.28138832E+04</pdfrwt>
<pdfrwt beam="2">  1       -2 0.15255652E+00 0.28138832E+04</pdfrwt>
<totfact> 0.16716159E+00</totfact>
</mgrwt>
</event>
<event>
12    2  0.3751044E-008  0.1544075E+04  0.7818608E-02  0.8855661E-01
         -1   -1    0    0    0  501 -0.00000000000E+00  0.00000000000E+00  0.27816657690E+04  0.27816657690E+04  0.00000000000E+00 0.  1.
          1   -1    0    0  501    0  0.00000000000E+00 -0.00000000000E+00 -0.21427517300E+03  0.21427517300E+03  0.00000000000E+00 0. -1.
         23    2    1    2    0    0  0.35659493549E+03 -0.12177282784E+03  0.20340380752E+03  0.44346289302E+03  0.11531547577E+03 0.  0.
        254    2    1    2    0    0 -0.35659493549E+03  0.12177282784E+03  0.23639867884E+04  0.25524780489E+04  0.88584540682E+03 0.  0.
         23    2    4    4    0    0  0.27465978648E+03  0.19643833967E+02  0.48578151342E+03  0.56574460364E+03  0.90881237053E+02 0.  0.
         23    2    4    4    0    0 -0.63125472197E+03  0.10212899387E+03  0.18782052750E+04  0.19867334453E+04  0.10267361955E+03 0.  0.
          2    1    3    3  502    0  0.36126034712E+03 -0.12189222070E+03  0.21008064416E+03  0.43531669956E+03  0.00000000000E+00 0. -1.
         -2    1    3    3    0  502 -0.46654116249E+01  0.11939286410E+00 -0.66768366417E+01  0.81461934562E+01  0.00000000000E+00 0.  1.
         11    1    5    5    0    0  0.17046466049E+03  0.35318034125E+02  0.22501565307E+03  0.28449535696E+03  0.00000000000E+00 0. -1.
        -11    1    5    5    0    0  0.10419512599E+03 -0.15674200157E+02  0.26076586036E+03  0.28124924668E+03  0.00000000000E+00 0.  1.
          3    1    6    6  503    0 -0.54931932152E+02  0.86092952469E+01  0.27391415642E+03  0.27950063010E+03  0.00000000000E+00 0. -1.
         -3    1    6    6    0  503 -0.57632278982E+03  0.93519698622E+02  0.16042911186E+04  0.17072328152E+04  0.00000000000E+00 0.  1.
<mgrwt>
<rscale>  0 0.15440750E+04</rscale>
<asrwt>0</asrwt>
<pdfrwt beam="1">  1        1 0.32965413E-01 0.15440750E+04</pdfrwt>
<pdfrwt beam="2">  1       -1 0.42794855E+00 0.15440750E+04</pdfrwt>
<totfact> 0.60598385E-01</totfact>
</mgrwt>
</event>
<event>
12    2  0.3751044E-008  0.2402898E+04  0.7818608E-02  0.8438419E-01
          1   -1    0    0  501    0  0.00000000000E+00  0.00000000000E+00  0.11669529318E+04  0.11669529318E+04  0.00000000000E+00 0. -1.
         -1   -1    0    0    0  501 -0.00000000000E+00 -0.00000000000E+00 -0.12369645432E+04  0.12369645432E+04  0.00000000000E+00 0.  1.
         23    2    1    2    0    0  0.30663758359E+03  0.33008080897E+03 -0.95646198216E+03  0.10612753830E+04  0.92227800423E+02 0.  0.
        254    2    1    2    0    0 -0.30663758359E+03 -0.33008080897E+03  0.88645037079E+03  0.13426420920E+04  0.90217159079E+03 0.  0.
         23    2    4    4    0    0 -0.14971105454E+03 -0.59301531475E+03  0.32991101387E+03  0.70094702836E+03  0.91678220522E+02 0.  0.
         23    2    4    4    0    0 -0.15692652904E+03  0.26293450578E+03  0.55653935692E+03  0.64169506364E+03  0.90972573114E+02 0.  0.
          4    1    3    3  502    0  0.80159553459E+02  0.13130288966E+03 -0.39808169156E+03  0.42677281543E+03  0.00000000000E+00 0. -1.
         -4    1    3    3    0  502  0.22647803013E+03  0.19877791931E+03 -0.55838029060E+03  0.63450256759E+03  0.00000000000E+00 0.  1.
         11    1    5    5    0    0 -0.94724424373E+02 -0.21644967764E+03  0.10187687558E+03  0.25729764341E+03  0.00000000000E+00 0. -1.
        -11    1    5    5    0    0 -0.54986630171E+02 -0.37656563711E+03  0.22803413829E+03  0.44364938496E+03  0.00000000000E+00 0.  1.
          2    1    6    6  503    0 -0.13793521991E+03  0.22378398254E+03  0.52752197782E+03  0.58939361450E+03  0.00000000000E+00 0. -1.
         -2    1    6    6    0  503 -0.18991309135E+02  0.39150523243E+02  0.29017379101E+02  0.52301449145E+02  0.00000000000E+00 0.  1.
<mgrwt>
<rscale>  0 0.24028978E+04</rscale>
<asrwt>0</asrwt>
<pdfrwt beam="1">  1        1 0.17953122E+00 0.24028978E+04</pdfrwt>
<pdfrwt beam="2">  1       -1 0.19030224E+00 0.24028978E+04</pdfrwt>
<totfact> 0.17802949E+00</totfact>
</mgrwt>
</event>
<event>
12    2  0.3751044E-008  0.3308362E+04  0.7818608E-02  0.8160771E-01
         -1   -1    0    0    0  501 -0.00000000000E+00  0.00000000000E+00  0.12514623894E+04  0.12514623894E+04  0.00000000000E+00 0.  1.
          1   -1    0    0  501    0  0.00000000000E+00 -0.00000000000E+00 -0.21864931945E+04  0.21864931945E+04  0.00000000000E+00 0. -1.
         23    2    1    2    0    0  0.25036657896E+03 -0.41060114615E+03 -0.19427656745E+04  0.20035503412E+04  0.92729599050E+02 0.  0.
        254    2    1    2    0    0 -0.25036657896E+03  0.41060114615E+03  0.10077348694E+04  0.14344052427E+04  0.90039552882E+03 0.  0.
         23    2    4    4    0    0 -0.65799615014E+02  0.35373991659E+03 -0.31989855419E+02  0.37297307881E+03  0.92865756589E+02 0.  0.
         23    2    4    4    0    0 -0.18456696395E+03  0.56861229557E+02  0.10397247248E+04  0.10614321639E+04  0.91173305375E+02 0.  0.
          1    1    3    3  502    0  0.17882345737E+03 -0.35645644272E+03 -0.16383408428E+04  0.16861790361E+04  0.00000000000E+00 0. -1.
         -1    1    3    3    0  502  0.71543121594E+02 -0.54144703422E+02 -0.30442483172E+03  0.31737130514E+03  0.00000000000E+00 0.  1.
         11    1    5    5    0    0 -0.44774900004E+02  0.13768138739E+03 -0.54572125285E+02  0.15472256772E+03  0.00000000000E+00 0.  1.
        -11    1    5    5    0    0 -0.21024715010E+02  0.21605852920E+03  0.22582269865E+02  0.21825051109E+03  0.00000000000E+00 0. -1.
          4    1    6    6  503    0 -0.21164475436E+02 -0.20034609602E+02  0.87256315256E+02  0.91994484370E+02  0.00000000000E+00 0. -1.
         -4    1    6    6    0  503 -0.16340248851E+03  0.76895839159E+02  0.95246840955E+03  0.96943767954E+03  0.00000000000E+00 0.  1.
<mgrwt>
<rscale>  0 0.33083615E+04</rscale>
<asrwt>0</asrwt>
<pdfrwt beam="1">  1        1 0.33638357E+00 0.33083615E+04</pdfrwt>
<pdfrwt beam="2">  1       -1 0.19253267E+00 0.33083615E+04</pdfrwt>
<totfact> 0.31291230E-01</totfact>
</mgrwt>
</event>
<event>
12    2  0.3751044E-008  0.1258693E+04  0.7818608E-02  0.9062979E-01
          1   -1    0    0  501    0  0.00000000000E+00  0.00000000000E+00  0.48828627981E+03  0.48828627981E+03  0.00000000000E+00 0. -1.
         -1   -1    0    0    0  501 -0.00000000000E+00 -0.00000000000E+00 -0.81115790929E+03  0.81115790929E+03  0.00000000000E+00 0.  1.
         23    2    1    2    0    0 -0.87592068825E+02  0.13928332086E+03 -0.33250569538E+03  0.38139757434E+03  0.88497786759E+02 0.  0.
        254    2    1    2    0    0  0.87592068825E+02 -0.13928332086E+03  0.96340659008E+01  0.91804661477E+03  0.90313042118E+03 0.  0.
         23    2    4    4    0    0 -0.37800319332E+03  0.40447721542E+02 -0.89787252710E+02  0.40091083277E+03  0.90251386394E+02 0.  0.
         23    2    4    4    0    0  0.46559526214E+03 -0.17973104241E+03  0.99421318611E+02  0.51713578200E+03  0.91992514337E+02 0.  0.
          2    1    3    3  502    0 -0.82838025872E+02  0.54326408626E+02 -0.14645426091E+03  0.17681161654E+03  0.00000000000E+00 0. -1.
         -2    1    3    3    0  502 -0.47540429525E+01  0.84956912237E+02 -0.18605143447E+03  0.20458595780E+03  0.00000000000E+00 0.  1.
         11    1    5    5    0    0 -0.36945508029E+03  0.24809073573E+02 -0.75122192212E+02  0.37783050465E+03  0.00000000000E+00 0. -1.
        -11    1    5    5    0    0 -0.85481130315E+01  0.15638647970E+02 -0.14665060498E+02  0.23080328120E+02  0.00000000000E+00 0.  1.
          1    1    6    6  503    0  0.43697330709E+03 -0.14675564345E+03  0.74740357101E+02  0.46697859799E+03  0.00000000000E+00 0. -1.
         -1    1    6    6    0  503  0.28621955047E+02 -0.32975398951E+02  0.24680961509E+02  0.50157184009E+02  0.00000000000E+00 0.  1.
<mgrwt>
<rscale>  0 0.12586934E+04</rscale>
<asrwt>0</asrwt>
<pdfrwt beam="1">  1        1 0.75120967E-01 0.12586934E+04</pdfrwt>
<pdfrwt beam="2">  1       -1 0.12479352E+00 0.12586934E+04</pdfrwt>
<totfact> 0.25371236E+01</totfact>
</mgrwt>
</event>
<event>
12    2  0.3751044E-008  0.1852684E+04  0.7818608E-02  0.8678774E-01
         -2   -1    0    0    0  501 -0.00000000000E+00  0.00000000000E+00  0.52832273779E+03  0.52832273779E+03  0.00000000000E+00 0.  1.
          2   -1    0    0  501    0  0.00000000000E+00 -0.00000000000E+00 -0.16242145193E+04  0.16242145193E+04  0.00000000000E+00 0. -1.
         23    2    1    2    0    0  0.65305838320E+02 -0.40268707353E+02  0.39470474257E+03  0.41211585881E+03  0.90339503888E+02 0.  0.
        254    2    1    2    0    0 -0.65305838320E+02  0.40268707353E+02 -0.14905965241E+04  0.17404213983E+04  0.89515486073E+03 0.  0.
         23    2    4    4    0    0 -0.12779442602E+03 -0.38858084524E+03 -0.96918993571E+03  0.10559320365E+04  0.91306328509E+02 0.  0.
         23    2    4    4    0    0  0.62488587702E+02  0.42884955259E+03 -0.52140658841E+03  0.68448936181E+03  0.94043041433E+02 0.  0.
          2    1    3    3  502    0  0.45926970055E+02 -0.30559936991E+02  0.83012012455E+02  0.99670409546E+02  0.00000000000E+00 0. -1.
         -2    1    3    3    0  502  0.19378868265E+02 -0.97087703615E+01  0.31169273012E+03  0.31244544926E+03  0.00000000000E+00 0.  1.
         11    1    5    5    0    0 -0.81635804153E+02 -0.34558440440E+03 -0.84687712239E+03  0.91831032092E+03  0.00000000000E+00 0. -1.
        -11    1    5    5    0    0 -0.46158621869E+02 -0.42996440842E+02 -0.12231281332E+03  0.13762171559E+03  0.00000000000E+00 0.  1.
          2    1    6    6  503    0  0.36319900362E+02  0.21781643145E+03 -0.33762793081E+03  0.40342998480E+03  0.00000000000E+00 0. -1.
         -2    1    6    6    0  503  0.26168687341E+02  0.21103312114E+03 -0.18377865760E+03  0.28105937701E+03  0.00000000000E+00 0.  1.
<mgrwt>
<rscale>  0 0.18526840E+04</rscale>
<asrwt>0</asrwt>
<pdfrwt beam="1">  1        2 0.24987915E+00 0.18526840E+04</pdfrwt>
<pdfrwt beam="2">  1       -2 0.81280422E-01 0.18526840E+04</pdfrwt>
<totfact> 0.13552216E+01</totfact>
</mgrwt>
</event>
<event>
12    2  0.3751044E-008  0.1830179E+04  0.7818608E-02  0.8690413E-01
          2   -1    0    0  501    0  0.00000000000E+00  0.00000000000E+00  0.87335898148E+03  0.87335898148E+03  0.00000000000E+00 0.  1.
         -2   -1    0    0    0  501 -0.00000000000E+00 -0.00000000000E+00 -0.95881403909E+03  0.95881403909E+03  0.00000000000E+00 0. -1.
         23    2    1    2    0    0  0.49573511408E+02 -0.36489738221E+03 -0.61764407985E+03  0.72530798895E+03  0.94762001200E+02 0.  0.
        254    2    1    2    0    0 -0.49573511408E+02  0.36489738221E+03  0.53218902225E+03  0.11068650316E+04  0.89795178616E+03 0.  0.
         23    2    4    4    0    0  0.84121979411E+02 -0.26444985140E+03  0.48961492500E+02  0.29675753757E+03  0.93046101643E+02 0.  0.
         23    2    4    4    0    0 -0.13369549082E+03  0.62934723361E+03  0.48322752975E+03  0.81010749406E+03  0.93876949864E+02 0.  0.
          4    1    3    3  502    0  0.43552596909E+01 -0.21811708350E+03 -0.43523001718E+03  0.48684617515E+03  0.00000000000E+00 0. -1.
         -4    1    3    3    0  502  0.45218251717E+02 -0.14678029871E+03 -0.18241406267E+03  0.23846181380E+03  0.00000000000E+00 0.  1.
         11    1    5    5    0    0  0.25572332476E+02 -0.78937584774E+01  0.16917246711E+02  0.31661472604E+02  0.00000000000E+00 0.  1.
        -11    1    5    5    0    0  0.58549646935E+02 -0.25655609292E+03  0.32044245789E+02  0.26509606497E+03  0.00000000000E+00 0. -1.
          4    1    6    6  503    0 -0.14567623712E+03  0.61083650047E+03  0.47023190966E+03  0.78451312623E+03  0.00000000000E+00 0. -1.
         -4    1    6    6    0  503  0.11980746300E+02  0.18510733139E+02  0.12995620083E+02  0.25594367830E+02  0.00000000000E+00 0.  1.
<mgrwt>
<rscale>  0 0.18301791E+04</rscale>
<asrwt>0</asrwt>
<pdfrwt beam="1">  1        2 0.13436292E+00 0.18301791E+04</pdfrwt>
<pdfrwt beam="2">  1       -2 0.14750985E+00 0.18301791E+04</pdfrwt>
<totfact> 0.90166532E+00</totfact>
</mgrwt>
</event>
<event>
12    2  0.3751044E-008  0.3873915E+04  0.7818608E-02  0.8030476E-01
         -2   -1    0    0    0  501 -0.00000000000E+00  0.00000000000E+00  0.23892499664E+04  0.23892499664E+04  0.00000000000E+00 0.  1.
          2   -1    0    0  501    0  0.00000000000E+00 -0.00000000000E+00 -0.15702852294E+04  0.15702852294E+04  0.00000000000E+00 0. -1.
         23    2    1    2    0    0 -0.13520660489E+04  0.74880831908E+03 -0.61590330730E+03  0.16662502431E+04  0.90865226521E+02 0.  0.
        254    2    1    2    0    0  0.13520660489E+04 -0.74880831908E+03  0.14348680442E+04  0.22932849527E+04  0.90084020255E+03 0.  0.
         23    2    4    4    0    0  0.42698808652E+03 -0.74016329600E+03  0.67195849731E+03  0.10908324631E+04  0.90701211438E+02 0.  0.
         23    2    4    4    0    0  0.92507796240E+03 -0.86450230785E+01  0.76290954692E+03  0.12024524895E+04  0.89537924429E+02 0.  0.
          1    1    3    3  502    0 -0.49512920308E+03  0.28221067683E+03 -0.27394862313E+03  0.63233190808E+03  0.00000000000E+00 0. -1.
         -1    1    3    3    0  502 -0.85693684583E+03  0.46659764225E+03 -0.34195468417E+03  0.10339183350E+04  0.00000000000E+00 0.  1.
         11    1    5    5    0    0  0.41423341334E+03 -0.73713607886E+03  0.65602764315E+03  0.10702014708E+04  0.00000000000E+00 0. -1.
        -11    1    5    5    0    0  0.12754673177E+02 -0.30272171419E+01  0.15930854154E+02  0.20630992356E+02  0.00000000000E+00 0.  1.
          1    1    6    6  503    0  0.90789597197E+03  0.43369237637E+01  0.74526049936E+03  0.11746093464E+04  0.00000000000E+00 0. -1.
         -1    1    6    6    0  503  0.17181990430E+02 -0.12981946842E+02  0.17649047559E+02  0.27843143118E+02  0.00000000000E+00 0.  1.
<mgrwt>
<rscale>  0 0.38739148E+04</rscale>
<asrwt>0</asrwt>
<pdfrwt beam="1">  1        2 0.24158234E+00 0.38739148E+04</pdfrwt>
<pdfrwt beam="2">  1       -2 0.36757692E+00 0.38739148E+04</pdfrwt>
<totfact> 0.11106968E-01</totfact>
</mgrwt>
</event>
<event>
12    2  0.3751044E-008  0.1263146E+04  0.7818608E-02  0.9059312E-01
         -1   -1    0    0    0  501 -0.00000000000E+00  0.00000000000E+00  0.19417715450E+03  0.19417715450E+03  0.00000000000E+00 0.  1.
          1   -1    0    0  501    0  0.00000000000E+00 -0.00000000000E+00 -0.20542310169E+04  0.20542310169E+04  0.00000000000E+00 0. -1.
         23    2    1    2    0    0 -0.22984709804E+03  0.12684471805E+03 -0.21962884094E+03  0.35879576560E+03  0.10760252163E+03 0.  0.
        254    2    1    2    0    0  0.22984709804E+03 -0.12684471805E+03 -0.16404250214E+04  0.18896124058E+04  0.90040075642E+03 0.  0.
         23    2    4    4    0    0 -0.20520146595E+03 -0.58223895469E+02 -0.13123643363E+04  0.13326678180E+04  0.90585308955E+02 0.  0.
         23    2    4    4    0    0  0.43504856399E+03 -0.68620822580E+02 -0.32806068510E+03  0.55694458779E+03  0.92668173816E+02 0.  0.
          2    1    3    3  502    0 -0.14770010767E+02 -0.18103627738E+02 -0.27126697713E+02  0.35801568180E+02  0.00000000000E+00 0. -1.
         -2    1    3    3    0  502 -0.21507708727E+03  0.14494834579E+03 -0.19250214323E+03  0.32299419742E+03  0.00000000000E+00 0.  1.
         11    1    5    5    0    0 -0.18852094782E+02  0.20968825799E+02 -0.20699690220E+03  0.20890861795E+03  0.00000000000E+00 0. -1.
        -11    1    5    5    0    0 -0.18634937117E+03 -0.79192721269E+02 -0.11053674341E+04  0.11237592000E+04  0.00000000000E+00 0.  1.
          4    1    6    6  503    0  0.35318288135E+02  0.20064626907E+02 -0.29358438428E+02  0.50118745361E+02  0.00000000000E+00 0. -1.
         -4    1    6    6    0  503  0.39973027586E+03 -0.88685449487E+02 -0.29870224667E+03  0.50682584243E+03  0.00000000000E+00 0.  1.
<mgrwt>
<rscale>  0 0.12631464E+04</rscale>
<asrwt>0</asrwt>
<pdfrwt beam="1">  1        1 0.31603554E+00 0.12631464E+04</pdfrwt>
<pdfrwt beam="2">  1       -1 0.29873409E-01 0.12631464E+04</pdfrwt>
<totfact> 0.27776086E+01</totfact>
</mgrwt>
</event>
<event>
12    2  0.3751044E-008  0.1239186E+04  0.7818608E-02  0.9079232E-01
         -1   -1    0    0    0  501 -0.00000000000E+00  0.00000000000E+00  0.19217906538E+04  0.19217906538E+04  0.00000000000E+00 0.  1.
          1   -1    0    0  501    0  0.00000000000E+00 -0.00000000000E+00 -0.19975941016E+03  0.19975941016E+03  0.00000000000E+00 0. -1.
         23    2    1    2    0    0  0.36719497381E+02 -0.23321501324E+03  0.66225597817E+03  0.70897824781E+03  0.91266704533E+02 0.  0.
        254    2    1    2    0    0 -0.36719497381E+02  0.23321501324E+03  0.10597752655E+04  0.14125718162E+04  0.90360276593E+03 0.  0.
         23    2    4    4    0    0 -0.32763359516E+03 -0.15789954180E+03  0.21422429329E+03  0.43172797338E+03  0.90669494240E+02 0.  0.
         23    2    4    4    0    0  0.29091409778E+03  0.39111455505E+03  0.84555097220E+03  0.98084384279E+03  0.97450448354E+02 0.  0.
          3    1    3    3  502    0  0.15661815422E+02 -0.72703613604E+02  0.10490765383E+03  0.12859519325E+03  0.00000000000E+00 0. -1.
         -3    1    3    3    0  502  0.21057681959E+02 -0.16051139964E+03  0.55734832434E+03  0.58038305456E+03  0.00000000000E+00 0.  1.
         11    1    5    5    0    0 -0.22408197178E+03 -0.15266684970E+03  0.15491814701E+03  0.31228117034E+03  0.00000000000E+00 0. -1.
        -11    1    5    5    0    0 -0.10355162338E+03 -0.52326921051E+01  0.59306146280E+02  0.11944680304E+03  0.00000000000E+00 0.  1.
          3    1    6    6  503    0  0.24775345907E+03  0.37169176914E+03  0.79271983018E+03  0.90991278532E+03  0.00000000000E+00 0. -1.
         -3    1    6    6    0  503  0.43160638707E+02  0.19422785905E+02  0.52831142026E+02  0.70931057469E+02  0.00000000000E+00 0.  1.
<mgrwt>
<rscale>  0 0.12391865E+04</rscale>
<asrwt>0</asrwt>
<pdfrwt beam="1">  1        1 0.30732218E-01 0.12391865E+04</pdfrwt>
<pdfrwt beam="2">  1       -1 0.29566009E+00 0.12391865E+04</pdfrwt>
<totfact> 0.52097997E+00</totfact>
</mgrwt>
</event>
<event>
12    2  0.3751044E-008  0.2522841E+04  0.7818608E-02  0.8394893E-01
         -1   -1    0    0    0  501 -0.00000000000E+00  0.00000000000E+00  0.98729476214E+03  0.98729476214E+03  0.00000000000E+00 0.  1.
          1   -1    0    0  501    0  0.00000000000E+00 -0.00000000000E+00 -0.16116581947E+04  0.16116581947E+04  0.00000000000E+00 0. -1.
         23    2    1    2    0    0 -0.17472478464E+03 -0.65352131969E+03 -0.10947718489E+04  0.12900891410E+04  0.90474995504E+02 0.  0.
        254    2    1    2    0    0  0.17472478464E+03  0.65352131969E+03  0.47040841641E+03  0.13088638158E+04  0.10169668355E+04 0.  0.
         23    2    4    4    0    0  0.38430146556E+03 -0.10224141603E+03  0.28635366060E+03  0.49806185685E+03  0.89029605916E+02 0.  0.
         23    2    4    4    0    0 -0.20957668092E+03  0.75576273572E+03  0.18405475581E+03  0.81080195898E+03  0.91782164132E+02 0.  0.
          3    1    3    3  502    0 -0.13358877504E+03 -0.43916523387E+03 -0.66467108409E+03  0.80777454372E+03  0.00000000000E+00 0. -1.
         -3    1    3    3    0  502 -0.41136009602E+02 -0.21435608581E+03 -0.43010076486E+03  0.48231459728E+03  0.00000000000E+00 0.  1.
         11    1    5    5    0    0  0.85997772780E+02 -0.57600628995E+02  0.50479705582E+02  0.11515923784E+03  0.00000000000E+00 0.  1.
        -11    1    5    5    0    0  0.29830369278E+03 -0.44640787040E+02  0.23587395502E+03  0.38290261902E+03  0.00000000000E+00 0. -1.
          3    1    6    6  503    0 -0.17126550060E+03  0.52523568899E+03  0.94163933493E+02  0.56042059835E+03  0.00000000000E+00 0. -1.
         -3    1    6    6    0  503 -0.38311180323E+02  0.23052704673E+03  0.89890822317E+02  0.25038136062E+03  0.00000000000E+00 0.  1.
<mgrwt>
<rscale>  0 0.25228410E+04</rscale>
<asrwt>0</asrwt>
<pdfrwt beam="1">  1        1 0.24794741E+00 0.25228410E+04</pdfrwt>
<pdfrwt beam="2">  1       -1 0.15189150E+00 0.25228410E+04</pdfrwt>
<totfact> 0.16381745E+00</totfact>
</mgrwt>
</event>
<event>
12    2  0.3751044E-008  0.1869886E+04  0.7818608E-02  0.8669993E-01
          4   -1    0    0  501    0  0.00000000000E+00  0.00000000000E+00  0.11850687782E+04  0.11850687782E+04  0.00000000000E+00 0.  1.
         -4   -1    0    0    0  501 -0.00000000000E+00 -0.00000000000E+00 -0.73760960769E+03  0.73760960769E+03  0.00000000000E+00 0. -1.
         23    2    1    2    0    0  0.51011659883E+03  0.47092036522E+03  0.34457171700E+03  0.78086434237E+03  0.95050082828E+02 0.  0.
        254    2    1    2    0    0 -0.51011659883E+03 -0.47092036522E+03  0.10288745352E+03  0.11418140435E+04  0.90064895890E+03 0.  0.
         23    2    4    4    0    0 -0.13548008372E+03 -0.59944501999E+03  0.29942824630E+03  0.68976180222E+03  0.91787167151E+02 0.  0.
         23    2    4    4    0    0 -0.37463651511E+03  0.12852465477E+03 -0.19654079279E+03  0.45205224132E+03  0.94084219281E+02 0.  0.
          3    1    3    3  502    0  0.12077048661E+03  0.80218162238E+02  0.38292963616E+02  0.14995604373E+03  0.00000000000E+00 0. -1.
         -3    1    3    3    0  502  0.38934611222E+03  0.39070220298E+03  0.30627875339E+03  0.63090829864E+03  0.00000000000E+00 0.  1.
         11    1    5    5    0    0  0.29887837605E+00 -0.75244167524E+02  0.66009672071E+02  0.10009520908E+03  0.00000000000E+00 0.  1.
        -11    1    5    5    0    0 -0.13577896210E+03 -0.52420085246E+03  0.23341857423E+03  0.58966659314E+03  0.00000000000E+00 0. -1.
          1    1    6    6  503    0 -0.36738266911E+03  0.12092410651E+03 -0.20573909653E+03  0.43808816571E+03  0.00000000000E+00 0. -1.
         -1    1    6    6    0  503 -0.72538459969E+01  0.76005482645E+01  0.91983037476E+01  0.13964075605E+02  0.00000000000E+00 0.  1.
<mgrwt>
<rscale>  0 0.18698857E+04</rscale>
<asrwt>0</asrwt>
<pdfrwt beam="1">  1        4 0.18231827E+00 0.18698857E+04</pdfrwt>
<pdfrwt beam="2">  1       -4 0.11347840E+00 0.18698857E+04</pdfrwt>
<totfact> 0.19774773E-01</totfact>
</mgrwt>
</event>
<event>
12    2  0.3751044E-008  0.1439221E+04  0.7818608E-02  0.8925908E-01
         -2   -1    0    0    0  501 -0.00000000000E+00  0.00000000000E+00  0.48462312710E+03  0.48462312710E+03  0.00000000000E+00 0.  1.
          2   -1    0    0  501    0  0.00000000000E+00 -0.00000000000E+00 -0.10685397708E+04  0.10685397708E+04  0.00000000000E+00 0. -1.
         23    2    1    2    0    0  0.11728954426E+03  0.26782789484E+03  0.15565824486E+03  0.34291529502E+03  0.88728754782E+02 0.  0.
        254    2    1    2    0    0 -0.11728954426E+03 -0.26782789484E+03 -0.73957488852E+03  0.12102476028E+04  0.91227168431E+03 0.  0.
         23    2    4    4    0    0  0.38310028698E+03 -0.84087475240E+02 -0.42011196513E+03  0.58217850740E+03  0.92742750980E+02 0.  0.
         23    2    4    4    0    0 -0.50038983124E+03 -0.18374041960E+03 -0.31946292339E+03  0.62806909544E+03  0.90904918572E+02 0.  0.
          2    1    3    3  502    0  0.26062362437E+02  0.94349644389E+02  0.93523597071E+01  0.98328880621E+02  0.00000000000E+00 0. -1.
         -2    1    3    3    0  502  0.91227181822E+02  0.17347825045E+03  0.14630588515E+03  0.24458641440E+03  0.00000000000E+00 0.  1.
         11    1    5    5    0    0  0.37915325765E+03 -0.87584217602E+02 -0.42409253767E+03  0.57557160151E+03  0.00000000000E+00 0. -1.
        -11    1    5    5    0    0  0.39470293266E+01  0.34967423628E+01  0.39805725407E+01  0.66069058877E+01  0.00000000000E+00 0.  1.
          1    1    6    6  503    0 -0.34540238250E+03 -0.13754677785E+03 -0.26816235084E+03  0.45840262689E+03  0.00000000000E+00 0. -1.
         -1    1    6    6    0  503 -0.15498744874E+03 -0.46193641748E+02 -0.51300572551E+02  0.16966646855E+03  0.00000000000E+00 0.  1.
<mgrwt>
<rscale>  0 0.14392207E+04</rscale>
<asrwt>0</asrwt>
<pdfrwt beam="1">  1        2 0.16439073E+00 0.14392207E+04</pdfrwt>
<pdfrwt beam="2">  1       -2 0.74557405E-01 0.14392207E+04</pdfrwt>
<totfact> 0.35792535E+01</totfact>
</mgrwt>
</event>
<event>
12    2  0.3751044E-008  0.1633741E+04  0.7818608E-02  0.8800084E-01
         -2   -1    0    0    0  501 -0.00000000000E+00  0.00000000000E+00  0.55256290747E+03  0.55256290747E+03  0.00000000000E+00 0.  1.
          2   -1    0    0  501    0  0.00000000000E+00 -0.00000000000E+00 -0.12076042107E+04  0.12076042107E+04  0.00000000000E+00 0. -1.
         23    2    1    2    0    0 -0.34964380137E+03  0.29328656094E+03  0.12318582474E+03  0.48138545396E+03  0.91046214651E+02 0.  0.
        254    2    1    2    0    0  0.34964380137E+03 -0.29328656094E+03 -0.77822712798E+03  0.12787816642E+04  0.90629867448E+03 0.  0.
         23    2    4    4    0    0 -0.12746868714E+03  0.23910242122E+03 -0.29565680597E+03  0.41134130485E+03  0.91490371772E+02 0.  0.
         23    2    4    4    0    0  0.47711248851E+03 -0.53238898215E+03 -0.48257032200E+03  0.86744035937E+03  0.92218796150E+02 0.  0.
          1    1    3    3  502    0 -0.48331216965E+02  0.57375655517E+02 -0.11085889562E+02  0.75833827061E+02  0.00000000000E+00 0. -1.
         -1    1    3    3    0  502 -0.30131258441E+03  0.23591090542E+03  0.13427171430E+03  0.40555162690E+03  0.00000000000E+00 0.  1.
         11    1    5    5    0    0 -0.21072072469E+02  0.21275150672E+02 -0.85204079471E+02  0.90312786652E+02  0.00000000000E+00 0. -1.
        -11    1    5    5    0    0 -0.10639661467E+03  0.21782727055E+03 -0.21045272650E+03  0.32102851820E+03  0.00000000000E+00 0.  1.
          2    1    6    6  503    0  0.93986615656E+02 -0.61518186471E+02 -0.95961822993E+02  0.14773842649E+03  0.00000000000E+00 0. -1.
         -2    1    6    6    0  503  0.38312587286E+03 -0.47087079568E+03 -0.38660849901E+03  0.71970193288E+03  0.00000000000E+00 0.  1.
<mgrwt>
<rscale>  0 0.16337409E+04</rscale>
<asrwt>0</asrwt>
<pdfrwt beam="1">  1        2 0.18578526E+00 0.16337409E+04</pdfrwt>
<pdfrwt beam="2">  1       -2 0.85009678E-01 0.16337409E+04</pdfrwt>
<totfact> 0.21598346E+01</totfact>
</mgrwt>
</event>
<event>
12    2  0.4938872E-008  0.2645497E+04  0.7818608E-02  0.8352909E-01
          1   -1    0    0  501    0  0.00000000000E+00  0.00000000000E+00  0.96206833852E+03  0.96206833852E+03  0.00000000000E+00 0. -1.
         -1   -1    0    0    0  501 -0.00000000000E+00 -0.00000000000E+00 -0.18186477609E+04  0.18186477609E+04  0.00000000000E+00 0.  1.
         23    2    1    2    0    0  0.90487403441E+03 -0.63891207414E+03 -0.76225669399E+03  0.13477084606E+04  0.90978957271E+02 0.  0.
        254    2    1    2    0    0 -0.90487403441E+03  0.63891207414E+03 -0.94322728391E+02  0.14330076388E+04  0.90421704205E+03 0.  0.
         23    2    4    4    0    0 -0.80466954788E+03  0.83671563129E+03 -0.18124097403E+03  0.11784469296E+04  0.91119407158E+02 0.  0.
         23    2    4    4    0    0 -0.10020448653E+03 -0.19780355714E+03  0.86918245642E+02  0.25456070917E+03  0.89884297230E+02 0.  0.
          1    1    3    3  502    0  0.72402800852E+02 -0.59602199830E+02 -0.96217329526E+02  0.13435907970E+03  0.00000000000E+00 0. -1.
         -1    1    3    3    0  502  0.83247123356E+03 -0.57930987431E+03 -0.66603936446E+03  0.12133493809E+04  0.00000000000E+00 0.  1.
         11    1    5    5    0    0 -0.62228540681E+03  0.66591629476E+03 -0.10640736945E+03  0.91760894036E+03  0.00000000000E+00 0. -1.
        -11    1    5    5    0    0 -0.18238414106E+03  0.17079933653E+03 -0.74833604581E+02  0.26083798927E+03  0.00000000000E+00 0.  1.
          4    1    6    6  503    0 -0.92207225051E+02 -0.17669858874E+03  0.41126397952E+02  0.20350907651E+03  0.00000000000E+00 0. -1.
         -4    1    6    6    0  503 -0.79972614832E+01 -0.21104968406E+02  0.45791847689E+02  0.51051632662E+02  0.00000000000E+00 0.  1.
<mgrwt>
<rscale>  0 0.26454969E+04</rscale>
<asrwt>0</asrwt>
<pdfrwt beam="1">  1        1 0.14801052E+00 0.26454969E+04</pdfrwt>
<pdfrwt beam="2">  1       -1 0.27979196E+00 0.26454969E+04</pdfrwt>
<totfact> 0.63489746E-01</totfact>
</mgrwt>
</event>
<event>
12    2  0.3751044E-008  0.2249945E+04  0.7818608E-02  0.8497923E-01
          1   -1    0    0  501    0  0.00000000000E+00  0.00000000000E+00  0.29156222745E+04  0.29156222745E+04  0.00000000000E+00 0. -1.
         -1   -1    0    0    0  501 -0.00000000000E+00 -0.00000000000E+00 -0.43406266388E+03  0.43406266388E+03  0.00000000000E+00 0.  1.
         23    2    1    2    0    0  0.20169552879E+02 -0.53122408830E+03 -0.11368464308E+03  0.55102431041E+03  0.89987497659E+02 0.  0.
        254    2    1    2    0    0 -0.20169552879E+02  0.53122408830E+03  0.25952442537E+04  0.27986606279E+04  0.90255345067E+03 0.  0.
         23    2    4    4    0    0  0.74060814128E+02  0.28525301543E+03  0.24762988564E+04  0.24954168731E+04  0.90526557433E+02 0.  0.
         23    2    4    4    0    0 -0.94230367006E+02  0.24597107287E+03  0.11894539730E+03  0.30324375481E+03  0.91802159777E+02 0.  0.
          2    1    3    3  502    0  0.30303682591E+02 -0.51404500066E+03 -0.94867313663E+02  0.52360326879E+03  0.00000000000E+00 0.  1.
         -2    1    3    3    0  502 -0.10134129712E+02 -0.17179087637E+02 -0.18817329417E+02  0.27421041619E+02  0.00000000000E+00 0. -1.
         11    1    5    5    0    0  0.27603441313E+01  0.10956423458E+03  0.63578212794E+03  0.64515955795E+03  0.00000000000E+00 0. -1.
        -11    1    5    5    0    0  0.71300469996E+02  0.17568878085E+03  0.18405167284E+04  0.18502573152E+04  0.00000000000E+00 0.  1.
          3    1    6    6  503    0 -0.77006609380E+02  0.24695147851E+03  0.12152025928E+03  0.28580102177E+03  0.00000000000E+00 0.  1.
         -3    1    6    6    0  503 -0.17223757626E+02 -0.98040563770E+00 -0.25748619836E+01  0.17442733049E+02  0.00000000000E+00 0. -1.
<mgrwt>
<rscale>  0 0.22499447E+04</rscale>
<asrwt>0</asrwt>
<pdfrwt beam="1">  1        1 0.44855726E+00 0.22499447E+04</pdfrwt>
<pdfrwt beam="2">  1       -1 0.66778873E-01 0.22499447E+04</pdfrwt>
<totfact> 0.14204669E+00</totfact>
</mgrwt>
</event>
<event>
12    2  0.3751044E-008  0.1391741E+04  0.7818608E-02  0.8959818E-01
         -1   -1    0    0    0  501 -0.00000000000E+00  0.00000000000E+00  0.21306597476E+03  0.21306597476E+03  0.00000000000E+00 0.  1.
          1   -1    0    0  501    0  0.00000000000E+00 -0.00000000000E+00 -0.22727040215E+04  0.22727040215E+04  0.00000000000E+00 0. -1.
         23    2    1    2    0    0 -0.27005990138E+02 -0.27796765973E+03 -0.11112620323E+04  0.11494557215E+04  0.91377283999E+02 0.  0.
        254    2    1    2    0    0  0.27005990138E+02  0.27796765973E+03 -0.94837601447E+03  0.13363142747E+04  0.89906809123E+03 0.  0.
         23    2    4    4    0    0  0.15317797858E+03  0.36707631558E+02 -0.10234238422E+04  0.10397677976E+04  0.94391572064E+02 0.  0.
         23    2    4    4    0    0 -0.12617198844E+03  0.24126002818E+03  0.75047827680E+02  0.29654647715E+03  0.90453661102E+02 0.  0.
          4    1    3    3  502    0  0.96614281863E+01 -0.10234730271E+03 -0.57110750590E+03  0.58028621977E+03  0.00000000000E+00 0.  1.
         -4    1    3    3    0  502 -0.36667418324E+02 -0.17562035703E+03 -0.54015452636E+03  0.56916950174E+03  0.00000000000E+00 0. -1.
         11    1    5    5    0    0  0.11684748276E+02 -0.25445211003E+02 -0.12019469330E+03  0.12341295071E+03  0.00000000000E+00 0.  1.
        -11    1    5    5    0    0  0.14149323030E+03  0.62152842561E+02 -0.90322914885E+03  0.91635484688E+03  0.00000000000E+00 0. -1.
          3    1    6    6  503    0 -0.56419085183E+02  0.18634502969E+03  0.72422266424E+02  0.20773196176E+03  0.00000000000E+00 0. -1.
         -3    1    6    6    0  503 -0.69752903255E+02  0.54914998484E+02  0.26255612567E+01  0.88814515384E+02  0.00000000000E+00 0.  1.
<mgrwt>
<rscale>  0 0.13917412E+04</rscale>
<asrwt>0</asrwt>
<pdfrwt beam="1">  1        1 0.34964678E+00 0.13917412E+04</pdfrwt>
<pdfrwt beam="2">  1       -1 0.32779380E-01 0.13917412E+04</pdfrwt>
<totfact> 0.16575306E+01</totfact>
</mgrwt>
</event>
<event>
12    2  0.3751044E-008  0.1490477E+04  0.7818608E-02  0.8890810E-01
          2   -1    0    0  501    0  0.00000000000E+00  0.00000000000E+00  0.96953518671E+03  0.96953518671E+03  0.00000000000E+00 0. -1.
         -2   -1    0    0    0  501 -0.00000000000E+00 -0.00000000000E+00 -0.57283174368E+03  0.57283174368E+03  0.00000000000E+00 0.  1.
         23    2    1    2    0    0 -0.23356673802E+03  0.72653556569E+02  0.49317242218E+03  0.55785866496E+03  0.90306653593E+02 0.  0.
        254    2    1    2    0    0  0.23356673802E+03 -0.72653556569E+02 -0.96468979150E+02  0.98450826542E+03  0.94874564576E+03 0.  0.
         23    2    4    4    0    0  0.95895565925E+02 -0.50210527257E+03 -0.48446566944E+02  0.52160905720E+03  0.91778398313E+02 0.  0.
         23    2    4    4    0    0  0.13767117210E+03  0.42945171600E+03 -0.48022412206E+02  0.46289920822E+03  0.92668208626E+02 0.  0.
          3    1    3    3  502    0 -0.23061175235E+03  0.77914112469E+02  0.42776897630E+03  0.49217749474E+03  0.00000000000E+00 0. -1.
         -3    1    3    3    0  502 -0.29549856691E+01 -0.52605558998E+01  0.65403445883E+02  0.65681170224E+02  0.00000000000E+00 0.  1.
         11    1    5    5    0    0  0.10282178341E+03 -0.31535433815E+03 -0.44701111204E+02  0.33469219751E+03  0.00000000000E+00 0.  1.
        -11    1    5    5    0    0 -0.69262174897E+01 -0.18675093442E+03 -0.37454557399E+01  0.18691685969E+03  0.00000000000E+00 0. -1.
          4    1    6    6  503    0  0.15120989929E+02  0.10784326328E+02  0.12641070826E+02  0.22466479529E+02  0.00000000000E+00 0. -1.
         -4    1    6    6    0  503  0.12255018217E+03  0.41866738968E+03 -0.60663483032E+02  0.44043272869E+03  0.00000000000E+00 0.  1.
<mgrwt>
<rscale>  0 0.14904771E+04</rscale>
<asrwt>0</asrwt>
<pdfrwt beam="1">  1        2 0.14915926E+00 0.14904771E+04</pdfrwt>
<pdfrwt beam="2">  1       -2 0.88127961E-01 0.14904771E+04</pdfrwt>
<totfact> 0.28278988E+01</totfact>
</mgrwt>
</event>
<event>
12    2  0.3751044E-008  0.1850768E+04  0.7818608E-02  0.8679758E-01
         -2   -1    0    0    0  501 -0.00000000000E+00  0.00000000000E+00  0.39421961463E+03  0.39421961463E+03  0.00000000000E+00 0. -1.
          2   -1    0    0  501    0  0.00000000000E+00 -0.00000000000E+00 -0.21722306658E+04  0.21722306658E+04  0.00000000000E+00 0.  1.
         23    2    1    2    0    0 -0.10585234928E+03 -0.23863659962E+03 -0.16010882462E+04  0.16247759816E+04  0.90891536909E+02 0.  0.
        254    2    1    2    0    0  0.10585234928E+03  0.23863659962E+03 -0.17692280497E+03  0.94167429890E+03  0.88729739083E+03 0.  0.
         23    2    4    4    0    0  0.43304347622E+03 -0.12101716553E+02  0.77154517253E+02  0.44871413527E+03  0.87854719955E+02 0.  0.
         23    2    4    4    0    0 -0.32719112694E+03  0.25073831617E+03 -0.25407732222E+03  0.49296016364E+03  0.92361791452E+02 0.  0.
          1    1    3    3  502    0 -0.40718371336E+02 -0.17219069853E+03 -0.87166787472E+03  0.88944505521E+03  0.00000000000E+00 0. -1.
         -1    1    3    3    0  502 -0.65133977942E+02 -0.66445901090E+02 -0.72942037152E+03  0.73533092635E+03  0.00000000000E+00 0.  1.
         11    1    5    5    0    0  0.48629538749E+02 -0.39928075146E+01 -0.19019846486E+02  0.52369161834E+02  0.00000000000E+00 0.  1.
        -11    1    5    5    0    0  0.38441393747E+03 -0.81089090382E+01  0.96174363739E+02  0.39634497343E+03  0.00000000000E+00 0. -1.
          1    1    6    6  503    0 -0.61380821799E+02  0.23061855536E+02 -0.75657687205E+02  0.10011763131E+03  0.00000000000E+00 0. -1.
         -1    1    6    6    0  503 -0.26581030514E+03  0.22767646063E+03 -0.17841963502E+03  0.39284253233E+03  0.00000000000E+00 0.  1.
<mgrwt>
<rscale>  0 0.18507684E+04</rscale>
<asrwt>0</asrwt>
<pdfrwt beam="1">  1        2 0.33418933E+00 0.18507684E+04</pdfrwt>
<pdfrwt beam="2">  1       -2 0.60649172E-01 0.18507684E+04</pdfrwt>
<totfact> 0.12743282E+01</totfact>
</mgrwt>
</event>
<event>
12    2  0.3751044E-008  0.2804517E+04  0.7818608E-02  0.8301867E-01
          1   -1    0    0  501    0  0.00000000000E+00  0.00000000000E+00  0.16399395766E+04  0.16399395766E+04  0.00000000000E+00 0. -1.
         -1   -1    0    0    0  501 -0.00000000000E+00 -0.00000000000E+00 -0.11990252387E+04  0.11990252387E+04  0.00000000000E+00 0.  1.
         23    2    1    2    0    0 -0.11803582983E+04  0.46278238611E+02 -0.23777167902E+03  0.12084161290E+04  0.91360722383E+02 0.  0.
        254    2    1    2    0    0  0.11803582983E+04 -0.46278238611E+02  0.67868601689E+03  0.16305486863E+04  0.89592796648E+03 0.  0.
         23    2    4    4    0    0  0.45329778716E+03  0.35488649071E+03  0.49347423355E+02  0.58485278097E+03  0.90522384461E+02 0.  0.
         23    2    4    4    0    0  0.72706051119E+03 -0.40116472932E+03  0.62933859353E+03  0.10456959054E+04  0.88672059819E+02 0.  0.
          1    1    3    3  502    0 -0.26010379502E+02 -0.12060275243E+02 -0.10011529054E+02  0.30368088428E+02  0.00000000000E+00 0. -1.
         -1    1    3    3    0  502 -0.11543479188E+04  0.58338513854E+02 -0.22776014997E+03  0.11780480406E+04  0.00000000000E+00 0.  1.
         11    1    5    5    0    0  0.27553340733E+03  0.22749913399E+03  0.73598727684E+02  0.36481678585E+03  0.00000000000E+00 0. -1.
        -11    1    5    5    0    0  0.17776437983E+03  0.12738735671E+03 -0.24251304330E+02  0.22003599512E+03  0.00000000000E+00 0.  1.
          1    1    6    6  503    0  0.37374561703E+03 -0.25404601758E+03  0.32308522261E+03  0.55552608072E+03  0.00000000000E+00 0. -1.
         -1    1    6    6    0  503  0.35331489416E+03 -0.14711871174E+03  0.30625337092E+03  0.49016982463E+03  0.00000000000E+00 0.  1.
<mgrwt>
<rscale>  0 0.28045170E+04</rscale>
<asrwt>0</asrwt>
<pdfrwt beam="1">  1        1 0.25229840E+00 0.28045170E+04</pdfrwt>
<pdfrwt beam="2">  1       -1 0.18446542E+00 0.28045170E+04</pdfrwt>
<totfact> 0.87665112E-01</totfact>
</mgrwt>
</event>
<event>
12    2  0.3751044E-008  0.2490577E+04  0.7818608E-02  0.8406350E-01
          2   -1    0    0  501    0  0.00000000000E+00  0.00000000000E+00  0.20145505733E+04  0.20145505733E+04  0.00000000000E+00 0. -1.
         -2   -1    0    0    0  501 -0.00000000000E+00 -0.00000000000E+00 -0.76977111765E+03  0.76977111765E+03  0.00000000000E+00 0.  1.
         23    2    1    2    0    0  0.70268192336E+03 -0.40089683236E+01 -0.37628292034E+03  0.80179833027E+03  0.86681999514E+02 0.  0.
        254    2    1    2    0    0 -0.70268192336E+03  0.40089683236E+01  0.16210623760E+04  0.19825233607E+04  0.89932068335E+03 0.  0.
         23    2    4    4    0    0 -0.96258933704E+02  0.73216409637E+02 -0.81165659393E+02  0.17188582135E+03  0.91271278931E+02 0.  0.
         23    2    4    4    0    0 -0.60642298966E+03 -0.69207441313E+02  0.17022280354E+04  0.18106375393E+04  0.91046702493E+02 0.  0.
          2    1    3    3  502    0  0.10067832934E+03 -0.18372756660E+02 -0.84190411978E+02  0.13252060087E+03  0.00000000000E+00 0. -1.
         -2    1    3    3    0  502  0.60200359403E+03  0.14363788336E+02 -0.29209250836E+03  0.66927772941E+03  0.00000000000E+00 0.  1.
         11    1    5    5    0    0 -0.68736952570E+02  0.43363820134E+01 -0.67551949390E+02  0.96471958226E+02  0.00000000000E+00 0. -1.
        -11    1    5    5    0    0 -0.27521981135E+02  0.68880027623E+02 -0.13613710003E+02  0.75413863122E+02  0.00000000000E+00 0.  1.
          1    1    6    6  503    0 -0.15756985881E+03 -0.58628559982E+02  0.45891508571E+03  0.48874187906E+03  0.00000000000E+00 0.  1.
         -1    1    6    6    0  503 -0.44885313085E+03 -0.10578881331E+02  0.12433129497E+04  0.13218956603E+04  0.00000000000E+00 0. -1.
<mgrwt>
<rscale>  0 0.24905765E+04</rscale>
<asrwt>0</asrwt>
<pdfrwt beam="1">  1        2 0.30993086E+00 0.24905765E+04</pdfrwt>
<pdfrwt beam="2">  1       -2 0.11842633E+00 0.24905765E+04</pdfrwt>
<totfact> 0.32116642E+00</totfact>
</mgrwt>
</event>
<event>
12    2  0.3751044E-008  0.3242964E+04  0.7818608E-02  0.8177562E-01
         -2   -1    0    0    0  501 -0.00000000000E+00  0.00000000000E+00  0.20027426358E+04  0.20027426358E+04  0.00000000000E+00 0.  1.
          2   -1    0    0  501    0  0.00000000000E+00 -0.00000000000E+00 -0.13128019106E+04  0.13128019106E+04  0.00000000000E+00 0. -1.
         23    2    1    2    0    0  0.11274241354E+04 -0.11661214708E+03  0.13153212064E+04  0.17386598458E+04  0.90468831833E+02 0.  0.
        254    2    1    2    0    0 -0.11274241354E+04  0.11661214708E+03 -0.62538048124E+03  0.15768847005E+04  0.90043380566E+03 0.  0.
         23    2    4    4    0    0  0.24681970992E+02  0.25738178881E+03 -0.51674482940E+02  0.27882985224E+03  0.90671105725E+02 0.  0.
         23    2    4    4    0    0 -0.11521061064E+04 -0.14076964173E+03 -0.57370599830E+03  0.12980548483E+04  0.92969049251E+02 0.  0.
          2    1    3    3  502    0  0.90188851209E+03 -0.12620476178E+03  0.10766689872E+04  0.14101583734E+04  0.00000000000E+00 0.  1.
         -2    1    3    3    0  502  0.22553562334E+03  0.95926147010E+01  0.23865221924E+03  0.32850147245E+03  0.00000000000E+00 0. -1.
         11    1    5    5    0    0  0.12414559339E+02  0.49238299524E+02  0.25094393657E+02  0.56641504364E+02  0.00000000000E+00 0. -1.
        -11    1    5    5    0    0  0.12267411653E+02  0.20814348928E+03 -0.76768876597E+02  0.22218834788E+03  0.00000000000E+00 0.  1.
          4    1    6    6  503    0 -0.33875258156E+03  0.97456573247E+00 -0.17081797046E+03  0.37938508184E+03  0.00000000000E+00 0. -1.
         -4    1    6    6    0  503 -0.81335352487E+03 -0.14174420746E+03 -0.40288802784E+03  0.91866976642E+03  0.00000000000E+00 0.  1.
<mgrwt>
<rscale>  0 0.32429643E+04</rscale>
<asrwt>0</asrwt>
<pdfrwt beam="1">  1        2 0.20196952E+00 0.32429643E+04</pdfrwt>
<pdfrwt beam="2">  1       -2 0.30811425E+00 0.32429643E+04</pdfrwt>
<totfact> 0.38638006E-01</totfact>
</mgrwt>
</event>
<event>
12    2  0.3751044E-008  0.1859159E+04  0.7818608E-02  0.8675457E-01
         -2   -1    0    0    0  501 -0.00000000000E+00  0.00000000000E+00  0.27525943137E+03  0.27525943137E+03  0.00000000000E+00 0.  1.
          2   -1    0    0  501    0  0.00000000000E+00 -0.00000000000E+00 -0.31392872507E+04  0.31392872507E+04  0.00000000000E+00 0. -1.
         23    2    1    2    0    0  0.25306767530E+03  0.10876119845E+03  0.98206387986E+02  0.30656601761E+03  0.92010770795E+02 0.  0.
        254    2    1    2    0    0 -0.25306767530E+03 -0.10876119845E+03 -0.29622342073E+04  0.31079806644E+04  0.89935536081E+03 0.  0.
         23    2    4    4    0    0 -0.19139915340E+03  0.37809198654E+03 -0.11758477593E+04  0.12532031887E+04  0.91176163207E+02 0.  0.
         23    2    4    4    0    0 -0.61668521909E+02 -0.48685318499E+03 -0.17863864479E+04  0.18547774757E+04  0.90520234236E+02 0.  0.
          2    1    3    3  502    0  0.54236604047E+02 -0.14413686878E+02  0.25433199212E+02  0.61613401222E+02  0.00000000000E+00 0. -1.
         -2    1    3    3    0  502  0.19883107126E+03  0.12317488533E+03  0.72773188773E+02  0.24495261639E+03  0.00000000000E+00 0.  1.
         11    1    5    5    0    0 -0.16233423634E+03  0.22552659527E+03 -0.73206225035E+03  0.78302604545E+03  0.00000000000E+00 0.  1.
        -11    1    5    5    0    0 -0.29064917051E+02  0.15256539127E+03 -0.44378550900E+03  0.47017714323E+03  0.00000000000E+00 0. -1.
          1    1    6    6  503    0  0.15823898353E+01 -0.25558177514E+02 -0.19501923910E+03  0.19669323327E+03  0.00000000000E+00 0. -1.
         -1    1    6    6    0  503 -0.63250911744E+02 -0.46129500748E+03 -0.15913672088E+04  0.16580842425E+04  0.00000000000E+00 0.  1.
<mgrwt>
<rscale>  0 0.18591594E+04</rscale>
<asrwt>0</asrwt>
<pdfrwt beam="1">  1        2 0.48296727E+00 0.18591594E+04</pdfrwt>
<pdfrwt beam="2">  1       -2 0.42347605E-01 0.18591594E+04</pdfrwt>
<totfact> 0.70822701E+00</totfact>
</mgrwt>
</event>
<event>
12    2  0.3751044E-008  0.2347689E+04  0.7818608E-02  0.8459352E-01
         -1   -1    0    0    0  501 -0.00000000000E+00  0.00000000000E+00  0.58183741445E+03  0.58183741445E+03  0.00000000000E+00 0.  1.
          1   -1    0    0  501    0  0.00000000000E+00 -0.00000000000E+00 -0.23682070986E+04  0.23682070986E+04  0.00000000000E+00 0. -1.
         23    2    1    2    0    0  0.45091326881E+03 -0.49806897283E+03 -0.16947487164E+04  0.18253153775E+04  0.90595464429E+02 0.  0.
        254    2    1    2    0    0 -0.45091326881E+03  0.49806897283E+03 -0.91620967802E+02  0.11247291355E+04  0.89734371836E+03 0.  0.
         23    2    4    4    0    0 -0.10227421129E+03  0.62238424981E+03  0.17287687895E+03  0.66024913173E+03  0.90666046376E+02 0.  0.
         23    2    4    4    0    0 -0.34863905752E+03 -0.12431527698E+03 -0.26449784675E+03  0.46448000380E+03  0.93696758077E+02 0.  0.
          1    1    3    3  502    0  0.35651468275E+03 -0.38020753170E+03 -0.14053488037E+04  0.14988881700E+04  0.00000000000E+00 0. -1.
         -1    1    3    3    0  502  0.94398586059E+02 -0.11786144113E+03 -0.28939991267E+03  0.32642720752E+03  0.00000000000E+00 0.  1.
         11    1    5    5    0    0 -0.96707161980E+01  0.33783581538E+03  0.90731778922E+02  0.34994116164E+03  0.00000000000E+00 0. -1.
        -11    1    5    5    0    0 -0.92603495095E+02  0.28454843443E+03  0.82145100027E+02  0.31030797009E+03  0.00000000000E+00 0.  1.
          1    1    6    6  503    0 -0.32366842126E+03 -0.84574771686E+02 -0.22528595236E+03  0.40332108705E+03  0.00000000000E+00 0. -1.
         -1    1    6    6    0  503 -0.24970636259E+02 -0.39740505298E+02 -0.39211894388E+02  0.61158916750E+02  0.00000000000E+00 0.  1.
<mgrwt>
<rscale>  0 0.23476895E+04</rscale>
<asrwt>0</asrwt>
<pdfrwt beam="1">  1        1 0.36433955E+00 0.23476895E+04</pdfrwt>
<pdfrwt beam="2">  1       -1 0.89513450E-01 0.23476895E+04</pdfrwt>
<totfact> 0.18383153E+00</totfact>
</mgrwt>
</event>
<event>
12    2  0.3751044E-008  0.1866609E+04  0.7818608E-02  0.8671658E-01
         -2   -1    0    0    0  501 -0.00000000000E+00  0.00000000000E+00  0.71659425887E+03  0.71659425887E+03  0.00000000000E+00 0.  1.
          2   -1    0    0  501    0  0.00000000000E+00 -0.00000000000E+00 -0.12155511809E+04  0.12155511809E+04  0.00000000000E+00 0. -1.
         23    2    1    2    0    0  0.35071520548E+03  0.40121300985E+03 -0.68154039340E+03  0.87015612253E+03  0.93280947259E+02 0.  0.
        254    2    1    2    0    0 -0.35071520548E+03 -0.40121300985E+03  0.18258347135E+03  0.10619893173E+04  0.90028415034E+03 0.  0.
         23    2    4    4    0    0 -0.89879169990E+02  0.23454070238E+03 -0.13523505848E+03  0.29934162458E+03  0.90715384009E+02 0.  0.
         23    2    4    4    0    0 -0.26083603549E+03 -0.63575371223E+03  0.31781852982E+03  0.76264769268E+03  0.91676961327E+02 0.  0.
          2    1    3    3  502    0  0.33570358554E+03  0.39416848504E+03 -0.67819874555E+03  0.85324042943E+03  0.00000000000E+00 0. -1.
         -2    1    3    3    0  502  0.15011619933E+02  0.70445248126E+01 -0.33416478464E+01  0.16915693104E+02  0.00000000000E+00 0.  1.
         11    1    5    5    0    0 -0.68195787382E+02  0.21532150667E+03 -0.84957787757E+02  0.24131274801E+03  0.00000000000E+00 0. -1.
        -11    1    5    5    0    0 -0.21683382609E+02  0.19219195704E+02 -0.50277270719E+02  0.58028876568E+02  0.00000000000E+00 0.  1.
          2    1    6    6  503    0 -0.72240501229E+02 -0.12244928665E+03  0.10092557217E+03  0.17435162442E+03  0.00000000000E+00 0.  1.
         -2    1    6    6    0  503 -0.18859553426E+03 -0.51330442558E+03  0.21689295765E+03  0.58829606827E+03  0.00000000000E+00 0. -1.
<mgrwt>
<rscale>  0 0.18666087E+04</rscale>
<asrwt>0</asrwt>
<pdfrwt beam="1">  1        2 0.18700787E+00 0.18666087E+04</pdfrwt>
<pdfrwt beam="2">  1       -2 0.11024527E+00 0.18666087E+04</pdfrwt>
<totfact> 0.11379301E+01</totfact>
</mgrwt>
</event>
<event>
12    2  0.3751044E-008  0.1379759E+04  0.7818608E-02  0.8968602E-01
          2   -1    0    0  501    0  0.00000000000E+00  0.00000000000E+00  0.19465094225E+04  0.19465094225E+04  0.00000000000E+00 0. -1.
         -2   -1    0    0    0  501 -0.00000000000E+00 -0.00000000000E+00 -0.24450615149E+03  0.24450615149E+03  0.00000000000E+00 0.  1.
         23    2    1    2    0    0  0.10504589557E+03  0.22976036123E+03  0.22183839793E+02  0.26907820771E+03  0.89924942850E+02 0.  0.
        254    2    1    2    0    0 -0.10504589557E+03 -0.22976036123E+03  0.16798194312E+04  0.19219373663E+04  0.89901360091E+03 0.  0.
         23    2    4    4    0    0  0.11084434844E+03 -0.48879141379E+03  0.60243448466E+03  0.78913792592E+03  0.92778456748E+02 0.  0.
         23    2    4    4    0    0 -0.21589024401E+03  0.25903105256E+03  0.10773849465E+04  0.11327994403E+04  0.93651296672E+02 0.  0.
          4    1    3    3  502    0  0.50335639320E+01  0.17416510606E+02 -0.23779922093E+02  0.29902446427E+02  0.00000000000E+00 0. -1.
         -4    1    3    3    0  502  0.10001233164E+03  0.21234385062E+03  0.45963761887E+02  0.23917576128E+03  0.00000000000E+00 0.  1.
         11    1    5    5    0    0  0.71262405918E+01 -0.23921188233E+02  0.56622348119E+01  0.25594285583E+02  0.00000000000E+00 0.  1.
        -11    1    5    5    0    0  0.10371810785E+03 -0.46487022555E+03  0.59677224985E+03  0.76354364033E+03  0.00000000000E+00 0. -1.
          1    1    6    6  503    0 -0.19485703062E+03  0.25195420759E+03  0.10516094385E+04  0.10987868748E+04  0.00000000000E+00 0. -1.
         -1    1    6    6    0  503 -0.21033213388E+02  0.70768449669E+01  0.25775508063E+02  0.34012565561E+02  0.00000000000E+00 0.  1.
<mgrwt>
<rscale>  0 0.13797587E+04</rscale>
<asrwt>0</asrwt>
<pdfrwt beam="1">  1        2 0.29946298E+00 0.13797587E+04</pdfrwt>
<pdfrwt beam="2">  1       -2 0.37616332E-01 0.13797587E+04</pdfrwt>
<totfact> 0.46517228E+01</totfact>
</mgrwt>
</event>
<event>
12    2  0.3751044E-008  0.1946655E+04  0.7818608E-02  0.8631976E-01
          2   -1    0    0  501    0  0.00000000000E+00  0.00000000000E+00  0.24528714858E+04  0.24528714858E+04  0.00000000000E+00 0.  1.
         -2   -1    0    0    0  501 -0.00000000000E+00 -0.00000000000E+00 -0.38622731665E+03  0.38622731665E+03  0.00000000000E+00 0. -1.
         23    2    1    2    0    0  0.75864001620E+03  0.29549170030E+02  0.86867442553E+03  0.11566176394E+04  0.82226993946E+02 0.  0.
        254    2    1    2    0    0 -0.75864001620E+03 -0.29549170030E+02  0.11979697436E+04  0.16824811631E+04  0.90509862990E+03 0.  0.
         23    2    4    4    0    0  0.14356035301E+03 -0.44881770816E+02 -0.48748932351E+01  0.17620907718E+03  0.91662020431E+02 0.  0.
         23    2    4    4    0    0 -0.90220036921E+03  0.15332600786E+02  0.12028446369E+04  0.15062720859E+04  0.88429528443E+02 0.  0.
          1    1    3    3  502    0  0.31910393869E+03  0.22521553895E+02  0.42620350001E+03  0.53290146134E+03  0.00000000000E+00 0. -1.
         -1    1    3    3    0  502  0.43953607752E+03  0.70276161346E+01  0.44247092551E+03  0.62371617804E+03  0.00000000000E+00 0.  1.
         11    1    5    5    0    0  0.11109322490E+03 -0.26548810181E+02 -0.43777859743E+02  0.12232352572E+03  0.00000000000E+00 0. -1.
        -11    1    5    5    0    0  0.32467128107E+02 -0.18332960636E+02  0.38902966508E+02  0.53885551461E+02  0.00000000000E+00 0.  1.
          2    1    6    6  503    0 -0.37415746874E+03 -0.31927783645E+02  0.46441695233E+03  0.59724057162E+03  0.00000000000E+00 0.  1.
         -2    1    6    6    0  503 -0.52804290047E+03  0.47260384432E+02  0.73842768454E+03  0.90903151429E+03  0.00000000000E+00 0. -1.
<mgrwt>
<rscale>  0 0.19466545E+04</rscale>
<asrwt>0</asrwt>
<pdfrwt beam="1">  1        2 0.37736483E+00 0.19466545E+04</pdfrwt>
<pdfrwt beam="2">  1       -2 0.59419589E-01 0.19466545E+04</pdfrwt>
<totfact> 0.91487185E+00</totfact>
</mgrwt>
</event>
<event>
12    2  0.3751044E-008  0.1555506E+04  0.7818608E-02  0.8848359E-01
         -2   -1    0    0    0  501 -0.00000000000E+00  0.00000000000E+00  0.24884362646E+03  0.24884362646E+03  0.00000000000E+00 0. -1.
          2   -1    0    0  501    0  0.00000000000E+00 -0.00000000000E+00 -0.24308418180E+04  0.24308418180E+04  0.00000000000E+00 0.  1.
         23    2    1    2    0    0 -0.41706803142E+03 -0.27968249352E+03 -0.55573414476E+03  0.75437446195E+03  0.89846252986E+02 0.  0.
        254    2    1    2    0    0  0.41706803142E+03  0.27968249352E+03 -0.16262640467E+04  0.19253109825E+04  0.89995532638E+03 0.  0.
         23    2    4    4    0    0  0.13587707406E+02 -0.27226574654E+03 -0.23199724247E+03  0.36970028688E+03  0.92424667049E+02 0.  0.
         23    2    4    4    0    0  0.40348032402E+03  0.55194824006E+03 -0.13942668043E+04  0.15556106956E+04  0.92203487725E+02 0.  0.
          1    1    3    3  502    0 -0.35759670644E+03 -0.22610197687E+03 -0.41602901383E+03  0.59336131383E+03  0.00000000000E+00 0. -1.
         -1    1    3    3    0  502 -0.59471324980E+02 -0.53580516655E+02 -0.13970513093E+03  0.16101314812E+03  0.00000000000E+00 0.  1.
         11    1    5    5    0    0  0.46692941941E+02 -0.13782195607E+03 -0.14900485573E+03  0.20827282452E+03  0.00000000000E+00 0.  1.
        -11    1    5    5    0    0 -0.33105234535E+02 -0.13444379047E+03 -0.82992386737E+02  0.16142746237E+03  0.00000000000E+00 0. -1.
          4    1    6    6  503    0  0.35036800925E+03  0.52266815619E+03 -0.12707655415E+04  0.14180214402E+04  0.00000000000E+00 0.  1.
         -4    1    6    6    0  503  0.53112314762E+02  0.29280083867E+02 -0.12350126272E+03  0.13758925534E+03  0.00000000000E+00 0. -1.
<mgrwt>
<rscale>  0 0.15555057E+04</rscale>
<asrwt>0</asrwt>
<pdfrwt beam="1">  1        2 0.37397565E+00 0.15555057E+04</pdfrwt>
<pdfrwt beam="2">  1       -2 0.38283636E-01 0.15555057E+04</pdfrwt>
<totfact> 0.23707829E+01</totfact>
</mgrwt>
</event>
<event>
12    2  0.3751044E-008  0.1941194E+04  0.7818608E-02  0.8634619E-01
         -2   -1    0    0    0  501 -0.00000000000E+00  0.00000000000E+00  0.17241651342E+04  0.17241651342E+04  0.00000000000E+00 0.  1.
          2   -1    0    0  501    0  0.00000000000E+00 -0.00000000000E+00 -0.54638557418E+03  0.54638557418E+03  0.00000000000E+00 0. -1.
         23    2    1    2    0    0 -0.73763321932E+03 -0.47899201899E+02  0.69147453123E+03  0.10189170193E+04  0.11686644120E+03 0.  0.
        254    2    1    2    0    0  0.73763321932E+03  0.47899201899E+02  0.48630502879E+03  0.12516336891E+04  0.88526674559E+03 0.  0.
         23    2    4    4    0    0 -0.14298569004E+03  0.15298250810E+03  0.22630437722E+03  0.32206958059E+03  0.93094512450E+02 0.  0.
         23    2    4    4    0    0  0.88061890937E+03 -0.10508330621E+03  0.26000065157E+03  0.92956410850E+03  0.99784408736E+02 0.  0.
          1    1    3    3  502    0 -0.77401518837E+02 -0.20435349865E+02  0.12554332082E+03  0.14889501014E+03  0.00000000000E+00 0. -1.
         -1    1    3    3    0  502 -0.66023170049E+03 -0.27463852033E+02  0.56593121040E+03  0.87002200915E+03  0.00000000000E+00 0.  1.
         11    1    5    5    0    0 -0.26835703124E+02  0.58183576964E+02  0.12697384885E+03  0.14222461771E+03  0.00000000000E+00 0. -1.
        -11    1    5    5    0    0 -0.11614998692E+03  0.94798931141E+02  0.99330528365E+02  0.17984496288E+03  0.00000000000E+00 0.  1.
          1    1    6    6  503    0  0.57015563533E+03 -0.36669345272E+02  0.12897720515E+03  0.58571085770E+03  0.00000000000E+00 0. -1.
         -1    1    6    6    0  503  0.31046327404E+03 -0.68413960934E+02  0.13102344642E+03  0.34385325080E+03  0.00000000000E+00 0.  1.
<mgrwt>
<rscale>  0 0.19411944E+04</rscale>
<asrwt>0</asrwt>
<pdfrwt beam="1">  1        2 0.84059320E-01 0.19411944E+04</pdfrwt>
<pdfrwt beam="2">  1       -2 0.26525617E+00 0.19411944E+04</pdfrwt>
<totfact> 0.26840481E+00</totfact>
</mgrwt>
</event>
<event>
12    2  0.3751044E-008  0.2027318E+04  0.7818608E-02  0.8593954E-01
         -1   -1    0    0    0  501 -0.00000000000E+00  0.00000000000E+00  0.73921302299E+03  0.73921302299E+03  0.00000000000E+00 0.  1.
          1   -1    0    0  501    0  0.00000000000E+00 -0.00000000000E+00 -0.13899972413E+04  0.13899972413E+04  0.00000000000E+00 0. -1.
         23    2    1    2    0    0  0.79023895266E+02 -0.77208596947E+03  0.75568388360E+01  0.78137577385E+03  0.90163595039E+02 0.  0.
        254    2    1    2    0    0 -0.79023895266E+02  0.77208596947E+03 -0.65834105716E+03  0.13478344905E+04  0.88367604123E+03 0.  0.
         23    2    4    4    0    0 -0.10430851792E+02  0.92396363170E+03 -0.36336786924E+03  0.99707011662E+03  0.91076965829E+02 0.  0.
         23    2    4    4    0    0 -0.68593043474E+02 -0.15187766223E+03 -0.29497318793E+03  0.35076437383E+03  0.90855018872E+02 0.  0.
          2    1    3    3  502    0 -0.86936321150E+01 -0.24099448460E+02 -0.11361586166E+02  0.28025850489E+02  0.00000000000E+00 0. -1.
         -2    1    3    3    0  502  0.87717527381E+02 -0.74798652101E+03  0.18918425002E+02  0.75334992336E+03  0.00000000000E+00 0.  1.
         11    1    5    5    0    0 -0.89168973024E+01  0.41341795001E+03 -0.11436847740E+03  0.42903853099E+03  0.00000000000E+00 0.  1.
        -11    1    5    5    0    0 -0.15139544901E+01  0.51054568168E+03 -0.24899939184E+03  0.56803158563E+03  0.00000000000E+00 0. -1.
          1    1    6    6  503    0 -0.11138686586E+02 -0.11334701147E+03 -0.13599633987E+03  0.17738833052E+03  0.00000000000E+00 0. -1.
         -1    1    6    6    0  503 -0.57454356888E+02 -0.38530650758E+02 -0.15897684806E+03  0.17337604331E+03  0.00000000000E+00 0.  1.
<mgrwt>
<rscale>  0 0.20273175E+04</rscale>
<asrwt>0</asrwt>
<pdfrwt beam="1">  1        1 0.21384573E+00 0.20273175E+04</pdfrwt>
<pdfrwt beam="2">  1       -1 0.11372508E+00 0.20273175E+04</pdfrwt>
<totfact> 0.50947903E+00</totfact>
</mgrwt>
</event>
<event>
12    2  0.3751044E-008  0.1375939E+04  0.7818608E-02  0.8971422E-01
         -1   -1    0    0    0  501 -0.00000000000E+00  0.00000000000E+00  0.40415541735E+03  0.40415541735E+03  0.00000000000E+00 0.  1.
          1   -1    0    0  501    0  0.00000000000E+00 -0.00000000000E+00 -0.11710886562E+04  0.11710886562E+04  0.00000000000E+00 0. -1.
         23    2    1    2    0    0 -0.33843744324E+03  0.10487365663E+03 -0.40826096383E+03  0.54969403073E+03  0.99740292710E+02 0.  0.
        254    2    1    2    0    0  0.33843744324E+03 -0.10487365663E+03 -0.35867227505E+03  0.10255500429E+04  0.89306702026E+03 0.  0.
         23    2    4    4    0    0  0.57172338581E+03 -0.13404186776E+03 -0.87331213552E+01  0.59458068040E+03  0.92817379346E+02 0.  0.
         23    2    4    4    0    0 -0.23328594257E+03  0.29168211133E+02 -0.34993915369E+03  0.43096936245E+03  0.89465437709E+02 0.  0.
          2    1    3    3  502    0 -0.31778088487E+03  0.10311000426E+03 -0.41000852818E+03  0.52888879450E+03  0.00000000000E+00 0. -1.
         -2    1    3    3    0  502 -0.20656558363E+02  0.17636523628E+01  0.17475643528E+01  0.20805236221E+02  0.00000000000E+00 0.  1.
         11    1    5    5    0    0  0.41202501696E+03 -0.12999431317E+03  0.18900912081E+02  0.43245853042E+03  0.00000000000E+00 0.  1.
        -11    1    5    5    0    0  0.15969836885E+03 -0.40475545914E+01 -0.27634033437E+02  0.16212214998E+03  0.00000000000E+00 0. -1.
          1    1    6    6  503    0 -0.58675647969E+02  0.27405033016E+02 -0.42686213157E+02  0.77562750679E+02  0.00000000000E+00 0. -1.
         -1    1    6    6    0  503 -0.17461029460E+03  0.17631781169E+01 -0.30725294054E+03  0.35340661177E+03  0.00000000000E+00 0.  1.
<mgrwt>
<rscale>  0 0.13759387E+04</rscale>
<asrwt>0</asrwt>
<pdfrwt beam="1">  1        1 0.18016749E+00 0.13759387E+04</pdfrwt>
<pdfrwt beam="2">  1       -1 0.62177756E-01 0.13759387E+04</pdfrwt>
<totfact> 0.28759749E+01</totfact>
</mgrwt>
</event>
<event>
12    2  0.3751044E-008  0.1784026E+04  0.7818608E-02  0.8714841E-01
         -2   -1    0    0    0  501 -0.00000000000E+00  0.00000000000E+00  0.59450491052E+03  0.59450491052E+03  0.00000000000E+00 0.  1.
          2   -1    0    0  501    0  0.00000000000E+00 -0.00000000000E+00 -0.13384031555E+04  0.13384031555E+04  0.00000000000E+00 0. -1.
         23    2    1    2    0    0  0.51622248922E+03  0.26716212249E+03  0.61450662546E+02  0.59150990055E+03  0.90810354370E+02 0.  0.
        254    2    1    2    0    0 -0.51622248922E+03 -0.26716212249E+03 -0.80534890756E+03  0.13413981655E+04  0.90161018041E+03 0.  0.
         23    2    4    4    0    0 -0.34901903851E+03 -0.55428328963E+03 -0.29101401969E+03  0.72251713598E+03  0.91091150582E+02 0.  0.
         23    2    4    4    0    0 -0.16720345070E+03  0.28712116714E+03 -0.51433488787E+03  0.61888102952E+03  0.89876544576E+02 0.  0.
          2    1    3    3  502    0  0.35751297358E+02  0.17430574488E+02 -0.18983556407E+02  0.44072163591E+02  0.00000000000E+00 0. -1.
         -2    1    3    3    0  502  0.48047119186E+03  0.24973154800E+03  0.80434218952E+02  0.54743773696E+03  0.00000000000E+00 0.  1.
         11    1    5    5    0    0 -0.17682047865E+03 -0.21557092161E+03 -0.15455982410E+03  0.31878683025E+03  0.00000000000E+00 0.  1.
        -11    1    5    5    0    0 -0.17219855986E+03 -0.33871236802E+03 -0.13645419559E+03  0.40373030573E+03  0.00000000000E+00 0. -1.
          2    1    6    6  503    0 -0.70864909463E+02  0.45851596095E+02 -0.12706342852E+03  0.15254284357E+03  0.00000000000E+00 0. -1.
         -2    1    6    6    0  503 -0.96338541241E+02  0.24126957105E+03 -0.38727145936E+03  0.46633818595E+03  0.00000000000E+00 0.  1.
<mgrwt>
<rscale>  0 0.17840261E+04</rscale>
<asrwt>0</asrwt>
<pdfrwt beam="1">  1        2 0.20590818E+00 0.17840261E+04</pdfrwt>
<pdfrwt beam="2">  1       -2 0.91462294E-01 0.17840261E+04</pdfrwt>
<totfact> 0.15114030E+01</totfact>
</mgrwt>
</event>
<event>
12    2  0.3751044E-008  0.1882442E+04  0.7818608E-02  0.8663646E-01
         -2   -1    0    0    0  501 -0.00000000000E+00  0.00000000000E+00  0.32584770711E+04  0.32584770711E+04  0.00000000000E+00 0.  1.
          2   -1    0    0  501    0  0.00000000000E+00 -0.00000000000E+00 -0.27187466592E+03  0.27187466592E+03  0.00000000000E+00 0. -1.
         23    2    1    2    0    0 -0.35018225022E+03  0.16572388317E+03  0.23048157310E+04  0.23388667510E+04  0.89610888202E+02 0.  0.
        254    2    1    2    0    0  0.35018225022E+03 -0.16572388317E+03  0.68178667419E+03  0.11914849860E+04  0.89705707120E+03 0.  0.
         23    2    4    4    0    0 -0.26363293807E+03  0.10742126578E+03  0.20897326097E+03  0.36518974181E+03  0.93016500403E+02 0.  0.
         23    2    4    4    0    0  0.61381518829E+03 -0.27314514894E+03  0.47281341323E+03  0.82629524421E+03  0.88509598961E+02 0.  0.
          3    1    3    3  502    0 -0.24689302214E+02  0.32948879267E+02  0.14924719647E+03  0.15482220753E+03  0.00000000000E+00 0. -1.
         -3    1    3    3    0  502 -0.32549294800E+03  0.13277500390E+03  0.21555685345E+04  0.21840445435E+04  0.00000000000E+00 0.  1.
         11    1    5    5    0    0 -0.25439246286E+03  0.94851257231E+02  0.21707396535E+03  0.34761097881E+03  0.00000000000E+00 0.  1.
        -11    1    5    5    0    0 -0.92404752140E+01  0.12570008545E+02 -0.81007043853E+01  0.17578762998E+02  0.00000000000E+00 0. -1.
          1    1    6    6  503    0  0.28516622088E+03 -0.17533246430E+03  0.23333353803E+03  0.40805120578E+03  0.00000000000E+00 0. -1.
         -1    1    6    6    0  503  0.32864896741E+03 -0.97812684641E+02  0.23947987520E+03  0.41824403843E+03  0.00000000000E+00 0.  1.
<mgrwt>
<rscale>  0 0.18824424E+04</rscale>
<asrwt>0</asrwt>
<pdfrwt beam="1">  1        2 0.41826874E-01 0.18824424E+04</pdfrwt>
<pdfrwt beam="2">  1       -2 0.50130414E+00 0.18824424E+04</pdfrwt>
<totfact> 0.18557261E-01</totfact>
</mgrwt>
</event>
<event>
12    2  0.3751044E-008  0.1479467E+04  0.7818608E-02  0.8898223E-01
          1   -1    0    0  501    0  0.00000000000E+00  0.00000000000E+00  0.39987872936E+04  0.39987872936E+04  0.00000000000E+00 0. -1.
         -1   -1    0    0    0  501 -0.00000000000E+00 -0.00000000000E+00 -0.13684283648E+03  0.13684283648E+03  0.00000000000E+00 0.  1.
         23    2    1    2    0    0  0.33443662323E+03  0.96694636374E+02  0.14432204179E+04  0.14874379491E+04  0.91590229459E+02 0.  0.
        254    2    1    2    0    0 -0.33443662323E+03 -0.96694636374E+02  0.24187240393E+04  0.26481921810E+04  0.10205381628E+04 0.  0.
         23    2    4    4    0    0 -0.54461976973E+03 -0.39445255278E+03  0.12783651390E+04  0.14475294429E+04  0.94448660395E+02 0.  0.
         23    2    4    4    0    0  0.21018314650E+03  0.29775791641E+03  0.11403589003E+04  0.12006627381E+04  0.91300917037E+02 0.  0.
          2    1    3    3  502    0  0.30130804004E+03  0.10777852180E+03  0.12092965141E+04  0.12509199829E+04  0.00000000000E+00 0. -1.
         -2    1    3    3    0  502  0.33128583193E+02 -0.11083885422E+02  0.23392390383E+03  0.23651796618E+03  0.00000000000E+00 0.  1.
         11    1    5    5    0    0 -0.52634709789E+03 -0.36862623102E+03  0.11725538822E+04  0.13370898146E+04  0.00000000000E+00 0. -1.
        -11    1    5    5    0    0 -0.18272671847E+02 -0.25826321762E+02  0.10581125676E+03  0.11043962825E+03  0.00000000000E+00 0.  1.
          3    1    6    6  503    0  0.19188514630E+03  0.20349335532E+03  0.84506975755E+03  0.89015299256E+03  0.00000000000E+00 0. -1.
         -3    1    6    6    0  503  0.18298000201E+02  0.94264561083E+02  0.29528914272E+03  0.31050974558E+03  0.00000000000E+00 0.  1.
<mgrwt>
<rscale>  0 0.14794667E+04</rscale>
<asrwt>0</asrwt>
<pdfrwt beam="1">  1        1 0.61519795E+00 0.14794667E+04</pdfrwt>
<pdfrwt beam="2">  1       -1 0.21052747E-01 0.14794667E+04</pdfrwt>
<totfact> 0.17846568E+00</totfact>
</mgrwt>
</event>
<event>
12    2  0.3751044E-008  0.4193005E+04  0.7818608E-02  0.7966704E-01
         -2   -1    0    0    0  501 -0.00000000000E+00  0.00000000000E+00  0.15249246046E+04  0.15249246046E+04  0.00000000000E+00 0.  1.
          2   -1    0    0  501    0  0.00000000000E+00 -0.00000000000E+00 -0.28823217277E+04  0.28823217277E+04  0.00000000000E+00 0. -1.
         23    2    1    2    0    0 -0.51963493320E+03 -0.49305837709E+03 -0.26114589686E+04  0.27094755268E+04  0.91720546323E+02 0.  0.
        254    2    1    2    0    0  0.51963493320E+03  0.49305837709E+03  0.12540618455E+04  0.16977708055E+04  0.89253995366E+03 0.  0.
         23    2    4    4    0    0  0.53600007033E+03  0.71731260066E+03  0.97125959600E+03  0.13241294370E+04  0.90222616399E+02 0.  0.
         23    2    4    4    0    0 -0.16365137129E+02 -0.22425422357E+03  0.28280224945E+03  0.37364136859E+03  0.95252220552E+02 0.  0.
          1    1    3    3  502    0 -0.39891963640E+03 -0.33020033383E+03 -0.17929425575E+04  0.18662293941E+04  0.00000000000E+00 0. -1.
         -1    1    3    3    0  502 -0.12071529680E+03 -0.16285804326E+03 -0.81851641103E+03  0.84324613267E+03  0.00000000000E+00 0.  1.
         11    1    5    5    0    0  0.12159659881E+03  0.15000588998E+03  0.15851266176E+03  0.24982746808E+03  0.00000000000E+00 0. -1.
        -11    1    5    5    0    0  0.41440347152E+03  0.56730671069E+03  0.81274693424E+03  0.10743019689E+04  0.00000000000E+00 0.  1.
          2    1    6    6  503    0 -0.51332748047E+02 -0.11420792572E+03  0.17850861529E+03  0.21804547015E+03  0.00000000000E+00 0. -1.
         -2    1    6    6    0  503  0.34967610917E+02 -0.11004629785E+03  0.10429363416E+03  0.15559589844E+03  0.00000000000E+00 0.  1.
<mgrwt>
<rscale>  0 0.41930053E+04</rscale>
<asrwt>0</asrwt>
<pdfrwt beam="1">  1        2 0.44343411E+00 0.41930053E+04</pdfrwt>
<pdfrwt beam="2">  1       -2 0.23460379E+00 0.41930053E+04</pdfrwt>
<totfact> 0.12798592E-01</totfact>
</mgrwt>
</event>
<event>
12    2  0.3751044E-008  0.3390318E+04  0.7818608E-02  0.8140287E-01
         -2   -1    0    0    0  501 -0.00000000000E+00  0.00000000000E+00  0.20449479711E+04  0.20449479711E+04  0.00000000000E+00 0.  1.
          2   -1    0    0  501    0  0.00000000000E+00 -0.00000000000E+00 -0.14052018896E+04  0.14052018896E+04  0.00000000000E+00 0. -1.
         23    2    1    2    0    0  0.92901264886E+03 -0.32402100465E+03 -0.95501959958E+03  0.13743009957E+04  0.92664329738E+02 0.  0.
        254    2    1    2    0    0 -0.92901264886E+03  0.32402100465E+03  0.15947656810E+04  0.20758488650E+04  0.89320592229E+03 0.  0.
         23    2    4    4    0    0 -0.10315811765E+04  0.44424112846E+03  0.12312268266E+04  0.16689918718E+04  0.90024806501E+02 0.  0.
         23    2    4    4    0    0  0.10256852763E+03 -0.12022012381E+03  0.36353885442E+03  0.40685699314E+03  0.91645693649E+02 0.  0.
          2    1    3    3  502    0  0.78941135193E+03 -0.30926414661E+03 -0.81485199480E+03  0.11759244739E+04  0.00000000000E+00 0. -1.
         -2    1    3    3    0  502  0.13960129693E+03 -0.14756858036E+02 -0.14016760479E+03  0.19837652178E+03  0.00000000000E+00 0.  1.
         11    1    5    5    0    0 -0.92105616213E+03  0.36630225302E+03  0.10704676581E+04  0.14589115125E+04  0.00000000000E+00 0. -1.
        -11    1    5    5    0    0 -0.11052501435E+03  0.77938875441E+02  0.16075916851E+03  0.21008035930E+03  0.00000000000E+00 0.  1.
          3    1    6    6  503    0  0.11991939448E+03 -0.10530776182E+03  0.32407519328E+03  0.36124107846E+03  0.00000000000E+00 0. -1.
         -3    1    6    6    0  503 -0.17350866856E+02 -0.14912361995E+02  0.39463661138E+02  0.45615914671E+02  0.00000000000E+00 0.  1.
<mgrwt>
<rscale>  0 0.33903184E+04</rscale>
<asrwt>0</asrwt>
<pdfrwt beam="1">  1        2 0.21618491E+00 0.33903184E+04</pdfrwt>
<pdfrwt beam="2">  1       -2 0.31460738E+00 0.33903184E+04</pdfrwt>
<totfact> 0.30796516E-01</totfact>
</mgrwt>
</event>
<event>
12    2  0.3751044E-008  0.1460513E+04  0.7818608E-02  0.8911145E-01
          2   -1    0    0  501    0  0.00000000000E+00  0.00000000000E+00  0.15596268302E+04  0.15596268302E+04  0.00000000000E+00 0.  1.
         -2   -1    0    0    0  501 -0.00000000000E+00 -0.00000000000E+00 -0.34192426472E+03  0.34192426472E+03  0.00000000000E+00 0. -1.
         23    2    1    2    0    0 -0.18199029919E+03  0.21022235988E+03  0.83380178195E+03  0.88379331695E+03  0.92473271281E+02 0.  0.
        254    2    1    2    0    0  0.18199029919E+03 -0.21022235988E+03  0.38390078357E+03  0.10177577780E+04  0.90063154147E+03 0.  0.
         23    2    4    4    0    0  0.40805312472E+03 -0.25003563923E+03  0.53864429889E+03  0.72644943933E+03  0.92552329541E+02 0.  0.
         23    2    4    4    0    0 -0.22606282553E+03  0.39813279341E+02 -0.15474351532E+03  0.29130833869E+03  0.90694511184E+02 0.  0.
          4    1    3    3  502    0 -0.88390207440E+02  0.49720092076E+02  0.38308965013E+03  0.39628600324E+03  0.00000000000E+00 0. -1.
         -4    1    3    3    0  502 -0.93600091749E+02  0.16050226781E+03  0.45071213182E+03  0.48750731371E+03  0.00000000000E+00 0.  1.
         11    1    5    5    0    0  0.69589227909E+02 -0.80075442199E+01  0.97219651828E+02  0.11982671700E+03  0.00000000000E+00 0.  1.
        -11    1    5    5    0    0  0.33846389681E+03 -0.24202809501E+03  0.44142464706E+03  0.60662272233E+03  0.00000000000E+00 0. -1.
          4    1    6    6  503    0 -0.11348465340E+03  0.64188338358E+02 -0.67538526441E+02  0.14683447106E+03  0.00000000000E+00 0. -1.
         -4    1    6    6    0  503 -0.11257817213E+03 -0.24375059017E+02 -0.87204988876E+02  0.14447386763E+03  0.00000000000E+00 0.  1.
<mgrwt>
<rscale>  0 0.14605126E+04</rscale>
<asrwt>0</asrwt>
<pdfrwt beam="1">  1        2 0.23994259E+00 0.14605126E+04</pdfrwt>
<pdfrwt beam="2">  1       -2 0.52603734E-01 0.14605126E+04</pdfrwt>
<totfact> 0.38811773E+01</totfact>
</mgrwt>
</event>
<event>
12    2  0.3751044E-008  0.1611102E+04  0.7818608E-02  0.8813756E-01
         -2   -1    0    0    0  501 -0.00000000000E+00  0.00000000000E+00  0.74450077137E+03  0.74450077137E+03  0.00000000000E+00 0.  1.
          2   -1    0    0  501    0  0.00000000000E+00 -0.00000000000E+00 -0.87160770248E+03  0.87160770248E+03  0.00000000000E+00 0. -1.
         23    2    1    2    0    0  0.50800478913E+02 -0.20917195623E+03 -0.54562136152E+03  0.59334857182E+03  0.89589405634E+02 0.  0.
        254    2    1    2    0    0 -0.50800478913E+02  0.20917195623E+03  0.41851443042E+03  0.10227599020E+04  0.90804729657E+03 0.  0.
         23    2    4    4    0    0 -0.35207069119E+03  0.91840496389E+02  0.54727885567E+03  0.66313018596E+03  0.88538405747E+02 0.  0.
         23    2    4    4    0    0  0.30127021228E+03  0.11733145984E+03 -0.12876442526E+03  0.35962971607E+03  0.90679894092E+02 0.  0.
          2    1    3    3  502    0  0.11820815372E+02 -0.48948492941E+02 -0.24836833224E+03  0.25342161529E+03  0.00000000000E+00 0. -1.
         -2    1    3    3    0  502  0.38979663541E+02 -0.16022346329E+03 -0.29725302928E+03  0.33992695653E+03  0.00000000000E+00 0.  1.
         11    1    5    5    0    0 -0.24977193066E+03  0.23718657490E+02  0.34838105846E+03  0.42932266880E+03  0.00000000000E+00 0.  1.
        -11    1    5    5    0    0 -0.10229876054E+03  0.68121838899E+02  0.19889779722E+03  0.23380751716E+03  0.00000000000E+00 0. -1.
          1    1    6    6  503    0  0.24375128379E+03  0.11255455963E+03 -0.13685050531E+03  0.30134909664E+03  0.00000000000E+00 0. -1.
         -1    1    6    6    0  503  0.57518928490E+02  0.47769002080E+01  0.80860800519E+01  0.58280619428E+02  0.00000000000E+00 0.  1.
<mgrwt>
<rscale>  0 0.16111022E+04</rscale>
<asrwt>0</asrwt>
<pdfrwt beam="1">  1        2 0.13409349E+00 0.16111022E+04</pdfrwt>
<pdfrwt beam="2">  1       -2 0.11453858E+00 0.16111022E+04</pdfrwt>
<totfact> 0.17494124E+01</totfact>
</mgrwt>
</event>
<event>
12    2  0.3751044E-008  0.1283578E+04  0.7818608E-02  0.9042691E-01
         -2   -1    0    0    0  501 -0.00000000000E+00  0.00000000000E+00  0.21935400071E+03  0.21935400071E+03  0.00000000000E+00 0. -1.
          2   -1    0    0  501    0  0.00000000000E+00 -0.00000000000E+00 -0.18777538450E+04  0.18777538450E+04  0.00000000000E+00 0.  1.
         23    2    1    2    0    0 -0.74736718340E+02  0.14436116518E+02  0.73189235816E+02  0.13337570056E+03  0.81476590089E+02 0.  0.
        254    2    1    2    0    0  0.74736718340E+02 -0.14436116518E+02 -0.17315890801E+04  0.19637321451E+04  0.92306512065E+03 0.  0.
         23    2    4    4    0    0 -0.16816457025E+03 -0.33049009863E+03 -0.33504883048E+03  0.50844979591E+03  0.93597265828E+02 0.  0.
         23    2    4    4    0    0  0.24290128859E+03  0.31605398211E+03 -0.13965402496E+04  0.14552823492E+04  0.92902591721E+02 0.  0.
          2    1    3    3  502    0 -0.33716718462E+02  0.56331057095E+01 -0.13747810248E+02  0.36844962619E+02  0.00000000000E+00 0.  1.
         -2    1    3    3    0  502 -0.41019999878E+02  0.88030108090E+01  0.86937046064E+02  0.96530737942E+02  0.00000000000E+00 0. -1.
         11    1    5    5    0    0  0.26070532756E+01 -0.40483821217E+02 -0.12905067997E+02  0.42570850204E+02  0.00000000000E+00 0. -1.
        -11    1    5    5    0    0 -0.17077162353E+03 -0.29000627741E+03 -0.32214376248E+03  0.46587894570E+03  0.00000000000E+00 0.  1.
          1    1    6    6  503    0 -0.61323599647E+01  0.27296201143E+02 -0.93482099010E+02  0.97578641469E+02  0.00000000000E+00 0. -1.
         -1    1    6    6    0  503  0.24903364856E+03  0.28875778097E+03 -0.13030581506E+04  0.13577037077E+04  0.00000000000E+00 0.  1.
<mgrwt>
<rscale>  0 0.12835775E+04</rscale>
<asrwt>0</asrwt>
<pdfrwt beam="1">  1        2 0.28888521E+00 0.12835775E+04</pdfrwt>
<pdfrwt beam="2">  1       -2 0.33746769E-01 0.12835775E+04</pdfrwt>
<totfact> 0.62989008E+01</totfact>
</mgrwt>
</event>
<event>
12    2  0.3751044E-008  0.1311266E+04  0.7818608E-02  0.9020678E-01
         -2   -1    0    0    0  501 -0.00000000000E+00  0.00000000000E+00  0.36086841288E+03  0.36086841288E+03  0.00000000000E+00 0.  1.
          2   -1    0    0  501    0  0.00000000000E+00 -0.00000000000E+00 -0.11911676130E+04  0.11911676130E+04  0.00000000000E+00 0. -1.
         23    2    1    2    0    0  0.10768424061E+03 -0.12031709207E+03  0.13104580350E+03  0.22766249155E+03  0.92655863956E+02 0.  0.
        254    2    1    2    0    0 -0.10768424061E+03  0.12031709207E+03 -0.96134500361E+03  0.13243735343E+04  0.89649815621E+03 0.  0.
         23    2    4    4    0    0  0.15789563048E+03 -0.40234592007E+02  0.10228835148E+03  0.21280946539E+03  0.90967627174E+02 0.  0.
         23    2    4    4    0    0 -0.26557987109E+03  0.16055168408E+03 -0.10636333551E+04  0.11115640689E+04  0.89158589346E+02 0.  0.
          4    1    3    3  502    0  0.26068866981E+01  0.94364420921E+01  0.32148418218E+02  0.33605997851E+02  0.00000000000E+00 0. -1.
         -4    1    3    3    0  502  0.10507735391E+03 -0.12975353416E+03  0.98897385286E+02  0.19405649370E+03  0.00000000000E+00 0.  1.
         11    1    5    5    0    0  0.10124738340E+03 -0.66970802010E+02  0.83763294671E+02  0.14748698417E+03  0.00000000000E+00 0.  1.
        -11    1    5    5    0    0  0.56648247082E+02  0.26736210003E+02  0.18525056811E+02  0.65322481219E+02  0.00000000000E+00 0. -1.
          1    1    6    6  503    0 -0.60082889956E+02  0.68031593269E+00 -0.15092015738E+03  0.16244171385E+03  0.00000000000E+00 0. -1.
         -1    1    6    6    0  503 -0.20549698113E+03  0.15987136815E+03 -0.91271319771E+03  0.94912235506E+03  0.00000000000E+00 0.  1.
<mgrwt>
<rscale>  0 0.13112662E+04</rscale>
<asrwt>0</asrwt>
<pdfrwt beam="1">  1        2 0.18325655E+00 0.13112662E+04</pdfrwt>
<pdfrwt beam="2">  1       -2 0.55518219E-01 0.13112662E+04</pdfrwt>
<totfact> 0.57246505E+01</totfact>
</mgrwt>
</event>
<event>
12    2  0.3751044E-008  0.1374442E+04  0.7818608E-02  0.8972529E-01
          3   -1    0    0  501    0  0.00000000000E+00  0.00000000000E+00  0.50237195089E+03  0.50237195089E+03  0.00000000000E+00 0. -1.
         -3   -1    0    0    0  501 -0.00000000000E+00 -0.00000000000E+00 -0.94008621955E+03  0.94008621955E+03  0.00000000000E+00 0.  1.
         23    2    1    2    0    0  0.99208927255E+02 -0.29694602648E+03  0.10877000609E+03  0.34428077373E+03  0.93161059719E+02 0.  0.
        254    2    1    2    0    0 -0.99208927255E+02  0.29694602648E+03 -0.54648427475E+03  0.10981773967E+04  0.89962724403E+03 0.  0.
         23    2    4    4    0    0 -0.16699903816E+03 -0.21870198759E+03  0.56923242786E+02  0.29698234597E+03  0.96119821707E+02 0.  0.
         23    2    4    4    0    0  0.67790110907E+02  0.51564801406E+03 -0.60340751753E+03  0.80119505074E+03  0.85583313634E+02 0.  0.
          4    1    3    3  502    0  0.10969300862E+03 -0.29582704455E+03  0.10135020712E+03  0.33138808203E+03  0.00000000000E+00 0. -1.
         -4    1    3    3    0  502 -0.10484081362E+02 -0.11189819262E+01  0.74197989709E+01  0.12892691702E+02  0.00000000000E+00 0.  1.
         11    1    5    5    0    0 -0.15094012720E+02 -0.55835114968E+02 -0.20244552654E+02  0.61279941218E+02  0.00000000000E+00 0. -1.
        -11    1    5    5    0    0 -0.15190502544E+03 -0.16286687262E+03  0.77167795440E+02  0.23570240475E+03  0.00000000000E+00 0.  1.
          4    1    6    6  503    0  0.42501888263E+02  0.48687440150E+03 -0.55673331514E+03  0.74081379410E+03  0.00000000000E+00 0.  1.
         -4    1    6    6    0  503  0.25288222645E+02  0.28773612560E+02 -0.46674202396E+02  0.60381256641E+02  0.00000000000E+00 0. -1.
<mgrwt>
<rscale>  0 0.13744424E+04</rscale>
<asrwt>0</asrwt>
<pdfrwt beam="1">  1        3 0.77287994E-01 0.13744424E+04</pdfrwt>
<pdfrwt beam="2">  1       -3 0.14462865E+00 0.13744424E+04</pdfrwt>
<totfact> 0.14221927E+00</totfact>
</mgrwt>
</event>
<event>
12    2  0.3751044E-008  0.1556355E+04  0.7818608E-02  0.8847819E-01
         -2   -1    0    0    0  501 -0.00000000000E+00  0.00000000000E+00  0.30233638583E+03  0.30233638583E+03  0.00000000000E+00 0. -1.
          2   -1    0    0  501    0  0.00000000000E+00 -0.00000000000E+00 -0.20029360890E+04  0.20029360890E+04  0.00000000000E+00 0.  1.
         23    2    1    2    0    0  0.13260842025E+03 -0.45645126706E+02 -0.13067071661E+04  0.13173730374E+04  0.91212011147E+02 0.  0.
        254    2    1    2    0    0 -0.13260842025E+03  0.45645126706E+02 -0.39389253715E+03  0.98789943752E+03  0.89505614189E+03 0.  0.
         23    2    4    4    0    0  0.81506638712E+02 -0.37081515286E+03 -0.31992599987E+03  0.50499277122E+03  0.92292165659E+02 0.  0.
         23    2    4    4    0    0 -0.21411505896E+03  0.41646027957E+03 -0.73966537273E+02  0.48290666631E+03  0.91887849024E+02 0.  0.
          2    1    3    3  502    0 -0.46318709085E+01 -0.25145288733E+02 -0.12821017127E+03  0.13073479946E+03  0.00000000000E+00 0. -1.
         -2    1    3    3    0  502  0.13724029115E+03 -0.20499837973E+02 -0.11784969948E+04  0.11866382379E+04  0.00000000000E+00 0.  1.
         11    1    5    5    0    0  0.27714379862E+02 -0.36234748202E+02 -0.71488970246E+02  0.84803989854E+02  0.00000000000E+00 0. -1.
        -11    1    5    5    0    0  0.53792258850E+02 -0.33458040466E+03 -0.24843702963E+03  0.42018878136E+03  0.00000000000E+00 0.  1.
          4    1    6    6  503    0 -0.15769137444E+03  0.21881291865E+03 -0.20323906938E+02  0.27047869441E+03  0.00000000000E+00 0. -1.
         -4    1    6    6    0  503 -0.56423684521E+02  0.19764736092E+03 -0.53642630334E+02  0.21242797189E+03  0.00000000000E+00 0.  1.
<mgrwt>
<rscale>  0 0.15563553E+04</rscale>
<asrwt>0</asrwt>
<pdfrwt beam="1">  1        2 0.30814402E+00 0.15563553E+04</pdfrwt>
<pdfrwt beam="2">  1       -2 0.46513289E-01 0.15563553E+04</pdfrwt>
<totfact> 0.28070787E+01</totfact>
</mgrwt>
</event>
<event>
12    2  0.3751044E-008  0.2495864E+04  0.7818608E-02  0.8404461E-01
         -1   -1    0    0    0  501 -0.00000000000E+00  0.00000000000E+00  0.51962524834E+03  0.51962524834E+03  0.00000000000E+00 0.  1.
          1   -1    0    0  501    0  0.00000000000E+00 -0.00000000000E+00 -0.29970326375E+04  0.29970326375E+04  0.00000000000E+00 0. -1.
         23    2    1    2    0    0  0.16892491016E+03 -0.10879966258E+03 -0.24956193626E+04  0.25051960605E+04  0.86708171002E+02 0.  0.
        254    2    1    2    0    0 -0.16892491016E+03  0.10879966258E+03  0.18211973409E+02  0.10114618253E+04  0.99113589192E+03 0.  0.
         23    2    4    4    0    0 -0.18491763053E+03  0.21753137992E+03 -0.43943153283E+03  0.53193543996E+03  0.91328029152E+02 0.  0.
         23    2    4    4    0    0  0.15992720364E+02 -0.10873171734E+03  0.45764350624E+03  0.47952638536E+03  0.91812972930E+02 0.  0.
          1    1    3    3  502    0  0.13804827336E+03 -0.41652332653E+02 -0.15498048793E+04  0.15564984441E+04  0.00000000000E+00 0. -1.
         -1    1    3    3    0  502  0.30876636808E+02 -0.67147329931E+02 -0.94581448327E+03  0.94869761641E+03  0.00000000000E+00 0.  1.
         11    1    5    5    0    0 -0.65943944218E+02  0.11761285021E+03 -0.27160906582E+03  0.30323731787E+03  0.00000000000E+00 0.  1.
        -11    1    5    5    0    0 -0.11897368631E+03  0.99918529717E+02 -0.16782246701E+03  0.22869812209E+03  0.00000000000E+00 0. -1.
          4    1    6    6  503    0  0.38727952842E+02 -0.98596606370E+02  0.42752502315E+03  0.44045293794E+03  0.00000000000E+00 0. -1.
         -4    1    6    6    0  503 -0.22735232479E+02 -0.10135110969E+02  0.30118483089E+02  0.39073447427E+02  0.00000000000E+00 0.  1.
<mgrwt>
<rscale>  0 0.24958636E+04</rscale>
<asrwt>0</asrwt>
<pdfrwt beam="1">  1        1 0.46108193E+00 0.24958636E+04</pdfrwt>
<pdfrwt beam="2">  1       -1 0.79942348E-01 0.24958636E+04</pdfrwt>
<totfact> 0.83407564E-01</totfact>
</mgrwt>
</event>
<event>
12    2  0.3751044E-008  0.1953849E+04  0.7818608E-02  0.8628507E-01
          2   -1    0    0  501    0  0.00000000000E+00  0.00000000000E+00  0.72686780825E+03  0.72686780825E+03  0.00000000000E+00 0. -1.
         -2   -1    0    0    0  501 -0.00000000000E+00 -0.00000000000E+00 -0.13130049746E+04  0.13130049746E+04  0.00000000000E+00 0.  1.
         23    2    1    2    0    0 -0.61515614156E+03  0.24284461259E+03  0.17269967853E+03  0.68968300990E+03  0.91906968281E+02 0.  0.
        254    2    1    2    0    0  0.61515614156E+03 -0.24284461259E+03 -0.75883684485E+03  0.13501897729E+04  0.89988248200E+03 0.  0.
         23    2    4    4    0    0  0.40192941235E+03  0.22635291476E+03 -0.55778284844E+02  0.47360743932E+03  0.91705479595E+02 0.  0.
         23    2    4    4    0    0  0.21322672921E+03 -0.46919752735E+03 -0.70305856001E+03  0.87658233359E+03  0.92159052949E+02 0.  0.
          3    1    3    3  502    0 -0.29966506423E+03  0.16566057839E+03  0.75177755008E+02  0.35056279437E+03  0.00000000000E+00 0. -1.
         -3    1    3    3    0  502 -0.31549107733E+03  0.77184034198E+02  0.97521923523E+02  0.33912021553E+03  0.00000000000E+00 0.  1.
         11    1    5    5    0    0  0.10500797873E+03  0.10804078717E+03 -0.20053641806E+02  0.15199222296E+03  0.00000000000E+00 0.  1.
        -11    1    5    5    0    0  0.29692143362E+03  0.11831212759E+03 -0.35724643038E+02  0.32161521637E+03  0.00000000000E+00 0. -1.
          2    1    6    6  503    0  0.41732284471E+02 -0.10865431213E+03 -0.22832993117E+03  0.25628480364E+03  0.00000000000E+00 0. -1.
         -2    1    6    6    0  503  0.17149444474E+03 -0.36054321522E+03 -0.47472862884E+03  0.62029752995E+03  0.00000000000E+00 0.  1.
<mgrwt>
<rscale>  0 0.19538486E+04</rscale>
<asrwt>0</asrwt>
<pdfrwt beam="1">  1        2 0.11182582E+00 0.19538486E+04</pdfrwt>
<pdfrwt beam="2">  1       -2 0.20200076E+00 0.19538486E+04</pdfrwt>
<totfact> 0.46960847E+00</totfact>
</mgrwt>
</event>
<event>
12    2  0.3751044E-008  0.2453713E+04  0.7818608E-02  0.8419664E-01
          1   -1    0    0  501    0  0.00000000000E+00  0.00000000000E+00  0.18513358718E+04  0.18513358718E+04  0.00000000000E+00 0. -1.
         -1   -1    0    0    0  501 -0.00000000000E+00 -0.00000000000E+00 -0.81302210690E+03  0.81302210690E+03  0.00000000000E+00 0.  1.
         23    2    1    2    0    0 -0.42090719586E+03  0.14995037626E+03 -0.59245229434E+03  0.74743819259E+03  0.89532942531E+02 0.  0.
        254    2    1    2    0    0  0.42090719586E+03 -0.14995037626E+03  0.16307660592E+04  0.19169197861E+04  0.90307006567E+03 0.  0.
         23    2    4    4    0    0  0.40948897177E+03 -0.35246794939E+03  0.16009572275E+04  0.16921635745E+04  0.91862098443E+02 0.  0.
         23    2    4    4    0    0  0.11418224085E+02  0.20251757313E+03  0.29808831673E+02  0.22475621157E+03  0.92103446871E+02 0.  0.
          1    1    3    3  502    0 -0.73731245000E+02  0.61385978197E+02 -0.15073499106E+03  0.17867728546E+03  0.00000000000E+00 0. -1.
         -1    1    3    3    0  502 -0.34717595086E+03  0.88564398068E+02 -0.44171730328E+03  0.56876090713E+03  0.00000000000E+00 0.  1.
         11    1    5    5    0    0  0.25046913402E+03 -0.27106740241E+03  0.10508145471E+04  0.11137430297E+04  0.00000000000E+00 0. -1.
        -11    1    5    5    0    0  0.15901983775E+03 -0.81400546982E+02  0.55014268043E+03  0.57842054483E+03  0.00000000000E+00 0.  1.
          1    1    6    6  503    0  0.35158471113E+01  0.19553829282E+03  0.26120469481E+01  0.19558734092E+03  0.00000000000E+00 0. -1.
         -1    1    6    6    0  503  0.79023769737E+01  0.69792803113E+01  0.27196784725E+02  0.29168870648E+02  0.00000000000E+00 0.  1.
<mgrwt>
<rscale>  0 0.24537131E+04</rscale>
<asrwt>0</asrwt>
<pdfrwt beam="1">  1        1 0.28482090E+00 0.24537131E+04</pdfrwt>
<pdfrwt beam="2">  1       -1 0.12508032E+00 0.24537131E+04</pdfrwt>
<totfact> 0.18734448E+00</totfact>
</mgrwt>
</event>
<event>
12    2  0.3751044E-008  0.1753224E+04  0.7818608E-02  0.8731578E-01
          2   -1    0    0  501    0  0.00000000000E+00  0.00000000000E+00  0.96917227974E+03  0.96917227974E+03  0.00000000000E+00 0. -1.
         -2   -1    0    0    0  501 -0.00000000000E+00 -0.00000000000E+00 -0.79289130197E+03  0.79289130197E+03  0.00000000000E+00 0.  1.
         23    2    1    2    0    0 -0.57255460650E+03 -0.15085949175E+02  0.35573451213E+03  0.68065112125E+03  0.93233805344E+02 0.  0.
        254    2    1    2    0    0  0.57255460650E+03  0.15085949175E+02 -0.17945353437E+03  0.10814124605E+04  0.89955709954E+03 0.  0.
         23    2    4    4    0    0  0.72738808417E+03 -0.16720311660E+03  0.26960166822E+02  0.75224505098E+03  0.89974768302E+02 0.  0.
         23    2    4    4    0    0 -0.15483347767E+03  0.18228906578E+03 -0.20641370119E+03  0.32916740948E+03  0.92422173268E+02 0.  0.
          3    1    3    3  502    0 -0.24697869780E+03  0.25311219806E+02  0.11432315193E+03  0.27332932166E+03  0.00000000000E+00 0. -1.
         -3    1    3    3    0  502 -0.32557590870E+03 -0.40397168981E+02  0.24141136020E+03  0.40732179959E+03  0.00000000000E+00 0.  1.
         11    1    5    5    0    0  0.66111290254E+03 -0.17440818405E+03  0.11585422212E+02  0.68382944261E+03  0.00000000000E+00 0. -1.
        -11    1    5    5    0    0  0.66275181629E+02  0.72050674444E+01  0.15374744610E+02  0.68415608370E+02  0.00000000000E+00 0.  1.
          3    1    6    6  503    0 -0.10415752893E+03  0.11885503493E+03 -0.75556123184E+02  0.17516859853E+03  0.00000000000E+00 0. -1.
         -3    1    6    6    0  503 -0.50675948739E+02  0.63434030853E+02 -0.13085757801E+03  0.15399881095E+03  0.00000000000E+00 0.  1.
<mgrwt>
<rscale>  0 0.17532236E+04</rscale>
<asrwt>0</asrwt>
<pdfrwt beam="1">  1        2 0.14910343E+00 0.17532236E+04</pdfrwt>
<pdfrwt beam="2">  1       -2 0.12198328E+00 0.17532236E+04</pdfrwt>
<totfact> 0.12739873E+01</totfact>
</mgrwt>
</event>
<event>
12    2  0.3751044E-008  0.1467652E+04  0.7818608E-02  0.8906254E-01
          2   -1    0    0  501    0  0.00000000000E+00  0.00000000000E+00  0.28954913392E+04  0.28954913392E+04  0.00000000000E+00 0. -1.
         -2   -1    0    0    0  501 -0.00000000000E+00 -0.00000000000E+00 -0.18597889290E+03  0.18597889290E+03  0.00000000000E+00 0.  1.
         23    2    1    2    0    0  0.72332752119E+02  0.30009534733E+03  0.15456182107E+03  0.35608638717E+03  0.87286391112E+02 0.  0.
        254    2    1    2    0    0 -0.72332752119E+02 -0.30009534733E+03  0.25549506253E+04  0.27253838450E+04  0.89702573000E+03 0.  0.
         23    2    4    4    0    0 -0.32947489472E+03 -0.31250117499E+03  0.63399327515E+03  0.78514281471E+03  0.91055345438E+02 0.  0.
         23    2    4    4    0    0  0.25714214260E+03  0.12405827654E+02  0.19209573501E+04  0.19402410302E+04  0.90455118275E+02 0.  0.
          1    1    3    3  502    0 -0.12602291896E+02  0.79615295161E+01  0.13656403286E+00  0.14907124572E+02  0.00000000000E+00 0. -1.
         -1    1    3    3    0  502  0.84935044015E+02  0.29213381782E+03  0.15442525703E+03  0.34117926259E+03  0.00000000000E+00 0.  1.
         11    1    5    5    0    0 -0.23273903030E+03 -0.26001982539E+03  0.43429661615E+03  0.55712773815E+03  0.00000000000E+00 0. -1.
        -11    1    5    5    0    0 -0.96735864423E+02 -0.52481349601E+02  0.19969665900E+03  0.22801507656E+03  0.00000000000E+00 0.  1.
          4    1    6    6  503    0  0.21083990743E+03 -0.25353725777E+02  0.15563116037E+04  0.15707329772E+04  0.00000000000E+00 0. -1.
         -4    1    6    6    0  503  0.46302235171E+02  0.37759553431E+02  0.36464574641E+03  0.36950805300E+03  0.00000000000E+00 0.  1.
<mgrwt>
<rscale>  0 0.14676516E+04</rscale>
<asrwt>0</asrwt>
<pdfrwt beam="1">  1        2 0.44546017E+00 0.14676516E+04</pdfrwt>
<pdfrwt beam="2">  1       -2 0.28612140E-01 0.14676516E+04</pdfrwt>
<totfact> 0.22079315E+01</totfact>
</mgrwt>
</event>
<event>
12    2  0.3751044E-008  0.1869695E+04  0.7818608E-02  0.8670090E-01
         -2   -1    0    0    0  501 -0.00000000000E+00  0.00000000000E+00  0.70722255377E+03  0.70722255377E+03  0.00000000000E+00 0.  1.
          2   -1    0    0  501    0  0.00000000000E+00 -0.00000000000E+00 -0.12357350755E+04  0.12357350755E+04  0.00000000000E+00 0. -1.
         23    2    1    2    0    0  0.46986354441E+03  0.75935801191E+02 -0.76546073647E+03  0.90633213396E+03  0.94709037079E+02 0.  0.
        254    2    1    2    0    0 -0.46986354441E+03 -0.75935801191E+02  0.23694821475E+03  0.10366254953E+04  0.88989323222E+03 0.  0.
         23    2    4    4    0    0 -0.48764067321E+03 -0.23831625578E+03 -0.17933124144E+03  0.57972788479E+03  0.96626405858E+02 0.  0.
         23    2    4    4    0    0  0.17777128796E+02  0.16238045459E+03  0.41627945618E+03  0.45689761051E+03  0.93719808526E+02 0.  0.
          2    1    3    3  502    0  0.40867859949E+03  0.61436982660E+02 -0.59329657355E+03  0.72304462152E+03  0.00000000000E+00 0. -1.
         -2    1    3    3    0  502  0.61184944919E+02  0.14498818530E+02 -0.17216416292E+03  0.18328751244E+03  0.00000000000E+00 0.  1.
         11    1    5    5    0    0 -0.24983465080E+03 -0.71911432062E+02 -0.10277944925E+03  0.27955718912E+03  0.00000000000E+00 0.  1.
        -11    1    5    5    0    0 -0.23780602241E+03 -0.16640482371E+03 -0.76551792190E+02  0.30017069567E+03  0.00000000000E+00 0. -1.
          1    1    6    6  503    0 -0.35093618306E+02  0.67574725887E+02  0.12903640761E+03  0.14982756793E+03  0.00000000000E+00 0. -1.
         -1    1    6    6    0  503  0.52870747102E+02  0.94805728699E+02  0.28724304858E+03  0.30707004258E+03  0.00000000000E+00 0.  1.
<mgrwt>
<rscale>  0 0.18696949E+04</rscale>
<asrwt>0</asrwt>
<pdfrwt beam="1">  1        2 0.19011309E+00 0.18696949E+04</pdfrwt>
<pdfrwt beam="2">  1       -2 0.10880347E+00 0.18696949E+04</pdfrwt>
<totfact> 0.11425052E+01</totfact>
</mgrwt>
</event>
<event>
12    2  0.3751044E-008  0.1528397E+04  0.7818608E-02  0.8865786E-01
          1   -1    0    0  501    0  0.00000000000E+00  0.00000000000E+00  0.11252360220E+04  0.11252360220E+04  0.00000000000E+00 0. -1.
         -1   -1    0    0    0  501 -0.00000000000E+00 -0.00000000000E+00 -0.51900162851E+03  0.51900162851E+03  0.00000000000E+00 0.  1.
         23    2    1    2    0    0 -0.10894960733E+03 -0.38829749268E+03 -0.96641359924E+02  0.42374215297E+03  0.87022410863E+02 0.  0.
        254    2    1    2    0    0  0.10894960733E+03  0.38829749268E+03  0.70287575338E+03  0.12204954975E+04  0.91264997396E+03 0.  0.
         23    2    4    4    0    0  0.44560358394E+03  0.38100943163E+03  0.62443002695E+03  0.86223597547E+03  0.99031701051E+02 0.  0.
         23    2    4    4    0    0 -0.33665397662E+03  0.72880610480E+01  0.78445726429E+02  0.35825952203E+03  0.93846349571E+02 0.  0.
          4    1    3    3  502    0 -0.28903700702E+02 -0.22489685149E+02  0.14269219200E+01  0.36650320033E+02  0.00000000000E+00 0. -1.
         -4    1    3    3    0  502 -0.80045906626E+02 -0.36580780753E+03 -0.98068281844E+02  0.38709183293E+03  0.00000000000E+00 0.  1.
         11    1    5    5    0    0  0.14830710756E+03  0.14342123016E+03  0.15574171875E+03  0.25849590011E+03  0.00000000000E+00 0.  1.
        -11    1    5    5    0    0  0.29729647638E+03  0.23758820148E+03  0.46868830820E+03  0.60374007536E+03  0.00000000000E+00 0. -1.
          3    1    6    6  503    0 -0.23879669765E+03 -0.21528144043E+01  0.11044279815E+02  0.23906165217E+03  0.00000000000E+00 0. -1.
         -3    1    6    6    0  503 -0.97857278964E+02  0.94408754524E+01  0.67401446614E+02  0.11919786987E+03  0.00000000000E+00 0.  1.
<mgrwt>
<rscale>  0 0.15283970E+04</rscale>
<asrwt>0</asrwt>
<pdfrwt beam="1">  1        1 0.17311323E+00 0.15283970E+04</pdfrwt>
<pdfrwt beam="2">  1       -1 0.79846405E-01 0.15283970E+04</pdfrwt>
<totfact> 0.18350294E+01</totfact>
</mgrwt>
</event>
<event>
12    2  0.3751044E-008  0.2094085E+04  0.7818608E-02  0.8563853E-01
          2   -1    0    0  501    0  0.00000000000E+00  0.00000000000E+00  0.12064597558E+04  0.12064597558E+04  0.00000000000E+00 0. -1.
         -2   -1    0    0    0  501 -0.00000000000E+00 -0.00000000000E+00 -0.90869028744E+03  0.90869028744E+03  0.00000000000E+00 0.  1.
         23    2    1    2    0    0 -0.80947188665E+02 -0.83228133790E+03 -0.54044762343E+02  0.84291776250E+03  0.91350124437E+02 0.  0.
        254    2    1    2    0    0  0.80947188665E+02  0.83228133790E+03  0.35181423073E+03  0.12722322808E+04  0.89194004873E+03 0.  0.
         23    2    4    4    0    0 -0.39491152964E+03  0.31558374684E+03  0.17066870197E+03  0.54097375789E+03  0.89311720288E+02 0.  0.
         23    2    4    4    0    0  0.47585871831E+03  0.51669759106E+03  0.18114552876E+03  0.73125852288E+03  0.92235591248E+02 0.  0.
          4    1    3    3  502    0  0.17873515432E+02 -0.60017337557E+02 -0.41698384010E+01  0.62760902747E+02  0.00000000000E+00 0. -1.
         -4    1    3    3    0  502 -0.98820704097E+02 -0.77226400034E+03 -0.49874923942E+02  0.78015685976E+03  0.00000000000E+00 0.  1.
         11    1    5    5    0    0 -0.36108117126E+03  0.29846985424E+03  0.18011537460E+03  0.50190179746E+03  0.00000000000E+00 0. -1.
        -11    1    5    5    0    0 -0.33830358379E+02  0.17113892597E+02 -0.94466726252E+01  0.39071960427E+02  0.00000000000E+00 0.  1.
          1    1    6    6  503    0  0.40316317544E+03  0.43403512725E+03  0.18647952119E+03  0.62104883024E+03  0.00000000000E+00 0. -1.
         -1    1    6    6    0  503  0.72695542873E+02  0.82662463814E+02 -0.53339924300E+01  0.11020969264E+03  0.00000000000E+00 0.  1.
<mgrwt>
<rscale>  0 0.20940853E+04</rscale>
<asrwt>0</asrwt>
<pdfrwt beam="1">  1        2 0.18560919E+00 0.20940853E+04</pdfrwt>
<pdfrwt beam="2">  1       -2 0.13979851E+00 0.20940853E+04</pdfrwt>
<totfact> 0.62406383E+00</totfact>
</mgrwt>
</event>
<event>
12    2  0.3751044E-008  0.2625217E+04  0.7818608E-02  0.8359686E-01
          2   -1    0    0  501    0  0.00000000000E+00  0.00000000000E+00  0.10820099327E+04  0.10820099327E+04  0.00000000000E+00 0. -1.
         -2   -1    0    0    0  501 -0.00000000000E+00 -0.00000000000E+00 -0.15923526276E+04  0.15923526276E+04  0.00000000000E+00 0.  1.
         23    2    1    2    0    0  0.32945404652E+03 -0.21087825863E+03 -0.13339961446E+04  0.13932184766E+04  0.92208464826E+02 0.  0.
        254    2    1    2    0    0 -0.32945404652E+03  0.21087825863E+03  0.82365344973E+03  0.12811440837E+04  0.89995308170E+03 0.  0.
         23    2    4    4    0    0 -0.49438135201E+03  0.31145995703E+03  0.20390581234E+03  0.62635940559E+03  0.96583117688E+02 0.  0.
         23    2    4    4    0    0  0.16492730548E+03 -0.10058169840E+03  0.61974763739E+03  0.65478467813E+03  0.85662982148E+02 0.  0.
          3    1    3    3  502    0  0.81779302423E+02 -0.92325115882E+02 -0.50886260271E+03  0.52359615141E+03  0.00000000000E+00 0. -1.
         -3    1    3    3    0  502  0.24767474410E+03 -0.11855314275E+03 -0.82513354189E+03  0.86962232519E+03  0.00000000000E+00 0.  1.
         11    1    5    5    0    0 -0.61066728967E+02  0.32476990937E+02 -0.69940922995E+01  0.69518469878E+02  0.00000000000E+00 0. -1.
        -11    1    5    5    0    0 -0.43331462304E+03  0.27898296609E+03  0.21089990464E+03  0.55684093571E+03  0.00000000000E+00 0.  1.
          1    1    6    6  503    0  0.16385778657E+02 -0.50786685438E+02  0.19081753591E+03  0.19813912580E+03  0.00000000000E+00 0. -1.
         -1    1    6    6    0  503  0.14854152683E+03 -0.49795012965E+02  0.42893010148E+03  0.45664555233E+03  0.00000000000E+00 0.  1.
<mgrwt>
<rscale>  0 0.26252172E+04</rscale>
<asrwt>0</asrwt>
<pdfrwt beam="1">  1        2 0.16646307E+00 0.26252172E+04</pdfrwt>
<pdfrwt beam="2">  1       -2 0.24497733E+00 0.26252172E+04</pdfrwt>
<totfact> 0.13615432E+00</totfact>
</mgrwt>
</event>
<event>
12    2  0.3751044E-008  0.1544980E+04  0.7818608E-02  0.8855081E-01
          2   -1    0    0  501    0  0.00000000000E+00  0.00000000000E+00  0.14648538287E+04  0.14648538287E+04  0.00000000000E+00 0. -1.
         -2   -1    0    0    0  501 -0.00000000000E+00 -0.00000000000E+00 -0.40737228538E+03  0.40737228538E+03  0.00000000000E+00 0.  1.
         23    2    1    2    0    0  0.20988920248E+02 -0.46808158036E+03  0.14102068463E+03  0.49782913212E+03  0.91684844183E+02 0.  0.
        254    2    1    2    0    0 -0.20988920248E+02  0.46808158036E+03  0.91646085873E+03  0.13743969820E+04  0.91078299164E+03 0.  0.
         23    2    4    4    0    0  0.44869843174E+01  0.73079701367E+03  0.58490467369E+03  0.94092542383E+03  0.95617820912E+02 0.  0.
         23    2    4    4    0    0 -0.25475904566E+02 -0.26271543331E+03  0.33155618504E+03  0.43347155816E+03  0.91102509753E+02 0.  0.
          2    1    3    3  502    0 -0.13177845607E+02 -0.78364251890E+01  0.91178223656E+01  0.17838157396E+02  0.00000000000E+00 0. -1.
         -2    1    3    3    0  502  0.34166765856E+02 -0.46024515517E+03  0.13190286226E+03  0.47999097473E+03  0.00000000000E+00 0.  1.
         11    1    5    5    0    0 -0.30460550067E+02  0.58065104179E+03  0.48554088016E+03  0.75751793625E+03  0.00000000000E+00 0. -1.
        -11    1    5    5    0    0  0.34947534385E+02  0.15014597189E+03  0.99363793532E+02  0.18340748757E+03  0.00000000000E+00 0.  1.
          2    1    6    6  503    0 -0.14187035248E+02 -0.26277287490E+03  0.29550604483E+03  0.39569518355E+03  0.00000000000E+00 0. -1.
         -2    1    6    6    0  503 -0.11288869317E+02  0.57441583742E-01  0.36050140210E+02  0.37776374616E+02  0.00000000000E+00 0.  1.
<mgrwt>
<rscale>  0 0.15449801E+04</rscale>
<asrwt>0</asrwt>
<pdfrwt beam="1">  1        2 0.22536212E+00 0.15449801E+04</pdfrwt>
<pdfrwt beam="2">  1       -2 0.62672660E-01 0.15449801E+04</pdfrwt>
<totfact> 0.30206027E+01</totfact>
</mgrwt>
</event>
<event>
12    2  0.3751044E-008  0.1208555E+04  0.7818608E-02  0.9105402E-01
          1   -1    0    0  501    0  0.00000000000E+00  0.00000000000E+00  0.72160879101E+03  0.72160879101E+03  0.00000000000E+00 0. -1.
         -1   -1    0    0    0  501 -0.00000000000E+00 -0.00000000000E+00 -0.50602351910E+03  0.50602351910E+03  0.00000000000E+00 0.  1.
         23    2    1    2    0    0 -0.12599229283E+03 -0.16092869908E+03 -0.10804629490E+03  0.24815705474E+03  0.90198769027E+02 0.  0.
        254    2    1    2    0    0  0.12599229283E+03  0.16092869908E+03  0.32363156681E+03  0.97947525537E+03  0.90158875370E+03 0.  0.
         23    2    4    4    0    0  0.47013614734E+03  0.26434137655E+03  0.23553732425E+03  0.59568362120E+03  0.91960779957E+02 0.  0.
         23    2    4    4    0    0 -0.34414385451E+03 -0.10341267747E+03  0.88094242560E+02  0.38379163417E+03  0.10201102112E+03 0.  0.
          3    1    3    3  502    0 -0.23639351438E+02  0.86140119462E+01 -0.15564358396E+02  0.29584952096E+02  0.00000000000E+00 0. -1.
         -3    1    3    3    0  502 -0.10235294140E+03 -0.16954271102E+03 -0.92481936509E+02  0.21857210264E+03  0.00000000000E+00 0.  1.
         11    1    5    5    0    0  0.21951599856E+01  0.58314989778E+01  0.17063741594E+02  0.18165802622E+02  0.00000000000E+00 0.  1.
        -11    1    5    5    0    0  0.46794098736E+03  0.25850987757E+03  0.21847358266E+03  0.57751781857E+03  0.00000000000E+00 0. -1.
          2    1    6    6  503    0 -0.21306219561E+03 -0.19031253511E+02  0.24058524471E+02  0.21525914709E+03  0.00000000000E+00 0. -1.
         -2    1    6    6    0  503 -0.13108165890E+03 -0.84381423959E+02  0.64035718088E+02  0.16853248708E+03  0.00000000000E+00 0.  1.
<mgrwt>
<rscale>  0 0.12085545E+04</rscale>
<asrwt>0</asrwt>
<pdfrwt beam="1">  1        1 0.11101674E+00 0.12085545E+04</pdfrwt>
<pdfrwt beam="2">  1       -1 0.77849772E-01 0.12085545E+04</pdfrwt>
<totfact> 0.42533352E+01</totfact>
</mgrwt>
</event>
<event>
12    2  0.3751044E-008  0.2656631E+04  0.7818608E-02  0.8349216E-01
         -1   -1    0    0    0  501 -0.00000000000E+00  0.00000000000E+00  0.10128438805E+04  0.10128438805E+04  0.00000000000E+00 0. -1.
          1   -1    0    0  501    0  0.00000000000E+00 -0.00000000000E+00 -0.17420470303E+04  0.17420470303E+04  0.00000000000E+00 0.  1.
         23    2    1    2    0    0 -0.89813768247E+03 -0.79538542294E+02 -0.11107003450E+04  0.14336799190E+04  0.93835906942E+02 0.  0.
        254    2    1    2    0    0  0.89813768247E+03  0.79538542294E+02  0.38149719514E+03  0.13212109919E+04  0.88717568650E+03 0.  0.
         23    2    4    4    0    0  0.21849837717E+03 -0.10290901222E+03  0.53610866810E+03  0.59488758076E+03  0.90260313006E+02 0.  0.
         23    2    4    4    0    0  0.67963930531E+03  0.18244755452E+03 -0.15461147296E+03  0.72632341110E+03  0.91892842354E+02 0.  0.
          3    1    3    3  502    0 -0.62897590438E+03 -0.86271574521E+02 -0.73092483054E+03  0.96814491723E+03  0.00000000000E+00 0. -1.
         -3    1    3    3    0  502 -0.26916177809E+03  0.67330322274E+01 -0.37977551442E+03  0.46553500176E+03  0.00000000000E+00 0.  1.
         11    1    5    5    0    0  0.10150002737E+03 -0.48532077419E+02  0.14807314195E+03  0.18596578573E+03  0.00000000000E+00 0.  1.
        -11    1    5    5    0    0  0.11699834980E+03 -0.54376934804E+02  0.38803552615E+03  0.40892179502E+03  0.00000000000E+00 0. -1.
          4    1    6    6  503    0  0.37385567529E+03  0.84354476401E+02 -0.39931738160E+02  0.38532880421E+03  0.00000000000E+00 0. -1.
         -4    1    6    6    0  503  0.30578363001E+03  0.98093078115E+02 -0.11467973480E+03  0.34099460689E+03  0.00000000000E+00 0.  1.
<mgrwt>
<rscale>  0 0.26566307E+04</rscale>
<asrwt>0</asrwt>
<pdfrwt beam="1">  1        1 0.26800723E+00 0.26566307E+04</pdfrwt>
<pdfrwt beam="2">  1       -1 0.15582214E+00 0.26566307E+04</pdfrwt>
<totfact> 0.12297702E+00</totfact>
</mgrwt>
</event>
<event>
12    2  0.3751044E-008  0.1305029E+04  0.7818608E-02  0.9025586E-01
          2   -1    0    0  501    0  0.00000000000E+00  0.00000000000E+00  0.25556702340E+04  0.25556702340E+04  0.00000000000E+00 0. -1.
         -2   -1    0    0    0  501 -0.00000000000E+00 -0.00000000000E+00 -0.16660031072E+03  0.16660031072E+03  0.00000000000E+00 0.  1.
         23    2    1    2    0    0  0.39672985573E+02 -0.32187066968E+03  0.79363837709E+03  0.86171096123E+03  0.86655832672E+02 0.  0.
        254    2    1    2    0    0 -0.39672985573E+02  0.32187066968E+03  0.15954315462E+04  0.18605595835E+04  0.90061394135E+03 0.  0.
         23    2    4    4    0    0  0.26074058093E+03  0.84167817611E+02  0.13839165230E+04  0.14136019944E+04  0.89307244305E+02 0.  0.
         23    2    4    4    0    0 -0.30041356650E+03  0.23770285207E+03  0.21151502314E+03  0.44695758904E+03  0.91002882186E+02 0.  0.
          3    1    3    3  502    0  0.94167708739E+01 -0.15393675457E+03  0.48643150050E+03  0.51029482131E+03  0.00000000000E+00 0. -1.
         -3    1    3    3    0  502  0.30256214699E+02 -0.16793391511E+03  0.30720687659E+03  0.35141613992E+03  0.00000000000E+00 0.  1.
         11    1    5    5    0    0 -0.24938682791E+01 -0.40101581666E+01  0.44836949884E+01  0.65118559768E+01  0.00000000000E+00 0. -1.
        -11    1    5    5    0    0  0.26323444921E+03  0.88177975778E+02  0.13794328280E+04  0.14070901385E+04  0.00000000000E+00 0.  1.
          2    1    6    6  503    0 -0.10211852583E+03  0.10719507672E+03  0.37806845416E+02  0.15280162090E+03  0.00000000000E+00 0. -1.
         -2    1    6    6    0  503 -0.19829504067E+03  0.13050777535E+03  0.17370817772E+03  0.29415596813E+03  0.00000000000E+00 0.  1.
<mgrwt>
<rscale>  0 0.13050294E+04</rscale>
<asrwt>0</asrwt>
<pdfrwt beam="1">  1        2 0.39318001E+00 0.13050294E+04</pdfrwt>
<pdfrwt beam="2">  1       -2 0.25630819E-01 0.13050294E+04</pdfrwt>
<totfact> 0.43633404E+01</totfact>
</mgrwt>
</event>
<event>
12    2  0.3751044E-008  0.1552516E+04  0.7818608E-02  0.8850262E-01
         -2   -1    0    0    0  501 -0.00000000000E+00  0.00000000000E+00  0.14072086164E+03  0.14072086164E+03  0.00000000000E+00 0.  1.
          2   -1    0    0  501    0  0.00000000000E+00 -0.00000000000E+00 -0.42820712916E+04  0.42820712916E+04  0.00000000000E+00 0. -1.
         23    2    1    2    0    0  0.48842971201E+03  0.17272763396E+03 -0.14101739440E+04  0.15050932366E+04  0.91195830139E+02 0.  0.
        254    2    1    2    0    0 -0.48842971201E+03 -0.17272763396E+03 -0.27311764859E+04  0.29176989166E+04  0.88613969078E+03 0.  0.
         23    2    4    4    0    0 -0.39854415863E+00 -0.27910907766E+03 -0.25269934595E+03  0.38775274925E+03  0.92699509380E+02 0.  0.
         23    2    4    4    0    0 -0.48803116785E+03  0.10638144370E+03 -0.24784771400E+04  0.25299461674E+04  0.91034301122E+02 0.  0.
          4    1    3    3  502    0  0.79628921373E+02  0.52683909668E+02 -0.34213888809E+03  0.35521173714E+03  0.00000000000E+00 0.  1.
         -4    1    3    3    0  502  0.40880079064E+03  0.12004372429E+03 -0.10680350559E+04  0.11498814994E+04  0.00000000000E+00 0. -1.
         11    1    5    5    0    0 -0.25228350622E+02 -0.36757176218E+02 -0.14113348527E+02  0.46762659091E+02  0.00000000000E+00 0. -1.
        -11    1    5    5    0    0  0.24829806463E+02 -0.24235190144E+03 -0.23858599742E+03  0.34099009016E+03  0.00000000000E+00 0.  1.
          2    1    6    6  503    0 -0.33607315506E+03  0.84466623601E+02 -0.15006689394E+04  0.15401581223E+04  0.00000000000E+00 0. -1.
         -2    1    6    6    0  503 -0.15195801279E+03  0.21914820098E+02 -0.97780820063E+03  0.98978804509E+03  0.00000000000E+00 0.  1.
<mgrwt>
<rscale>  0 0.15525164E+04</rscale>
<asrwt>0</asrwt>
<pdfrwt beam="1">  1        2 0.65878014E+00 0.15525164E+04</pdfrwt>
<pdfrwt beam="2">  1       -2 0.21649365E-01 0.15525164E+04</pdfrwt>
<totfact> 0.36187569E+00</totfact>
</mgrwt>
</event>
<event>
12    2  0.3751044E-008  0.1415768E+04  0.7818608E-02  0.8942483E-01
          2   -1    0    0  501    0  0.00000000000E+00  0.00000000000E+00  0.35182100359E+04  0.35182100359E+04  0.00000000000E+00 0.  1.
         -2   -1    0    0    0  501 -0.00000000000E+00 -0.00000000000E+00 -0.14243031455E+03  0.14243031455E+03  0.00000000000E+00 0. -1.
         23    2    1    2    0    0  0.37189283575E+03 -0.20326422093E+03  0.72554115112E+03  0.84542011725E+03  0.93298380966E+02 0.  0.
        254    2    1    2    0    0 -0.37189283575E+03  0.20326422093E+03  0.26502385702E+04  0.28152202332E+04  0.84975282141E+03 0.  0.
         23    2    4    4    0    0 -0.23797606793E+03  0.21928722785E+03  0.27492919390E+03  0.43431206945E+03  0.91221789144E+02 0.  0.
         23    2    4    4    0    0 -0.13391676783E+03 -0.16023006916E+02  0.23753093763E+04  0.23809081638E+04  0.91861925958E+02 0.  0.
          3    1    3    3  502    0  0.14555651122E+02 -0.37153535360E+02  0.65916103626E+02  0.77053130284E+02  0.00000000000E+00 0. -1.
         -3    1    3    3    0  502  0.35733718463E+03 -0.16611068557E+03  0.65962504749E+03  0.76836698697E+03  0.00000000000E+00 0.  1.
         11    1    5    5    0    0  0.52787538530E+01 -0.20189381759E+01 -0.26004026889E-01  0.56517280373E+01  0.00000000000E+00 0. -1.
        -11    1    5    5    0    0 -0.24325482178E+03  0.22130616602E+03  0.27495519792E+03  0.42866034142E+03  0.00000000000E+00 0.  1.
          1    1    6    6  503    0 -0.49932763429E+02  0.36262618924E+02  0.71716136864E+03  0.71981156358E+03  0.00000000000E+00 0. -1.
         -1    1    6    6    0  503 -0.83984004398E+02 -0.52285625840E+02  0.16581480077E+04  0.16610966002E+04  0.00000000000E+00 0.  1.
<mgrwt>
<rscale>  0 0.14157680E+04</rscale>
<asrwt>0</asrwt>
<pdfrwt beam="1">  1        2 0.54126302E+00 0.14157680E+04</pdfrwt>
<pdfrwt beam="2">  1       -2 0.21912359E-01 0.14157680E+04</pdfrwt>
<totfact> 0.14195517E+01</totfact>
</mgrwt>
</event>
<event>
12    2  0.3751044E-008  0.1136387E+04  0.7818608E-02  0.9170435E-01
         -2   -1    0    0    0  501 -0.00000000000E+00  0.00000000000E+00  0.49820575695E+03  0.49820575695E+03  0.00000000000E+00 0.  1.
          2   -1    0    0  501    0  0.00000000000E+00 -0.00000000000E+00 -0.64801334451E+03  0.64801334451E+03  0.00000000000E+00 0. -1.
         23    2    1    2    0    0 -0.65545453563E+02  0.24623371783E+02  0.19333126605E+03  0.22523529447E+03  0.91931727504E+02 0.  0.
        254    2    1    2    0    0  0.65545453563E+02 -0.24623371783E+02 -0.34313885361E+03  0.92098380699E+03  0.85180067091E+03 0.  0.
         23    2    4    4    0    0  0.27341494238E+02  0.35735674143E+03  0.38628634448E+02  0.37163030778E+03  0.90363246459E+02 0.  0.
         23    2    4    4    0    0  0.38203959325E+02 -0.38198011321E+03 -0.38176748805E+03  0.54935349921E+03  0.93137010673E+02 0.  0.
          1    1    3    3  502    0 -0.24486281189E+02  0.38951331431E+02  0.27071126395E+02  0.53381926445E+02  0.00000000000E+00 0. -1.
         -1    1    3    3    0  502 -0.41059172374E+02 -0.14327959648E+02  0.16626013965E+03  0.17185336802E+03  0.00000000000E+00 0.  1.
         11    1    5    5    0    0  0.39305164194E+02  0.95084803726E+02 -0.14079096091E+02  0.10384717993E+03  0.00000000000E+00 0.  1.
        -11    1    5    5    0    0 -0.11963669956E+02  0.26227193770E+03  0.52707730539E+02  0.26778312786E+03  0.00000000000E+00 0. -1.
          2    1    6    6  503    0  0.21695792968E+02 -0.35040825489E+03 -0.37385364092E+03  0.51285787247E+03  0.00000000000E+00 0. -1.
         -2    1    6    6    0  503  0.16508166357E+02 -0.31571858327E+02 -0.79138471392E+01  0.36495626741E+02  0.00000000000E+00 0.  1.
<mgrwt>
<rscale>  0 0.11363872E+04</rscale>
<asrwt>0</asrwt>
<pdfrwt beam="1">  1        2 0.99694360E-01 0.11363872E+04</pdfrwt>
<pdfrwt beam="2">  1       -2 0.76647040E-01 0.11363872E+04</pdfrwt>
<totfact> 0.68070916E+01</totfact>
</mgrwt>
</event>
<event>
12    2  0.3751044E-008  0.1406557E+04  0.7818608E-02  0.8949086E-01
          1   -1    0    0  501    0  0.00000000000E+00  0.00000000000E+00  0.69994487766E+03  0.69994487766E+03  0.00000000000E+00 0. -1.
         -1   -1    0    0    0  501 -0.00000000000E+00 -0.00000000000E+00 -0.70662778939E+03  0.70662778939E+03  0.00000000000E+00 0.  1.
         23    2    1    2    0    0 -0.15449507135E+02 -0.13878327748E+03  0.38024728097E+03  0.41558949902E+03  0.92882461405E+02 0.  0.
        254    2    1    2    0    0  0.15449507135E+02  0.13878327748E+03 -0.38693019270E+03  0.99098316802E+03  0.90157261488E+03 0.  0.
         23    2    4    4    0    0  0.42274311002E+03  0.17278628017E+03 -0.32744476271E+03  0.56872376748E+03  0.87520371301E+02 0.  0.
         23    2    4    4    0    0 -0.40729360288E+03 -0.34003002686E+02 -0.59485429992E+02  0.42225940054E+03  0.87864679036E+02 0.  0.
          2    1    3    3  502    0 -0.89434067821E+01 -0.14260923772E+03  0.38199250816E+03  0.40784268474E+03  0.00000000000E+00 0. -1.
         -2    1    3    3    0  502 -0.65061003531E+01  0.38259602417E+01 -0.17452271902E+01  0.77468142821E+01  0.00000000000E+00 0.  1.
         11    1    5    5    0    0  0.42716791548E+03  0.17047329077E+03 -0.32497150786E+03  0.56315189052E+03  0.00000000000E+00 0. -1.
        -11    1    5    5    0    0 -0.44248054591E+01  0.23129893993E+01 -0.24732548474E+01  0.55718769595E+01  0.00000000000E+00 0.  1.
          1    1    6    6  503    0 -0.72130158123E+02  0.26327166634E+02 -0.20577057951E+02  0.79493991771E+02  0.00000000000E+00 0.  1.
         -1    1    6    6    0  503 -0.33516344476E+03 -0.60330169320E+02 -0.38908372041E+02  0.34276540877E+03  0.00000000000E+00 0. -1.
<mgrwt>
<rscale>  0 0.14065568E+04</rscale>
<asrwt>0</asrwt>
<pdfrwt beam="1">  1        1 0.10768383E+00 0.14065568E+04</pdfrwt>
<pdfrwt beam="2">  1       -1 0.10871197E+00 0.14065568E+04</pdfrwt>
<totfact> 0.20846592E+01</totfact>
</mgrwt>
</event>
<event>
12    2  0.3751044E-008  0.1671668E+04  0.7818608E-02  0.8777690E-01
         -1   -1    0    0    0  501 -0.00000000000E+00  0.00000000000E+00  0.17542253354E+04  0.17542253354E+04  0.00000000000E+00 0.  1.
          1   -1    0    0  501    0  0.00000000000E+00 -0.00000000000E+00 -0.39824888510E+03  0.39824888510E+03  0.00000000000E+00 0. -1.
         23    2    1    2    0    0  0.25271737072E+03 -0.21782011732E+03 -0.14246146087E+03  0.37439584744E+03  0.92548958810E+02 0.  0.
        254    2    1    2    0    0 -0.25271737072E+03  0.21782011732E+03  0.14984379112E+04  0.17780783731E+04  0.89718161716E+03 0.  0.
         23    2    4    4    0    0 -0.23953504172E+03 -0.13776236749E+03  0.65251248092E+02  0.29826502016E+03  0.91371717518E+02 0.  0.
         23    2    4    4    0    0 -0.13182328994E+02  0.35558248481E+03  0.14331866631E+04  0.14798133529E+04  0.95973282353E+02 0.  0.
          1    1    3    3  502    0  0.13012572614E+03 -0.78773020789E+02 -0.10618432240E+03  0.18550742231E+03  0.00000000000E+00 0. -1.
         -1    1    3    3    0  502  0.12259164458E+03 -0.13904709653E+03 -0.36277138468E+02  0.18888842513E+03  0.00000000000E+00 0.  1.
         11    1    5    5    0    0 -0.53763155763E+02 -0.20640589473E+02  0.53076488909E+02  0.78317459907E+02  0.00000000000E+00 0.  1.
        -11    1    5    5    0    0 -0.18577188596E+03 -0.11712177802E+03  0.12174759184E+02  0.21994756025E+03  0.00000000000E+00 0. -1.
          3    1    6    6  503    0 -0.16366281189E+02  0.26903771690E+02  0.24446579048E+03  0.24648568073E+03  0.00000000000E+00 0. -1.
         -3    1    6    6    0  503  0.31839521953E+01  0.32867871312E+03  0.11887208726E+04  0.12333276722E+04  0.00000000000E+00 0.  1.
<mgrwt>
<rscale>  0 0.16716678E+04</rscale>
<asrwt>0</asrwt>
<pdfrwt beam="1">  1        1 0.61269060E-01 0.16716678E+04</pdfrwt>
<pdfrwt beam="2">  1       -1 0.26988082E+00 0.16716678E+04</pdfrwt>
<totfact> 0.29817724E+00</totfact>
</mgrwt>
</event>
<event>
12    2  0.3751044E-008  0.1402800E+04  0.7818608E-02  0.8951794E-01
         -1   -1    0    0    0  501 -0.00000000000E+00  0.00000000000E+00  0.47284956984E+03  0.47284956984E+03  0.00000000000E+00 0.  1.
          1   -1    0    0  501    0  0.00000000000E+00 -0.00000000000E+00 -0.10404199789E+04  0.10404199789E+04  0.00000000000E+00 0. -1.
         23    2    1    2    0    0  0.21540303698E+03 -0.66911447125E+02  0.19319710214E+03  0.30754982236E+03  0.79913471085E+02 0.  0.
        254    2    1    2    0    0 -0.21540303698E+03  0.66911447125E+02 -0.76076751116E+03  0.12057197264E+04  0.90780903409E+03 0.  0.
         23    2    4    4    0    0  0.26173998766E+03 -0.34516805880E+01  0.26540629524E+02  0.27793677701E+03  0.89580755545E+02 0.  0.
         23    2    4    4    0    0 -0.47714302464E+03  0.70363127713E+02 -0.78730814068E+03  0.92778294934E+03  0.91162804888E+02 0.  0.
          2    1    3    3  502    0  0.18215160625E+03 -0.58596613705E+02  0.11772573716E+03  0.22466000976E+03  0.00000000000E+00 0. -1.
         -2    1    3    3    0  502  0.33251430736E+02 -0.83148334201E+01  0.75471364979E+02  0.82889812598E+02  0.00000000000E+00 0.  1.
         11    1    5    5    0    0  0.11034114982E+03  0.24761889182E+02  0.47222331549E+02  0.12254904772E+03  0.00000000000E+00 0.  1.
        -11    1    5    5    0    0  0.15139883783E+03 -0.28213569770E+02 -0.20681702025E+02  0.15538772930E+03  0.00000000000E+00 0. -1.
          2    1    6    6  503    0 -0.47989286308E+03  0.64604083226E+02 -0.77337968137E+03  0.91246204259E+03  0.00000000000E+00 0. -1.
         -2    1    6    6    0  503  0.27498384426E+01  0.57590444868E+01 -0.13928459315E+02  0.15320906754E+02  0.00000000000E+00 0.  1.
<mgrwt>
<rscale>  0 0.14028003E+04</rscale>
<asrwt>0</asrwt>
<pdfrwt beam="1">  1        1 0.16006461E+00 0.14028003E+04</pdfrwt>
<pdfrwt beam="2">  1       -1 0.72746088E-01 0.14028003E+04</pdfrwt>
<totfact> 0.26150567E+01</totfact>
</mgrwt>
</event>
<event>
12    2  0.3751044E-008  0.1254787E+04  0.7818608E-02  0.9066209E-01
          2   -1    0    0  501    0  0.00000000000E+00  0.00000000000E+00  0.59998833252E+03  0.59998833252E+03  0.00000000000E+00 0. -1.
         -2   -1    0    0    0  501 -0.00000000000E+00 -0.00000000000E+00 -0.65605027688E+03  0.65605027688E+03  0.00000000000E+00 0.  1.
         23    2    1    2    0    0  0.59765919626E+02  0.19925155751E+02  0.26228716630E+03  0.28398177604E+03  0.88781273546E+02 0.  0.
        254    2    1    2    0    0 -0.59765919626E+02 -0.19925155751E+02 -0.31834911066E+03  0.97205683336E+03  0.91628562907E+03 0.  0.
         23    2    4    4    0    0  0.37219039496E+03  0.12124074846E+03 -0.31123544035E+03  0.50854727655E+03  0.92346217971E+02 0.  0.
         23    2    4    4    0    0 -0.43195631458E+03 -0.14116590421E+03 -0.71136703121E+01  0.46350955681E+03  0.90974912648E+02 0.  0.
          3    1    3    3  502    0  0.69674833983E+02 -0.14272631096E+02  0.14662848927E+03  0.16296688116E+03  0.00000000000E+00 0. -1.
         -3    1    3    3    0  502 -0.99089143572E+01  0.34197786847E+02  0.11565867703E+03  0.12101489488E+03  0.00000000000E+00 0.  1.
         11    1    5    5    0    0  0.95413499111E+02  0.63441187724E+02 -0.55543535926E+02  0.12733265290E+03  0.00000000000E+00 0.  1.
        -11    1    5    5    0    0  0.27677689585E+03  0.57799560738E+02 -0.25569190442E+03  0.38121462365E+03  0.00000000000E+00 0. -1.
          2    1    6    6  503    0 -0.36114402664E+03 -0.96356694153E+02  0.22949184141E+02  0.37448135539E+03  0.00000000000E+00 0. -1.
         -2    1    6    6    0  503 -0.70812287945E+02 -0.44809210059E+02 -0.30062854453E+02  0.89028201419E+02  0.00000000000E+00 0.  1.
<mgrwt>
<rscale>  0 0.12547869E+04</rscale>
<asrwt>0</asrwt>
<pdfrwt beam="1">  1        2 0.92305897E-01 0.12547869E+04</pdfrwt>
<pdfrwt beam="2">  1       -2 0.10093081E+00 0.12547869E+04</pdfrwt>
<totfact> 0.39409822E+01</totfact>
</mgrwt>
</event>
<event>
12    2  0.3751044E-008  0.1248387E+04  0.7818608E-02  0.9071527E-01
         -2   -1    0    0    0  501 -0.00000000000E+00  0.00000000000E+00  0.64550765668E+03  0.64550765668E+03  0.00000000000E+00 0.  1.
          2   -1    0    0  501    0  0.00000000000E+00 -0.00000000000E+00 -0.60358338146E+03  0.60358338146E+03  0.00000000000E+00 0. -1.
         23    2    1    2    0    0  0.27437135100E+02  0.10684158004E+03 -0.25599576209E+03  0.29485954899E+03  0.96127019168E+02 0.  0.
        254    2    1    2    0    0 -0.27437135100E+02 -0.10684158004E+03  0.29792003731E+03  0.95423148915E+03  0.89979634732E+03 0.  0.
         23    2    4    4    0    0 -0.34813748942E+03  0.21867852800E+03  0.43008271035E+02  0.42316443409E+03  0.90545108954E+02 0.  0.
         23    2    4    4    0    0  0.32070035431E+03 -0.32552010804E+03  0.25491176627E+03  0.53106705506E+03  0.90775274113E+02 0.  0.
          2    1    3    3  502    0  0.15336493472E+02  0.12041727127E+03 -0.24547586106E+03  0.27385018827E+03  0.00000000000E+00 0. -1.
         -2    1    3    3    0  502  0.12100641629E+02 -0.13575691229E+02 -0.10519901029E+02  0.21009360720E+02  0.00000000000E+00 0.  1.
         11    1    5    5    0    0 -0.29207138875E+03  0.17176607093E+03  0.68601262517E+02  0.34571001210E+03  0.00000000000E+00 0. -1.
        -11    1    5    5    0    0 -0.56066100666E+02  0.46912457071E+02 -0.25592991482E+02  0.77454421986E+02  0.00000000000E+00 0.  1.
          3    1    6    6  503    0  0.21275859690E+03 -0.15221335788E+03  0.14900327979E+03  0.30105996788E+03  0.00000000000E+00 0. -1.
         -3    1    6    6    0  503  0.10794175742E+03 -0.17330675016E+03  0.10590848648E+03  0.23000708718E+03  0.00000000000E+00 0.  1.
<mgrwt>
<rscale>  0 0.12483873E+04</rscale>
<asrwt>0</asrwt>
<pdfrwt beam="1">  1        2 0.92858981E-01 0.12483873E+04</pdfrwt>
<pdfrwt beam="2">  1       -2 0.99308871E-01 0.12483873E+04</pdfrwt>
<totfact> 0.40678218E+01</totfact>
</mgrwt>
</event>
<event>
12    2  0.3751044E-008  0.2220237E+04  0.7818608E-02  0.8510052E-01
          2   -1    0    0  501    0  0.00000000000E+00  0.00000000000E+00  0.25794206531E+04  0.25794206531E+04  0.00000000000E+00 0.  1.
         -2   -1    0    0    0  501 -0.00000000000E+00 -0.00000000000E+00 -0.47776750547E+03  0.47776750547E+03  0.00000000000E+00 0. -1.
         23    2    1    2    0    0  0.61098838397E+03  0.57434937311E+03  0.33332213412E+03  0.90684308208E+03  0.89870588607E+02 0.  0.
        254    2    1    2    0    0 -0.61098838397E+03 -0.57434937311E+03  0.17683310135E+04  0.21503450765E+04  0.89095755618E+03 0.  0.
         23    2    4    4    0    0 -0.76789384591E+03 -0.19397206705E+03  0.12462453152E+04  0.14793537355E+04  0.89855259381E+02 0.  0.
         23    2    4    4    0    0  0.15690546194E+03 -0.38037730606E+03  0.52208569832E+03  0.67099134102E+03  0.91376607417E+02 0.  0.
          4    1    3    3  502    0  0.60756695144E+03  0.55332913188E+03  0.32102982425E+03  0.88225329511E+03  0.00000000000E+00 0. -1.
         -4    1    3    3    0  502  0.34214325311E+01  0.21020241225E+02  0.12292309862E+02  0.24589786975E+02  0.00000000000E+00 0.  1.
         11    1    5    5    0    0 -0.39764033523E+03 -0.64578018099E+02  0.68420064976E+03  0.79398909675E+03  0.00000000000E+00 0.  1.
        -11    1    5    5    0    0 -0.37025351067E+03 -0.12939404895E+03  0.56204466546E+03  0.68536463874E+03  0.00000000000E+00 0. -1.
          2    1    6    6  503    0  0.13628047988E+02 -0.88643485759E+01  0.54311799163E+02  0.56692785220E+02  0.00000000000E+00 0. -1.
         -2    1    6    6    0  503  0.14327741395E+03 -0.37151295748E+03  0.46777389916E+03  0.61429855580E+03  0.00000000000E+00 0.  1.
<mgrwt>
<rscale>  0 0.22202373E+04</rscale>
<asrwt>0</asrwt>
<pdfrwt beam="1">  1        2 0.39683394E+00 0.22202373E+04</pdfrwt>
<pdfrwt beam="2">  1       -2 0.73502695E-01 0.22202373E+04</pdfrwt>
<totfact> 0.47684491E+00</totfact>
</mgrwt>
</event>
<event>
12    2  0.3751044E-008  0.1239719E+04  0.7818608E-02  0.9078784E-01
         -2   -1    0    0    0  501 -0.00000000000E+00  0.00000000000E+00  0.27127959249E+03  0.27127959249E+03  0.00000000000E+00 0.  1.
          2   -1    0    0  501    0  0.00000000000E+00 -0.00000000000E+00 -0.14163455910E+04  0.14163455910E+04  0.00000000000E+00 0. -1.
         23    2    1    2    0    0 -0.17802770679E+02 -0.11004239110E+03 -0.69521443220E+03  0.71500423354E+03  0.12442540236E+03 0.  0.
        254    2    1    2    0    0  0.17802770679E+02  0.11004239110E+03 -0.44985156632E+03  0.97262094997E+03  0.85510163964E+03 0.  0.
         23    2    4    4    0    0 -0.14835932314E+03  0.34269794274E+03  0.49725736011E+02  0.38997636582E+03  0.10077970209E+03 0.  0.
         23    2    4    4    0    0  0.16616209382E+03 -0.23265555164E+03 -0.49957730233E+03  0.58264458415E+03  0.90325983510E+02 0.  0.
          4    1    3    3  502    0 -0.24744865996E+02 -0.13339011498E+03 -0.64600024686E+03  0.66009207699E+03  0.00000000000E+00 0. -1.
         -4    1    3    3    0  502  0.69420953162E+01  0.23347723876E+02 -0.49214185346E+02  0.54912156549E+02  0.00000000000E+00 0.  1.
         11    1    5    5    0    0 -0.44494420581E+02  0.23125190237E+02  0.13951199783E+02  0.52049628833E+02  0.00000000000E+00 0. -1.
        -11    1    5    5    0    0 -0.10386490256E+03  0.31957275251E+03  0.35774536228E+02  0.33792673699E+03  0.00000000000E+00 0.  1.
          2    1    6    6  503    0  0.71403433131E+02 -0.11358670886E+03 -0.14921615244E+03  0.20066352644E+03  0.00000000000E+00 0. -1.
         -2    1    6    6    0  503  0.94758660688E+02 -0.11906884278E+03 -0.35036114989E+03  0.38198105771E+03  0.00000000000E+00 0.  1.
<mgrwt>
<rscale>  0 0.12397188E+04</rscale>
<asrwt>0</asrwt>
<pdfrwt beam="1">  1        2 0.21789932E+00 0.12397188E+04</pdfrwt>
<pdfrwt beam="2">  1       -2 0.41735322E-01 0.12397188E+04</pdfrwt>
<totfact> 0.75785797E+01</totfact>
</mgrwt>
</event>
<event>
12    2  0.3751044E-008  0.2008058E+04  0.7818608E-02  0.8602863E-01
          2   -1    0    0  501    0  0.00000000000E+00  0.00000000000E+00  0.31663196933E+04  0.31663196933E+04  0.00000000000E+00 0. -1.
         -2   -1    0    0    0  501 -0.00000000000E+00 -0.00000000000E+00 -0.31837404063E+03  0.31837404063E+03  0.00000000000E+00 0.  1.
         23    2    1    2    0    0 -0.40067535580E+03  0.56140291942E+03  0.19675853198E+04  0.20868905397E+04  0.89477121657E+02 0.  0.
        254    2    1    2    0    0  0.40067535580E+03 -0.56140291942E+03  0.88036033288E+03  0.13978031942E+04  0.83851384928E+03 0.  0.
         23    2    4    4    0    0  0.13746119872E+03 -0.52552731818E+02 -0.14101191594E+03  0.22319361254E+03  0.90959647465E+02 0.  0.
         23    2    4    4    0    0  0.26321415708E+03 -0.50885018761E+03  0.10213722488E+04  0.11746095817E+04  0.91083438982E+02 0.  0.
          2    1    3    3  502    0 -0.30535962976E+03  0.42820207471E+03  0.13771782024E+04  0.14741849685E+04  0.00000000000E+00 0. -1.
         -2    1    3    3    0  502 -0.95315726045E+02  0.13320084472E+03  0.59040711739E+03  0.61270557116E+03  0.00000000000E+00 0.  1.
         11    1    5    5    0    0  0.59636027168E+02 -0.36194259978E+02 -0.12338089149E+03  0.14173681447E+03  0.00000000000E+00 0. -1.
        -11    1    5    5    0    0  0.77825171554E+02 -0.16358471840E+02 -0.17631024445E+02  0.81456798066E+02  0.00000000000E+00 0.  1.
          3    1    6    6  503    0  0.23853165837E+03 -0.38662750642E+03  0.83021683268E+03  0.94638161966E+03  0.00000000000E+00 0. -1.
         -3    1    6    6    0  503  0.24682498707E+02 -0.12222268118E+03  0.19115541614E+03  0.22822796204E+03  0.00000000000E+00 0.  1.
<mgrwt>
<rscale>  0 0.20080578E+04</rscale>
<asrwt>0</asrwt>
<pdfrwt beam="1">  1        2 0.48712609E+00 0.20080578E+04</pdfrwt>
<pdfrwt beam="2">  1       -2 0.48980624E-01 0.20080578E+04</pdfrwt>
<totfact> 0.50138655E+00</totfact>
</mgrwt>
</event>
<event>
12    2  0.3751044E-008  0.1509262E+04  0.7818608E-02  0.8878317E-01
         -2   -1    0    0    0  501 -0.00000000000E+00  0.00000000000E+00  0.25829891074E+03  0.25829891074E+03  0.00000000000E+00 0. -1.
          2   -1    0    0  501    0  0.00000000000E+00 -0.00000000000E+00 -0.22046850472E+04  0.22046850472E+04  0.00000000000E+00 0.  1.
         23    2    1    2    0    0  0.43413874109E+03  0.10546257892E+03 -0.33222837297E+03  0.56406858188E+03  0.90547618356E+02 0.  0.
        254    2    1    2    0    0 -0.43413874109E+03 -0.10546257892E+03 -0.16141577635E+04  0.18989153760E+04  0.89486061367E+03 0.  0.
         23    2    4    4    0    0 -0.49733082779E+03  0.97175322170E+02 -0.37136969456E+03  0.63490219227E+03  0.91675232190E+02 0.  0.
         23    2    4    4    0    0  0.63192086707E+02 -0.20263790109E+03 -0.12427880689E+04  0.12640131838E+04  0.90287240103E+02 0.  0.
          1    1    3    3  502    0  0.42273075768E+03  0.11090986336E+03 -0.30179617620E+03  0.53111507534E+03  0.00000000000E+00 0. -1.
         -1    1    3    3    0  502  0.11407983406E+02 -0.54472844417E+01 -0.30432196768E+02  0.32953506540E+02  0.00000000000E+00 0.  1.
         11    1    5    5    0    0 -0.32118839650E+03  0.94015006220E+02 -0.28053275245E+03  0.43669146160E+03  0.00000000000E+00 0. -1.
        -11    1    5    5    0    0 -0.17614243129E+03  0.31603159502E+01 -0.90836942109E+02  0.19821073066E+03  0.00000000000E+00 0.  1.
          1    1    6    6  503    0  0.42865260799E+02 -0.65029038426E+02 -0.67297870242E+03  0.67747069334E+03  0.00000000000E+00 0. -1.
         -1    1    6    6    0  503  0.20326825909E+02 -0.13760886266E+03 -0.56980936648E+03  0.58654249042E+03  0.00000000000E+00 0.  1.
<mgrwt>
<rscale>  0 0.15092617E+04</rscale>
<asrwt>0</asrwt>
<pdfrwt beam="1">  1        2 0.33918232E+00 0.15092617E+04</pdfrwt>
<pdfrwt beam="2">  1       -2 0.39738294E-01 0.15092617E+04</pdfrwt>
<totfact> 0.29719864E+01</totfact>
</mgrwt>
</event>
<event>
12    2  0.3751044E-008  0.1901144E+04  0.7818608E-02  0.8654287E-01
         -1   -1    0    0    0  501 -0.00000000000E+00  0.00000000000E+00  0.53963858745E+03  0.53963858745E+03  0.00000000000E+00 0.  1.
          1   -1    0    0  501    0  0.00000000000E+00 -0.00000000000E+00 -0.16744297827E+04  0.16744297827E+04  0.00000000000E+00 0. -1.
         23    2    1    2    0    0  0.28302186410E+02 -0.70950547453E+03 -0.64563992006E+03  0.96396419186E+03  0.90426902344E+02 0.  0.
        254    2    1    2    0    0 -0.28302186410E+02  0.70950547453E+03 -0.48915127520E+03  0.12501041783E+04  0.90514775281E+03 0.  0.
         23    2    4    4    0    0 -0.46683229578E+02  0.42585130875E+03  0.21272341608E+03  0.48728306132E+03  0.93085278172E+02 0.  0.
         23    2    4    4    0    0  0.18381043168E+02  0.28365416578E+03 -0.70187469128E+03  0.76282111697E+03  0.92034915823E+02 0.  0.
          3    1    3    3  502    0  0.38152630111E+01 -0.37107534136E+03 -0.39604868207E+03  0.54273937002E+03  0.00000000000E+00 0. -1.
         -3    1    3    3    0  502  0.24486923399E+02 -0.33843013317E+03 -0.24959123800E+03  0.42122482184E+03  0.00000000000E+00 0.  1.
         11    1    5    5    0    0 -0.52967808110E+02  0.16707804061E+03  0.11960670695E+03  0.21219430882E+03  0.00000000000E+00 0. -1.
        -11    1    5    5    0    0  0.62845785325E+01  0.25877326814E+03  0.93116709137E+02  0.27508875250E+03  0.00000000000E+00 0.  1.
          4    1    6    6  503    0  0.53515189807E+02  0.13520148059E+03 -0.31439747172E+03  0.34639440832E+03  0.00000000000E+00 0. -1.
         -4    1    6    6    0  503 -0.35134146639E+02  0.14845268519E+03 -0.38747721956E+03  0.41642670865E+03  0.00000000000E+00 0.  1.
<mgrwt>
<rscale>  0 0.19011438E+04</rscale>
<asrwt>0</asrwt>
<pdfrwt beam="1">  1        1 0.25760458E+00 0.19011438E+04</pdfrwt>
<pdfrwt beam="2">  1       -1 0.83021321E-01 0.19011438E+04</pdfrwt>
<totfact> 0.66867071E+00</totfact>
</mgrwt>
</event>
<event>
12    2  0.3751044E-008  0.1764002E+04  0.7818608E-02  0.8725681E-01
         -3   -1    0    0    0  501 -0.00000000000E+00  0.00000000000E+00  0.17995271479E+04  0.17995271479E+04  0.00000000000E+00 0.  1.
          3   -1    0    0  501    0  0.00000000000E+00 -0.00000000000E+00 -0.43229447789E+03  0.43229447789E+03  0.00000000000E+00 0. -1.
         23    2    1    2    0    0 -0.31108564903E+03  0.55727792376E+03  0.36631453166E+03  0.74147256985E+03  0.90897031780E+02 0.  0.
        254    2    1    2    0    0  0.31108564903E+03 -0.55727792376E+03  0.10009181384E+04  0.14903490559E+04  0.90109390382E+03 0.  0.
         23    2    4    4    0    0  0.25044533234E+03 -0.64831257740E+03  0.11071501808E+04  0.13104348801E+04  0.91793188932E+02 0.  0.
         23    2    4    4    0    0  0.60640316693E+02  0.91034653641E+02 -0.10623204246E+03  0.17991417586E+03  0.95495066141E+02 0.  0.
          1    1    3    3  502    0 -0.24140289197E+03  0.48744460779E+03  0.33071826669E+03  0.63659419872E+03  0.00000000000E+00 0. -1.
         -1    1    3    3    0  502 -0.69682757063E+02  0.69833315967E+02  0.35596264963E+02  0.10487837113E+03  0.00000000000E+00 0.  1.
         11    1    5    5    0    0  0.14513260631E+03 -0.46123644645E+03  0.81931002801E+03  0.95135243466E+03  0.00000000000E+00 0. -1.
        -11    1    5    5    0    0  0.10531272603E+03 -0.18707613095E+03  0.28784015282E+03  0.35908244542E+03  0.00000000000E+00 0.  1.
          4    1    6    6  503    0  0.64055375373E+02  0.18204226572E+02 -0.25960874160E+02  0.71473435390E+02  0.00000000000E+00 0. -1.
         -4    1    6    6    0  503 -0.34150586800E+01  0.72830427070E+02 -0.80271168304E+02  0.10844074047E+03  0.00000000000E+00 0.  1.
<mgrwt>
<rscale>  0 0.17640019E+04</rscale>
<asrwt>0</asrwt>
<pdfrwt beam="1">  1        3 0.66506844E-01 0.17640019E+04</pdfrwt>
<pdfrwt beam="2">  1       -3 0.27685033E+00 0.17640019E+04</pdfrwt>
<totfact> 0.27753612E-01</totfact>
</mgrwt>
</event>
<event>
12    2  0.4365495E-008  0.1920620E+04  0.7818608E-02  0.8644660E-01
          1   -1    0    0  501    0  0.00000000000E+00  0.00000000000E+00  0.12325694496E+04  0.12325694496E+04  0.00000000000E+00 0. -1.
         -1   -1    0    0    0  501 -0.00000000000E+00 -0.00000000000E+00 -0.74818905799E+03  0.74818905799E+03  0.00000000000E+00 0.  1.
         23    2    1    2    0    0 -0.33420258347E+03  0.23965082459E+03 -0.45744060065E+03  0.62243197000E+03  0.95109251025E+02 0.  0.
        254    2    1    2    0    0  0.33420258347E+03 -0.23965082459E+03  0.94182099226E+03  0.13583265376E+04  0.88820060613E+03 0.  0.
         23    2    4    4    0    0  0.41191124935E+03 -0.83343429972E+01  0.10058320993E+04  0.10909748874E+04  0.93742490224E+02 0.  0.
         23    2    4    4    0    0 -0.77708665874E+02 -0.23131648159E+03 -0.64011107003E+02  0.26735165016E+03  0.88507240481E+02 0.  0.
          1    1    3    3  502    0  0.18652623970E+01 -0.11969995504E+00  0.33006574778E+01  0.37931348084E+01  0.00000000000E+00 0. -1.
         -1    1    3    3    0  502 -0.33606784587E+03  0.23977052454E+03 -0.46074125813E+03  0.61863883519E+03  0.00000000000E+00 0.  1.
         11    1    5    5    0    0 -0.24862373609E+01 -0.43479444052E+01  0.28809518301E+01  0.57780515931E+01  0.00000000000E+00 0.  1.
        -11    1    5    5    0    0  0.41439748671E+03 -0.39863985920E+01  0.10029511474E+04  0.10851968358E+04  0.00000000000E+00 0. -1.
          1    1    6    6  503    0 -0.60290075727E+02 -0.22764801930E+03 -0.42281636735E+02  0.23926188732E+03  0.00000000000E+00 0. -1.
         -1    1    6    6    0  503 -0.17418590147E+02 -0.36684622962E+01 -0.21729470268E+02  0.28089762841E+02  0.00000000000E+00 0.  1.
<mgrwt>
<rscale>  0 0.19206197E+04</rscale>
<asrwt>0</asrwt>
<pdfrwt beam="1">  1        1 0.18962607E+00 0.19206197E+04</pdfrwt>
<pdfrwt beam="2">  1       -1 0.11510601E+00 0.19206197E+04</pdfrwt>
<totfact> 0.64720146E+00</totfact>
</mgrwt>
</event>
<event>
12    2  0.3751044E-008  0.1345236E+04  0.7818608E-02  0.8994442E-01
          1   -1    0    0  501    0  0.00000000000E+00  0.00000000000E+00  0.12105195861E+04  0.12105195861E+04  0.00000000000E+00 0. -1.
         -1   -1    0    0    0  501 -0.00000000000E+00 -0.00000000000E+00 -0.37373616854E+03  0.37373616854E+03  0.00000000000E+00 0.  1.
         23    2    1    2    0    0  0.27860787673E+03 -0.22070313566E+03  0.16617553627E+03  0.40392499581E+03  0.95962859082E+02 0.  0.
        254    2    1    2    0    0 -0.27860787673E+03  0.22070313566E+03  0.67060788132E+03  0.11803307589E+04  0.90395439417E+03 0.  0.
         23    2    4    4    0    0  0.17403971106E+03  0.25771755487E+03  0.63840502602E+03  0.71591176056E+03  0.90887361899E+02 0.  0.
         23    2    4    4    0    0 -0.45264758779E+03 -0.37014419210E+02  0.32202855300E+02  0.46441899829E+03  0.91586440694E+02 0.  0.
          1    1    3    3  502    0  0.40648008323E+02 -0.46170106320E+02  0.70801784459E+02  0.93791428077E+02  0.00000000000E+00 0. -1.
         -1    1    3    3    0  502  0.23795986841E+03 -0.17453302934E+03  0.95373751807E+02  0.31013356773E+03  0.00000000000E+00 0.  1.
         11    1    5    5    0    0  0.13949105468E+03  0.25218464033E+03  0.55228733285E+03  0.62295757895E+03  0.00000000000E+00 0. -1.
        -11    1    5    5    0    0  0.34548656388E+02  0.55329145379E+01  0.86117693171E+02  0.92954181609E+02  0.00000000000E+00 0.  1.
          2    1    6    6  503    0 -0.25546663391E+03 -0.17064476507E+02 -0.27311215530E+02  0.25748844613E+03  0.00000000000E+00 0. -1.
         -2    1    6    6    0  503 -0.19718095388E+03 -0.19949942703E+02  0.59514070830E+02  0.20693055216E+03  0.00000000000E+00 0.  1.
<mgrwt>
<rscale>  0 0.13452360E+04</rscale>
<asrwt>0</asrwt>
<pdfrwt beam="1">  1        1 0.18623378E+00 0.13452360E+04</pdfrwt>
<pdfrwt beam="2">  1       -1 0.57497873E-01 0.13452360E+04</pdfrwt>
<totfact> 0.31488622E+01</totfact>
</mgrwt>
</event>
<event>
12    2  0.3751044E-008  0.1360453E+04  0.7818608E-02  0.8982953E-01
         -2   -1    0    0    0  501 -0.00000000000E+00  0.00000000000E+00  0.13183347691E+03  0.13183347691E+03  0.00000000000E+00 0. -1.
          2   -1    0    0  501    0  0.00000000000E+00 -0.00000000000E+00 -0.35097902707E+04  0.35097902707E+04  0.00000000000E+00 0.  1.
         23    2    1    2    0    0 -0.34237049451E+03  0.28535141024E+02 -0.13333173235E+04  0.13796611629E+04  0.87738415171E+02 0.  0.
        254    2    1    2    0    0  0.34237049451E+03 -0.28535141024E+02 -0.20446394703E+04  0.22619625847E+04  0.90437401629E+03 0.  0.
         23    2    4    4    0    0  0.16298822164E+03  0.41757412856E+03 -0.12085508524E+04  0.12927807492E+04  0.98760262203E+02 0.  0.
         23    2    4    4    0    0  0.17938227288E+03 -0.44610926958E+03 -0.83608861786E+03  0.96918183549E+03  0.95277348285E+02 0.  0.
          4    1    3    3  502    0 -0.34162913513E+03  0.17755779597E+02 -0.13105213853E+04  0.13544342122E+04  0.00000000000E+00 0. -1.
         -4    1    3    3    0  502 -0.74135937910E+00  0.10779361427E+02 -0.22795938177E+02  0.25226950745E+02  0.00000000000E+00 0.  1.
         11    1    5    5    0    0  0.84283437826E+02  0.23370113539E+03 -0.52946115301E+03  0.58484957991E+03  0.00000000000E+00 0. -1.
        -11    1    5    5    0    0  0.78704783810E+02  0.18387299317E+03 -0.67908969939E+03  0.70793116927E+03  0.00000000000E+00 0.  1.
          3    1    6    6  503    0  0.35380509864E+02 -0.15938278747E+03 -0.21340466423E+03  0.26869351339E+03  0.00000000000E+00 0. -1.
         -3    1    6    6    0  503  0.14400176301E+03 -0.28672648211E+03 -0.62268395362E+03  0.70048832210E+03  0.00000000000E+00 0.  1.
<mgrwt>
<rscale>  0 0.13604527E+04</rscale>
<asrwt>0</asrwt>
<pdfrwt beam="1">  1        2 0.53996770E+00 0.13604527E+04</pdfrwt>
<pdfrwt beam="2">  1       -2 0.20282075E-01 0.13604527E+04</pdfrwt>
<totfact> 0.16597495E+01</totfact>
</mgrwt>
</event>
<event>
12    2  0.3751044E-008  0.1781570E+04  0.7818608E-02  0.8716162E-01
          4   -1    0    0  501    0  0.00000000000E+00  0.00000000000E+00  0.36750902446E+03  0.36750902446E+03  0.00000000000E+00 0. -1.
         -4   -1    0    0    0  501 -0.00000000000E+00 -0.00000000000E+00 -0.21591249459E+04  0.21591249459E+04  0.00000000000E+00 0.  1.
         23    2    1    2    0    0  0.15173130232E+02  0.23687550755E+03 -0.15532358368E+04  0.15738787440E+04  0.90622879665E+02 0.  0.
        254    2    1    2    0    0 -0.15173130232E+02 -0.23687550755E+03 -0.23838008461E+03  0.95275522627E+03  0.89139061387E+03 0.  0.
         23    2    4    4    0    0  0.26059247861E+03 -0.38296513001E+03 -0.37008814187E+03  0.60079768966E+03  0.97066474313E+02 0.  0.
         23    2    4    4    0    0 -0.27576560884E+03  0.14608962247E+03  0.13170805726E+03  0.35195753661E+03  0.95594175629E+02 0.  0.
          1    1    3    3  502    0 -0.19937114357E+02  0.69855371777E+02 -0.28065520714E+03  0.28990447873E+03  0.00000000000E+00 0. -1.
         -1    1    3    3    0  502  0.35110244590E+02  0.16702013577E+03 -0.12725806296E+04  0.12839742653E+04  0.00000000000E+00 0.  1.
         11    1    5    5    0    0  0.29789786113E+02 -0.92855325572E+02 -0.43656465795E+02  0.10684301498E+03  0.00000000000E+00 0. -1.
        -11    1    5    5    0    0  0.23080269250E+03 -0.29010980444E+03 -0.32643167608E+03  0.49395467468E+03  0.00000000000E+00 0.  1.
          2    1    6    6  503    0 -0.35047130963E+00 -0.25859673599E+01  0.19186480803E+02  0.19363137735E+02  0.00000000000E+00 0. -1.
         -2    1    6    6    0  503 -0.27541513753E+03  0.14867558983E+03  0.11252157646E+03  0.33259439887E+03  0.00000000000E+00 0.  1.
<mgrwt>
<rscale>  0 0.17815700E+04</rscale>
<asrwt>0</asrwt>
<pdfrwt beam="1">  1        4 0.56539849E-01 0.17815700E+04</pdfrwt>
<pdfrwt beam="2">  1       -4 0.33217307E+00 0.17815700E+04</pdfrwt>
<totfact> 0.10947531E-01</totfact>
</mgrwt>
</event>
<event>
12    2  0.3751044E-008  0.2471329E+04  0.7818608E-02  0.8413272E-01
         -1   -1    0    0    0  501 -0.00000000000E+00  0.00000000000E+00  0.53471223592E+03  0.53471223592E+03  0.00000000000E+00 0.  1.
          1   -1    0    0  501    0  0.00000000000E+00 -0.00000000000E+00 -0.28554920168E+04  0.28554920168E+04  0.00000000000E+00 0. -1.
         23    2    1    2    0    0 -0.23503218819E+02 -0.41236925263E+03  0.34789089940E+03  0.54512357300E+03  0.74369551246E+02 0.  0.
        254    2    1    2    0    0  0.23503218819E+02  0.41236925263E+03 -0.26686706803E+04  0.28450806798E+04  0.89558923203E+03 0.  0.
         23    2    4    4    0    0 -0.30600117086E+03  0.23337956862E+03 -0.22101166277E+04  0.22452288266E+04  0.91292038901E+02 0.  0.
         23    2    4    4    0    0  0.32950438968E+03  0.17898968401E+03 -0.45855405263E+03  0.59985185312E+03  0.94551450067E+02 0.  0.
          2    1    3    3  502    0 -0.80919945357E+01 -0.16509132588E+02  0.76967689416E+00  0.18401745485E+02  0.00000000000E+00 0. -1.
         -2    1    3    3    0  502 -0.15411224283E+02 -0.39586012004E+03  0.34712122250E+03  0.52672182752E+03  0.00000000000E+00 0.  1.
         11    1    5    5    0    0 -0.23103481991E+03  0.20135082222E+03 -0.15421470972E+04  0.15723030595E+04  0.00000000000E+00 0.  1.
        -11    1    5    5    0    0 -0.74966350950E+02  0.32028746400E+02 -0.66796953054E+03  0.67292576716E+03  0.00000000000E+00 0. -1.
          4    1    6    6  503    0  0.25072473314E+03  0.17853298228E+03 -0.37157319685E+03  0.48249721055E+03  0.00000000000E+00 0. -1.
         -4    1    6    6    0  503  0.78779656538E+02  0.45670172679E+00 -0.86980855782E+02  0.11735464257E+03  0.00000000000E+00 0.  1.
<mgrwt>
<rscale>  0 0.24713288E+04</rscale>
<asrwt>0</asrwt>
<pdfrwt beam="1">  1        1 0.43930647E+00 0.24713288E+04</pdfrwt>
<pdfrwt beam="2">  1       -1 0.82263419E-01 0.24713288E+04</pdfrwt>
<totfact> 0.99522865E-01</totfact>
</mgrwt>
</event>
<event>
12    2  0.3751044E-008  0.1748806E+04  0.7818608E-02  0.8734008E-01
         -2   -1    0    0    0  501 -0.00000000000E+00  0.00000000000E+00  0.49353191805E+03  0.49353191805E+03  0.00000000000E+00 0.  1.
          2   -1    0    0  501    0  0.00000000000E+00 -0.00000000000E+00 -0.15492021792E+04  0.15492021792E+04  0.00000000000E+00 0. -1.
         23    2    1    2    0    0  0.31242674983E+03  0.56594618994E+03 -0.30734634429E+03  0.72138273130E+03  0.89586303354E+02 0.  0.
        254    2    1    2    0    0 -0.31242674983E+03 -0.56594618994E+03 -0.74832391689E+03  0.13213513660E+04  0.87639898670E+03 0.  0.
         23    2    4    4    0    0  0.26395942570E+03 -0.27043628084E+03 -0.47116732290E+03  0.61104768611E+03  0.92575742641E+02 0.  0.
         23    2    4    4    0    0 -0.57638617553E+03 -0.29550990910E+03 -0.27715659399E+03  0.71030367987E+03  0.90379258328E+02 0.  0.
          2    1    3    3  502    0  0.17443573542E+03  0.35899476773E+03 -0.14648669744E+03  0.42516281772E+03  0.00000000000E+00 0. -1.
         -2    1    3    3    0  502  0.13799101441E+03  0.20695142221E+03 -0.16085964685E+03  0.29621991358E+03  0.00000000000E+00 0.  1.
         11    1    5    5    0    0  0.10969859463E+03 -0.17105360419E+03 -0.21383795959E+03  0.29499116958E+03  0.00000000000E+00 0. -1.
        -11    1    5    5    0    0  0.15426083107E+03 -0.99382676653E+02 -0.25732936331E+03  0.31605651653E+03  0.00000000000E+00 0.  1.
          3    1    6    6  503    0 -0.31947390530E+03 -0.11321567242E+03 -0.13962175904E+03  0.36657277620E+03  0.00000000000E+00 0. -1.
         -3    1    6    6    0  503 -0.25691227022E+03 -0.18229423668E+03 -0.13753483494E+03  0.34373090368E+03  0.00000000000E+00 0.  1.
<mgrwt>
<rscale>  0 0.17488061E+04</rscale>
<asrwt>0</asrwt>
<pdfrwt beam="1">  1        2 0.23833879E+00 0.17488061E+04</pdfrwt>
<pdfrwt beam="2">  1       -2 0.75927989E-01 0.17488061E+04</pdfrwt>
<totfact> 0.17538071E+01</totfact>
</mgrwt>
</event>
<event>
12    2  0.3751044E-008  0.1791436E+04  0.7818608E-02  0.8710867E-01
         -1   -1    0    0    0  501 -0.00000000000E+00  0.00000000000E+00  0.76028817357E+03  0.76028817357E+03  0.00000000000E+00 0.  1.
          1   -1    0    0  501    0  0.00000000000E+00 -0.00000000000E+00 -0.10552717466E+04  0.10552717466E+04  0.00000000000E+00 0. -1.
         23    2    1    2    0    0 -0.19762686346E+03 -0.57573415297E+03 -0.37076064181E+02  0.61651615026E+03  0.90506004988E+02 0.  0.
        254    2    1    2    0    0  0.19762686346E+03  0.57573415297E+03 -0.25790750882E+03  0.11990437699E+04  0.10003316885E+04 0.  0.
         23    2    4    4    0    0  0.52952195841E+03  0.56898743839E+03 -0.32734816839E+03  0.84862512110E+03  0.94167740396E+02 0.  0.
         23    2    4    4    0    0 -0.33189509495E+03  0.67467145807E+01  0.69440659572E+02  0.35041864879E+03  0.88155272153E+02 0.  0.
          4    1    3    3  502    0 -0.94377550628E+01 -0.21424666136E+02 -0.20148499401E+02  0.30887692820E+02  0.00000000000E+00 0. -1.
         -4    1    3    3    0  502 -0.18818910840E+03 -0.55430948684E+03 -0.16927564780E+02  0.58562845744E+03  0.00000000000E+00 0.  1.
         11    1    5    5    0    0  0.23279557927E+03  0.22058826696E+03 -0.18047501925E+03  0.36800026878E+03  0.00000000000E+00 0. -1.
        -11    1    5    5    0    0  0.29672637914E+03  0.34839917143E+03 -0.14687314914E+03  0.48062485232E+03  0.00000000000E+00 0.  1.
          2    1    6    6  503    0 -0.11608130682E+03 -0.18688213813E+01  0.67765113337E+02  0.13442645897E+03  0.00000000000E+00 0. -1.
         -2    1    6    6    0  503 -0.21581378813E+03  0.86155359619E+01  0.16755462351E+01  0.21599218981E+03  0.00000000000E+00 0.  1.
<mgrwt>
<rscale>  0 0.17914359E+04</rscale>
<asrwt>0</asrwt>
<pdfrwt beam="1">  1        1 0.16234950E+00 0.17914359E+04</pdfrwt>
<pdfrwt beam="2">  1       -1 0.11696741E+00 0.17914359E+04</pdfrwt>
<totfact> 0.85324646E+00</totfact>
</mgrwt>
</event>
<event>
12    2  0.3751044E-008  0.1444821E+04  0.7818608E-02  0.8921999E-01
         -2   -1    0    0    0  501 -0.00000000000E+00  0.00000000000E+00  0.35970732990E+03  0.35970732990E+03  0.00000000000E+00 0.  1.
          2   -1    0    0  501    0  0.00000000000E+00 -0.00000000000E+00 -0.14508368995E+04  0.14508368995E+04  0.00000000000E+00 0. -1.
         23    2    1    2    0    0 -0.14416281042E+03  0.45099408321E+03 -0.30569342120E+03  0.57118439473E+03  0.92868541610E+02 0.  0.
        254    2    1    2    0    0  0.14416281042E+03 -0.45099408321E+03 -0.78543614837E+03  0.12393598346E+04  0.83362118347E+03 0.  0.
         23    2    4    4    0    0 -0.14649219990E+03 -0.31524775172E+03 -0.82698434148E+03  0.90152974993E+03  0.89507984897E+02 0.  0.
         23    2    4    4    0    0  0.29065501032E+03 -0.13574633149E+03  0.41548193114E+02  0.33783008470E+03  0.97444919014E+02 0.  0.
          3    1    3    3  502    0  0.41912351065E+01  0.18888688238E+02 -0.35427351931E+02  0.40366400136E+02  0.00000000000E+00 0. -1.
         -3    1    3    3    0  502 -0.14835404552E+03  0.43210539497E+03 -0.27026606927E+03  0.53081799460E+03  0.00000000000E+00 0.  1.
         11    1    5    5    0    0 -0.10516585624E+03 -0.13986665562E+03 -0.34230872784E+03  0.38444479946E+03  0.00000000000E+00 0. -1.
        -11    1    5    5    0    0 -0.41326343655E+02 -0.17538109611E+03 -0.48467561364E+03  0.51708495048E+03  0.00000000000E+00 0.  1.
          3    1    6    6  503    0  0.24808638489E+03 -0.14246739230E+03  0.13482562100E+02  0.28640110286E+03  0.00000000000E+00 0. -1.
         -3    1    6    6    0  503  0.42568625422E+02  0.67210608115E+01  0.28065631013E+02  0.51428981838E+02  0.00000000000E+00 0.  1.
<mgrwt>
<rscale>  0 0.14448206E+04</rscale>
<asrwt>0</asrwt>
<pdfrwt beam="1">  1        2 0.22320568E+00 0.14448206E+04</pdfrwt>
<pdfrwt beam="2">  1       -2 0.55339589E-01 0.14448206E+04</pdfrwt>
<totfact> 0.40297775E+01</totfact>
</mgrwt>
</event>
<event>
12    2  0.3751044E-008  0.1810855E+04  0.7818608E-02  0.8700548E-01
          2   -1    0    0  501    0  0.00000000000E+00  0.00000000000E+00  0.10197154160E+04  0.10197154160E+04  0.00000000000E+00 0. -1.
         -2   -1    0    0    0  501 -0.00000000000E+00 -0.00000000000E+00 -0.80394921488E+03  0.80394921488E+03  0.00000000000E+00 0.  1.
         23    2    1    2    0    0 -0.38793303278E+03  0.54866210382E+03  0.24702260815E+01  0.67838707215E+03  0.93170679671E+02 0.  0.
        254    2    1    2    0    0  0.38793303278E+03 -0.54866210382E+03  0.21329597504E+03  0.11452775587E+04  0.90257596438E+03 0.  0.
         23    2    4    4    0    0  0.18327362878E+03 -0.12139325840E+03 -0.33706207402E+03  0.41306548504E+03  0.93202505294E+02 0.  0.
         23    2    4    4    0    0  0.20465940401E+03 -0.42726884542E+03  0.55035804907E+03  0.73221207370E+03  0.93789129346E+02 0.  0.
          3    1    3    3  502    0 -0.16897959243E+03  0.18940812409E+03  0.35839022815E+02  0.25634737308E+03  0.00000000000E+00 0. -1.
         -3    1    3    3    0  502 -0.21895344035E+03  0.35925397974E+03 -0.33368796734E+02  0.42203969907E+03  0.00000000000E+00 0.  1.
         11    1    5    5    0    0  0.18528105198E+02 -0.35778320793E+02 -0.12439116548E+03  0.13075374171E+03  0.00000000000E+00 0. -1.
        -11    1    5    5    0    0  0.16474552358E+03 -0.85614937610E+02 -0.21267090854E+03  0.28231174333E+03  0.00000000000E+00 0.  1.
          2    1    6    6  503    0  0.19843017517E+03 -0.43107167729E+03  0.54705661384E+03  0.72420181174E+03  0.00000000000E+00 0. -1.
         -2    1    6    6    0  503  0.62292288328E+01  0.38028318724E+01  0.33014352307E+01  0.80102619610E+01  0.00000000000E+00 0.  1.
<mgrwt>
<rscale>  0 0.18108555E+04</rscale>
<asrwt>0</asrwt>
<pdfrwt beam="1">  1        2 0.15687929E+00 0.18108555E+04</pdfrwt>
<pdfrwt beam="2">  1       -2 0.12368449E+00 0.18108555E+04</pdfrwt>
<totfact> 0.11363740E+01</totfact>
</mgrwt>
</event>
<event>
12    2  0.3751044E-008  0.1568085E+04  0.7818608E-02  0.8840398E-01
          2   -1    0    0  501    0  0.00000000000E+00  0.00000000000E+00  0.38229228622E+04  0.38229228622E+04  0.00000000000E+00 0. -1.
         -2   -1    0    0    0  501 -0.00000000000E+00 -0.00000000000E+00 -0.16079919536E+03  0.16079919536E+03  0.00000000000E+00 0.  1.
         23    2    1    2    0    0  0.14393056471E+02 -0.23196210530E+03  0.52032332359E+02  0.25616021842E+03  0.94324522374E+02 0.  0.
        254    2    1    2    0    0 -0.14393056471E+02  0.23196210530E+03  0.36100913345E+04  0.37275618392E+04  0.89885718716E+03 0.  0.
         23    2    4    4    0    0  0.13707324529E+03  0.10234884445E+03  0.11478437350E+03  0.22545898868E+03  0.91607546844E+02 0.  0.
         23    2    4    4    0    0 -0.15146630176E+03  0.12961326085E+03  0.34953069610E+04  0.35021028505E+04  0.88385438698E+02 0.  0.
          3    1    3    3  502    0  0.54171178666E+02 -0.11159496975E+03  0.26269394159E+02  0.12679919140E+03  0.00000000000E+00 0. -1.
         -3    1    3    3    0  502 -0.39778122195E+02 -0.12036713555E+03  0.25762938200E+02  0.12936102702E+03  0.00000000000E+00 0.  1.
         11    1    5    5    0    0  0.12006288629E+03  0.36302640196E+02  0.67201984193E+02  0.14229927979E+03  0.00000000000E+00 0.  1.
        -11    1    5    5    0    0  0.17010359006E+02  0.66046204253E+02  0.47582389310E+02  0.83159708887E+02  0.00000000000E+00 0. -1.
          1    1    6    6  503    0 -0.70602814945E+02  0.38500858919E+02  0.20829696778E+04  0.20845214684E+04  0.00000000000E+00 0. -1.
         -1    1    6    6    0  503 -0.80863486819E+02  0.91112401930E+02  0.14123372832E+04  0.14175813821E+04  0.00000000000E+00 0.  1.
<mgrwt>
<rscale>  0 0.15680854E+04</rscale>
<asrwt>0</asrwt>
<pdfrwt beam="1">  1        2 0.58814191E+00 0.15680854E+04</pdfrwt>
<pdfrwt beam="2">  1       -2 0.24738340E-01 0.15680854E+04</pdfrwt>
<totfact> 0.67501904E+00</totfact>
</mgrwt>
</event>
<event>
12    2  0.3751044E-008  0.2312844E+04  0.7818608E-02  0.8472874E-01
          2   -1    0    0  501    0  0.00000000000E+00  0.00000000000E+00  0.16478246222E+04  0.16478246222E+04  0.00000000000E+00 0. -1.
         -2   -1    0    0    0  501 -0.00000000000E+00 -0.00000000000E+00 -0.81156186491E+03  0.81156186491E+03  0.00000000000E+00 0.  1.
         23    2    1    2    0    0 -0.56582247481E+03 -0.15785464757E+03 -0.47702439751E+03  0.76251852406E+03  0.93856597792E+02 0.  0.
        254    2    1    2    0    0  0.56582247481E+03  0.15785464757E+03  0.13132871548E+04  0.16968679631E+04  0.89975806212E+03 0.  0.
         23    2    4    4    0    0  0.35826121535E+03 -0.32822514090E+03  0.39281916841E+03  0.63154130924E+03  0.91949359264E+02 0.  0.
         23    2    4    4    0    0  0.20756125946E+03  0.48607978847E+03  0.92046798641E+03  0.10653266538E+04  0.91128086653E+02 0.  0.
          4    1    3    3  502    0 -0.49151115200E+03 -0.16095198277E+03 -0.44189131320E+03  0.68026221854E+03  0.00000000000E+00 0.  1.
         -4    1    3    3    0  502 -0.74311322814E+02  0.30973352007E+01 -0.35133084312E+02  0.82256305515E+02  0.00000000000E+00 0. -1.
         11    1    5    5    0    0  0.27442385812E+03 -0.29487506606E+03  0.33901922565E+03  0.52649196941E+03  0.00000000000E+00 0. -1.
        -11    1    5    5    0    0  0.83837357234E+02 -0.33350074842E+02  0.53799942756E+02  0.10504933984E+03  0.00000000000E+00 0.  1.
          1    1    6    6  503    0  0.19018929408E+03  0.41210596005E+03  0.72201947695E+03  0.85282789295E+03  0.00000000000E+00 0. -1.
         -1    1    6    6    0  503  0.17371965378E+02  0.73973828418E+02  0.19844850945E+03  0.21249876088E+03  0.00000000000E+00 0.  1.
<mgrwt>
<rscale>  0 0.23128438E+04</rscale>
<asrwt>0</asrwt>
<pdfrwt beam="1">  1        2 0.25351148E+00 0.23128438E+04</pdfrwt>
<pdfrwt beam="2">  1       -2 0.12485567E+00 0.23128438E+04</pdfrwt>
<totfact> 0.45674550E+00</totfact>
</mgrwt>
</event>
<event>
12    2  0.3751044E-008  0.2020032E+04  0.7818608E-02  0.8597312E-01
         -1   -1    0    0    0  501 -0.00000000000E+00  0.00000000000E+00  0.12257883781E+04  0.12257883781E+04  0.00000000000E+00 0.  1.
          1   -1    0    0  501    0  0.00000000000E+00 -0.00000000000E+00 -0.83222559844E+03  0.83222559844E+03  0.00000000000E+00 0. -1.
         23    2    1    2    0    0 -0.34739990399E+02 -0.22799911047E+03 -0.61680765764E+03  0.66481601311E+03  0.91313654305E+02 0.  0.
        254    2    1    2    0    0  0.34739990399E+02  0.22799911047E+03  0.10103704372E+04  0.13931979634E+04  0.93110777217E+03 0.  0.
         23    2    4    4    0    0 -0.18050480927E+02 -0.30642148133E+03  0.69021952878E+03  0.76203294670E+03  0.10035571664E+03 0.  0.
         23    2    4    4    0    0  0.52790471327E+02  0.53442059180E+03  0.32015090847E+03  0.63116501668E+03  0.86489717825E+02 0.  0.
          2    1    3    3  502    0 -0.59429328301E+02 -0.18219161391E+03 -0.53027897879E+03  0.56384521332E+03  0.00000000000E+00 0. -1.
         -2    1    3    3    0  502  0.24689337902E+02 -0.45807496554E+02 -0.86528678850E+02  0.10097079979E+03  0.00000000000E+00 0.  1.
         11    1    5    5    0    0 -0.24103358328E+02 -0.31098547691E+03  0.64831082780E+03  0.71944413833E+03  0.00000000000E+00 0. -1.
        -11    1    5    5    0    0  0.60528774007E+01  0.45639955822E+01  0.41908700978E+02  0.42588808367E+02  0.00000000000E+00 0.  1.
          3    1    6    6  503    0 -0.54708194242E+01  0.29974473230E+03  0.20618883780E+03  0.36385528887E+03  0.00000000000E+00 0. -1.
         -3    1    6    6    0  503  0.58261290751E+02  0.23467585949E+03  0.11396207067E+03  0.26730972781E+03  0.00000000000E+00 0.  1.
<mgrwt>
<rscale>  0 0.20200321E+04</rscale>
<asrwt>0</asrwt>
<pdfrwt beam="1">  1        1 0.12803471E+00 0.20200321E+04</pdfrwt>
<pdfrwt beam="2">  1       -1 0.18858283E+00 0.20200321E+04</pdfrwt>
<totfact> 0.34717627E+00</totfact>
</mgrwt>
</event>
<event>
12    2  0.3751044E-008  0.3639957E+04  0.7818608E-02  0.8081400E-01
         -2   -1    0    0    0  501 -0.00000000000E+00  0.00000000000E+00  0.16299516531E+04  0.16299516531E+04  0.00000000000E+00 0.  1.
          2   -1    0    0  501    0  0.00000000000E+00 -0.00000000000E+00 -0.20321596662E+04  0.20321596662E+04  0.00000000000E+00 0. -1.
         23    2    1    2    0    0 -0.14565214073E+04  0.11150730874E+02 -0.10870501265E+04  0.18197515275E+04  0.90767260443E+02 0.  0.
        254    2    1    2    0    0  0.14565214073E+04 -0.11150730874E+02  0.68484211337E+03  0.18423597918E+04  0.89649424627E+03 0.  0.
         23    2    4    4    0    0  0.88028627192E+03  0.42594522359E+03  0.39510828895E+03  0.10586032942E+04  0.90537950854E+02 0.  0.
         23    2    4    4    0    0  0.57623513539E+03 -0.43709595446E+03  0.28973382443E+03  0.78375649760E+03  0.85022078644E+02 0.  0.
          1    1    3    3  502    0 -0.13488369775E+04  0.27313323952E+02 -0.10258776952E+04  0.16948546412E+04  0.00000000000E+00 0. -1.
         -1    1    3    3    0  502 -0.10768442981E+03 -0.16162593079E+02 -0.61172431304E+02  0.12489688623E+03  0.00000000000E+00 0.  1.
         11    1    5    5    0    0  0.70252955985E+03  0.30611475300E+03  0.33182947350E+03  0.83508372272E+03  0.00000000000E+00 0. -1.
        -11    1    5    5    0    0  0.17775671207E+03  0.11983047058E+03  0.63278815449E+02  0.22351957152E+03  0.00000000000E+00 0.  1.
          2    1    6    6  503    0  0.56194560722E+03 -0.41168640963E+03  0.29009664963E+03  0.75460230020E+03  0.00000000000E+00 0. -1.
         -2    1    6    6    0  503  0.14289528166E+02 -0.25409544832E+02 -0.36282520282E+00  0.29154197398E+02  0.00000000000E+00 0.  1.
<mgrwt>
<rscale>  0 0.36399571E+04</rscale>
<asrwt>0</asrwt>
<pdfrwt beam="1">  1        2 0.31263995E+00 0.36399571E+04</pdfrwt>
<pdfrwt beam="2">  1       -2 0.25076179E+00 0.36399571E+04</pdfrwt>
<totfact> 0.33112692E-01</totfact>
</mgrwt>
</event>
<event>
12    2  0.3751044E-008  0.1193143E+04  0.7818608E-02  0.9118879E-01
         -2   -1    0    0    0  501 -0.00000000000E+00  0.00000000000E+00  0.10044851540E+03  0.10044851540E+03  0.00000000000E+00 0.  1.
          2   -1    0    0  501    0  0.00000000000E+00 -0.00000000000E+00 -0.35430868979E+04  0.35430868979E+04  0.00000000000E+00 0. -1.
         23    2    1    2    0    0  0.82878938236E+02  0.97703491682E+01 -0.81483882233E+02  0.14793522755E+03  0.90999067913E+02 0.  0.
        254    2    1    2    0    0 -0.82878938236E+02 -0.97703491682E+01 -0.33611545003E+04  0.34956001858E+04  0.95650232924E+03 0.  0.
         23    2    4    4    0    0  0.68533299948E+01 -0.22797384340E+03 -0.18012128946E+03  0.30450269222E+03  0.90879971631E+02 0.  0.
         23    2    4    4    0    0 -0.89732268231E+02  0.21820349424E+03 -0.31810332108E+04  0.31910974936E+04  0.92012390987E+02 0.  0.
          1    1    3    3  502    0  0.51612008185E+02  0.10350409844E+01 -0.98554959401E+02  0.11125623902E+03  0.00000000000E+00 0. -1.
         -1    1    3    3    0  502  0.31266930051E+02  0.87353081837E+01  0.17071077168E+02  0.36678988530E+02  0.00000000000E+00 0.  1.
         11    1    5    5    0    0  0.46735299075E+02 -0.12244904187E+03 -0.79183405650E+02  0.15312729268E+03  0.00000000000E+00 0. -1.
        -11    1    5    5    0    0 -0.39881969080E+02 -0.10552480154E+03 -0.10093788381E+03  0.15137539954E+03  0.00000000000E+00 0.  1.
          1    1    6    6  503    0 -0.58157663505E+02  0.12453832237E+03 -0.12495657363E+04  0.12571024767E+04  0.00000000000E+00 0. -1.
         -1    1    6    6    0  503 -0.31574604726E+02  0.93665171862E+02 -0.19314674745E+04  0.19339950169E+04  0.00000000000E+00 0.  1.
<mgrwt>
<rscale>  0 0.11931434E+04</rscale>
<asrwt>0</asrwt>
<pdfrwt beam="1">  1        2 0.54509028E+00 0.11931434E+04</pdfrwt>
<pdfrwt beam="2">  1       -2 0.15453618E-01 0.11931434E+04</pdfrwt>
<totfact> 0.25673393E+01</totfact>
</mgrwt>
</event>
<event>
12    2  0.3751044E-008  0.1522192E+04  0.7818608E-02  0.8869828E-01
          1   -1    0    0  501    0  0.00000000000E+00  0.00000000000E+00  0.38351090721E+03  0.38351090721E+03  0.00000000000E+00 0. -1.
         -1   -1    0    0    0  501 -0.00000000000E+00 -0.00000000000E+00 -0.15104319462E+04  0.15104319462E+04  0.00000000000E+00 0.  1.
         23    2    1    2    0    0  0.49935512262E+02  0.32812616569E+03  0.85382319627E+02  0.35441644217E+03  0.90335696066E+02 0.  0.
        254    2    1    2    0    0 -0.49935512262E+02 -0.32812616569E+03 -0.12123033586E+04  0.15395264112E+04  0.88898920215E+03 0.  0.
         23    2    4    4    0    0 -0.49727992315E+02 -0.61979670846E+03 -0.67446344300E+03  0.92206445550E+03  0.93172373224E+02 0.  0.
         23    2    4    4    0    0 -0.20751994673E+00  0.29167054277E+03 -0.53783991558E+03  0.61746195568E+03  0.83160948425E+02 0.  0.
          4    1    3    3  502    0  0.23393726869E+02  0.21708318919E+03  0.98432102654E+02  0.23950210086E+03  0.00000000000E+00 0. -1.
         -4    1    3    3    0  502  0.26541785393E+02  0.11104297650E+03 -0.13049783026E+02  0.11491434131E+03  0.00000000000E+00 0.  1.
         11    1    5    5    0    0 -0.76894105627E+01 -0.27659661977E+03 -0.36507038689E+03  0.45808427661E+03  0.00000000000E+00 0.  1.
        -11    1    5    5    0    0 -0.42038581752E+02 -0.34320008869E+03 -0.30939305611E+03  0.46398017889E+03  0.00000000000E+00 0. -1.
          3    1    6    6  503    0  0.92550110005E+01  0.29252063005E+03 -0.52858461393E+03  0.60419836835E+03  0.00000000000E+00 0. -1.
         -3    1    6    6    0  503 -0.94625309472E+01 -0.85008728193E+00 -0.92553016462E+01  0.13263587331E+02  0.00000000000E+00 0.  1.
<mgrwt>
<rscale>  0 0.15221920E+04</rscale>
<asrwt>0</asrwt>
<pdfrwt beam="1">  1        1 0.59001677E-01 0.15221920E+04</pdfrwt>
<pdfrwt beam="2">  1       -1 0.23237415E+00 0.15221920E+04</pdfrwt>
<totfact> 0.55789127E+00</totfact>
</mgrwt>
</event>
<event>
12    2  0.3751044E-008  0.1818329E+04  0.7818608E-02  0.8696612E-01
          1   -1    0    0  501    0  0.00000000000E+00  0.00000000000E+00  0.16368276500E+04  0.16368276500E+04  0.00000000000E+00 0. -1.
         -1   -1    0    0    0  501 -0.00000000000E+00 -0.00000000000E+00 -0.50498919819E+03  0.50498919819E+03  0.00000000000E+00 0.  1.
         23    2    1    2    0    0 -0.26076741326E+03  0.16353486658E+03  0.11368444184E+04  0.11812022741E+04  0.89890402604E+02 0.  0.
        254    2    1    2    0    0  0.26076741326E+03 -0.16353486658E+03 -0.50059665565E+01  0.96061457404E+03  0.90995164912E+03 0.  0.
         23    2    4    4    0    0  0.42053972893E+03 -0.35396640218E+03  0.23465454228E+03  0.60431748397E+03  0.89392336055E+02 0.  0.
         23    2    4    4    0    0 -0.15977231566E+03  0.19043153560E+03 -0.23966050884E+03  0.35629709006E+03  0.87858376315E+02 0.  0.
          2    1    3    3  502    0 -0.20378462076E+03  0.14133662861E+03  0.76032515098E+03  0.79974905405E+03  0.00000000000E+00 0. -1.
         -2    1    3    3    0  502 -0.56982792503E+02  0.22198237976E+02  0.37651926738E+03  0.38145322010E+03  0.00000000000E+00 0.  1.
         11    1    5    5    0    0 -0.34072694832E+00 -0.14169620594E+02 -0.11653273546E+01  0.14221541072E+02  0.00000000000E+00 0.  1.
        -11    1    5    5    0    0  0.42088045587E+03 -0.33979678159E+03  0.23581986963E+03  0.59009594290E+03  0.00000000000E+00 0. -1.
          4    1    6    6  503    0 -0.10805199752E+03  0.60900831703E+02 -0.11862714675E+03  0.17162909257E+03  0.00000000000E+00 0.  1.
         -4    1    6    6    0  503 -0.51720318145E+02  0.12953070389E+03 -0.12103336209E+03  0.18466799749E+03  0.00000000000E+00 0. -1.
<mgrwt>
<rscale>  0 0.18183292E+04</rscale>
<asrwt>0</asrwt>
<pdfrwt beam="1">  1        1 0.25181964E+00 0.18183292E+04</pdfrwt>
<pdfrwt beam="2">  1       -1 0.77690647E-01 0.18183292E+04</pdfrwt>
<totfact> 0.82331515E+00</totfact>
</mgrwt>
</event>
<event>
12    2  0.3751044E-008  0.1256830E+04  0.7818608E-02  0.9064518E-01
         -2   -1    0    0    0  501 -0.00000000000E+00  0.00000000000E+00  0.33098798030E+03  0.33098798030E+03  0.00000000000E+00 0.  1.
          2   -1    0    0  501    0  0.00000000000E+00 -0.00000000000E+00 -0.11931101676E+04  0.11931101676E+04  0.00000000000E+00 0. -1.
         23    2    1    2    0    0 -0.81724789943E+02  0.26033287539E+02  0.93030035403E+02  0.15592069896E+03  0.91104355144E+02 0.  0.
        254    2    1    2    0    0  0.81724789943E+02 -0.26033287539E+02 -0.95515222271E+03  0.13681774489E+04  0.97582636258E+03 0.  0.
         23    2    4    4    0    0  0.24446728080E+03 -0.36444405518E+03 -0.14805008745E+03  0.47226931502E+03  0.92389159400E+02 0.  0.
         23    2    4    4    0    0 -0.16274249086E+03  0.33841076764E+03 -0.80710213526E+03  0.89590813393E+03  0.10114623921E+03 0.  0.
          4    1    3    3  502    0  0.14265093338E+02  0.17904382850E+02  0.13464502668E+01  0.22931915347E+02  0.00000000000E+00 0. -1.
         -4    1    3    3    0  502 -0.95989883281E+02  0.81289046890E+01  0.91683585136E+02  0.13298878361E+03  0.00000000000E+00 0.  1.
         11    1    5    5    0    0  0.23238213243E+03 -0.31828923616E+03 -0.15610245517E+03  0.42388379285E+03  0.00000000000E+00 0. -1.
        -11    1    5    5    0    0  0.12085148370E+02 -0.46154819018E+02  0.80523677187E+01  0.48385522169E+02  0.00000000000E+00 0.  1.
          3    1    6    6  503    0 -0.16541317443E+03  0.26326501181E+03 -0.68894752161E+03  0.75585625105E+03  0.00000000000E+00 0. -1.
         -3    1    6    6    0  503  0.26706835724E+01  0.75145755834E+02 -0.11815461365E+03  0.14005188288E+03  0.00000000000E+00 0.  1.
<mgrwt>
<rscale>  0 0.12568295E+04</rscale>
<asrwt>0</asrwt>
<pdfrwt beam="1">  1        2 0.18355541E+00 0.12568295E+04</pdfrwt>
<pdfrwt beam="2">  1       -2 0.50921227E-01 0.12568295E+04</pdfrwt>
<totfact> 0.68510019E+01</totfact>
</mgrwt>
</event>
<event>
12    2  0.3751044E-008  0.1291481E+04  0.7818608E-02  0.9036348E-01
         -2   -1    0    0    0  501 -0.00000000000E+00  0.00000000000E+00  0.12960809017E+04  0.12960809017E+04  0.00000000000E+00 0.  1.
          2   -1    0    0  501    0  0.00000000000E+00 -0.00000000000E+00 -0.32172445184E+03  0.32172445184E+03  0.00000000000E+00 0. -1.
         23    2    1    2    0    0  0.96189914194E+02  0.27897825078E+03  0.75278280861E+02  0.31635921270E+03  0.85644427087E+02 0.  0.
        254    2    1    2    0    0 -0.96189914194E+02 -0.27897825078E+03  0.89907816904E+03  0.13014461409E+04  0.89349825941E+03 0.  0.
         23    2    4    4    0    0 -0.28141419370E+03 -0.53098005240E+03  0.50510593862E+03  0.79014998575E+03  0.89840003804E+02 0.  0.
         23    2    4    4    0    0  0.18522427950E+03  0.25200180163E+03  0.39397223043E+03  0.51129615514E+03  0.91633499174E+02 0.  0.
          1    1    3    3  502    0  0.45112770028E+02  0.33376571450E+02  0.19198862877E+02  0.59310655680E+02  0.00000000000E+00 0. -1.
         -1    1    3    3    0  502  0.51077144166E+02  0.24560167933E+03  0.56079417984E+02  0.25704855702E+03  0.00000000000E+00 0.  1.
         11    1    5    5    0    0 -0.18804067441E+02 -0.10632500359E+03  0.10028321105E+03  0.14736119490E+03  0.00000000000E+00 0. -1.
        -11    1    5    5    0    0 -0.26261012626E+03 -0.42465504881E+03  0.40482272757E+03  0.64278879085E+03  0.00000000000E+00 0.  1.
          1    1    6    6  503    0  0.12230509251E+03  0.22595482554E+03  0.32602327048E+03  0.41509672576E+03  0.00000000000E+00 0. -1.
         -1    1    6    6    0  503  0.62919186997E+02  0.26046976083E+02  0.67948959945E+02  0.96199429380E+02  0.00000000000E+00 0.  1.
<mgrwt>
<rscale>  0 0.12914812E+04</rscale>
<asrwt>0</asrwt>
<pdfrwt beam="1">  1        2 0.49496070E-01 0.12914812E+04</pdfrwt>
<pdfrwt beam="2">  1       -2 0.19939706E+00 0.12914812E+04</pdfrwt>
<totfact> 0.13355801E+01</totfact>
</mgrwt>
</event>
<event>
12    2  0.3751044E-008  0.1849861E+04  0.7818608E-02  0.8680224E-01
         -1   -1    0    0    0  501 -0.00000000000E+00  0.00000000000E+00  0.10921761192E+04  0.10921761192E+04  0.00000000000E+00 0.  1.
          1   -1    0    0  501    0  0.00000000000E+00 -0.00000000000E+00 -0.78329568371E+03  0.78329568371E+03  0.00000000000E+00 0. -1.
         23    2    1    2    0    0  0.56184676604E+03 -0.18041841557E+03  0.45544258030E+03  0.75088778592E+03  0.90454020990E+02 0.  0.
        254    2    1    2    0    0 -0.56184676604E+03  0.18041841557E+03 -0.14656214478E+03  0.11245840170E+04  0.94603707954E+03 0.  0.
         23    2    4    4    0    0  0.19879255468E+02 -0.20839883933E+03 -0.32492957597E+03  0.39697075558E+03  0.90450485977E+02 0.  0.
         23    2    4    4    0    0 -0.58172602150E+03  0.38881725489E+03  0.17836743119E+03  0.72761326144E+03  0.89566153863E+02 0.  0.
          1    1    3    3  502    0  0.42446107708E+02 -0.22599994960E+02  0.70775890906E+02  0.85566690746E+02  0.00000000000E+00 0. -1.
         -1    1    3    3    0  502  0.51940065833E+03 -0.15781842061E+03  0.38466668940E+03  0.66532109518E+03  0.00000000000E+00 0.  1.
         11    1    5    5    0    0 -0.27869722680E+02 -0.14928757441E+03 -0.22421813455E+03  0.27080855448E+03  0.00000000000E+00 0.  1.
        -11    1    5    5    0    0  0.47748978148E+02 -0.59111264911E+02 -0.10071144142E+03  0.12616220110E+03  0.00000000000E+00 0. -1.
          3    1    6    6  503    0 -0.20369959146E+03  0.93680010089E+02  0.79868401015E+02  0.23800930514E+03  0.00000000000E+00 0. -1.
         -3    1    6    6    0  503 -0.37802643004E+03  0.29513724480E+03  0.98499030174E+02  0.48960395630E+03  0.00000000000E+00 0.  1.
<mgrwt>
<rscale>  0 0.18498614E+04</rscale>
<asrwt>0</asrwt>
<pdfrwt beam="1">  1        1 0.12050703E+00 0.18498614E+04</pdfrwt>
<pdfrwt beam="2">  1       -1 0.16802710E+00 0.18498614E+04</pdfrwt>
<totfact> 0.54676597E+00</totfact>
</mgrwt>
</event>
<event>
12    2  0.3751044E-008  0.1750460E+04  0.7818608E-02  0.8733097E-01
          1   -1    0    0  501    0  0.00000000000E+00  0.00000000000E+00  0.19288025930E+04  0.19288025930E+04  0.00000000000E+00 0. -1.
         -1   -1    0    0    0  501 -0.00000000000E+00 -0.00000000000E+00 -0.39715208801E+03  0.39715208801E+03  0.00000000000E+00 0.  1.
         23    2    1    2    0    0  0.31592895793E+03  0.37456320700E+03  0.18560815772E+02  0.49943404162E+03  0.94768958822E+02 0.  0.
        254    2    1    2    0    0 -0.31592895793E+03 -0.37456320700E+03  0.15130896892E+04  0.18265206394E+04  0.89812501133E+03 0.  0.
         23    2    4    4    0    0  0.91700260793E+02 -0.55357476417E+03  0.83707823999E+03  0.10120820652E+04  0.93574406316E+02 0.  0.
         23    2    4    4    0    0 -0.40762921872E+03  0.17901155717E+03  0.67601144922E+03  0.81443857416E+03  0.90066608913E+02 0.  0.
          3    1    3    3  502    0  0.62893460499E+02  0.25423487389E+02  0.51928738226E+01  0.68036071485E+02  0.00000000000E+00 0. -1.
         -3    1    3    3    0  502  0.25303549743E+03  0.34913971961E+03  0.13367941950E+02  0.43139797014E+03  0.00000000000E+00 0.  1.
         11    1    5    5    0    0  0.79085989350E+02 -0.46401850409E+03  0.75630686008E+03  0.89082424330E+03  0.00000000000E+00 0.  1.
        -11    1    5    5    0    0  0.12614271443E+02 -0.89556260083E+02  0.80771379914E+02  0.12125782192E+03  0.00000000000E+00 0. -1.
          3    1    6    6  503    0 -0.93091101697E+01 -0.81013058124E+01  0.87754572548E+01  0.15142633128E+02  0.00000000000E+00 0. -1.
         -3    1    6    6    0  503 -0.39832010855E+03  0.18711286299E+03  0.66723599197E+03  0.79929594103E+03  0.00000000000E+00 0.  1.
<mgrwt>
<rscale>  0 0.17504605E+04</rscale>
<asrwt>0</asrwt>
<pdfrwt beam="1">  1        1 0.29673886E+00 0.17504605E+04</pdfrwt>
<pdfrwt beam="2">  1       -1 0.61100322E-01 0.17504605E+04</pdfrwt>
<totfact> 0.85750702E+00</totfact>
</mgrwt>
</event>
<event>
12    2  0.3751044E-008  0.1942789E+04  0.7818608E-02  0.8633846E-01
          2   -1    0    0  501    0  0.00000000000E+00  0.00000000000E+00  0.10659918301E+04  0.10659918301E+04  0.00000000000E+00 0. -1.
         -2   -1    0    0    0  501 -0.00000000000E+00 -0.00000000000E+00 -0.88519204910E+03  0.88519204910E+03  0.00000000000E+00 0.  1.
         23    2    1    2    0    0  0.40000753443E+03  0.46921816713E+03 -0.36996433698E+03  0.72550602030E+03  0.96507299676E+02 0.  0.
        254    2    1    2    0    0 -0.40000753443E+03 -0.46921816713E+03  0.55076411798E+03  0.12256778589E+04  0.90486097506E+03 0.  0.
         23    2    4    4    0    0 -0.44911164416E+03 -0.47293911802E+03  0.75138667698E+03  0.99922660146E+03  0.92191021590E+02 0.  0.
         23    2    4    4    0    0  0.49104109737E+02  0.37209508893E+01 -0.20062255900E+03  0.22645125743E+03  0.92766921619E+02 0.  0.
          4    1    3    3  502    0  0.28553539699E+03  0.30492788401E+03 -0.20138342816E+03  0.46375291106E+03  0.00000000000E+00 0. -1.
         -4    1    3    3    0  502  0.11447213743E+03  0.16429028312E+03 -0.16858090882E+03  0.26175310924E+03  0.00000000000E+00 0.  1.
         11    1    5    5    0    0 -0.25865560263E+02 -0.19645392026E+02  0.13087034915E+02  0.35017697218E+02  0.00000000000E+00 0. -1.
        -11    1    5    5    0    0 -0.42324608390E+03 -0.45329372599E+03  0.73829964206E+03  0.96420890425E+03  0.00000000000E+00 0.  1.
          3    1    6    6  503    0  0.21467098561E+02 -0.43672618033E+02 -0.11351479081E+03  0.12350603880E+03  0.00000000000E+00 0.  1.
         -3    1    6    6    0  503  0.27637011176E+02  0.47393568923E+02 -0.87107768188E+02  0.10294521864E+03  0.00000000000E+00 0. -1.
<mgrwt>
<rscale>  0 0.19427892E+04</rscale>
<asrwt>0</asrwt>
<pdfrwt beam="1">  1        2 0.16399874E+00 0.19427892E+04</pdfrwt>
<pdfrwt beam="2">  1       -2 0.13618339E+00 0.19427892E+04</pdfrwt>
<totfact> 0.82365530E+00</totfact>
</mgrwt>
</event>
<event>
12    2  0.3751044E-008  0.1146783E+04  0.7818608E-02  0.9160757E-01
          2   -1    0    0  501    0  0.00000000000E+00  0.00000000000E+00  0.16357955755E+04  0.16357955755E+04  0.00000000000E+00 0. -1.
         -2   -1    0    0    0  501 -0.00000000000E+00 -0.00000000000E+00 -0.20098945862E+03  0.20098945862E+03  0.00000000000E+00 0.  1.
         23    2    1    2    0    0  0.14120057359E+03 -0.14702501824E+03  0.24872125154E+03  0.33406224392E+03  0.90450892057E+02 0.  0.
        254    2    1    2    0    0 -0.14120057359E+03  0.14702501824E+03  0.11860848653E+04  0.15027227902E+04  0.89990250497E+03 0.  0.
         23    2    4    4    0    0 -0.34416162167E+02 -0.12361262297E+03  0.11868775005E+04  0.11974017662E+04  0.92888296753E+02 0.  0.
         23    2    4    4    0    0 -0.10678441143E+03  0.27063764122E+03 -0.79263515467E+00  0.30532102404E+03  0.92588639052E+02 0.  0.
          2    1    3    3  502    0  0.23826657125E+02 -0.37331083055E+02  0.85367506492E+01  0.45102056089E+02  0.00000000000E+00 0. -1.
         -2    1    3    3    0  502  0.11737391647E+03 -0.10969393519E+03  0.24018450089E+03  0.28896018783E+03  0.00000000000E+00 0.  1.
         11    1    5    5    0    0 -0.50210725791E+02 -0.10281124041E+03  0.65755454194E+03  0.66743482361E+03  0.00000000000E+00 0.  1.
        -11    1    5    5    0    0  0.15794563624E+02 -0.20801382562E+02  0.52932295856E+03  0.52996694257E+03  0.00000000000E+00 0. -1.
          3    1    6    6  503    0 -0.68639324260E+02  0.15873751483E+03 -0.45663758612E+02  0.17886904232E+03  0.00000000000E+00 0. -1.
         -3    1    6    6    0  503 -0.38145087165E+02  0.11190012638E+03  0.44871123457E+02  0.12645198171E+03  0.00000000000E+00 0.  1.
<mgrwt>
<rscale>  0 0.11467827E+04</rscale>
<asrwt>0</asrwt>
<pdfrwt beam="1">  1        2 0.25166085E+00 0.11467827E+04</pdfrwt>
<pdfrwt beam="2">  1       -2 0.30921456E-01 0.11467827E+04</pdfrwt>
<totfact> 0.10213009E+02</totfact>
</mgrwt>
</event>
<event>
12    2  0.3751044E-008  0.2097090E+04  0.7818608E-02  0.8562526E-01
         -2   -1    0    0    0  501 -0.00000000000E+00  0.00000000000E+00  0.11911658527E+04  0.11911658527E+04  0.00000000000E+00 0.  1.
          2   -1    0    0  501    0  0.00000000000E+00 -0.00000000000E+00 -0.92300065970E+03  0.92300065970E+03  0.00000000000E+00 0. -1.
         23    2    1    2    0    0 -0.64121675196E+03 -0.58637471674E+02  0.66292486390E+03  0.92856112760E+03  0.90327827551E+02 0.  0.
        254    2    1    2    0    0  0.64121675196E+03  0.58637471674E+02 -0.39475967088E+03  0.11856053848E+04  0.91390790273E+03 0.  0.
         23    2    4    4    0    0  0.59783244341E+03  0.28948795994E+03  0.52076780021E+02  0.67252441227E+03  0.91488713753E+02 0.  0.
         23    2    4    4    0    0  0.43384308554E+02 -0.23085048826E+03 -0.44683645090E+03  0.51308097255E+03  0.91733987017E+02 0.  0.
          3    1    3    3  502    0 -0.26784029519E+03  0.20128075219E+02  0.27164070280E+03  0.38201077807E+03  0.00000000000E+00 0. -1.
         -3    1    3    3    0  502 -0.37337645677E+03 -0.78765546893E+02  0.39128416110E+03  0.54655034953E+03  0.00000000000E+00 0.  1.
         11    1    5    5    0    0  0.30563338272E+03  0.17335292745E+03  0.67146468108E+02  0.35773125425E+03  0.00000000000E+00 0.  1.
        -11    1    5    5    0    0  0.29219906069E+03  0.11613503248E+03 -0.15069688086E+02  0.31479315802E+03  0.00000000000E+00 0. -1.
          1    1    6    6  503    0  0.27708991008E+02 -0.19433344286E+03 -0.28248110668E+03  0.34398960860E+03  0.00000000000E+00 0. -1.
         -1    1    6    6    0  503  0.15675317546E+02 -0.36517045400E+02 -0.16435534422E+03  0.16909136394E+03  0.00000000000E+00 0.  1.
<mgrwt>
<rscale>  0 0.20970902E+04</rscale>
<asrwt>0</asrwt>
<pdfrwt beam="1">  1        2 0.14200010E+00 0.20970902E+04</pdfrwt>
<pdfrwt beam="2">  1       -2 0.18325628E+00 0.20970902E+04</pdfrwt>
<totfact> 0.44899291E+00</totfact>
</mgrwt>
</event>
<event>
12    2  0.3751044E-008  0.1941272E+04  0.7818608E-02  0.8634581E-01
          2   -1    0    0  501    0  0.00000000000E+00  0.00000000000E+00  0.11909353980E+04  0.11909353980E+04  0.00000000000E+00 0. -1.
         -2   -1    0    0    0  501 -0.00000000000E+00 -0.00000000000E+00 -0.79108770169E+03  0.79108770169E+03  0.00000000000E+00 0.  1.
         23    2    1    2    0    0 -0.71393304744E+03 -0.22938593599E+03  0.99270536116E+02  0.76168599733E+03  0.89401427960E+02 0.  0.
        254    2    1    2    0    0  0.71393304744E+03  0.22938593599E+03  0.30057716018E+03  0.12203371024E+04  0.91463528814E+03 0.  0.
         23    2    4    4    0    0  0.10344440030E+03  0.19806017034E+03 -0.28121342628E+03  0.37172588780E+03  0.95763090558E+02 0.  0.
         23    2    4    4    0    0  0.61048864714E+03  0.31325765654E+02  0.58179058646E+03  0.84861121456E+03  0.89347720180E+02 0.  0.
          3    1    3    3  502    0 -0.66853253995E+03 -0.20759984332E+03  0.11393921678E+03  0.70923592481E+03  0.00000000000E+00 0. -1.
         -3    1    3    3    0  502 -0.45400507487E+02 -0.21786092678E+02 -0.14668680667E+02  0.52450072514E+02  0.00000000000E+00 0.  1.
         11    1    5    5    0    0  0.92645136589E+02  0.76862926180E+02 -0.15709009492E+03  0.19790990040E+03  0.00000000000E+00 0.  1.
        -11    1    5    5    0    0  0.10799263714E+02  0.12119724416E+03 -0.12412333136E+03  0.17381598740E+03  0.00000000000E+00 0. -1.
          3    1    6    6  503    0  0.98718475683E+02 -0.27461881634E+02  0.10435372044E+03  0.14625044053E+03  0.00000000000E+00 0. -1.
         -3    1    6    6    0  503  0.51177017145E+03  0.58787647289E+02  0.47743686602E+03  0.70236077403E+03  0.00000000000E+00 0.  1.
<mgrwt>
<rscale>  0 0.19412721E+04</rscale>
<asrwt>0</asrwt>
<pdfrwt beam="1">  1        2 0.18322083E+00 0.19412721E+04</pdfrwt>
<pdfrwt beam="2">  1       -2 0.12170580E+00 0.19412721E+04</pdfrwt>
<totfact> 0.91794631E+00</totfact>
</mgrwt>
</event>
<event>
12    2  0.3751044E-008  0.1449401E+04  0.7818608E-02  0.8918816E-01
         -2   -1    0    0    0  501 -0.00000000000E+00  0.00000000000E+00  0.21589091307E+04  0.21589091307E+04  0.00000000000E+00 0.  1.
          2   -1    0    0  501    0  0.00000000000E+00 -0.00000000000E+00 -0.24326671837E+03  0.24326671837E+03  0.00000000000E+00 0. -1.
         23    2    1    2    0    0  0.34800003841E+02  0.29597795396E+03  0.11451323548E+04  0.11867814978E+04  0.91149460219E+02 0.  0.
        254    2    1    2    0    0 -0.34800003841E+02 -0.29597795396E+03  0.77051005756E+03  0.12153943513E+04  0.89145032997E+03 0.  0.
         23    2    4    4    0    0  0.41486702919E+03 -0.15342879050E+03  0.45130261983E+03  0.63840663678E+03  0.90741024627E+02 0.  0.
         23    2    4    4    0    0 -0.44966703304E+03 -0.14254916346E+03  0.31920743773E+03  0.57698771449E+03  0.92199402204E+02 0.  0.
          3    1    3    3  502    0 -0.17115606049E+02  0.84300477939E+01  0.85268437205E+02  0.87376862267E+02  0.00000000000E+00 0. -1.
         -3    1    3    3    0  502  0.51915609890E+02  0.28754790616E+03  0.10598639176E+04  0.10994046355E+04  0.00000000000E+00 0.  1.
         11    1    5    5    0    0  0.31753814846E+03 -0.15441935789E+03  0.37160100396E+03  0.51260425277E+03  0.00000000000E+00 0.  1.
        -11    1    5    5    0    0  0.97328880738E+02  0.99056738801E+00  0.79701615870E+02  0.12580238401E+03  0.00000000000E+00 0. -1.
          1    1    6    6  503    0  0.39011020254E+01 -0.12660021718E+01  0.82204389662E+01  0.91867826418E+01  0.00000000000E+00 0. -1.
         -1    1    6    6    0  503 -0.45356813506E+03 -0.14128316129E+03  0.31098699876E+03  0.56780093185E+03  0.00000000000E+00 0.  1.
<mgrwt>
<rscale>  0 0.14494009E+04</rscale>
<asrwt>0</asrwt>
<pdfrwt beam="1">  1        2 0.37425650E-01 0.14494009E+04</pdfrwt>
<pdfrwt beam="2">  1       -2 0.33213985E+00 0.14494009E+04</pdfrwt>
<totfact> 0.27278174E+00</totfact>
</mgrwt>
</event>
<event>
12    2  0.3751044E-008  0.2593799E+04  0.7818608E-02  0.8370311E-01
          1   -1    0    0  501    0  0.00000000000E+00  0.00000000000E+00  0.24316547540E+04  0.24316547540E+04  0.00000000000E+00 0. -1.
         -1   -1    0    0    0  501 -0.00000000000E+00 -0.00000000000E+00 -0.69168852595E+03  0.69168852595E+03  0.00000000000E+00 0.  1.
         23    2    1    2    0    0 -0.35026395174E+03 -0.52188448869E+02  0.20517193210E+04  0.20841031839E+04  0.92333303001E+02 0.  0.
        254    2    1    2    0    0  0.35026395174E+03  0.52188448869E+02 -0.31175309296E+03  0.10392400961E+04  0.92597058064E+03 0.  0.
         23    2    4    4    0    0 -0.15664409381E+03 -0.15881260605E+03 -0.40832172239E+03  0.47349360402E+03  0.87810865526E+02 0.  0.
         23    2    4    4    0    0  0.50690804555E+03  0.21100105492E+03  0.96568629429E+02  0.56574649204E+03  0.96262044723E+02 0.  0.
          2    1    3    3  502    0 -0.50736787160E+02  0.88257492123E+01  0.16712822895E+03  0.17488270450E+03  0.00000000000E+00 0.  1.
         -2    1    3    3    0  502 -0.29952716458E+03 -0.61014198081E+02  0.18845910921E+04  0.19092204794E+04  0.00000000000E+00 0. -1.
         11    1    5    5    0    0 -0.11339757230E+03 -0.15992720510E+03 -0.34481000677E+03  0.39664803177E+03  0.00000000000E+00 0. -1.
        -11    1    5    5    0    0 -0.43246521504E+02  0.11145990554E+01 -0.63511715619E+02  0.76845572248E+02  0.00000000000E+00 0.  1.
          4    1    6    6  503    0  0.49535132734E+03  0.21105834348E+03  0.10835969635E+03  0.54923618384E+03  0.00000000000E+00 0. -1.
         -4    1    6    6    0  503  0.11556718207E+02 -0.57288559703E-01 -0.11791066924E+02  0.16510308202E+02  0.00000000000E+00 0.  1.
<mgrwt>
<rscale>  0 0.25937985E+04</rscale>
<asrwt>0</asrwt>
<pdfrwt beam="1">  1        1 0.37410073E+00 0.25937985E+04</pdfrwt>
<pdfrwt beam="2">  1       -1 0.10641362E+00 0.25937985E+04</pdfrwt>
<totfact> 0.10981116E+00</totfact>
</mgrwt>
</event>
<event>
12    2  0.3751044E-008  0.1124945E+04  0.7818608E-02  0.9181214E-01
          2   -1    0    0  501    0  0.00000000000E+00  0.00000000000E+00  0.13904673873E+04  0.13904673873E+04  0.00000000000E+00 0. -1.
         -2   -1    0    0    0  501 -0.00000000000E+00 -0.00000000000E+00 -0.22753154740E+03  0.22753154740E+03  0.00000000000E+00 0.  1.
         23    2    1    2    0    0 -0.13568804163E+03  0.57116286881E+02  0.43741819759E+03  0.47027798145E+03  0.90294990930E+02 0.  0.
        254    2    1    2    0    0  0.13568804163E+03 -0.57116286881E+02  0.72551764232E+03  0.11477209533E+04  0.87704847207E+03 0.  0.
         23    2    4    4    0    0 -0.15774978228E+03 -0.20795813925E+03 -0.66095024186E+02  0.28555063024E+03  0.95073806697E+02 0.  0.
         23    2    4    4    0    0  0.29343782391E+03  0.15084185237E+03  0.79161266651E+03  0.86217032302E+03  0.88476161751E+02 0.  0.
          2    1    3    3  502    0 -0.29881478271E+02 -0.21577985558E+02  0.59241772670E+02  0.69771769602E+02  0.00000000000E+00 0.  1.
         -2    1    3    3    0  502 -0.10580656336E+03  0.78694272439E+02  0.37817642492E+03  0.40050621185E+03  0.00000000000E+00 0. -1.
         11    1    5    5    0    0 -0.15674344766E+03 -0.15054182958E+03 -0.34628003981E+02  0.22006919252E+03  0.00000000000E+00 0.  1.
        -11    1    5    5    0    0 -0.10063346199E+01 -0.57416309665E+02 -0.31467020205E+02  0.65481437717E+02  0.00000000000E+00 0. -1.
          4    1    6    6  503    0  0.22966323553E+03  0.97965315138E+02  0.49790318960E+03  0.55700088953E+03  0.00000000000E+00 0.  1.
         -4    1    6    6    0  503  0.63774588381E+02  0.52876537229E+02  0.29370947691E+03  0.30516943349E+03  0.00000000000E+00 0. -1.
<mgrwt>
<rscale>  0 0.11249448E+04</rscale>
<asrwt>0</asrwt>
<pdfrwt beam="1">  1        2 0.21391805E+00 0.11249448E+04</pdfrwt>
<pdfrwt beam="2">  1       -2 0.35004854E-01 0.11249448E+04</pdfrwt>
<totfact> 0.11117064E+02</totfact>
</mgrwt>
</event>
<event>
12    2  0.3751044E-008  0.2925744E+04  0.7818608E-02  0.8265259E-01
          2   -1    0    0  501    0  0.00000000000E+00  0.00000000000E+00  0.17109585478E+04  0.17109585478E+04  0.00000000000E+00 0. -1.
         -2   -1    0    0    0  501 -0.00000000000E+00 -0.00000000000E+00 -0.12507577588E+04  0.12507577588E+04  0.00000000000E+00 0.  1.
         23    2    1    2    0    0  0.70336966540E+03 -0.44202010155E+03 -0.83512512670E+03  0.11815421215E+04  0.92179993877E+02 0.  0.
        254    2    1    2    0    0 -0.70336966540E+03  0.44202010155E+03  0.12953259156E+04  0.17801741851E+04  0.89500851678E+03 0.  0.
         23    2    4    4    0    0 -0.81351629303E+03  0.56201930499E+03  0.87851960236E+03  0.13252852803E+04  0.83125953661E+02 0.  0.
         23    2    4    4    0    0  0.11014662763E+03 -0.11999920345E+03  0.41680631328E+03  0.45488890480E+03  0.81635314161E+02 0.  0.
          4    1    3    3  502    0  0.84990901061E+02 -0.87066352608E+02 -0.14439332433E+03  0.18882117236E+03  0.00000000000E+00 0. -1.
         -4    1    3    3    0  502  0.61837876434E+03 -0.35495374894E+03 -0.69073180237E+03  0.99272094915E+03  0.00000000000E+00 0.  1.
         11    1    5    5    0    0 -0.57764223569E+03  0.35226137495E+03  0.60410986646E+03  0.90703217114E+03  0.00000000000E+00 0. -1.
        -11    1    5    5    0    0 -0.23587405734E+03  0.20975793004E+03  0.27440973590E+03  0.41825310913E+03  0.00000000000E+00 0.  1.
          3    1    6    6  503    0  0.12163291740E+03 -0.11703283375E+03  0.40138771999E+03  0.43543467080E+03  0.00000000000E+00 0. -1.
         -3    1    6    6    0  503 -0.11486289770E+02 -0.29663696915E+01  0.15418593285E+02  0.19454234005E+02  0.00000000000E+00 0.  1.
<mgrwt>
<rscale>  0 0.29257441E+04</rscale>
<asrwt>0</asrwt>
<pdfrwt beam="1">  1        2 0.26322439E+00 0.29257441E+04</pdfrwt>
<pdfrwt beam="2">  1       -2 0.19242427E+00 0.29257441E+04</pdfrwt>
<totfact> 0.12436751E+00</totfact>
</mgrwt>
</event>
<event>
12    2  0.3751044E-008  0.2248305E+04  0.7818608E-02  0.8498587E-01
          2   -1    0    0  501    0  0.00000000000E+00  0.00000000000E+00  0.20159831425E+04  0.20159831425E+04  0.00000000000E+00 0. -1.
         -2   -1    0    0    0  501 -0.00000000000E+00 -0.00000000000E+00 -0.62685013441E+03  0.62685013441E+03  0.00000000000E+00 0.  1.
         23    2    1    2    0    0  0.81842507207E+02  0.75112374967E+03  0.12504302770E+04  0.14651685535E+04  0.11071553346E+03 0.  0.
        254    2    1    2    0    0 -0.81842507207E+02 -0.75112374967E+03  0.13870273112E+03  0.11776647234E+04  0.89262011507E+03 0.  0.
         23    2    4    4    0    0  0.29753334253E+03 -0.69414497287E+03  0.17927228529E+03  0.78144890020E+03  0.90335475145E+02 0.  0.
         23    2    4    4    0    0 -0.37937584974E+03 -0.56978776803E+02 -0.40569554168E+02  0.39621582321E+03  0.90379607557E+02 0.  0.
          1    1    3    3  502    0  0.40567263885E+02  0.53071509916E+03  0.78362827622E+03  0.94730010802E+03  0.00000000000E+00 0. -1.
         -1    1    3    3    0  502  0.41275243323E+02  0.22040865051E+03  0.46680200076E+03  0.51786844550E+03  0.00000000000E+00 0.  1.
         11    1    5    5    0    0  0.20148678437E+03 -0.48568905239E+03  0.82045580822E+02  0.53218629936E+03  0.00000000000E+00 0. -1.
        -11    1    5    5    0    0  0.96046558163E+02 -0.20845592047E+03  0.97226704471E+02  0.24926260084E+03  0.00000000000E+00 0.  1.
          3    1    6    6  503    0 -0.59692511092E+02 -0.40958117283E+02  0.65195863396E+01  0.72686093979E+02  0.00000000000E+00 0. -1.
         -3    1    6    6    0  503 -0.31968333865E+03 -0.16020659520E+02 -0.47089140508E+02  0.32352972923E+03  0.00000000000E+00 0.  1.
<mgrwt>
<rscale>  0 0.22483054E+04</rscale>
<asrwt>0</asrwt>
<pdfrwt beam="1">  1        2 0.31015125E+00 0.22483054E+04</pdfrwt>
<pdfrwt beam="2">  1       -2 0.96438483E-01 0.22483054E+04</pdfrwt>
<totfact> 0.53616306E+00</totfact>
</mgrwt>
</event>
<event>
12    2  0.3751044E-008  0.1624099E+04  0.7818608E-02  0.8805878E-01
          1   -1    0    0  501    0  0.00000000000E+00  0.00000000000E+00  0.17424195100E+04  0.17424195100E+04  0.00000000000E+00 0. -1.
         -1   -1    0    0    0  501 -0.00000000000E+00 -0.00000000000E+00 -0.37845323492E+03  0.37845323492E+03  0.00000000000E+00 0.  1.
         23    2    1    2    0    0  0.27344718320E+03 -0.47586318270E+02  0.12240418486E+04  0.12581752668E+04  0.87685433078E+02 0.  0.
        254    2    1    2    0    0 -0.27344718320E+03  0.47586318270E+02  0.13992442647E+03  0.86269747811E+03  0.80475479118E+03 0.  0.
         23    2    4    4    0    0 -0.53691785540E+03  0.46397440192E+02 -0.10719079955E+02  0.54653750890E+03  0.90304175233E+02 0.  0.
         23    2    4    4    0    0  0.26347067220E+03  0.11888780781E+01  0.15064350643E+03  0.31615996921E+03  0.88574553688E+02 0.  0.
          2    1    3    3  502    0  0.66312355188E+02 -0.20046706131E+02  0.16914312380E+03  0.18278018275E+03  0.00000000000E+00 0.  1.
         -2    1    3    3    0  502  0.20713482801E+03 -0.27539612139E+02  0.10548987248E+04  0.10753950840E+04  0.00000000000E+00 0. -1.
         11    1    5    5    0    0 -0.33306620378E+03  0.28488755508E+02 -0.50483959455E+02  0.33807297356E+03  0.00000000000E+00 0.  1.
        -11    1    5    5    0    0 -0.20385165162E+03  0.17908684684E+02  0.39764879500E+02  0.20846453534E+03  0.00000000000E+00 0. -1.
          3    1    6    6  503    0  0.25273430452E+03 -0.12008017803E+02  0.15725714326E+03  0.29790708330E+03  0.00000000000E+00 0. -1.
         -3    1    6    6    0  503  0.10736367681E+02  0.13196895881E+02 -0.66136368353E+01  0.18252885911E+02  0.00000000000E+00 0.  1.
<mgrwt>
<rscale>  0 0.16240989E+04</rscale>
<asrwt>0</asrwt>
<pdfrwt beam="1">  1        1 0.26806454E+00 0.16240989E+04</pdfrwt>
<pdfrwt beam="2">  1       -1 0.58223575E-01 0.16240989E+04</pdfrwt>
<totfact> 0.12762632E+01</totfact>
</mgrwt>
</event>
<event>
12    2  0.3751044E-008  0.2071169E+04  0.7818608E-02  0.8574051E-01
         -2   -1    0    0    0  501 -0.00000000000E+00  0.00000000000E+00  0.55455224938E+03  0.55455224938E+03  0.00000000000E+00 0. -1.
          2   -1    0    0  501    0  0.00000000000E+00 -0.00000000000E+00 -0.19338767737E+04  0.19338767737E+04  0.00000000000E+00 0.  1.
         23    2    1    2    0    0  0.67447751745E+03  0.40095854289E+03 -0.21758225008E+03  0.81927581655E+03  0.90460783706E+02 0.  0.
        254    2    1    2    0    0 -0.67447751745E+03 -0.40095854289E+03 -0.11617422742E+04  0.16691532065E+04  0.90594681986E+03 0.  0.
         23    2    4    4    0    0 -0.18722435087E+03  0.10611327893E+03  0.74190909634E+02  0.24427289161E+03  0.88611336622E+02 0.  0.
         23    2    4    4    0    0 -0.48725316658E+03 -0.50707182182E+03 -0.12359331839E+04  0.14248803149E+04  0.90639924990E+02 0.  0.
          3    1    3    3  502    0  0.47060731193E+03  0.25596842163E+03 -0.10968222328E+03  0.54682836889E+03  0.00000000000E+00 0. -1.
         -3    1    3    3    0  502  0.20387020551E+03  0.14499012125E+03 -0.10790002679E+03  0.27244744766E+03  0.00000000000E+00 0.  1.
         11    1    5    5    0    0 -0.11066651792E+03  0.10484135960E+03  0.69564258944E+02  0.16756483818E+03  0.00000000000E+00 0. -1.
        -11    1    5    5    0    0 -0.76557832943E+02  0.12719193323E+01  0.46266506907E+01  0.76708053426E+02  0.00000000000E+00 0.  1.
          4    1    6    6  503    0 -0.25486000475E+03 -0.28938100458E+03 -0.59191149318E+03  0.70643768557E+03  0.00000000000E+00 0. -1.
         -4    1    6    6    0  503 -0.23239316183E+03 -0.21769081724E+03 -0.64402169069E+03  0.71844262934E+03  0.00000000000E+00 0.  1.
<mgrwt>
<rscale>  0 0.20711694E+04</rscale>
<asrwt>0</asrwt>
<pdfrwt beam="1">  1        2 0.29751950E+00 0.20711694E+04</pdfrwt>
<pdfrwt beam="2">  1       -2 0.85315732E-01 0.20711694E+04</pdfrwt>
<totfact> 0.80243419E+00</totfact>
</mgrwt>
</event>
<event>
12    2  0.3751044E-008  0.1001835E+04  0.7818608E-02  0.9306534E-01
         -2   -1    0    0    0  501 -0.00000000000E+00  0.00000000000E+00  0.48317647709E+03  0.48317647709E+03  0.00000000000E+00 0.  1.
          2   -1    0    0  501    0  0.00000000000E+00 -0.00000000000E+00 -0.51931022192E+03  0.51931022192E+03  0.00000000000E+00 0. -1.
         23    2    1    2    0    0 -0.10164583022E+03  0.11363752219E+03  0.18847285058E+02  0.17858967034E+03  0.91069692807E+02 0.  0.
        254    2    1    2    0    0  0.10164583022E+03 -0.11363752219E+03 -0.54981029897E+02  0.82389702867E+03  0.80779826625E+03 0.  0.
         23    2    4    4    0    0 -0.94812813696E+02  0.29852790184E+03  0.86590771873E+02  0.33708742519E+03  0.89563344212E+02 0.  0.
         23    2    4    4    0    0  0.19645864391E+03 -0.41216542403E+03 -0.14157180177E+03  0.48680960348E+03  0.92003692606E+02 0.  0.
          1    1    3    3  502    0 -0.64879904040E+02  0.32644999898E+02 -0.28265522197E+02  0.77936113013E+02  0.00000000000E+00 0. -1.
         -1    1    3    3    0  502 -0.36765926176E+02  0.80992522291E+02  0.47112807255E+02  0.10065355732E+03  0.00000000000E+00 0.  1.
         11    1    5    5    0    0  0.38960367870E+01  0.88817775771E+01 -0.12150911270E+02  0.15547016443E+02  0.00000000000E+00 0. -1.
        -11    1    5    5    0    0 -0.98708850483E+02  0.28964612427E+03  0.98741683144E+02  0.32154040874E+03  0.00000000000E+00 0.  1.
          4    1    6    6  503    0  0.16237336424E+03 -0.27633402755E+03 -0.13139979600E+03  0.34639790788E+03  0.00000000000E+00 0.  1.
         -4    1    6    6    0  503  0.34085279672E+02 -0.13583139648E+03 -0.10172005771E+02  0.14041169560E+03  0.00000000000E+00 0. -1.
<mgrwt>
<rscale>  0 0.10018353E+04</rscale>
<asrwt>0</asrwt>
<pdfrwt beam="1">  1        2 0.79893880E-01 0.10018353E+04</pdfrwt>
<pdfrwt beam="2">  1       -2 0.74334843E-01 0.10018353E+04</pdfrwt>
<totfact> 0.95858062E+01</totfact>
</mgrwt>
</event>
<event>
12    2  0.3751044E-008  0.1662553E+04  0.7818608E-02  0.8783014E-01
          2   -1    0    0  501    0  0.00000000000E+00  0.00000000000E+00  0.11201028607E+04  0.11201028607E+04  0.00000000000E+00 0.  1.
         -2   -1    0    0    0  501 -0.00000000000E+00 -0.00000000000E+00 -0.61692632669E+03  0.61692632669E+03  0.00000000000E+00 0. -1.
         23    2    1    2    0    0  0.55725445392E+03  0.43734476519E+02  0.72311145649E+01  0.56652091364E+03  0.91915318219E+02 0.  0.
        254    2    1    2    0    0 -0.55725445392E+03 -0.43734476519E+02  0.49594541947E+03  0.11705082738E+04  0.90093425346E+03 0.  0.
         23    2    4    4    0    0 -0.28791207784E+03  0.10285517464E+03  0.71464462480E+03  0.78266937953E+03  0.91552533465E+02 0.  0.
         23    2    4    4    0    0 -0.26934237608E+03 -0.14658965116E+03 -0.21869920533E+03  0.38783889425E+03  0.92497697810E+02 0.  0.
          4    1    3    3  502    0  0.67621505395E+02  0.14183936262E+02 -0.28405515505E+02  0.74704252562E+02  0.00000000000E+00 0. -1.
         -4    1    3    3    0  502  0.48963294852E+03  0.29550540257E+02  0.35636630070E+02  0.49181666108E+03  0.00000000000E+00 0.  1.
         11    1    5    5    0    0 -0.16158258871E+03  0.12932109511E+02  0.32161723023E+03  0.36015804199E+03  0.00000000000E+00 0. -1.
        -11    1    5    5    0    0 -0.12632948912E+03  0.89923065129E+02  0.39302739457E+03  0.42251133754E+03  0.00000000000E+00 0.  1.
          2    1    6    6  503    0 -0.97925617172E+02 -0.57179354152E+02 -0.13728603077E+03  0.17806279590E+03  0.00000000000E+00 0. -1.
         -2    1    6    6    0  503 -0.17141675891E+03 -0.89410297006E+02 -0.81413174561E+02  0.20977609835E+03  0.00000000000E+00 0.  1.
<mgrwt>
<rscale>  0 0.16625534E+04</rscale>
<asrwt>0</asrwt>
<pdfrwt beam="1">  1        2 0.17232352E+00 0.16625534E+04</pdfrwt>
<pdfrwt beam="2">  1       -2 0.94911743E-01 0.16625534E+04</pdfrwt>
<totfact> 0.18877463E+01</totfact>
</mgrwt>
</event>
<event>
12    2  0.3751044E-008  0.1556837E+04  0.7818608E-02  0.8847512E-01
          2   -1    0    0  501    0  0.00000000000E+00  0.00000000000E+00  0.24741199459E+04  0.24741199459E+04  0.00000000000E+00 0. -1.
         -2   -1    0    0    0  501 -0.00000000000E+00 -0.00000000000E+00 -0.24490959349E+03  0.24490959349E+03  0.00000000000E+00 0.  1.
         23    2    1    2    0    0  0.35443184209E+03  0.37955215081E+03  0.72202663898E+03  0.89399113910E+03  0.90641731680E+02 0.  0.
        254    2    1    2    0    0 -0.35443184209E+03 -0.37955215081E+03  0.15071837134E+04  0.18250384003E+04  0.88852723684E+03 0.  0.
         23    2    4    4    0    0 -0.97526457978E+02  0.13708931550E+03 -0.15261157580E+02  0.19436232331E+03  0.96119297549E+02 0.  0.
         23    2    4    4    0    0 -0.25690538412E+03 -0.51664146631E+03  0.15224448710E+04  0.16306760770E+04  0.91363568589E+02 0.  0.
          1    1    3    3  502    0  0.30956900235E+03  0.31853057934E+03  0.55705176308E+03  0.71246148243E+03  0.00000000000E+00 0. -1.
         -1    1    3    3    0  502  0.44862839741E+02  0.61021571471E+02  0.16497487590E+03  0.18152965667E+03  0.00000000000E+00 0.  1.
         11    1    5    5    0    0  0.12993756187E+02  0.10953780088E+02 -0.20434179089E+02  0.26577785331E+02  0.00000000000E+00 0.  1.
        -11    1    5    5    0    0 -0.11052021417E+03  0.12613553541E+03  0.51730215094E+01  0.16778453798E+03  0.00000000000E+00 0. -1.
          1    1    6    6  503    0 -0.25544039066E+03 -0.46748152412E+03  0.14292224395E+04  0.15252755654E+04  0.00000000000E+00 0. -1.
         -1    1    6    6    0  503 -0.14649934518E+01 -0.49159942187E+02  0.93222431473E+02  0.10540051163E+03  0.00000000000E+00 0.  1.
<mgrwt>
<rscale>  0 0.15568374E+04</rscale>
<asrwt>0</asrwt>
<pdfrwt beam="1">  1        2 0.38063382E+00 0.15568374E+04</pdfrwt>
<pdfrwt beam="2">  1       -2 0.37678401E-01 0.15568374E+04</pdfrwt>
<totfact> 0.23090554E+01</totfact>
</mgrwt>
</event>
<event>
12    2  0.3751044E-008  0.1517983E+04  0.7818608E-02  0.8872582E-01
          2   -1    0    0  501    0  0.00000000000E+00  0.00000000000E+00  0.30535606415E+04  0.30535606415E+04  0.00000000000E+00 0. -1.
         -2   -1    0    0    0  501 -0.00000000000E+00 -0.00000000000E+00 -0.18865449171E+03  0.18865449171E+03  0.00000000000E+00 0.  1.
         23    2    1    2    0    0  0.14223343857E+03  0.46782515933E+03  0.98476226368E+03  0.11031187492E+04  0.89574149007E+02 0.  0.
        254    2    1    2    0    0 -0.14223343857E+03 -0.46782515933E+03  0.18801438861E+04  0.21390963840E+04  0.89537789606E+03 0.  0.
         23    2    4    4    0    0  0.33772107065E+02 -0.64310493999E+03  0.82027024343E+03  0.10466945432E+04  0.89452085149E+02 0.  0.
         23    2    4    4    0    0 -0.17600554564E+03  0.17527978066E+03  0.10598736427E+04  0.10924018407E+04  0.91152013792E+02 0.  0.
          1    1    3    3  502    0  0.45236537791E+02  0.10771874278E+03  0.16155108604E+03  0.19937007122E+03  0.00000000000E+00 0. -1.
         -1    1    3    3    0  502  0.96996900782E+02  0.36010641655E+03  0.82321117764E+03  0.90374867800E+03  0.00000000000E+00 0.  1.
         11    1    5    5    0    0  0.63007646353E+02 -0.37795302783E+03  0.46937102942E+03  0.60591056931E+03  0.00000000000E+00 0. -1.
        -11    1    5    5    0    0 -0.29235539288E+02 -0.26515191216E+03  0.35089921401E+03  0.44078397393E+03  0.00000000000E+00 0.  1.
          1    1    6    6  503    0 -0.11786138210E+03  0.11576051073E+03  0.50527703842E+03  0.53159823813E+03  0.00000000000E+00 0. -1.
         -1    1    6    6    0  503 -0.58144163543E+02  0.59519269929E+02  0.55459660424E+03  0.56080360259E+03  0.00000000000E+00 0.  1.
<mgrwt>
<rscale>  0 0.15179828E+04</rscale>
<asrwt>0</asrwt>
<pdfrwt beam="1">  1        2 0.46977852E+00 0.15179828E+04</pdfrwt>
<pdfrwt beam="2">  1       -2 0.29023770E-01 0.15179828E+04</pdfrwt>
<totfact> 0.17082502E+01</totfact>
</mgrwt>
</event>
<event>
12    2  0.3751044E-008  0.1768382E+04  0.7818608E-02  0.8723297E-01
         -2   -1    0    0    0  501 -0.00000000000E+00  0.00000000000E+00  0.22159371090E+04  0.22159371090E+04  0.00000000000E+00 0.  1.
          2   -1    0    0  501    0  0.00000000000E+00 -0.00000000000E+00 -0.35280505338E+03  0.35280505338E+03  0.00000000000E+00 0. -1.
         23    2    1    2    0    0 -0.25665466448E+03  0.70043272661E+02 -0.19139444983E+03  0.34350944096E+03  0.10290395407E+03 0.  0.
        254    2    1    2    0    0  0.25665466448E+03 -0.70043272661E+02  0.20545265055E+04  0.22252327214E+04  0.81228309476E+03 0.  0.
         23    2    4    4    0    0  0.52053154868E+03 -0.40134657205E+02  0.16462195702E+04  0.17294811743E+04  0.92208323010E+02 0.  0.
         23    2    4    4    0    0 -0.26387688421E+03 -0.29908615456E+02  0.40830693524E+03  0.49575154718E+03  0.92355334790E+02 0.  0.
          4    1    3    3  502    0 -0.15070399132E+03  0.70208855644E+02 -0.16518451842E+03  0.23436488973E+03  0.00000000000E+00 0. -1.
         -4    1    3    3    0  502 -0.10595067315E+03 -0.16558298302E+00 -0.26209931404E+02  0.10914455123E+03  0.00000000000E+00 0.  1.
         11    1    5    5    0    0  0.48771248062E+03 -0.23286015667E+02  0.14551710370E+04  0.15349034006E+04  0.00000000000E+00 0.  1.
        -11    1    5    5    0    0  0.32819068060E+02 -0.16848641538E+02  0.19104853320E+03  0.19457777362E+03  0.00000000000E+00 0. -1.
          3    1    6    6  503    0 -0.19696121936E+02  0.21824363649E+02  0.64604828451E+02  0.70979038647E+02  0.00000000000E+00 0. -1.
         -3    1    6    6    0  503 -0.24418076227E+03 -0.51732979105E+02  0.34370210679E+03  0.42477250853E+03  0.00000000000E+00 0.  1.
<mgrwt>
<rscale>  0 0.17683821E+04</rscale>
<asrwt>0</asrwt>
<pdfrwt beam="1">  1        2 0.54277702E-01 0.17683821E+04</pdfrwt>
<pdfrwt beam="2">  1       -2 0.34091339E+00 0.17683821E+04</pdfrwt>
<totfact> 0.15438121E+00</totfact>
</mgrwt>
</event>
<event>
12    2  0.3751044E-008  0.2038644E+04  0.7818608E-02  0.8588764E-01
          2   -1    0    0  501    0  0.00000000000E+00  0.00000000000E+00  0.44750027119E+04  0.44750027119E+04  0.00000000000E+00 0. -1.
         -2   -1    0    0    0  501 -0.00000000000E+00 -0.00000000000E+00 -0.23218244163E+03  0.23218244163E+03  0.00000000000E+00 0.  1.
         23    2    1    2    0    0 -0.17013555620E+03 -0.76455185487E+03  0.12319334731E+04  0.14626202890E+04  0.90068759030E+02 0.  0.
        254    2    1    2    0    0  0.17013555620E+03  0.76455185487E+03  0.30108867972E+04  0.32445648646E+04  0.92101911408E+03 0.  0.
         23    2    4    4    0    0  0.96636673937E+01  0.39597287410E+03  0.26933399861E+04  0.27237500800E+04  0.88579420976E+02 0.  0.
         23    2    4    4    0    0  0.16047188881E+03  0.36857898078E+03  0.31754681114E+03  0.52081478465E+03  0.93863573725E+02 0.  0.
          2    1    3    3  502    0 -0.82761387757E+01 -0.20768044532E+02  0.13981640441E+02  0.26368398058E+02  0.00000000000E+00 0. -1.
         -2    1    3    3    0  502 -0.16185941743E+03 -0.74378381034E+03  0.12179518326E+04  0.14362518909E+04  0.00000000000E+00 0.  1.
         11    1    5    5    0    0  0.17960465471E+02  0.25401976027E+03  0.14370846175E+04  0.14594727866E+04  0.00000000000E+00 0. -1.
        -11    1    5    5    0    0 -0.82967980771E+01  0.14195311382E+03  0.12562553686E+04  0.12642772934E+04  0.00000000000E+00 0.  1.
          1    1    6    6  503    0  0.20800128476E+02  0.27587643140E+01  0.20319545098E+02  0.29208561042E+02  0.00000000000E+00 0. -1.
         -1    1    6    6    0  503  0.13967176033E+03  0.36582021646E+03  0.29722726605E+03  0.49160622361E+03  0.00000000000E+00 0.  1.
<mgrwt>
<rscale>  0 0.20386437E+04</rscale>
<asrwt>0</asrwt>
<pdfrwt beam="1">  1        2 0.68846189E+00 0.20386437E+04</pdfrwt>
<pdfrwt beam="2">  1       -2 0.35720379E-01 0.20386437E+04</pdfrwt>
<totfact> 0.90187146E-01</totfact>
</mgrwt>
</event>
<event>
12    2  0.3751044E-008  0.1202538E+04  0.7818608E-02  0.9110638E-01
          2   -1    0    0  501    0  0.00000000000E+00  0.00000000000E+00  0.21924352981E+04  0.21924352981E+04  0.00000000000E+00 0. -1.
         -2   -1    0    0    0  501 -0.00000000000E+00 -0.00000000000E+00 -0.16489638279E+03  0.16489638279E+03  0.00000000000E+00 0.  1.
         23    2    1    2    0    0 -0.14601913280E+03 -0.14943107018E+03  0.76086875842E+03  0.79438739216E+03  0.92080559285E+02 0.  0.
        254    2    1    2    0    0  0.14601913280E+03  0.14943107018E+03  0.12666701569E+04  0.15629442887E+04  0.89145405458E+03 0.  0.
         23    2    4    4    0    0 -0.15366600151E+03 -0.16383365440E+03  0.10350362346E+04  0.10630327258E+04  0.91015728270E+02 0.  0.
         23    2    4    4    0    0  0.29968513431E+03  0.31326472458E+03  0.23163392224E+03  0.49991156291E+03  0.91166492764E+02 0.  0.
          3    1    3    3  502    0 -0.14365891865E+03 -0.14101022364E+03  0.75926432880E+03  0.78549607832E+03  0.00000000000E+00 0. -1.
         -3    1    3    3    0  502 -0.23602141496E+01 -0.84208465400E+01  0.16044296256E+01  0.88913138346E+01  0.00000000000E+00 0.  1.
         11    1    5    5    0    0 -0.11507291475E+03 -0.16550548615E+03  0.91470108328E+03  0.93664930118E+03  0.00000000000E+00 0. -1.
        -11    1    5    5    0    0 -0.38593086768E+02  0.16718317527E+01  0.12033515135E+03  0.12638342462E+03  0.00000000000E+00 0.  1.
          3    1    6    6  503    0  0.24079729287E+03  0.19211183847E+03  0.16899087571E+03  0.35135197567E+03  0.00000000000E+00 0. -1.
         -3    1    6    6    0  503  0.58887841445E+02  0.12115288610E+03  0.62643046532E+02  0.14855958724E+03  0.00000000000E+00 0.  1.
<mgrwt>
<rscale>  0 0.12025384E+04</rscale>
<asrwt>0</asrwt>
<pdfrwt beam="1">  1        2 0.33729772E+00 0.12025384E+04</pdfrwt>
<pdfrwt beam="2">  1       -2 0.25368676E-01 0.12025384E+04</pdfrwt>
<totfact> 0.72076691E+01</totfact>
</mgrwt>
</event>
<event>
12    2  0.3751044E-008  0.1313834E+04  0.7818608E-02  0.9018666E-01
         -1   -1    0    0    0  501 -0.00000000000E+00  0.00000000000E+00  0.94098301416E+03  0.94098301416E+03  0.00000000000E+00 0.  1.
          1   -1    0    0  501    0  0.00000000000E+00 -0.00000000000E+00 -0.45860571185E+03  0.45860571185E+03  0.00000000000E+00 0. -1.
         23    2    1    2    0    0  0.27596391583E+03  0.22319059428E+03  0.16012711784E+03  0.39984444199E+03  0.90910723840E+02 0.  0.
        254    2    1    2    0    0 -0.27596391583E+03 -0.22319059428E+03  0.32225018447E+03  0.99974428402E+03  0.87731028025E+03 0.  0.
         23    2    4    4    0    0 -0.53817082998E+03 -0.33397286701E+03  0.28354100289E+03  0.69875109497E+03  0.81803876802E+02 0.  0.
         23    2    4    4    0    0  0.26220691415E+03  0.11078227273E+03  0.38709181585E+02  0.30099318905E+03  0.89851662963E+02 0.  0.
          4    1    3    3  502    0  0.26766818670E+03  0.22636027095E+03  0.13931833790E+03  0.37721986919E+03  0.00000000000E+00 0. -1.
         -4    1    3    3    0  502  0.82957291292E+01 -0.31696766697E+01  0.20808779938E+02  0.22624572802E+02  0.00000000000E+00 0.  1.
         11    1    5    5    0    0 -0.43104940506E+03 -0.28049779779E+03  0.19569539076E+03  0.55025384154E+03  0.00000000000E+00 0. -1.
        -11    1    5    5    0    0 -0.10712142492E+03 -0.53475069220E+02  0.87845612124E+02  0.14849725342E+03  0.00000000000E+00 0.  1.
          2    1    6    6  503    0  0.24363736818E+03  0.73378986537E+02  0.46085335676E+02  0.25858751131E+03  0.00000000000E+00 0. -1.
         -2    1    6    6    0  503  0.18569545966E+02  0.37403286197E+02 -0.73761540907E+01  0.42405677744E+02  0.00000000000E+00 0.  1.
<mgrwt>
<rscale>  0 0.13138344E+04</rscale>
<asrwt>0</asrwt>
<pdfrwt beam="1">  1        1 0.70554725E-01 0.13138344E+04</pdfrwt>
<pdfrwt beam="2">  1       -1 0.14476662E+00 0.13138344E+04</pdfrwt>
<totfact> 0.18796842E+01</totfact>
</mgrwt>
</event>
<event>
12    2  0.3751044E-008  0.1628296E+04  0.7818608E-02  0.8803351E-01
         -2   -1    0    0    0  501 -0.00000000000E+00  0.00000000000E+00  0.68546450759E+03  0.68546450759E+03  0.00000000000E+00 0.  1.
          2   -1    0    0  501    0  0.00000000000E+00 -0.00000000000E+00 -0.96698989138E+03  0.96698989138E+03  0.00000000000E+00 0. -1.
         23    2    1    2    0    0  0.50529522313E+03  0.16864767964E+03 -0.27950479569E+03  0.60833841619E+03  0.90484227598E+02 0.  0.
        254    2    1    2    0    0 -0.50529522313E+03 -0.16864767964E+03 -0.20205881068E+01  0.10441159828E+04  0.89800267280E+03 0.  0.
         23    2    4    4    0    0 -0.50054451380E+03  0.16707333813E+03  0.27278187106E+03  0.60083754206E+03  0.90208049330E+02 0.  0.
         23    2    4    4    0    0 -0.47507093300E+01 -0.33572101777E+03 -0.27480245917E+03  0.44327844072E+03  0.90819675363E+02 0.  0.
          2    1    3    3  502    0  0.28547819757E+03  0.11223496819E+03 -0.11313079989E+03  0.32694505235E+03  0.00000000000E+00 0. -1.
         -2    1    3    3    0  502  0.21981702556E+03  0.56412711446E+02 -0.16637399580E+03  0.28139336385E+03  0.00000000000E+00 0.  1.
         11    1    5    5    0    0 -0.15867797342E+03  0.43234424784E+02  0.40517231189E+02  0.16937993021E+03  0.00000000000E+00 0. -1.
        -11    1    5    5    0    0 -0.34186654037E+03  0.12383891335E+03  0.23226463987E+03  0.43145761185E+03  0.00000000000E+00 0.  1.
          3    1    6    6  503    0 -0.41783529819E+01 -0.10240817951E+03 -0.33999097818E+02  0.10798533473E+03  0.00000000000E+00 0. -1.
         -3    1    6    6    0  503 -0.57235634808E+00 -0.23331283825E+03 -0.24080336135E+03  0.33529310599E+03  0.00000000000E+00 0.  1.
<mgrwt>
<rscale>  0 0.16282963E+04</rscale>
<asrwt>0</asrwt>
<pdfrwt beam="1">  1        2 0.14876768E+00 0.16282963E+04</pdfrwt>
<pdfrwt beam="2">  1       -2 0.10545608E+00 0.16282963E+04</pdfrwt>
<totfact> 0.18422171E+01</totfact>
</mgrwt>
</event>
<event>
12    2  0.3751044E-008  0.1678938E+04  0.7818608E-02  0.8773469E-01
         -2   -1    0    0    0  501 -0.00000000000E+00  0.00000000000E+00  0.38767386133E+03  0.38767386133E+03  0.00000000000E+00 0.  1.
          2   -1    0    0  501    0  0.00000000000E+00 -0.00000000000E+00 -0.18177862373E+04  0.18177862373E+04  0.00000000000E+00 0. -1.
         23    2    1    2    0    0 -0.21001735133E+03 -0.54749628421E+03 -0.37968552081E+03  0.70446229406E+03  0.90810571818E+02 0.  0.
        254    2    1    2    0    0  0.21001735133E+03  0.54749628421E+03 -0.10504268551E+04  0.15009978045E+04  0.89762930109E+03 0.  0.
         23    2    4    4    0    0  0.45911672780E+03  0.30435199642E+03 -0.22765753177E+03  0.60291794864E+03  0.90905409936E+02 0.  0.
         23    2    4    4    0    0 -0.24909937647E+03  0.24314428779E+03 -0.82276932335E+03  0.89807985589E+03  0.91806448979E+02 0.  0.
          2    1    3    3  502    0 -0.14577293722E+03 -0.42187162429E+03 -0.32915387536E+03  0.55458785623E+03  0.00000000000E+00 0. -1.
         -2    1    3    3    0  502 -0.64244414114E+02 -0.12562465991E+03 -0.50531645453E+02  0.14987443783E+03  0.00000000000E+00 0.  1.
         11    1    5    5    0    0  0.89664079243E+02  0.20562375153E+02 -0.46408060924E+02  0.10303478295E+03  0.00000000000E+00 0. -1.
        -11    1    5    5    0    0  0.36945264855E+03  0.28378962127E+03 -0.18124947084E+03  0.49988316569E+03  0.00000000000E+00 0.  1.
          4    1    6    6  503    0 -0.13711474439E+03  0.15771401262E+03 -0.38301605113E+03  0.43632036204E+03  0.00000000000E+00 0. -1.
         -4    1    6    6    0  503 -0.11198463208E+03  0.85430275166E+02 -0.43975327222E+03  0.46175949385E+03  0.00000000000E+00 0.  1.
<mgrwt>
<rscale>  0 0.16789380E+04</rscale>
<asrwt>0</asrwt>
<pdfrwt beam="1">  1        2 0.27965943E+00 0.16789380E+04</pdfrwt>
<pdfrwt beam="2">  1       -2 0.59642132E-01 0.16789380E+04</pdfrwt>
<totfact> 0.21085183E+01</totfact>
</mgrwt>
</event>
<event>
12    2  0.3751044E-008  0.1894993E+04  0.7818608E-02  0.8657353E-01
          2   -1    0    0  501    0  0.00000000000E+00  0.00000000000E+00  0.13926658384E+04  0.13926658384E+04  0.00000000000E+00 0. -1.
         -2   -1    0    0    0  501 -0.00000000000E+00 -0.00000000000E+00 -0.64462693124E+03  0.64462693124E+03  0.00000000000E+00 0.  1.
         23    2    1    2    0    0 -0.35140500245E+02 -0.40658650527E+03 -0.37635641602E+03  0.56263125317E+03  0.91445798949E+02 0.  0.
        254    2    1    2    0    0  0.35140500245E+02  0.40658650527E+03  0.11243953232E+04  0.14746615165E+04  0.86244669654E+03 0.  0.
         23    2    4    4    0    0 -0.14126234619E+03  0.16185773418E+03 -0.66858067002E+02  0.24257160445E+03  0.90653216134E+02 0.  0.
         23    2    4    4    0    0  0.17640284644E+03  0.24472877108E+03  0.11912533902E+04  0.12320899120E+04  0.89167124421E+02 0.  0.
          4    1    3    3  502    0 -0.46792661619E+02 -0.13276850851E+03 -0.94839969209E+02  0.16973994754E+03  0.00000000000E+00 0. -1.
         -4    1    3    3    0  502  0.11652161374E+02 -0.27381799676E+03 -0.28151644681E+03  0.39289130563E+03  0.00000000000E+00 0.  1.
         11    1    5    5    0    0 -0.17691723051E+02  0.20780063908E+02  0.21988686165E+02  0.35047260090E+02  0.00000000000E+00 0. -1.
        -11    1    5    5    0    0 -0.12357062314E+03  0.14107767027E+03 -0.88846753167E+02  0.20752434436E+03  0.00000000000E+00 0.  1.
          3    1    6    6  503    0  0.96453227613E+01  0.54920665554E+02  0.32476704219E+03  0.32951926112E+03  0.00000000000E+00 0. -1.
         -3    1    6    6    0  503  0.16675752367E+03  0.18980810553E+03  0.86648634800E+03  0.90257065091E+03  0.00000000000E+00 0.  1.
<mgrwt>
<rscale>  0 0.18949933E+04</rscale>
<asrwt>0</asrwt>
<pdfrwt beam="1">  1        2 0.21425628E+00 0.18949933E+04</pdfrwt>
<pdfrwt beam="2">  1       -2 0.99173374E-01 0.18949933E+04</pdfrwt>
<totfact> 0.11534021E+01</totfact>
</mgrwt>
</event>
<event>
12    2  0.3751044E-008  0.2109302E+04  0.7818608E-02  0.8557157E-01
         -1   -1    0    0    0  501 -0.00000000000E+00  0.00000000000E+00  0.15786673930E+04  0.15786673930E+04  0.00000000000E+00 0.  1.
          1   -1    0    0  501    0  0.00000000000E+00 -0.00000000000E+00 -0.70457433319E+03  0.70457433319E+03  0.00000000000E+00 0. -1.
         23    2    1    2    0    0  0.27627892127E+03 -0.96461782404E+02 -0.51692575733E+03  0.60105043679E+03  0.91730426600E+02 0.  0.
        254    2    1    2    0    0 -0.27627892127E+03  0.96461782404E+02  0.13910188172E+04  0.16821912894E+04  0.89955503820E+03 0.  0.
         23    2    4    4    0    0 -0.48881564327E+03 -0.92821742506E+01  0.34351233099E+03  0.60440470879E+03  0.90980429763E+02 0.  0.
         23    2    4    4    0    0  0.21253672199E+03  0.10574395666E+03  0.10475064862E+04  0.10777865807E+04  0.89445135596E+02 0.  0.
          2    1    3    3  502    0  0.27114299380E+03 -0.85340244690E+02 -0.51555200576E+03  0.58872349290E+03  0.00000000000E+00 0. -1.
         -2    1    3    3    0  502  0.51359274746E+01 -0.11121537715E+02 -0.13737515699E+01  0.12326943885E+02  0.00000000000E+00 0.  1.
         11    1    5    5    0    0 -0.25434998182E+03  0.14687020873E+02  0.12835995663E+03  0.28528214157E+03  0.00000000000E+00 0.  1.
        -11    1    5    5    0    0 -0.23446566145E+03 -0.23969195124E+02  0.21515237436E+03  0.31912256721E+03  0.00000000000E+00 0. -1.
          4    1    6    6  503    0  0.15887960438E+03  0.67837057571E+02  0.56479713774E+03  0.59062712592E+03  0.00000000000E+00 0. -1.
         -4    1    6    6    0  503  0.53657117612E+02  0.37906899084E+02  0.48270934844E+03  0.48715945473E+03  0.00000000000E+00 0.  1.
<mgrwt>
<rscale>  0 0.21093018E+04</rscale>
<asrwt>0</asrwt>
<pdfrwt beam="1">  1        1 0.10839605E+00 0.21093018E+04</pdfrwt>
<pdfrwt beam="2">  1       -1 0.24287191E+00 0.21093018E+04</pdfrwt>
<totfact> 0.19241296E+00</totfact>
</mgrwt>
</event>
<event>
12    2  0.3751044E-008  0.2899982E+04  0.7818608E-02  0.8272883E-01
          2   -1    0    0  501    0  0.00000000000E+00  0.00000000000E+00  0.23511651065E+04  0.23511651065E+04  0.00000000000E+00 0. -1.
         -2   -1    0    0    0  501 -0.00000000000E+00 -0.00000000000E+00 -0.89422628138E+03  0.89422628138E+03  0.00000000000E+00 0.  1.
         23    2    1    2    0    0  0.59564600377E+03 -0.48104676098E+03 -0.53045110542E+03  0.93613551836E+03  0.93654607074E+02 0.  0.
        254    2    1    2    0    0 -0.59564600377E+03  0.48104676098E+03  0.19873899306E+04  0.23092558695E+04  0.89260505647E+03 0.  0.
         23    2    4    4    0    0 -0.36904412649E+03  0.46372305291E+03  0.19758935868E+04  0.20648928447E+04  0.91620722821E+02 0.  0.
         23    2    4    4    0    0 -0.22660187728E+03  0.17323708075E+02  0.11496343815E+02  0.24436302484E+03  0.89065146592E+02 0.  0.
          2    1    3    3  502    0  0.17084523953E+03 -0.19249501262E+03 -0.19198990641E+03  0.32109585783E+03  0.00000000000E+00 0. -1.
         -2    1    3    3    0  502  0.42480076424E+03 -0.28855174837E+03 -0.33846119901E+03  0.61503966053E+03  0.00000000000E+00 0.  1.
         11    1    5    5    0    0 -0.44562444976E+02  0.11394131640E+03  0.42686018809E+03  0.44404735700E+03  0.00000000000E+00 0.  1.
        -11    1    5    5    0    0 -0.32448168151E+03  0.34978173651E+03  0.15490333987E+04  0.16208454877E+04  0.00000000000E+00 0. -1.
          4    1    6    6  503    0 -0.22269744173E+03  0.13743076925E+02 -0.88914427760E+01  0.22329818735E+03  0.00000000000E+00 0. -1.
         -4    1    6    6    0  503 -0.39044355482E+01  0.35806311506E+01  0.20387786591E+02  0.21064837490E+02  0.00000000000E+00 0.  1.
<mgrwt>
<rscale>  0 0.28999818E+04</rscale>
<asrwt>0</asrwt>
<pdfrwt beam="1">  1        2 0.36171771E+00 0.28999818E+04</pdfrwt>
<pdfrwt beam="2">  1       -2 0.13757327E+00 0.28999818E+04</pdfrwt>
<totfact> 0.13750082E+00</totfact>
</mgrwt>
</event>
<event>
12    2  0.3751044E-008  0.2079647E+04  0.7818608E-02  0.8570262E-01
         -1   -1    0    0    0  501 -0.00000000000E+00  0.00000000000E+00  0.90630016186E+03  0.90630016186E+03  0.00000000000E+00 0.  1.
          1   -1    0    0  501    0  0.00000000000E+00 -0.00000000000E+00 -0.11930188432E+04  0.11930188432E+04  0.00000000000E+00 0. -1.
         23    2    1    2    0    0 -0.28591633937E+03 -0.65312808865E+03  0.32584513801E+03  0.78910819194E+03  0.90510945810E+02 0.  0.
        254    2    1    2    0    0  0.28591633937E+03  0.65312808865E+03 -0.61256381940E+03  0.13102108132E+04  0.91273955146E+03 0.  0.
         23    2    4    4    0    0  0.81145051835E+00  0.80870689488E+03 -0.36576090984E+03  0.89221579631E+03  0.90887203443E+02 0.  0.
         23    2    4    4    0    0  0.28510488885E+03 -0.15557880622E+03 -0.24680290955E+03  0.41799501685E+03  0.91206333976E+02 0.  0.
          3    1    3    3  502    0  0.54573003831E+01 -0.43985079179E+01  0.64200495209E+01  0.95050531417E+01  0.00000000000E+00 0. -1.
         -3    1    3    3    0  502 -0.29137363975E+03 -0.64872958074E+03  0.31942508849E+03  0.77960313880E+03  0.00000000000E+00 0.  1.
         11    1    5    5    0    0  0.20142964484E+02  0.73082910641E+03 -0.34947186910E+03  0.81033789809E+03  0.00000000000E+00 0.  1.
        -11    1    5    5    0    0 -0.19331513966E+02  0.77877788471E+02 -0.16289040744E+02  0.81877898225E+02  0.00000000000E+00 0. -1.
          4    1    6    6  503    0  0.26667310120E+03 -0.12983917973E+03 -0.24754094687E+03  0.38632793825E+03  0.00000000000E+00 0.  1.
         -4    1    6    6    0  503  0.18431787649E+02 -0.25739626495E+02  0.73803731576E+00  0.31667078601E+02  0.00000000000E+00 0. -1.
<mgrwt>
<rscale>  0 0.20796472E+04</rscale>
<asrwt>0</asrwt>
<pdfrwt beam="1">  1        1 0.18354136E+00 0.20796472E+04</pdfrwt>
<pdfrwt beam="2">  1       -1 0.13943080E+00 0.20796472E+04</pdfrwt>
<totfact> 0.42205474E+00</totfact>
</mgrwt>
</event>
<event>
12    2  0.3751044E-008  0.1505631E+04  0.7818608E-02  0.8880717E-01
          2   -1    0    0  501    0  0.00000000000E+00  0.00000000000E+00  0.15086368494E+04  0.15086368494E+04  0.00000000000E+00 0. -1.
         -2   -1    0    0    0  501 -0.00000000000E+00 -0.00000000000E+00 -0.37565780994E+03  0.37565780994E+03  0.00000000000E+00 0.  1.
         23    2    1    2    0    0 -0.86858887938E+02  0.43260015115E+03  0.58425116679E+03  0.73788908537E+03  0.91888624038E+02 0.  0.
        254    2    1    2    0    0  0.86858887938E+02 -0.43260015115E+03  0.54872787268E+03  0.11464055740E+04  0.90468563854E+03 0.  0.
         23    2    4    4    0    0  0.32142512831E+03 -0.31224809077E+03 -0.74257233753E+02  0.46348482921E+03  0.92146985004E+02 0.  0.
         23    2    4    4    0    0 -0.23456624037E+03 -0.12035206038E+03  0.62298510643E+03  0.68292074476E+03  0.93618167151E+02 0.  0.
          1    1    3    3  502    0 -0.76890454507E+02  0.41450879737E+03  0.57961888984E+03  0.71672012847E+03  0.00000000000E+00 0. -1.
         -1    1    3    3    0  502 -0.99684334314E+01  0.18091353775E+02  0.46322769464E+01  0.21168956899E+02  0.00000000000E+00 0.  1.
         11    1    5    5    0    0  0.70904569273E+01 -0.41783180263E+02 -0.12845285503E+02  0.44284422679E+02  0.00000000000E+00 0. -1.
        -11    1    5    5    0    0  0.31433467139E+03 -0.27046491051E+03 -0.61411948250E+02  0.41920040654E+03  0.00000000000E+00 0.  1.
          1    1    6    6  503    0 -0.68615107019E+02 -0.46380957688E+02  0.10336938557E+03  0.13245548694E+03  0.00000000000E+00 0. -1.
         -1    1    6    6    0  503 -0.16595113336E+03 -0.73971102689E+02  0.51961572086E+03  0.55046525782E+03  0.00000000000E+00 0.  1.
<mgrwt>
<rscale>  0 0.15056311E+04</rscale>
<asrwt>0</asrwt>
<pdfrwt beam="1">  1        2 0.23209797E+00 0.15056311E+04</pdfrwt>
<pdfrwt beam="2">  1       -2 0.57793510E-01 0.15056311E+04</pdfrwt>
<totfact> 0.33973436E+01</totfact>
</mgrwt>
</event>
<event>
12    2  0.3751044E-008  0.2581614E+04  0.7818608E-02  0.8374473E-01
          1   -1    0    0  501    0  0.00000000000E+00  0.00000000000E+00  0.12770538206E+04  0.12770538206E+04  0.00000000000E+00 0. -1.
         -1   -1    0    0    0  501 -0.00000000000E+00 -0.00000000000E+00 -0.13047084170E+04  0.13047084170E+04  0.00000000000E+00 0.  1.
         23    2    1    2    0    0 -0.27175397491E+03  0.10819816868E+04 -0.21995185512E+03  0.11409162664E+04  0.93683055302E+02 0.  0.
        254    2    1    2    0    0  0.27175397491E+03 -0.10819816868E+04  0.19229725879E+03  0.14408459712E+04  0.89136091645E+03 0.  0.
         23    2    4    4    0    0 -0.75888686835E+02 -0.93025503401E+03  0.37586488139E+03  0.10104354498E+04  0.92584383040E+02 0.  0.
         23    2    4    4    0    0  0.34764266175E+03 -0.15172665283E+03 -0.18356762260E+03  0.43041052141E+03  0.87634168176E+02 0.  0.
          1    1    3    3  502    0 -0.18633762816E+03  0.69226638156E+03 -0.18518807963E+03  0.74043843738E+03  0.00000000000E+00 0. -1.
         -1    1    3    3    0  502 -0.85416346755E+02  0.38971530528E+03 -0.34763775491E+02  0.40047782903E+03  0.00000000000E+00 0.  1.
         11    1    5    5    0    0 -0.55927911773E+02 -0.54279319881E+03  0.26692788897E+03  0.60745607735E+03  0.00000000000E+00 0. -1.
        -11    1    5    5    0    0 -0.19960775061E+02 -0.38746183520E+03  0.10893699241E+03  0.40297937241E+03  0.00000000000E+00 0.  1.
          2    1    6    6  503    0  0.33781861237E+03 -0.15043228556E+03 -0.19264764127E+03  0.41697050386E+03  0.00000000000E+00 0. -1.
         -2    1    6    6    0  503  0.98240493728E+01 -0.12943672720E+01  0.90800186712E+01  0.13440017551E+02  0.00000000000E+00 0.  1.
<mgrwt>
<rscale>  0 0.25816141E+04</rscale>
<asrwt>0</asrwt>
<pdfrwt beam="1">  1        1 0.19646982E+00 0.25816141E+04</pdfrwt>
<pdfrwt beam="2">  1       -1 0.20072437E+00 0.25816141E+04</pdfrwt>
<totfact> 0.12331211E+00</totfact>
</mgrwt>
</event>
<event>
12    2  0.3751044E-008  0.1156106E+04  0.7818608E-02  0.9152169E-01
         -1   -1    0    0    0  501 -0.00000000000E+00  0.00000000000E+00  0.48230098160E+03  0.48230098160E+03  0.00000000000E+00 0.  1.
          1   -1    0    0  501    0  0.00000000000E+00 -0.00000000000E+00 -0.69281494292E+03  0.69281494292E+03  0.00000000000E+00 0. -1.
         23    2    1    2    0    0 -0.18692006337E+03  0.86995017677E+02  0.19158352732E+02  0.22639277148E+03  0.91539069858E+02 0.  0.
        254    2    1    2    0    0  0.18692006337E+03 -0.86995017677E+02 -0.22967231405E+03  0.94872315304E+03  0.89711705261E+03 0.  0.
         23    2    4    4    0    0  0.56613062027E+02 -0.16831251721E+03 -0.54871667996E+03  0.58391935075E+03  0.91310848579E+02 0.  0.
         23    2    4    4    0    0  0.13030700134E+03  0.81317499536E+02  0.31904436591E+03  0.36480380229E+03  0.87749965319E+02 0.  0.
          1    1    3    3  502    0 -0.80723150581E+02  0.51186890468E+02 -0.35167596775E+02  0.10184834146E+03  0.00000000000E+00 0. -1.
         -1    1    3    3    0  502 -0.10619691279E+03  0.35808127209E+02  0.54325949507E+02  0.12454443002E+03  0.00000000000E+00 0.  1.
         11    1    5    5    0    0  0.50834199950E+02 -0.30022238695E+02 -0.20645002931E+03  0.21472555811E+03  0.00000000000E+00 0.  1.
        -11    1    5    5    0    0  0.57788620764E+01 -0.13829027852E+03 -0.34226665065E+03  0.36919379264E+03  0.00000000000E+00 0. -1.
          3    1    6    6  503    0  0.99213569525E+02  0.97896695191E+02  0.27581520323E+03  0.30903255758E+03  0.00000000000E+00 0. -1.
         -3    1    6    6    0  503  0.31093431818E+02 -0.16579195655E+02  0.43229162677E+02  0.55771244711E+02  0.00000000000E+00 0.  1.
<mgrwt>
<rscale>  0 0.11561061E+04</rscale>
<asrwt>0</asrwt>
<pdfrwt beam="1">  1        1 0.10658691E+00 0.11561061E+04</pdfrwt>
<pdfrwt beam="2">  1       -1 0.74200151E-01 0.11561061E+04</pdfrwt>
<totfact> 0.50257879E+01</totfact>
</mgrwt>
</event>
<event>
12    2  0.3751044E-008  0.1699996E+04  0.7818608E-02  0.8761367E-01
          2   -1    0    0  501    0  0.00000000000E+00  0.00000000000E+00  0.89219313775E+03  0.89219313775E+03  0.00000000000E+00 0. -1.
         -2   -1    0    0    0  501 -0.00000000000E+00 -0.00000000000E+00 -0.80979864572E+03  0.80979864572E+03  0.00000000000E+00 0.  1.
         23    2    1    2    0    0 -0.87992132694E+02  0.35389453921E+03  0.49498124871E+03  0.62096539377E+03  0.87221691036E+02 0.  0.
        254    2    1    2    0    0  0.87992132694E+02 -0.35389453921E+03 -0.41258675668E+03  0.10810263897E+04  0.93027214466E+03 0.  0.
         23    2    4    4    0    0 -0.39742347855E+03 -0.31818105348E+02 -0.14680462298E+03  0.43445089129E+03  0.90764345860E+02 0.  0.
         23    2    4    4    0    0  0.48541561124E+03 -0.32207643387E+03 -0.26578213370E+03  0.64657549842E+03  0.89767408706E+02 0.  0.
          4    1    3    3  502    0 -0.90521459697E+01  0.11953074217E+03  0.10594735121E+03  0.15998243934E+03  0.00000000000E+00 0. -1.
         -4    1    3    3    0  502 -0.78939986725E+02  0.23436379704E+03  0.38903389750E+03  0.46098295443E+03  0.00000000000E+00 0.  1.
         11    1    5    5    0    0 -0.24260172844E+03 -0.55292988769E+02 -0.62260198854E+02  0.25649414342E+03  0.00000000000E+00 0.  1.
        -11    1    5    5    0    0 -0.15482175011E+03  0.23474883421E+02 -0.84544424129E+02  0.17795674787E+03  0.00000000000E+00 0. -1.
          3    1    6    6  503    0  0.30588967002E+03 -0.20935659587E+03 -0.12120395411E+03  0.38998599071E+03  0.00000000000E+00 0. -1.
         -3    1    6    6    0  503  0.17952594122E+03 -0.11271983800E+03 -0.14457817959E+03  0.25658950771E+03  0.00000000000E+00 0.  1.
<mgrwt>
<rscale>  0 0.16999962E+04</rscale>
<asrwt>0</asrwt>
<pdfrwt beam="1">  1        2 0.13726048E+00 0.16999962E+04</pdfrwt>
<pdfrwt beam="2">  1       -2 0.12458441E+00 0.16999962E+04</pdfrwt>
<totfact> 0.13655452E+01</totfact>
</mgrwt>
</event>
<event>
12    2  0.3751044E-008  0.2287472E+04  0.7818608E-02  0.8482877E-01
         -2   -1    0    0    0  501 -0.00000000000E+00  0.00000000000E+00  0.93563517655E+03  0.93563517655E+03  0.00000000000E+00 0.  1.
          2   -1    0    0  501    0  0.00000000000E+00 -0.00000000000E+00 -0.13981215465E+04  0.13981215465E+04  0.00000000000E+00 0. -1.
         23    2    1    2    0    0  0.88829306049E+03  0.25091010161E+03  0.94760156662E+02  0.93271678595E+03  0.94660842478E+02 0.  0.
        254    2    1    2    0    0 -0.88829306049E+03 -0.25091010161E+03 -0.55724652657E+03  0.14010399371E+04  0.89463331787E+03 0.  0.
         23    2    4    4    0    0 -0.67014728821E+03 -0.48627767643E+03 -0.64765197339E+03  0.10553910483E+04  0.93988402044E+02 0.  0.
         23    2    4    4    0    0 -0.21814577228E+03  0.23536757482E+03  0.90405446815E+02  0.34564888875E+03  0.91184078894E+02 0.  0.
          1    1    3    3  502    0  0.11793983916E+02 -0.32086778961E+01 -0.76121637039E+01  0.14399260631E+02  0.00000000000E+00 0. -1.
         -1    1    3    3    0  502  0.87649907657E+03  0.25411877951E+03  0.10237232037E+03  0.91831752532E+03  0.00000000000E+00 0.  1.
         11    1    5    5    0    0 -0.66096732062E+01 -0.94232797284E+01  0.17597718966E+01  0.11644001798E+02  0.00000000000E+00 0. -1.
        -11    1    5    5    0    0 -0.66353761500E+03 -0.47685439670E+03 -0.64941174528E+03  0.10437470465E+04  0.00000000000E+00 0.  1.
          1    1    6    6  503    0 -0.51912530945E+02  0.78215819984E+02 -0.12696393260E+02  0.94730268483E+02  0.00000000000E+00 0. -1.
         -1    1    6    6    0  503 -0.16623324134E+03  0.15715175483E+03  0.10310184008E+03  0.25091862027E+03  0.00000000000E+00 0.  1.
<mgrwt>
<rscale>  0 0.22874717E+04</rscale>
<asrwt>0</asrwt>
<pdfrwt beam="1">  1        2 0.21509562E+00 0.22874717E+04</pdfrwt>
<pdfrwt beam="2">  1       -2 0.14394387E+00 0.22874717E+04</pdfrwt>
<totfact> 0.43982797E+00</totfact>
</mgrwt>
</event>
<event>
12    2  0.3751044E-008  0.1620788E+04  0.7818608E-02  0.8807878E-01
         -1   -1    0    0    0  501 -0.00000000000E+00  0.00000000000E+00  0.14148325726E+04  0.14148325726E+04  0.00000000000E+00 0.  1.
          1   -1    0    0  501    0  0.00000000000E+00 -0.00000000000E+00 -0.46418087739E+03  0.46418087739E+03  0.00000000000E+00 0. -1.
         23    2    1    2    0    0 -0.57529313171E+03 -0.10458190781E+02  0.46128938252E+03  0.74328395088E+03  0.92798577896E+02 0.  0.
        254    2    1    2    0    0  0.57529313171E+03  0.10458190781E+02  0.48936231273E+03  0.11357294992E+04  0.84813587412E+03 0.  0.
         23    2    4    4    0    0 -0.20578696072E+03  0.42353431358E+02  0.17710257670E+03  0.28942003177E+03  0.90865536752E+02 0.  0.
         23    2    4    4    0    0  0.78108009243E+03 -0.31895240577E+02  0.31225973603E+03  0.84630946738E+03  0.87350756528E+02 0.  0.
          2    1    3    3  502    0 -0.52475044347E+03 -0.35907927475E+02  0.40977066609E+03  0.66675663173E+03  0.00000000000E+00 0. -1.
         -2    1    3    3    0  502 -0.50542688248E+02  0.25449736695E+02  0.51518716434E+02  0.76527319149E+02  0.00000000000E+00 0.  1.
         11    1    5    5    0    0 -0.14023692813E+01  0.20744036834E+02  0.50738260773E+01  0.21401528329E+02  0.00000000000E+00 0.  1.
        -11    1    5    5    0    0 -0.20438459144E+03  0.21609394524E+02  0.17202875062E+03  0.26801850344E+03  0.00000000000E+00 0. -1.
          2    1    6    6  503    0  0.59165546038E+03 -0.50264112126E+02  0.20704391264E+03  0.62884803135E+03  0.00000000000E+00 0. -1.
         -2    1    6    6    0  503  0.18942463205E+03  0.18368871549E+02  0.10521582340E+03  0.21746143603E+03  0.00000000000E+00 0.  1.
<mgrwt>
<rscale>  0 0.16207877E+04</rscale>
<asrwt>0</asrwt>
<pdfrwt beam="1">  1        1 0.71412443E-01 0.16207877E+04</pdfrwt>
<pdfrwt beam="2">  1       -1 0.21766655E+00 0.16207877E+04</pdfrwt>
<totfact> 0.53641400E+00</totfact>
</mgrwt>
</event>
<event>
12    2  0.3751044E-008  0.1461833E+04  0.7818608E-02  0.8910238E-01
         -2   -1    0    0    0  501 -0.00000000000E+00  0.00000000000E+00  0.44081030321E+03  0.44081030321E+03  0.00000000000E+00 0.  1.
          2   -1    0    0  501    0  0.00000000000E+00 -0.00000000000E+00 -0.12119476236E+04  0.12119476236E+04  0.00000000000E+00 0. -1.
         23    2    1    2    0    0 -0.18800499978E+03  0.38800978073E+03 -0.11756788717E+03  0.45663429070E+03  0.93782714086E+02 0.  0.
        254    2    1    2    0    0  0.18800499978E+03 -0.38800978073E+03 -0.65356943320E+03  0.11961236361E+04  0.90424624903E+03 0.  0.
         23    2    4    4    0    0 -0.26203378394E+03 -0.38536382712E+03 -0.54695600086E+03  0.72459203575E+03  0.93304706270E+02 0.  0.
         23    2    4    4    0    0  0.45003878373E+03 -0.26459536157E+01 -0.10661343234E+03  0.47153160033E+03  0.91835277702E+02 0.  0.
          4    1    3    3  502    0 -0.44249783676E+02  0.27455972779E+02 -0.24110811831E+02  0.57386453487E+02  0.00000000000E+00 0. -1.
         -4    1    3    3    0  502 -0.14375521610E+03  0.36055380795E+03 -0.93457075340E+02  0.39924783721E+03  0.00000000000E+00 0.  1.
         11    1    5    5    0    0 -0.18884160798E+03 -0.34027198636E+03 -0.45448529614E+03  0.59833357086E+03  0.00000000000E+00 0. -1.
        -11    1    5    5    0    0 -0.73192175962E+02 -0.45091840758E+02 -0.92470704720E+02  0.12625846489E+03  0.00000000000E+00 0.  1.
          4    1    6    6  503    0  0.39527810372E+03  0.17209142980E+02 -0.67500846093E+02  0.40136927897E+03  0.00000000000E+00 0. -1.
         -4    1    6    6    0  503  0.54760680007E+02 -0.19855096596E+02 -0.39112586246E+02  0.70162321359E+02  0.00000000000E+00 0.  1.
<mgrwt>
<rscale>  0 0.14618331E+04</rscale>
<asrwt>0</asrwt>
<pdfrwt beam="1">  1        2 0.18645348E+00 0.14618331E+04</pdfrwt>
<pdfrwt beam="2">  1       -2 0.67816970E-01 0.14618331E+04</pdfrwt>
<totfact> 0.35960638E+01</totfact>
</mgrwt>
</event>
<event>
12    2  0.3751044E-008  0.1220650E+04  0.7818608E-02  0.9094972E-01
          2   -1    0    0  501    0  0.00000000000E+00  0.00000000000E+00  0.15823085467E+04  0.15823085467E+04  0.00000000000E+00 0. -1.
         -2   -1    0    0    0  501 -0.00000000000E+00 -0.00000000000E+00 -0.23541318929E+03  0.23541318929E+03  0.00000000000E+00 0.  1.
         23    2    1    2    0    0  0.24061616384E+02  0.14986016999E+02  0.71464343503E+03  0.72079705829E+03  0.89608135344E+02 0.  0.
        254    2    1    2    0    0 -0.24061616384E+02 -0.14986016999E+02  0.63225192239E+03  0.10969246777E+04  0.89593398926E+03 0.  0.
         23    2    4    4    0    0  0.35008866670E+03 -0.74429751803E+02  0.60168332537E+03  0.70589981840E+03  0.90387317078E+02 0.  0.
         23    2    4    4    0    0 -0.37415028309E+03  0.59443734804E+02  0.30568597026E+02  0.39102485931E+03  0.91891291912E+02 0.  0.
          3    1    3    3  502    0  0.20333118110E+02  0.18495738666E+02  0.71512580312E+03  0.71565385651E+03  0.00000000000E+00 0. -1.
         -3    1    3    3    0  502  0.37284982735E+01 -0.35097216676E+01 -0.48236809718E+00  0.51432017791E+01  0.00000000000E+00 0.  1.
         11    1    5    5    0    0  0.59833317460E+02  0.14394389351E+02  0.14524901645E+03  0.15774822060E+03  0.00000000000E+00 0. -1.
        -11    1    5    5    0    0  0.29025534924E+03 -0.88824141154E+02  0.45643430892E+03  0.54815159781E+03  0.00000000000E+00 0.  1.
          3    1    6    6  503    0 -0.25856942128E+03  0.43615989496E+01 -0.31457361264E+01  0.25862533677E+03  0.00000000000E+00 0. -1.
         -3    1    6    6    0  503 -0.11558086181E+03  0.55082135855E+02  0.33714333152E+02  0.13239952253E+03  0.00000000000E+00 0.  1.
<mgrwt>
<rscale>  0 0.12206495E+04</rscale>
<asrwt>0</asrwt>
<pdfrwt beam="1">  1        2 0.24343208E+00 0.12206495E+04</pdfrwt>
<pdfrwt beam="2">  1       -2 0.36217415E-01 0.12206495E+04</pdfrwt>
<totfact> 0.80619844E+01</totfact>
</mgrwt>
</event>
<event>
12    2  0.3751044E-008  0.1761391E+04  0.7818608E-02  0.8727105E-01
         -1   -1    0    0    0  501 -0.00000000000E+00  0.00000000000E+00  0.74764972580E+03  0.74764972580E+03  0.00000000000E+00 0.  1.
          1   -1    0    0  501    0  0.00000000000E+00 -0.00000000000E+00 -0.10374174570E+04  0.10374174570E+04  0.00000000000E+00 0. -1.
         23    2    1    2    0    0 -0.56845954716E+03 -0.30627799760E+03 -0.59581057096E+02  0.65499291704E+03  0.92267819088E+02 0.  0.
        254    2    1    2    0    0  0.56845954716E+03  0.30627799760E+03 -0.23018667414E+03  0.11300742658E+04  0.89840384721E+03 0.  0.
         23    2    4    4    0    0  0.62363301771E+03  0.29346254479E+03  0.16975183743E+03  0.71582732109E+03  0.92491412267E+02 0.  0.
         23    2    4    4    0    0 -0.55173470545E+02  0.12815452806E+02 -0.39993851157E+03  0.41424694470E+03  0.91876931141E+02 0.  0.
          1    1    3    3  502    0 -0.48779213138E+03 -0.29399787399E+03 -0.64883586929E+02  0.57322403404E+03  0.00000000000E+00 0. -1.
         -1    1    3    3    0  502 -0.80667415782E+02 -0.12280123603E+02  0.53025298335E+01  0.81768883001E+02  0.00000000000E+00 0.  1.
         11    1    5    5    0    0  0.10685984267E+03  0.88562297087E+02  0.21102895272E+02  0.14038389733E+03  0.00000000000E+00 0.  1.
        -11    1    5    5    0    0  0.51677317504E+03  0.20490024770E+03  0.14864894216E+03  0.57544342376E+03  0.00000000000E+00 0. -1.
          4    1    6    6  503    0 -0.19131073209E+00  0.25370262599E+02 -0.26929255780E+02  0.36998265379E+02  0.00000000000E+00 0.  1.
         -4    1    6    6    0  503 -0.54982159813E+02 -0.12554809793E+02 -0.37300925579E+03  0.37724867932E+03  0.00000000000E+00 0. -1.
<mgrwt>
<rscale>  0 0.17613914E+04</rscale>
<asrwt>0</asrwt>
<pdfrwt beam="1">  1        1 0.15960269E+00 0.17613914E+04</pdfrwt>
<pdfrwt beam="2">  1       -1 0.11502303E+00 0.17613914E+04</pdfrwt>
<totfact> 0.91929672E+00</totfact>
</mgrwt>
</event>
<event>
12    2  0.3751044E-008  0.2068613E+04  0.7818608E-02  0.8575197E-01
          2   -1    0    0  501    0  0.00000000000E+00  0.00000000000E+00  0.26145707286E+04  0.26145707286E+04  0.00000000000E+00 0. -1.
         -2   -1    0    0    0  501 -0.00000000000E+00 -0.00000000000E+00 -0.40916479264E+03  0.40916479264E+03  0.00000000000E+00 0.  1.
         23    2    1    2    0    0  0.11562439769E+03 -0.32754982372E+03 -0.21777838042E+03  0.41990181568E+03  0.90731601249E+02 0.  0.
        254    2    1    2    0    0 -0.11562439769E+03  0.32754982372E+03  0.24231843164E+04  0.26038337056E+04  0.88739497786E+03 0.  0.
         23    2    4    4    0    0 -0.50450971726E+02  0.60517186079E+03  0.19409029494E+04  0.20360353214E+04  0.97761388549E+02 0.  0.
         23    2    4    4    0    0 -0.65173425966E+02 -0.27762203707E+03  0.48228136699E+03  0.56779838424E+03  0.92076692395E+02 0.  0.
          4    1    3    3  502    0  0.17571233760E+02 -0.10992106502E+03 -0.27550950461E+02  0.11467538386E+03  0.00000000000E+00 0. -1.
         -4    1    3    3    0  502  0.98053163931E+02 -0.21762875870E+03 -0.19022742996E+03  0.30522643182E+03  0.00000000000E+00 0.  1.
         11    1    5    5    0    0 -0.17248567846E+02  0.50688453994E+03  0.15133433685E+04  0.15960694223E+04  0.00000000000E+00 0. -1.
        -11    1    5    5    0    0 -0.33202403880E+02  0.98287320847E+02  0.42755958097E+03  0.43996589906E+03  0.00000000000E+00 0.  1.
          3    1    6    6  503    0 -0.28721825692E+02 -0.11436219888E+03  0.28930513863E+03  0.31241177801E+03  0.00000000000E+00 0. -1.
         -3    1    6    6    0  503 -0.36451600273E+02 -0.16325983819E+03  0.19297622836E+03  0.25538660623E+03  0.00000000000E+00 0.  1.
<mgrwt>
<rscale>  0 0.20686133E+04</rscale>
<asrwt>0</asrwt>
<pdfrwt beam="1">  1        2 0.40224164E+00 0.20686133E+04</pdfrwt>
<pdfrwt beam="2">  1       -2 0.62948431E-01 0.20686133E+04</pdfrwt>
<totfact> 0.64511062E+00</totfact>
</mgrwt>
</event>
<event>
12    2  0.3751044E-008  0.1836781E+04  0.7818608E-02  0.8686981E-01
         -1   -1    0    0    0  501 -0.00000000000E+00  0.00000000000E+00  0.49479370101E+03  0.49479370101E+03  0.00000000000E+00 0.  1.
          1   -1    0    0  501    0  0.00000000000E+00 -0.00000000000E+00 -0.17046312532E+04  0.17046312532E+04  0.00000000000E+00 0. -1.
         23    2    1    2    0    0  0.40261262895E+03 -0.51034882020E+03 -0.16910598365E+03  0.67789758929E+03  0.91626745994E+02 0.  0.
        254    2    1    2    0    0 -0.40261262895E+03  0.51034882020E+03 -0.10407315685E+04  0.15215273649E+04  0.89965019710E+03 0.  0.
         23    2    4    4    0    0 -0.92014600721E+02 -0.23206571630E+03 -0.10890008529E+03  0.28692740727E+03  0.90260318177E+02 0.  0.
         23    2    4    4    0    0 -0.31059802823E+03  0.74241453650E+03 -0.93183148325E+03  0.12345999576E+04  0.90976167694E+02 0.  0.
          3    1    3    3  502    0  0.12132503127E+03 -0.19267994393E+03 -0.97051396169E+02  0.24751625705E+03  0.00000000000E+00 0. -1.
         -3    1    3    3    0  502  0.28128759768E+03 -0.31766887627E+03 -0.72054587484E+02  0.43038133224E+03  0.00000000000E+00 0.  1.
         11    1    5    5    0    0 -0.10448851467E+03 -0.23024900068E+03 -0.10406688853E+03  0.27342708224E+03  0.00000000000E+00 0. -1.
        -11    1    5    5    0    0  0.12473913953E+02 -0.18167156184E+01 -0.48331967547E+01  0.13500325026E+02  0.00000000000E+00 0.  1.
          1    1    6    6  503    0 -0.28320080986E+03  0.66104867538E+03 -0.78586709253E+03  0.10652582490E+04  0.00000000000E+00 0. -1.
         -1    1    6    6    0  503 -0.27397218371E+02  0.81365861127E+02 -0.14596439072E+03  0.16934170865E+03  0.00000000000E+00 0.  1.
<mgrwt>
<rscale>  0 0.18367807E+04</rscale>
<asrwt>0</asrwt>
<pdfrwt beam="1">  1        1 0.26225096E+00 0.18367807E+04</pdfrwt>
<pdfrwt beam="2">  1       -1 0.76122108E-01 0.18367807E+04</pdfrwt>
<totfact> 0.77123824E+00</totfact>
</mgrwt>
</event>
<event>
12    2  0.3751044E-008  0.1782383E+04  0.7818608E-02  0.8715724E-01
          1   -1    0    0  501    0  0.00000000000E+00  0.00000000000E+00  0.64246968252E+03  0.64246968252E+03  0.00000000000E+00 0. -1.
         -1   -1    0    0    0  501 -0.00000000000E+00 -0.00000000000E+00 -0.12362019540E+04  0.12362019540E+04  0.00000000000E+00 0.  1.
         23    2    1    2    0    0  0.43593406005E+02  0.30662564133E+03 -0.79819600749E+03  0.86124476131E+03  0.93305967295E+02 0.  0.
        254    2    1    2    0    0 -0.43593406005E+02 -0.30662564133E+03  0.20446373605E+03  0.10174268752E+04  0.94732906533E+03 0.  0.
         23    2    4    4    0    0  0.24639097723E+03 -0.13343523773E+03  0.48622970772E+03  0.56820345352E+03  0.89007637833E+02 0.  0.
         23    2    4    4    0    0 -0.28998438323E+03 -0.17319040360E+03 -0.28176597167E+03  0.44922342167E+03  0.91234650015E+02 0.  0.
          4    1    3    3  502    0  0.57706548753E+02  0.11756164428E+03 -0.38406692602E+03  0.40578096264E+03  0.00000000000E+00 0.  1.
         -4    1    3    3    0  502 -0.14113142748E+02  0.18906399705E+03 -0.41412908147E+03  0.45546379867E+03  0.00000000000E+00 0. -1.
         11    1    5    5    0    0  0.16750277717E+03 -0.10340483001E+03  0.25562843788E+03  0.32263855548E+03  0.00000000000E+00 0. -1.
        -11    1    5    5    0    0  0.78888200055E+02 -0.30030407719E+02  0.23060126984E+03  0.24556489804E+03  0.00000000000E+00 0.  1.
          3    1    6    6  503    0 -0.72939930510E+02 -0.17835060400E+01 -0.67068566039E+02  0.99104020641E+02  0.00000000000E+00 0. -1.
         -3    1    6    6    0  503 -0.21704445272E+03 -0.17140689756E+03 -0.21469740563E+03  0.35011940103E+03  0.00000000000E+00 0.  1.
<mgrwt>
<rscale>  0 0.17823830E+04</rscale>
<asrwt>0</asrwt>
<pdfrwt beam="1">  1        1 0.98841490E-01 0.17823830E+04</pdfrwt>
<pdfrwt beam="2">  1       -1 0.19018491E+00 0.17823830E+04</pdfrwt>
<totfact> 0.51581126E+00</totfact>
</mgrwt>
</event>
<event>
12    2  0.3751044E-008  0.1505320E+04  0.7818608E-02  0.8880923E-01
         -2   -1    0    0    0  501 -0.00000000000E+00  0.00000000000E+00  0.11549894590E+04  0.11549894590E+04  0.00000000000E+00 0.  1.
          2   -1    0    0  501    0  0.00000000000E+00 -0.00000000000E+00 -0.49047822799E+03  0.49047822799E+03  0.00000000000E+00 0. -1.
         23    2    1    2    0    0  0.15121679982E+03 -0.18399821430E+03  0.68481542634E+03  0.73107869022E+03  0.93712430946E+02 0.  0.
        254    2    1    2    0    0 -0.15121679982E+03  0.18399821430E+03 -0.20304195382E+02  0.91438899673E+03  0.88259453521E+03 0.  0.
         23    2    4    4    0    0  0.21169811219E+03 -0.24978935189E+03 -0.31896696102E+02  0.34146643812E+03  0.91493814646E+02 0.  0.
         23    2    4    4    0    0 -0.36291491201E+03  0.43378756618E+03  0.11592500720E+02  0.57292255861E+03  0.90702735133E+02 0.  0.
          2    1    3    3  502    0 -0.11174387525E+02 -0.85475097206E+01  0.18983776487E+02  0.23628597687E+02  0.00000000000E+00 0. -1.
         -2    1    3    3    0  502  0.16239118735E+03 -0.17545070458E+03  0.66583164986E+03  0.70745009253E+03  0.00000000000E+00 0.  1.
         11    1    5    5    0    0  0.29779273356E+02 -0.17639021575E+02 -0.31094741175E+02  0.46527659865E+02  0.00000000000E+00 0.  1.
        -11    1    5    5    0    0  0.18191883883E+03 -0.23215033031E+03 -0.80195492724E+00  0.29493877825E+03  0.00000000000E+00 0. -1.
          3    1    6    6  503    0 -0.35305736752E+03  0.43755873723E+03  0.10786334384E+02  0.56233753057E+03  0.00000000000E+00 0. -1.
         -3    1    6    6    0  503 -0.98575444909E+01 -0.37711710433E+01  0.80616633587E+00  0.10585028039E+02  0.00000000000E+00 0.  1.
<mgrwt>
<rscale>  0 0.15053201E+04</rscale>
<asrwt>0</asrwt>
<pdfrwt beam="1">  1        2 0.75458189E-01 0.15053201E+04</pdfrwt>
<pdfrwt beam="2">  1       -2 0.17769069E+00 0.15053201E+04</pdfrwt>
<totfact> 0.11430245E+01</totfact>
</mgrwt>
</event>
<event>
12    2  0.3751044E-008  0.1614979E+04  0.7818608E-02  0.8811398E-01
          1   -1    0    0  501    0  0.00000000000E+00  0.00000000000E+00  0.59237574808E+03  0.59237574808E+03  0.00000000000E+00 0. -1.
         -1   -1    0    0    0  501 -0.00000000000E+00 -0.00000000000E+00 -0.11007192333E+04  0.11007192333E+04  0.00000000000E+00 0.  1.
         23    2    1    2    0    0  0.10360603731E+03  0.32925930225E+03  0.27488087786E+03  0.45030483032E+03  0.89827858209E+02 0.  0.
        254    2    1    2    0    0 -0.10360603731E+03 -0.32925930225E+03 -0.78322436309E+03  0.12427901511E+04  0.90107772005E+03 0.  0.
         23    2    4    4    0    0  0.22576006065E+02 -0.60866002708E+03 -0.65331059333E+03  0.89773630738E+03  0.90216637211E+02 0.  0.
         23    2    4    4    0    0 -0.12618204338E+03  0.27940072482E+03 -0.12991376977E+03  0.34505384369E+03  0.90542224213E+02 0.  0.
          2    1    3    3  502    0  0.93307507493E+02  0.33281590329E+03  0.26430294203E+03  0.43511924987E+03  0.00000000000E+00 0. -1.
         -2    1    3    3    0  502  0.10298529818E+02 -0.35566010387E+01  0.10577935826E+02  0.15185580453E+02  0.00000000000E+00 0.  1.
         11    1    5    5    0    0  0.28505534325E+02 -0.60293596163E+03 -0.65334245044E+03  0.88949463003E+03  0.00000000000E+00 0.  1.
        -11    1    5    5    0    0 -0.59295282600E+01 -0.57240654462E+01  0.31857114113E-01  0.82416773471E+01  0.00000000000E+00 0. -1.
          1    1    6    6  503    0 -0.45271113308E+02  0.14211987393E+03 -0.17798356418E+02  0.15021422621E+03  0.00000000000E+00 0. -1.
         -1    1    6    6    0  503 -0.80910930068E+02  0.13728085090E+03 -0.11211541335E+03  0.19483961747E+03  0.00000000000E+00 0.  1.
<mgrwt>
<rscale>  0 0.16149791E+04</rscale>
<asrwt>0</asrwt>
<pdfrwt beam="1">  1        1 0.91134730E-01 0.16149791E+04</pdfrwt>
<pdfrwt beam="2">  1       -1 0.16934142E+00 0.16149791E+04</pdfrwt>
<totfact> 0.83188240E+00</totfact>
</mgrwt>
</event>
<event>
12    2  0.3751044E-008  0.2528252E+04  0.7818608E-02  0.8392989E-01
          1   -1    0    0  501    0  0.00000000000E+00  0.00000000000E+00  0.87013229779E+03  0.87013229779E+03  0.00000000000E+00 0. -1.
         -1   -1    0    0    0  501 -0.00000000000E+00 -0.00000000000E+00 -0.18365187705E+04  0.18365187705E+04  0.00000000000E+00 0.  1.
         23    2    1    2    0    0  0.46254796087E+03 -0.16656910678E+03 -0.14822780754E+04  0.15642629819E+04  0.89858224165E+02 0.  0.
        254    2    1    2    0    0 -0.46254796087E+03  0.16656910678E+03  0.51589160269E+03  0.11423880863E+04  0.89286645735E+03 0.  0.
         23    2    4    4    0    0 -0.49758698099E+03 -0.26020365227E+03  0.20154554358E+03  0.60345712997E+03  0.90780819885E+02 0.  0.
         23    2    4    4    0    0  0.35039020128E+02  0.42677275905E+03  0.31434605910E+03  0.53893095638E+03  0.90941794954E+02 0.  0.
          2    1    3    3  502    0  0.19934002805E+03 -0.10202041525E+03 -0.56397263366E+03  0.60680288680E+03  0.00000000000E+00 0. -1.
         -2    1    3    3    0  502  0.26320793281E+03 -0.64548691532E+02 -0.91830544170E+03  0.95746009511E+03  0.00000000000E+00 0.  1.
         11    1    5    5    0    0 -0.11851480911E+03 -0.10307990387E+03  0.74881306030E+02  0.17400700145E+03  0.00000000000E+00 0. -1.
        -11    1    5    5    0    0 -0.37907217188E+03 -0.15712374840E+03  0.12666423755E+03  0.42945012851E+03  0.00000000000E+00 0.  1.
          3    1    6    6  503    0 -0.28912306234E+02  0.12517294795E+03  0.76276582177E+02  0.14940651036E+03  0.00000000000E+00 0. -1.
         -3    1    6    6    0  503  0.63951326362E+02  0.30159981111E+03  0.23806947693E+03  0.38952444602E+03  0.00000000000E+00 0.  1.
<mgrwt>
<rscale>  0 0.25282518E+04</rscale>
<asrwt>0</asrwt>
<pdfrwt beam="1">  1        1 0.13386651E+00 0.25282518E+04</pdfrwt>
<pdfrwt beam="2">  1       -1 0.28254135E+00 0.25282518E+04</pdfrwt>
<totfact> 0.73156264E-01</totfact>
</mgrwt>
</event>
<event>
12    2  0.3751044E-008  0.3784713E+04  0.7818608E-02  0.8049443E-01
          1   -1    0    0  501    0  0.00000000000E+00  0.00000000000E+00  0.36022176640E+04  0.36022176640E+04  0.00000000000E+00 0. -1.
         -1   -1    0    0    0  501 -0.00000000000E+00 -0.00000000000E+00 -0.99411335315E+03  0.99411335315E+03  0.00000000000E+00 0.  1.
         23    2    1    2    0    0  0.26261258769E+03 -0.33406869138E+03  0.33372055841E+04  0.33654096923E+04  0.92054467527E+02 0.  0.
        254    2    1    2    0    0 -0.26261258769E+03  0.33406869138E+03 -0.72910127321E+03  0.12309213249E+04  0.89610902217E+03 0.  0.
         23    2    4    4    0    0  0.23723734817E+03  0.39492737917E+03 -0.43939295598E+03  0.64289592129E+03  0.89441610355E+02 0.  0.
         23    2    4    4    0    0 -0.49984993586E+03 -0.60858687785E+02 -0.28970831723E+03  0.58802540356E+03  0.91045197058E+02 0.  0.
          2    1    3    3  502    0  0.13560187860E+03 -0.21101746872E+03  0.16491545846E+04  0.16681208246E+04  0.00000000000E+00 0. -1.
         -2    1    3    3    0  502  0.12701070909E+03 -0.12305122266E+03  0.16880509995E+04  0.16972888678E+04  0.00000000000E+00 0.  1.
         11    1    5    5    0    0  0.20286238551E+03  0.38074506662E+03 -0.41352606611E+03  0.59759832710E+03  0.00000000000E+00 0.  1.
        -11    1    5    5    0    0  0.34374962662E+02  0.14182312550E+02 -0.25866889873E+02  0.45297594185E+02  0.00000000000E+00 0. -1.
          1    1    6    6  503    0 -0.42305963403E+03 -0.25194936199E+02 -0.21555893806E+03  0.47547859524E+03  0.00000000000E+00 0. -1.
         -1    1    6    6    0  503 -0.76790301828E+02 -0.35663751585E+02 -0.74149379170E+02  0.11254680832E+03  0.00000000000E+00 0.  1.
<mgrwt>
<rscale>  0 0.37847128E+04</rscale>
<asrwt>0</asrwt>
<pdfrwt beam="1">  1        1 0.55418733E+00 0.37847128E+04</pdfrwt>
<pdfrwt beam="2">  1       -1 0.15294052E+00 0.37847128E+04</pdfrwt>
<totfact> 0.54530240E-02</totfact>
</mgrwt>
</event>
<event>
12    2  0.3751044E-008  0.1117505E+04  0.7818608E-02  0.9188297E-01
         -1   -1    0    0    0  501 -0.00000000000E+00  0.00000000000E+00  0.92652517595E+02  0.92652517595E+02  0.00000000000E+00 0.  1.
          1   -1    0    0  501    0  0.00000000000E+00 -0.00000000000E+00 -0.33696247913E+04  0.33696247913E+04  0.00000000000E+00 0. -1.
         23    2    1    2    0    0 -0.33305706345E+02 -0.70445615083E+02 -0.11184452927E+04  0.11246100068E+04  0.88067813949E+02 0.  0.
        254    2    1    2    0    0  0.33305706345E+02  0.70445615083E+02 -0.21585269810E+04  0.23376673021E+04  0.89407932134E+03 0.  0.
         23    2    4    4    0    0 -0.33433264780E+01 -0.97830698732E+02  0.38236377986E+02  0.13226836567E+03  0.80317348741E+02 0.  0.
         23    2    4    4    0    0  0.36649032823E+02  0.16827631381E+03 -0.21967633590E+04  0.22053989365E+04  0.91406476980E+02 0.  0.
          1    1    3    3  502    0  0.28613490629E+01 -0.44855201734E+02 -0.19542762020E+03  0.20052962668E+03  0.00000000000E+00 0.  1.
         -1    1    3    3    0  502 -0.36167055408E+02 -0.25590413349E+02 -0.92301767250E+03  0.92408038011E+03  0.00000000000E+00 0. -1.
         11    1    5    5    0    0 -0.62261064257E+01 -0.10411104181E+03  0.52242932610E+02  0.11664989257E+03  0.00000000000E+00 0. -1.
        -11    1    5    5    0    0  0.28827799477E+01  0.62803430824E+01 -0.14006554625E+02  0.15618473098E+02  0.00000000000E+00 0.  1.
          3    1    6    6  503    0 -0.19955932961E+02  0.10988335217E+03 -0.14220511261E+04  0.14264298075E+04  0.00000000000E+00 0. -1.
         -3    1    6    6    0  503  0.56604965784E+02  0.58392961641E+02 -0.77471223289E+03  0.77896912899E+03  0.00000000000E+00 0.  1.
<mgrwt>
<rscale>  0 0.11175048E+04</rscale>
<asrwt>0</asrwt>
<pdfrwt beam="1">  1        1 0.51840371E+00 0.11175048E+04</pdfrwt>
<pdfrwt beam="2">  1       -1 0.14254236E-01 0.11175048E+04</pdfrwt>
<totfact> 0.11512766E+01</totfact>
</mgrwt>
</event>
<event>
12    2  0.3751044E-008  0.1252759E+04  0.7818608E-02  0.9067890E-01
         -1   -1    0    0    0  501 -0.00000000000E+00  0.00000000000E+00  0.58771094168E+03  0.58771094168E+03  0.00000000000E+00 0.  1.
          1   -1    0    0  501    0  0.00000000000E+00 -0.00000000000E+00 -0.66759210059E+03  0.66759210059E+03  0.00000000000E+00 0. -1.
         23    2    1    2    0    0 -0.46564451004E+02  0.84138678459E+02  0.23706611421E+03  0.27168679559E+03  0.91464786022E+02 0.  0.
        254    2    1    2    0    0  0.46564451004E+02 -0.84138678459E+02 -0.31694727312E+03  0.98361624667E+03  0.92617373180E+03 0.  0.
         23    2    4    4    0    0  0.46747650275E+02  0.41109188515E+03 -0.99690452248E+02  0.43494027283E+03  0.89738363132E+02 0.  0.
         23    2    4    4    0    0 -0.18319927117E+00 -0.49523056361E+03 -0.21725682087E+03  0.54867597384E+03  0.92690093094E+02 0.  0.
          4    1    3    3  502    0 -0.48286881282E+02  0.70769041474E+02  0.24247246150E+03  0.25716293419E+03  0.00000000000E+00 0.  1.
         -4    1    3    3    0  502  0.17224302780E+01  0.13369636985E+02 -0.54063472854E+01  0.14523861406E+02  0.00000000000E+00 0. -1.
         11    1    5    5    0    0 -0.18262097962E+02  0.23365239540E+03 -0.52948068580E+02  0.24027160478E+03  0.00000000000E+00 0. -1.
        -11    1    5    5    0    0  0.65009748238E+02  0.17743948975E+03 -0.46742383668E+02  0.19466866805E+03  0.00000000000E+00 0.  1.
          1    1    6    6  503    0  0.31353452679E+02 -0.97201813427E+02 -0.23179770810E+02  0.10473076579E+03  0.00000000000E+00 0. -1.
         -1    1    6    6    0  503 -0.31536651950E+02 -0.39802875019E+03 -0.19407705006E+03  0.44394520805E+03  0.00000000000E+00 0.  1.
<mgrwt>
<rscale>  0 0.12527588E+04</rscale>
<asrwt>0</asrwt>
<pdfrwt beam="1">  1        1 0.10270648E+00 0.12527588E+04</pdfrwt>
<pdfrwt beam="2">  1       -1 0.90417068E-01 0.12527588E+04</pdfrwt>
<totfact> 0.34520080E+01</totfact>
</mgrwt>
</event>
<event>
12    2  0.3751044E-008  0.2020004E+04  0.7818608E-02  0.8597325E-01
          2   -1    0    0  501    0  0.00000000000E+00  0.00000000000E+00  0.16321334354E+04  0.16321334354E+04  0.00000000000E+00 0. -1.
         -2   -1    0    0    0  501 -0.00000000000E+00 -0.00000000000E+00 -0.62501270059E+03  0.62501270059E+03  0.00000000000E+00 0.  1.
         23    2    1    2    0    0  0.19702635680E+03  0.72779236483E+03  0.16241233076E+03  0.77689061028E+03  0.93167288154E+02 0.  0.
        254    2    1    2    0    0 -0.19702635680E+03 -0.72779236483E+03  0.84470840410E+03  0.14802555258E+04  0.95347942925E+03 0.  0.
         23    2    4    4    0    0 -0.47417643805E+03 -0.11294871702E+03  0.54484481740E+03  0.73670873980E+03  0.91012005648E+02 0.  0.
         23    2    4    4    0    0  0.27715008125E+03 -0.61484364781E+03  0.29986358670E+03  0.74354678596E+03  0.89993185771E+02 0.  0.
          4    1    3    3  502    0  0.13071482840E+03  0.50621184625E+03  0.15567959891E+03  0.54550246302E+03  0.00000000000E+00 0. -1.
         -4    1    3    3    0  502  0.66311528397E+02  0.22158051858E+03  0.67327318431E+01  0.23138814726E+03  0.00000000000E+00 0.  1.
         11    1    5    5    0    0 -0.27141369853E+03 -0.32419393550E+02  0.35087660112E+03  0.44478174652E+03  0.00000000000E+00 0. -1.
        -11    1    5    5    0    0 -0.20276273952E+03 -0.80529323471E+02  0.19396821628E+03  0.29192699328E+03  0.00000000000E+00 0.  1.
          3    1    6    6  503    0  0.27222580578E+03 -0.54309806296E+03  0.28008664368E+03  0.66896257241E+03  0.00000000000E+00 0. -1.
         -3    1    6    6    0  503  0.49242754733E+01 -0.71745584851E+02  0.19776943024E+02  0.74584213544E+02  0.00000000000E+00 0.  1.
<mgrwt>
<rscale>  0 0.20200041E+04</rscale>
<asrwt>0</asrwt>
<pdfrwt beam="1">  1        2 0.25109745E+00 0.20200041E+04</pdfrwt>
<pdfrwt beam="2">  1       -2 0.96155801E-01 0.20200041E+04</pdfrwt>
<totfact> 0.89919832E+00</totfact>
</mgrwt>
</event>
<event>
12    2  0.3751044E-008  0.3586266E+04  0.7818608E-02  0.8093645E-01
          2   -1    0    0  501    0  0.00000000000E+00  0.00000000000E+00  0.29140080314E+04  0.29140080314E+04  0.00000000000E+00 0. -1.
         -2   -1    0    0    0  501 -0.00000000000E+00 -0.00000000000E+00 -0.11034032303E+04  0.11034032303E+04  0.00000000000E+00 0.  1.
         23    2    1    2    0    0 -0.88697173952E+02 -0.87052377016E+03  0.24534808995E+04  0.26064432468E+04  0.91099129332E+02 0.  0.
        254    2    1    2    0    0  0.88697173952E+02  0.87052377016E+03 -0.64287609843E+03  0.14109680148E+04  0.90103398265E+03 0.  0.
         23    2    4    4    0    0  0.35166360531E+03  0.34489687052E+03  0.43369837079E+02  0.50285580695E+03  0.91443300570E+02 0.  0.
         23    2    4    4    0    0 -0.26296643136E+03  0.52562689964E+03 -0.68624593551E+03  0.90811220789E+03  0.91100584309E+02 0.  0.
          3    1    3    3  502    0 -0.80529988661E+02 -0.55167398414E+03  0.14498541629E+04  0.15533532623E+04  0.00000000000E+00 0. -1.
         -3    1    3    3    0  502 -0.81671852905E+01 -0.31884978602E+03  0.10036267366E+04  0.10530899845E+04  0.00000000000E+00 0.  1.
         11    1    5    5    0    0  0.16142853154E+03  0.97438056722E+02  0.24712867978E+02  0.19016853456E+03  0.00000000000E+00 0.  1.
        -11    1    5    5    0    0  0.19023507378E+03  0.24745881380E+03  0.18656969100E+02  0.31268727239E+03  0.00000000000E+00 0. -1.
          2    1    6    6  503    0 -0.13309583167E+03  0.18814721632E+03 -0.30984374953E+03  0.38615673572E+03  0.00000000000E+00 0. -1.
         -2    1    6    6    0  503 -0.12987059969E+03  0.33747968332E+03 -0.37640218598E+03  0.52195547217E+03  0.00000000000E+00 0.  1.
<mgrwt>
<rscale>  0 0.35862660E+04</rscale>
<asrwt>0</asrwt>
<pdfrwt beam="1">  1        2 0.44830892E+00 0.35862660E+04</pdfrwt>
<pdfrwt beam="2">  1       -2 0.16975434E+00 0.35862660E+04</pdfrwt>
<totfact> 0.34369562E-01</totfact>
</mgrwt>
</event>
<event>
12    2  0.3751044E-008  0.1311789E+04  0.7818608E-02  0.9020269E-01
          2   -1    0    0  501    0  0.00000000000E+00  0.00000000000E+00  0.21263432600E+04  0.21263432600E+04  0.00000000000E+00 0. -1.
         -2   -1    0    0    0  501 -0.00000000000E+00 -0.00000000000E+00 -0.20231793177E+03  0.20231793177E+03  0.00000000000E+00 0.  1.
         23    2    1    2    0    0  0.34273215073E+03 -0.46367794096E+02  0.51204041174E+03  0.62458803826E+03  0.91156649846E+02 0.  0.
        254    2    1    2    0    0 -0.34273215073E+03  0.46367794096E+02  0.14119849165E+04  0.17040731535E+04  0.88912800465E+03 0.  0.
         23    2    4    4    0    0 -0.16547660625E+03  0.40311342778E+03  0.35137093014E+03  0.56725365234E+03  0.91827189137E+02 0.  0.
         23    2    4    4    0    0 -0.17725554448E+03 -0.35674563369E+03  0.10606139864E+04  0.11368195012E+04  0.93646009072E+02 0.  0.
          3    1    3    3  502    0  0.23974393481E+03 -0.60443116974E+02  0.30254293726E+03  0.39072081280E+03  0.00000000000E+00 0.  1.
         -3    1    3    3    0  502  0.10298821592E+03  0.14075322878E+02  0.20949747448E+03  0.23386722546E+03  0.00000000000E+00 0. -1.
         11    1    5    5    0    0 -0.65069436531E+02  0.25214072114E+03  0.24210886823E+03  0.35556388863E+03  0.00000000000E+00 0.  1.
        -11    1    5    5    0    0 -0.10040716971E+03  0.15097270665E+03  0.10926206192E+03  0.21168976370E+03  0.00000000000E+00 0. -1.
          3    1    6    6  503    0 -0.47535782457E+02 -0.88906335315E+02  0.39576124252E+03  0.40840047521E+03  0.00000000000E+00 0. -1.
         -3    1    6    6    0  503 -0.12971976202E+03 -0.26783929837E+03  0.66485274385E+03  0.72841902599E+03  0.00000000000E+00 0.  1.
<mgrwt>
<rscale>  0 0.13117887E+04</rscale>
<asrwt>0</asrwt>
<pdfrwt beam="1">  1        2 0.32712972E+00 0.13117887E+04</pdfrwt>
<pdfrwt beam="2">  1       -2 0.31125837E-01 0.13117887E+04</pdfrwt>
<totfact> 0.53319842E+01</totfact>
</mgrwt>
</event>
<event>
12    2  0.3751044E-008  0.2459828E+04  0.7818608E-02  0.8417438E-01
          2   -1    0    0  501    0  0.00000000000E+00  0.00000000000E+00  0.10748347259E+04  0.10748347259E+04  0.00000000000E+00 0. -1.
         -2   -1    0    0    0  501 -0.00000000000E+00 -0.00000000000E+00 -0.14073682337E+04  0.14073682337E+04  0.00000000000E+00 0.  1.
         23    2    1    2    0    0 -0.53469068807E+03  0.41049004908E+03 -0.99477500411E+03  0.12049969207E+04  0.89688671703E+02 0.  0.
        254    2    1    2    0    0  0.53469068807E+03 -0.41049004908E+03  0.66224149639E+03  0.12772060389E+04  0.85924109186E+03 0.  0.
         23    2    4    4    0    0 -0.11793946807E+03 -0.16420631599E+03  0.51178379059E+03  0.55784624147E+03  0.91631591044E+02 0.  0.
         23    2    4    4    0    0  0.65263015614E+03 -0.24628373309E+03  0.15045770580E+03  0.71935979742E+03  0.90880135419E+02 0.  0.
          2    1    3    3  502    0 -0.32324134597E+03  0.22832903845E+03 -0.65521617864E+03  0.76545892006E+03  0.00000000000E+00 0. -1.
         -2    1    3    3    0  502 -0.21144934210E+03  0.18216101063E+03 -0.33955882547E+03  0.43953800066E+03  0.00000000000E+00 0.  1.
         11    1    5    5    0    0  0.82794881071E+01 -0.51356416772E+02  0.10313337453E+03  0.11550984551E+03  0.00000000000E+00 0. -1.
        -11    1    5    5    0    0 -0.12621895618E+03 -0.11284989921E+03  0.40865041606E+03  0.44233639597E+03  0.00000000000E+00 0.  1.
          4    1    6    6  503    0  0.34792864712E+03 -0.87988454873E+02  0.55881279273E+02  0.36320659280E+03  0.00000000000E+00 0. -1.
         -4    1    6    6    0  503  0.30470150902E+03 -0.15829527822E+03  0.94576426528E+02  0.35615320462E+03  0.00000000000E+00 0.  1.
<mgrwt>
<rscale>  0 0.24598278E+04</rscale>
<asrwt>0</asrwt>
<pdfrwt beam="1">  1        2 0.16535919E+00 0.24598278E+04</pdfrwt>
<pdfrwt beam="2">  1       -2 0.21651819E+00 0.24598278E+04</pdfrwt>
<totfact> 0.21015208E+00</totfact>
</mgrwt>
</event>
<event>
12    2  0.3751044E-008  0.2025288E+04  0.7818608E-02  0.8594888E-01
         -2   -1    0    0    0  501 -0.00000000000E+00  0.00000000000E+00  0.38639849612E+03  0.38639849612E+03  0.00000000000E+00 0. -1.
          2   -1    0    0  501    0  0.00000000000E+00 -0.00000000000E+00 -0.26538596703E+04  0.26538596703E+04  0.00000000000E+00 0.  1.
         23    2    1    2    0    0  0.44588355333E+03  0.10985065093E+03  0.84248733138E+02  0.47546539138E+03  0.89945431883E+02 0.  0.
        254    2    1    2    0    0 -0.44588355333E+03 -0.10985065093E+03 -0.23517099073E+04  0.25647927750E+04  0.91473667363E+03 0.  0.
         23    2    4    4    0    0  0.15494255425E+02  0.31573153163E+03 -0.12619399548E+04  0.13038938538E+04  0.87865013039E+02 0.  0.
         23    2    4    4    0    0 -0.46137780876E+03 -0.42558218256E+03 -0.10897699525E+04  0.12608989212E+04  0.90982765260E+02 0.  0.
          1    1    3    3  502    0  0.42682759931E+03  0.10976024467E+03  0.60238586546E+02  0.44481209308E+03  0.00000000000E+00 0. -1.
         -1    1    3    3    0  502  0.19055954028E+02  0.90406265884E-01  0.24010146592E+02  0.30653298299E+02  0.00000000000E+00 0.  1.
         11    1    5    5    0    0  0.45475231515E+02  0.95155439593E+02 -0.41363975858E+03  0.42687281976E+03  0.00000000000E+00 0. -1.
        -11    1    5    5    0    0 -0.29980976090E+02  0.22057609204E+03 -0.84830019619E+03  0.87702103405E+03  0.00000000000E+00 0.  1.
          1    1    6    6  503    0 -0.34517588114E+03 -0.30144366950E+03 -0.86682748311E+03  0.98051239680E+03  0.00000000000E+00 0. -1.
         -1    1    6    6    0  503 -0.11620192762E+03 -0.12413851306E+03 -0.22294246942E+03  0.28038652443E+03  0.00000000000E+00 0.  1.
<mgrwt>
<rscale>  0 0.20252875E+04</rscale>
<asrwt>0</asrwt>
<pdfrwt beam="1">  1        2 0.40828611E+00 0.20252875E+04</pdfrwt>
<pdfrwt beam="2">  1       -2 0.59445921E-01 0.20252875E+04</pdfrwt>
<totfact> 0.69329676E+00</totfact>
</mgrwt>
</event>
<event>
12    2  0.3751044E-008  0.1424327E+04  0.7818608E-02  0.8936395E-01
         -2   -1    0    0    0  501 -0.00000000000E+00  0.00000000000E+00  0.19434815118E+03  0.19434815118E+03  0.00000000000E+00 0.  1.
          2   -1    0    0  501    0  0.00000000000E+00 -0.00000000000E+00 -0.26096307009E+04  0.26096307009E+04  0.00000000000E+00 0. -1.
         23    2    1    2    0    0 -0.27477864220E+03  0.15977839380E+03 -0.13227042911E+04  0.13634490587E+04  0.91729257236E+02 0.  0.
        254    2    1    2    0    0  0.27477864220E+03 -0.15977839380E+03 -0.10925782586E+04  0.14405297934E+04  0.88338349380E+03 0.  0.
         23    2    4    4    0    0  0.27562279239E+03 -0.17497131455E+03 -0.12291361014E+04  0.12751588590E+04  0.93121830366E+02 0.  0.
         23    2    4    4    0    0 -0.84415019262E+00  0.15192920754E+02  0.13655784276E+03  0.16537093442E+03  0.92021541517E+02 0.  0.
          1    1    3    3  502    0 -0.22892897186E+03  0.12758442076E+03 -0.12039222514E+04  0.12321181137E+04  0.00000000000E+00 0. -1.
         -1    1    3    3    0  502 -0.45849670336E+02  0.32193973040E+02 -0.11878203968E+03  0.13133094502E+03  0.00000000000E+00 0.  1.
         11    1    5    5    0    0  0.21805432871E+03 -0.11597360104E+03 -0.10385039555E+04  0.10674680473E+04  0.00000000000E+00 0. -1.
        -11    1    5    5    0    0  0.57568463676E+02 -0.58997713516E+02 -0.19063214586E+03  0.20769081165E+03  0.00000000000E+00 0.  1.
          4    1    6    6  503    0  0.13906463578E+01  0.29043011578E+01  0.14823643334E+03  0.14827140329E+03  0.00000000000E+00 0. -1.
         -4    1    6    6    0  503 -0.22347965504E+01  0.12288619596E+02 -0.11678590583E+02  0.17099531140E+02  0.00000000000E+00 0.  1.
<mgrwt>
<rscale>  0 0.14243271E+04</rscale>
<asrwt>0</asrwt>
<pdfrwt beam="1">  1        2 0.40148162E+00 0.14243271E+04</pdfrwt>
<pdfrwt beam="2">  1       -2 0.29899718E-01 0.14243271E+04</pdfrwt>
<totfact> 0.30247818E+01</totfact>
</mgrwt>
</event>
<event>
12    2  0.3751044E-008  0.1410561E+04  0.7818608E-02  0.8946209E-01
          2   -1    0    0  501    0  0.00000000000E+00  0.00000000000E+00  0.15773549936E+04  0.15773549936E+04  0.00000000000E+00 0. -1.
         -2   -1    0    0    0  501 -0.00000000000E+00 -0.00000000000E+00 -0.31535105095E+03  0.31535105095E+03  0.00000000000E+00 0.  1.
         23    2    1    2    0    0 -0.21920173760E+02 -0.16539220104E+03 -0.12307499174E+03  0.22817332099E+03  0.95291849799E+02 0.  0.
        254    2    1    2    0    0  0.21920173760E+02  0.16539220104E+03  0.13850789344E+04  0.16645327236E+04  0.90795950301E+03 0.  0.
         23    2    4    4    0    0  0.25794982424E+03  0.44779939263E+02  0.27428113604E+02  0.27849507377E+03  0.90905719896E+02 0.  0.
         23    2    4    4    0    0 -0.23602965048E+03  0.12061226177E+03  0.13576508208E+04  0.13860376498E+04  0.87334425229E+02 0.  0.
          1    1    3    3  502    0 -0.27103677798E+01 -0.99184255754E+01  0.15781620975E+02  0.18835626350E+02  0.00000000000E+00 0. -1.
         -1    1    3    3    0  502 -0.19209805980E+02 -0.15547377546E+03 -0.13885661272E+03  0.20933769464E+03  0.00000000000E+00 0.  1.
         11    1    5    5    0    0  0.10071127219E+03 -0.91040062533E+01 -0.25075931588E+02  0.10418467075E+03  0.00000000000E+00 0. -1.
        -11    1    5    5    0    0  0.15723855206E+03  0.53883945516E+02  0.52504045191E+02  0.17431040301E+03  0.00000000000E+00 0.  1.
          3    1    6    6  503    0 -0.32531886106E+02  0.52563506144E+02  0.39114197731E+03  0.39599658105E+03  0.00000000000E+00 0. -1.
         -3    1    6    6    0  503 -0.20349776438E+03  0.68048755630E+02  0.96650884349E+03  0.99004106874E+03  0.00000000000E+00 0.  1.
<mgrwt>
<rscale>  0 0.14105610E+04</rscale>
<asrwt>0</asrwt>
<pdfrwt beam="1">  1        2 0.24266999E+00 0.14105610E+04</pdfrwt>
<pdfrwt beam="2">  1       -2 0.48515547E-01 0.14105610E+04</pdfrwt>
<totfact> 0.44927731E+01</totfact>
</mgrwt>
</event>
<event>
12    2  0.3751044E-008  0.1374818E+04  0.7818608E-02  0.8972251E-01
          2   -1    0    0  501    0  0.00000000000E+00  0.00000000000E+00  0.29815120774E+04  0.29815120774E+04  0.00000000000E+00 0. -1.
         -2   -1    0    0    0  501 -0.00000000000E+00 -0.00000000000E+00 -0.15848706424E+03  0.15848706424E+03  0.00000000000E+00 0.  1.
         23    2    1    2    0    0 -0.15217033473E+03 -0.24362994571E+03  0.23374188282E+03  0.38380634465E+03  0.10080020432E+03 0.  0.
        254    2    1    2    0    0  0.15217033473E+03  0.24362994571E+03  0.25892831303E+04  0.27561927970E+04  0.89983345343E+03 0.  0.
         23    2    4    4    0    0 -0.13885789835E+03 -0.26566279965E+03  0.12921416888E+04  0.13297659750E+04  0.93750547822E+02 0.  0.
         23    2    4    4    0    0  0.29102823308E+03  0.50929274535E+03  0.12971414415E+04  0.14264268220E+04  0.89671769737E+02 0.  0.
          4    1    3    3  502    0 -0.37480027416E+02 -0.52597191287E+02  0.11356795278E+03  0.13064798845E+03  0.00000000000E+00 0. -1.
         -4    1    3    3    0  502 -0.11469030731E+03 -0.19103275442E+03  0.12017393004E+03  0.25315835620E+03  0.00000000000E+00 0.  1.
         11    1    5    5    0    0  0.29273474652E+01 -0.42207484972E+01  0.13227692603E+03  0.13237661894E+03  0.00000000000E+00 0.  1.
        -11    1    5    5    0    0 -0.14178524581E+03 -0.26144205115E+03  0.11598647628E+04  0.11973893560E+04  0.00000000000E+00 0. -1.
          3    1    6    6  503    0  0.22287257684E+03  0.40718481254E+03  0.11034040597E+04  0.11970681584E+04  0.00000000000E+00 0. -1.
         -3    1    6    6    0  503  0.68155656238E+02  0.10210793281E+03  0.19373738187E+03  0.22935866357E+03  0.00000000000E+00 0.  1.
<mgrwt>
<rscale>  0 0.13748179E+04</rscale>
<asrwt>0</asrwt>
<pdfrwt beam="1">  1        2 0.45869412E+00 0.13748179E+04</pdfrwt>
<pdfrwt beam="2">  1       -2 0.24382627E-01 0.13748179E+04</pdfrwt>
<totfact> 0.26421284E+01</totfact>
</mgrwt>
</event>
<event>
12    2  0.3751044E-008  0.1501539E+04  0.7818608E-02  0.8883430E-01
         -1   -1    0    0    0  501 -0.00000000000E+00  0.00000000000E+00  0.21514519522E+03  0.21514519522E+03  0.00000000000E+00 0.  1.
          1   -1    0    0  501    0  0.00000000000E+00 -0.00000000000E+00 -0.26198796054E+04  0.26198796054E+04  0.00000000000E+00 0. -1.
         23    2    1    2    0    0  0.24466464222E+03  0.25769488774E+03 -0.15135591241E+04  0.15573952453E+04  0.91385368991E+02 0.  0.
        254    2    1    2    0    0 -0.24466464222E+03 -0.25769488774E+03 -0.89117528605E+03  0.12776295553E+04  0.84372770947E+03 0.  0.
         23    2    4    4    0    0 -0.26439692994E+03 -0.21955688507E+03 -0.10390874915E+04  0.10982437811E+04  0.91244864687E+02 0.  0.
         23    2    4    4    0    0  0.19732287718E+02 -0.38138002675E+02  0.14791220549E+03  0.17938577417E+03  0.91963933236E+02 0.  0.
          2    1    3    3  502    0  0.92944151130E+02  0.89935493311E+02 -0.37758402185E+03  0.39911990898E+03  0.00000000000E+00 0. -1.
         -2    1    3    3    0  502  0.15172049109E+03  0.16775939443E+03 -0.11359751023E+04  0.11582753363E+04  0.00000000000E+00 0.  1.
         11    1    5    5    0    0 -0.42547214428E+02 -0.85713243663E+01 -0.20991856647E+03  0.21435843255E+03  0.00000000000E+00 0. -1.
        -11    1    5    5    0    0 -0.22184971551E+03 -0.21098556070E+03 -0.82916892507E+03  0.88388534856E+03  0.00000000000E+00 0.  1.
          2    1    6    6  503    0  0.40391410470E+02 -0.58132387686E+02  0.88040095673E+02  0.11296857521E+03  0.00000000000E+00 0. -1.
         -2    1    6    6    0  503 -0.20659122752E+02  0.19994385011E+02  0.59872109813E+02  0.66417198964E+02  0.00000000000E+00 0.  1.
<mgrwt>
<rscale>  0 0.15015386E+04</rscale>
<asrwt>0</asrwt>
<pdfrwt beam="1">  1        1 0.40305840E+00 0.15015386E+04</pdfrwt>
<pdfrwt beam="2">  1       -1 0.33099261E-01 0.15015386E+04</pdfrwt>
<totfact> 0.92985406E+00</totfact>
</mgrwt>
</event>
<event>
12    2  0.3751044E-008  0.1438275E+04  0.7818608E-02  0.8926570E-01
          1   -1    0    0  501    0  0.00000000000E+00  0.00000000000E+00  0.18608240420E+03  0.18608240420E+03  0.00000000000E+00 0. -1.
         -1   -1    0    0    0  501 -0.00000000000E+00 -0.00000000000E+00 -0.27791911125E+04  0.27791911125E+04  0.00000000000E+00 0.  1.
         23    2    1    2    0    0 -0.33133809534E+03  0.21189433187E+03 -0.43469266246E+03  0.59332590909E+03  0.91617587292E+02 0.  0.
        254    2    1    2    0    0  0.33133809534E+03 -0.21189433187E+03 -0.21584160458E+04  0.23719476076E+04  0.90149402939E+03 0.  0.
         23    2    4    4    0    0  0.51085994357E+03 -0.42166867096E+03 -0.17165942752E+04  0.18422330050E+04  0.91346532031E+02 0.  0.
         23    2    4    4    0    0 -0.17952184823E+03  0.20977433910E+03 -0.44182177060E+03  0.52971460261E+03  0.95695955556E+02 0.  0.
          2    1    3    3  502    0 -0.25909576955E+03  0.14511498993E+03 -0.37465340517E+03  0.47807337523E+03  0.00000000000E+00 0. -1.
         -2    1    3    3    0  502 -0.72242325791E+02  0.66779341934E+02 -0.60039257293E+02  0.11525253386E+03  0.00000000000E+00 0.  1.
         11    1    5    5    0    0  0.27864952032E+03 -0.17401788929E+03 -0.80323832883E+03  0.86782463313E+03  0.00000000000E+00 0. -1.
        -11    1    5    5    0    0  0.23221042325E+03 -0.24765078167E+03 -0.91335594639E+03  0.97440837185E+03  0.00000000000E+00 0.  1.
          4    1    6    6  503    0 -0.12781317420E+03  0.20258503619E+03 -0.37390303786E+03  0.44404998154E+03  0.00000000000E+00 0.  1.
         -4    1    6    6    0  503 -0.51708674026E+02  0.71893029067E+01 -0.67918732736E+02  0.85664621066E+02  0.00000000000E+00 0. -1.
<mgrwt>
<rscale>  0 0.14382747E+04</rscale>
<asrwt>0</asrwt>
<pdfrwt beam="1">  1        1 0.28628062E-01 0.14382747E+04</pdfrwt>
<pdfrwt beam="2">  1       -1 0.42756786E+00 0.14382747E+04</pdfrwt>
<totfact> 0.74100621E-01</totfact>
</mgrwt>
</event>
<event>
12    2  0.3751044E-008  0.2941604E+04  0.7818608E-02  0.8260606E-01
         -2   -1    0    0    0  501 -0.00000000000E+00  0.00000000000E+00  0.16583740282E+04  0.16583740282E+04  0.00000000000E+00 0. -1.
          2   -1    0    0  501    0  0.00000000000E+00 -0.00000000000E+00 -0.13044456350E+04  0.13044456350E+04  0.00000000000E+00 0.  1.
         23    2    1    2    0    0  0.39389446432E+03  0.10872780246E+04  0.82785271747E+03  0.14242120111E+04  0.75586896034E+02 0.  0.
        254    2    1    2    0    0 -0.39389446432E+03 -0.10872780246E+04 -0.47392432426E+03  0.15386076521E+04  0.89743127316E+03 0.  0.
         23    2    4    4    0    0  0.92706237516E+00 -0.87329447801E+03  0.21301600012E+01  0.87785967145E+03  0.89380984662E+02 0.  0.
         23    2    4    4    0    0 -0.39482152670E+03 -0.21398354659E+03 -0.47605448426E+03  0.66074798060E+03  0.91033102382E+02 0.  0.
          3    1    3    3  502    0  0.13114609788E+03  0.35131100096E+03  0.22578755841E+03  0.43771993319E+03  0.00000000000E+00 0. -1.
         -3    1    3    3    0  502  0.26274836644E+03  0.73596702364E+03  0.60206515906E+03  0.98649207787E+03  0.00000000000E+00 0.  1.
         11    1    5    5    0    0  0.30348394620E+02 -0.40487188699E+03  0.34029020174E+02  0.40743127536E+03  0.00000000000E+00 0. -1.
        -11    1    5    5    0    0 -0.29421332244E+02 -0.46842259102E+03 -0.31898860173E+02  0.47042839609E+03  0.00000000000E+00 0.  1.
          1    1    6    6  503    0 -0.32537217791E+03 -0.17820006640E+03 -0.43755174378E+03  0.57364958494E+03  0.00000000000E+00 0. -1.
         -1    1    6    6    0  503 -0.69449348785E+02 -0.35783480194E+02 -0.38502740484E+02  0.87098395658E+02  0.00000000000E+00 0.  1.
<mgrwt>
<rscale>  0 0.29416042E+04</rscale>
<asrwt>0</asrwt>
<pdfrwt beam="1">  1        2 0.20068394E+00 0.29416042E+04</pdfrwt>
<pdfrwt beam="2">  1       -2 0.25513447E+00 0.29416042E+04</pdfrwt>
<totfact> 0.84464433E-01</totfact>
</mgrwt>
</event>
<event>
12    2  0.3751044E-008  0.1996247E+04  0.7818608E-02  0.8608377E-01
          2   -1    0    0  501    0  0.00000000000E+00  0.00000000000E+00  0.31300731192E+04  0.31300731192E+04  0.00000000000E+00 0. -1.
         -2   -1    0    0    0  501 -0.00000000000E+00 -0.00000000000E+00 -0.31828357478E+03  0.31828357478E+03  0.00000000000E+00 0.  1.
         23    2    1    2    0    0  0.17440759627E+03  0.50634522879E+03  0.11563549983E+03  0.55532609525E+03  0.90620102011E+02 0.  0.
        254    2    1    2    0    0 -0.17440759627E+03 -0.50634522879E+03  0.26961540446E+04  0.28930305987E+04  0.90198443036E+03 0.  0.
         23    2    4    4    0    0  0.12697735964E+03 -0.48612624979E+03  0.67094937923E+03  0.84338591622E+03  0.93192025366E+02 0.  0.
         23    2    4    4    0    0 -0.30138495590E+03 -0.20218978999E+02  0.20252046653E+04  0.20496446825E+04  0.91365689130E+02 0.  0.
          4    1    3    3  502    0  0.23074199420E+02  0.19154419246E+03  0.56816372948E+02  0.20112109929E+03  0.00000000000E+00 0. -1.
         -4    1    3    3    0  502  0.15133339685E+03  0.31480103633E+03  0.58819126882E+02  0.35420499596E+03  0.00000000000E+00 0.  1.
         11    1    5    5    0    0  0.12669280923E+03 -0.43608566949E+03  0.55507683284E+03  0.71716948443E+03  0.00000000000E+00 0.  1.
        -11    1    5    5    0    0  0.28455040284E+00 -0.50040580300E+02  0.11587254639E+03  0.12621643179E+03  0.00000000000E+00 0. -1.
          2    1    6    6  503    0 -0.46992222379E+02 -0.49262494429E+01  0.15176439903E+03  0.15894958229E+03  0.00000000000E+00 0. -1.
         -2    1    6    6    0  503 -0.25439273352E+03 -0.15292729556E+02  0.18734402663E+04  0.18906951002E+04  0.00000000000E+00 0.  1.
<mgrwt>
<rscale>  0 0.19962473E+04</rscale>
<asrwt>0</asrwt>
<pdfrwt beam="1">  1        2 0.48154969E+00 0.19962473E+04</pdfrwt>
<pdfrwt beam="2">  1       -2 0.48966706E-01 0.19962473E+04</pdfrwt>
<totfact> 0.52991148E+00</totfact>
</mgrwt>
</event>
<event>
12    2  0.3751044E-008  0.1602627E+04  0.7818608E-02  0.8818936E-01
         -1   -1    0    0    0  501 -0.00000000000E+00  0.00000000000E+00  0.28767674163E+03  0.28767674163E+03  0.00000000000E+00 0.  1.
          1   -1    0    0  501    0  0.00000000000E+00 -0.00000000000E+00 -0.22320298802E+04  0.22320298802E+04  0.00000000000E+00 0. -1.
         23    2    1    2    0    0  0.30930488862E+03 -0.33606475233E+02  0.29983021130E+02  0.32577215788E+03  0.91812896680E+02 0.  0.
        254    2    1    2    0    0 -0.30930488862E+03  0.33606475233E+02 -0.19743361597E+04  0.21939344639E+04  0.90473545928E+03 0.  0.
         23    2    4    4    0    0 -0.30323932152E+03  0.36141957933E+03 -0.16672965612E+04  0.17351404045E+04  0.90863645768E+02 0.  0.
         23    2    4    4    0    0 -0.60655670933E+01 -0.32781310409E+03 -0.30703959852E+03  0.45879405940E+03  0.93383358046E+02 0.  0.
          2    1    3    3  502    0  0.55819539788E+02  0.25105918376E+02 -0.11539267756E+02  0.62283889249E+02  0.00000000000E+00 0. -1.
         -2    1    3    3    0  502  0.25348534883E+03 -0.58712393609E+02  0.41522288886E+02  0.26348826863E+03  0.00000000000E+00 0.  1.
         11    1    5    5    0    0 -0.97112210371E+02  0.15705470971E+03 -0.78060140951E+03  0.80214432852E+03  0.00000000000E+00 0.  1.
        -11    1    5    5    0    0 -0.20612711115E+03  0.20436486961E+03 -0.88669515166E+03  0.93299607602E+03  0.00000000000E+00 0. -1.
          1    1    6    6  503    0  0.12320247736E+02 -0.26788299231E+03 -0.28745232021E+03  0.39311820419E+03  0.00000000000E+00 0. -1.
         -1    1    6    6    0  503 -0.18385814829E+02 -0.59930111789E+02 -0.19587278312E+02  0.65675855210E+02  0.00000000000E+00 0.  1.
<mgrwt>
<rscale>  0 0.16026267E+04</rscale>
<asrwt>0</asrwt>
<pdfrwt beam="1">  1        1 0.34338920E+00 0.16026267E+04</pdfrwt>
<pdfrwt beam="2">  1       -1 0.44257962E-01 0.16026267E+04</pdfrwt>
<totfact> 0.10049748E+01</totfact>
</mgrwt>
</event>
<event>
12    2  0.3751044E-008  0.3089887E+04  0.7818608E-02  0.8218519E-01
          2   -1    0    0  501    0  0.00000000000E+00  0.00000000000E+00  0.13462373639E+04  0.13462373639E+04  0.00000000000E+00 0. -1.
         -2   -1    0    0    0  501 -0.00000000000E+00 -0.00000000000E+00 -0.17729788399E+04  0.17729788399E+04  0.00000000000E+00 0.  1.
         23    2    1    2    0    0  0.65972376905E+03  0.11680252473E+04  0.16803459462E+03  0.13550068555E+04  0.91046821064E+02 0.  0.
        254    2    1    2    0    0 -0.65972376905E+03 -0.11680252473E+04 -0.59477607068E+03  0.17642093483E+04  0.97936592783E+03 0.  0.
         23    2    4    4    0    0 -0.19672893151E+03 -0.83800988442E+03  0.89692473701E+02  0.86983602479E+03  0.87218870153E+02 0.  0.
         23    2    4    4    0    0 -0.46299483754E+03 -0.33001536289E+03 -0.68446854438E+03  0.89437332351E+03  0.90178125031E+02 0.  0.
          3    1    3    3  502    0  0.16144305681E+03  0.24401078152E+03  0.50487982070E+01  0.29262708770E+03  0.00000000000E+00 0. -1.
         -3    1    3    3    0  502  0.49828071223E+03  0.92401446579E+03  0.16298579641E+03  0.10623797678E+04  0.00000000000E+00 0.  1.
         11    1    5    5    0    0 -0.19336378540E+03 -0.70531054155E+03  0.59851055644E+02  0.73378107252E+03  0.00000000000E+00 0.  1.
        -11    1    5    5    0    0 -0.33651461078E+01 -0.13269934287E+03  0.29841418058E+02  0.13605495227E+03  0.00000000000E+00 0. -1.
          2    1    6    6  503    0 -0.32674555035E+03 -0.27898821506E+03 -0.52785193937E+03  0.68060616271E+03  0.00000000000E+00 0.  1.
         -2    1    6    6    0  503 -0.13624928719E+03 -0.51027147835E+02 -0.15661660500E+03  0.21376716080E+03  0.00000000000E+00 0. -1.
<mgrwt>
<rscale>  0 0.30898870E+04</rscale>
<asrwt>0</asrwt>
<pdfrwt beam="1">  1        2 0.20711344E+00 0.30898870E+04</pdfrwt>
<pdfrwt beam="2">  1       -2 0.27276598E+00 0.30898870E+04</pdfrwt>
<totfact> 0.61554428E-01</totfact>
</mgrwt>
</event>
<event>
12    2  0.3751044E-008  0.1744661E+04  0.7818608E-02  0.8736294E-01
         -2   -1    0    0    0  501 -0.00000000000E+00  0.00000000000E+00  0.62867863266E+03  0.62867863266E+03  0.00000000000E+00 0.  1.
          2   -1    0    0  501    0  0.00000000000E+00 -0.00000000000E+00 -0.12104130479E+04  0.12104130479E+04  0.00000000000E+00 0. -1.
         23    2    1    2    0    0 -0.47563637781E+03  0.38267767751E+02  0.23601109752E+03  0.54011786403E+03  0.91278052949E+02 0.  0.
        254    2    1    2    0    0  0.47563637781E+03 -0.38267767751E+02 -0.81774551278E+03  0.12989738165E+04  0.88934294085E+03 0.  0.
         23    2    4    4    0    0  0.28903915010E+03 -0.44614656062E+03 -0.54559691279E+03  0.76721326476E+03  0.91377341507E+02 0.  0.
         23    2    4    4    0    0  0.18659722771E+03  0.40787879287E+03 -0.27214859999E+03  0.53176055178E+03  0.86722482028E+02 0.  0.
          2    1    3    3  502    0 -0.15054005772E+03 -0.30071634634E+02  0.69284714359E+02  0.16842500952E+03  0.00000000000E+00 0. -1.
         -2    1    3    3    0  502 -0.32509632009E+03  0.68339402385E+02  0.16672638316E+03  0.37169285452E+03  0.00000000000E+00 0.  1.
         11    1    5    5    0    0  0.40414727161E+02 -0.88410866544E+02 -0.57363907231E+02  0.11287359898E+03  0.00000000000E+00 0.  1.
        -11    1    5    5    0    0  0.24862442294E+03 -0.35773569407E+03 -0.48823300556E+03  0.65433966578E+03  0.00000000000E+00 0. -1.
          4    1    6    6  503    0  0.15408957614E+03  0.38544640167E+03 -0.23243523128E+03  0.47575063087E+03  0.00000000000E+00 0. -1.
         -4    1    6    6    0  503  0.32507651573E+02  0.22432391201E+02 -0.39713368712E+02  0.56009920909E+02  0.00000000000E+00 0.  1.
<mgrwt>
<rscale>  0 0.17446614E+04</rscale>
<asrwt>0</asrwt>
<pdfrwt beam="1">  1        2 0.18621739E+00 0.17446614E+04</pdfrwt>
<pdfrwt beam="2">  1       -2 0.96719791E-01 0.17446614E+04</pdfrwt>
<totfact> 0.15823825E+01</totfact>
</mgrwt>
</event>
<event>
12    2  0.3751044E-008  0.1556646E+04  0.7818608E-02  0.8847634E-01
         -2   -1    0    0    0  501 -0.00000000000E+00  0.00000000000E+00  0.34595085938E+03  0.34595085938E+03  0.00000000000E+00 0. -1.
          2   -1    0    0  501    0  0.00000000000E+00 -0.00000000000E+00 -0.17510766514E+04  0.17510766514E+04  0.00000000000E+00 0.  1.
         23    2    1    2    0    0  0.26065562586E+03 -0.43380799147E+03 -0.33487944481E+03  0.61368317535E+03  0.91280164309E+02 0.  0.
        254    2    1    2    0    0 -0.26065562586E+03  0.43380799147E+03 -0.10702463473E+04  0.14833443355E+04  0.89372951448E+03 0.  0.
         23    2    4    4    0    0 -0.24214293097E+03 -0.22884756936E+03 -0.47657735200E+03  0.58863700597E+03  0.91450223266E+02 0.  0.
         23    2    4    4    0    0 -0.18512694889E+02  0.66265556083E+03 -0.59366899525E+03  0.89470732952E+03  0.92753530407E+02 0.  0.
          1    1    3    3  502    0  0.25194251857E+03 -0.39246335285E+03 -0.32963597482E+03  0.57110628774E+03  0.00000000000E+00 0. -1.
         -1    1    3    3    0  502  0.87131072848E+01 -0.41344638618E+02 -0.52434699835E+01  0.42576887610E+02  0.00000000000E+00 0.  1.
         11    1    5    5    0    0 -0.24446591723E+03 -0.19862649841E+03 -0.44019029523E+03  0.54127956416E+03  0.00000000000E+00 0.  1.
        -11    1    5    5    0    0  0.23229862639E+01 -0.30221070948E+02 -0.36387056766E+02  0.47357441807E+02  0.00000000000E+00 0. -1.
          2    1    6    6  503    0 -0.36383762277E+02  0.31665212995E+03 -0.23479241110E+03  0.39587854939E+03  0.00000000000E+00 0. -1.
         -2    1    6    6    0  503  0.17871067389E+02  0.34600343088E+03 -0.35887658416E+03  0.49882878013E+03  0.00000000000E+00 0.  1.
<mgrwt>
<rscale>  0 0.15566457E+04</rscale>
<asrwt>0</asrwt>
<pdfrwt beam="1">  1        2 0.26939640E+00 0.15566457E+04</pdfrwt>
<pdfrwt beam="2">  1       -2 0.53223210E-01 0.15566457E+04</pdfrwt>
<totfact> 0.29410988E+01</totfact>
</mgrwt>
</event>
<event>
12    2  0.3751044E-008  0.1228649E+04  0.7818608E-02  0.9088143E-01
          1   -1    0    0  501    0  0.00000000000E+00  0.00000000000E+00  0.96329807463E+03  0.96329807463E+03  0.00000000000E+00 0. -1.
         -1   -1    0    0    0  501 -0.00000000000E+00 -0.00000000000E+00 -0.39177373389E+03  0.39177373389E+03  0.00000000000E+00 0.  1.
         23    2    1    2    0    0 -0.16963440628E+03 -0.40871962769E+02 -0.96625221408E+02  0.21961565112E+03  0.91914371399E+02 0.  0.
        254    2    1    2    0    0  0.16963440628E+03  0.40871962769E+02  0.66814956215E+03  0.11354561574E+04  0.90132707651E+03 0.  0.
         23    2    4    4    0    0  0.13384557886E+03 -0.17199194405E+03 -0.15320565595E+03  0.28137877335E+03  0.90587931198E+02 0.  0.
         23    2    4    4    0    0  0.35788827422E+02  0.21286390682E+03  0.82135521810E+03  0.85407738406E+03  0.90729822319E+02 0.  0.
          4    1    3    3  502    0  0.21293041458E+01  0.14053579529E+02  0.15386981258E+01  0.14297014571E+02  0.00000000000E+00 0. -1.
         -4    1    3    3    0  502 -0.17176371042E+03 -0.54925542297E+02 -0.98163919533E+02  0.20531863655E+03  0.00000000000E+00 0.  1.
         11    1    5    5    0    0  0.80890963961E+02 -0.33271509968E+02 -0.53678584086E+02  0.10262422626E+03  0.00000000000E+00 0. -1.
        -11    1    5    5    0    0  0.52954614895E+02 -0.13872043408E+03 -0.99527071865E+02  0.17875454709E+03  0.00000000000E+00 0.  1.
          3    1    6    6  503    0  0.62920614088E+02  0.10532701936E+03  0.46046415473E+03  0.47652914127E+03  0.00000000000E+00 0.  1.
         -3    1    6    6    0  503 -0.27131786666E+02  0.10753688746E+03  0.36089106337E+03  0.37754824279E+03  0.00000000000E+00 0. -1.
<mgrwt>
<rscale>  0 0.12286495E+04</rscale>
<asrwt>0</asrwt>
<pdfrwt beam="1">  1        1 0.14819970E+00 0.12286495E+04</pdfrwt>
<pdfrwt beam="2">  1       -1 0.60272882E-01 0.12286495E+04</pdfrwt>
<totfact> 0.44593254E+01</totfact>
</mgrwt>
</event>
<event>
12    2  0.3751044E-008  0.2039410E+04  0.7818608E-02  0.8588414E-01
          2   -1    0    0  501    0  0.00000000000E+00  0.00000000000E+00  0.43340524657E+04  0.43340524657E+04  0.00000000000E+00 0. -1.
         -2   -1    0    0    0  501 -0.00000000000E+00 -0.00000000000E+00 -0.23991371152E+03  0.23991371152E+03  0.00000000000E+00 0.  1.
         23    2    1    2    0    0  0.35241822798E+03 -0.61194245119E+03  0.72166448155E+03  0.10137791138E+04  0.90974154021E+02 0.  0.
        254    2    1    2    0    0 -0.35241822798E+03  0.61194245119E+03  0.33724742726E+04  0.35601870634E+04  0.89592244967E+03 0.  0.
         23    2    4    4    0    0 -0.30421197625E+03  0.57096328775E+03  0.33855515330E+04  0.34480113343E+04  0.90988879612E+02 0.  0.
         23    2    4    4    0    0 -0.48206251731E+02  0.40979163445E+02 -0.13077260381E+02  0.11217572911E+03  0.91701935205E+02 0.  0.
          1    1    3    3  502    0 -0.13151813155E+01 -0.24466787961E+01  0.16918866960E+02  0.17145378335E+02  0.00000000000E+00 0. -1.
         -1    1    3    3    0  502  0.35373340930E+03 -0.60949577240E+03  0.70474561459E+03  0.99663373548E+03  0.00000000000E+00 0.  1.
         11    1    5    5    0    0 -0.30829491166E+03  0.56877311250E+03  0.33755599032E+04  0.34369977111E+04  0.00000000000E+00 0. -1.
        -11    1    5    5    0    0  0.40829354093E+01  0.21901752484E+01  0.99916298107E+01  0.11013623175E+02  0.00000000000E+00 0.  1.
          3    1    6    6  503    0 -0.38295622205E+02 -0.76877288564E+01 -0.39810586675E+02  0.55772203349E+02  0.00000000000E+00 0. -1.
         -3    1    6    6    0  503 -0.99106295257E+01  0.48666892301E+02  0.26733326294E+02  0.56403525764E+02  0.00000000000E+00 0.  1.
<mgrwt>
<rscale>  0 0.20394103E+04</rscale>
<asrwt>0</asrwt>
<pdfrwt beam="1">  1        2 0.66677724E+00 0.20394103E+04</pdfrwt>
<pdfrwt beam="2">  1       -2 0.36909805E-01 0.20394103E+04</pdfrwt>
<totfact> 0.11468937E+00</totfact>
</mgrwt>
</event>
<event>
12    2  0.3751044E-008  0.2099013E+04  0.7818608E-02  0.8561678E-01
         -1   -1    0    0    0  501 -0.00000000000E+00  0.00000000000E+00  0.51501132591E+03  0.51501132591E+03  0.00000000000E+00 0.  1.
          1   -1    0    0  501    0  0.00000000000E+00 -0.00000000000E+00 -0.21387184899E+04  0.21387184899E+04  0.00000000000E+00 0. -1.
         23    2    1    2    0    0 -0.27903262892E+02  0.16252587957E+02  0.41721334442E+03  0.42870555790E+03  0.93159765563E+02 0.  0.
        254    2    1    2    0    0  0.27903262892E+02 -0.16252587957E+02 -0.20409205084E+04  0.22250242579E+04  0.88562615584E+03 0.  0.
         23    2    4    4    0    0  0.22673112213E+01  0.42368246637E+03 -0.10811422205E+04  0.11646778488E+04  0.89966757742E+02 0.  0.
         23    2    4    4    0    0  0.25635951670E+02 -0.43993505433E+03 -0.95977828790E+03  0.10603464091E+04  0.94657758921E+02 0.  0.
          3    1    3    3  502    0 -0.58637258196E+02  0.27131292634E+02  0.24150944209E+03  0.25000249140E+03  0.00000000000E+00 0. -1.
         -3    1    3    3    0  502  0.30733995304E+02 -0.10878704677E+02  0.17570390234E+03  0.17870306651E+03  0.00000000000E+00 0.  1.
         11    1    5    5    0    0  0.20712488497E+02  0.43195493283E+02 -0.18137485777E+03  0.18759450112E+03  0.00000000000E+00 0.  1.
        -11    1    5    5    0    0 -0.18445177275E+02  0.38048697309E+03 -0.89976736277E+03  0.97708334770E+03  0.00000000000E+00 0. -1.
          4    1    6    6  503    0  0.17792196928E+02 -0.39870092336E+03 -0.91857798495E+03  0.10015310794E+04  0.00000000000E+00 0. -1.
         -4    1    6    6    0  503  0.78437547427E+01 -0.41234130968E+02 -0.41200302948E+02  0.58815329704E+02  0.00000000000E+00 0.  1.
<mgrwt>
<rscale>  0 0.20990133E+04</rscale>
<asrwt>0</asrwt>
<pdfrwt beam="1">  1        1 0.32903362E+00 0.20990133E+04</pdfrwt>
<pdfrwt beam="2">  1       -1 0.79232511E-01 0.20990133E+04</pdfrwt>
<totfact> 0.35122162E+00</totfact>
</mgrwt>
</event>
<event>
12    2  0.3751044E-008  0.1518831E+04  0.7818608E-02  0.8872026E-01
          1   -1    0    0  501    0  0.00000000000E+00  0.00000000000E+00  0.39872238953E+03  0.39872238953E+03  0.00000000000E+00 0. -1.
         -1   -1    0    0    0  501 -0.00000000000E+00 -0.00000000000E+00 -0.14463993301E+04  0.14463993301E+04  0.00000000000E+00 0.  1.
         23    2    1    2    0    0  0.41517138380E+03 -0.13073941629E+03 -0.69998362605E+03  0.82919542328E+03  0.90154868736E+02 0.  0.
        254    2    1    2    0    0 -0.41517138380E+03  0.13073941629E+03 -0.34769331451E+03  0.10159262963E+04  0.84956196110E+03 0.  0.
         23    2    4    4    0    0  0.25569207371E+02 -0.99014485479E+02  0.21805550533E+03  0.25727689598E+03  0.90474002347E+02 0.  0.
         23    2    4    4    0    0 -0.44074059117E+03  0.22975390177E+03 -0.56574881984E+03  0.75864940037E+03  0.91858921421E+02 0.  0.
          2    1    3    3  502    0  0.45438785467E+02 -0.24863163744E+02 -0.40453188817E+02  0.65721538491E+02  0.00000000000E+00 0. -1.
         -2    1    3    3    0  502  0.36973259833E+03 -0.10587625255E+03 -0.65953043723E+03  0.76347388479E+03  0.00000000000E+00 0.  1.
         11    1    5    5    0    0  0.19811784597E+02 -0.10151554460E+03  0.11755013271E+03  0.15657568874E+03  0.00000000000E+00 0.  1.
        -11    1    5    5    0    0  0.57574227733E+01  0.25010591255E+01  0.10050537262E+03  0.10070120724E+03  0.00000000000E+00 0. -1.
          1    1    6    6  503    0 -0.16529070812E+03  0.39736213649E+02 -0.21123608736E+03  0.27114695180E+03  0.00000000000E+00 0. -1.
         -1    1    6    6    0  503 -0.27544988304E+03  0.19001768812E+03 -0.35451273248E+03  0.48750244857E+03  0.00000000000E+00 0.  1.
<mgrwt>
<rscale>  0 0.15188309E+04</rscale>
<asrwt>0</asrwt>
<pdfrwt beam="1">  1        1 0.61341907E-01 0.15188309E+04</pdfrwt>
<pdfrwt beam="2">  1       -1 0.22252297E+00 0.15188309E+04</pdfrwt>
<totfact> 0.61604806E+00</totfact>
</mgrwt>
</event>
<event>
12    2  0.3751044E-008  0.1501103E+04  0.7818608E-02  0.8883720E-01
          2   -1    0    0  501    0  0.00000000000E+00  0.00000000000E+00  0.61583295459E+03  0.61583295459E+03  0.00000000000E+00 0. -1.
         -2   -1    0    0    0  501 -0.00000000000E+00 -0.00000000000E+00 -0.91474088126E+03  0.91474088126E+03  0.00000000000E+00 0.  1.
         23    2    1    2    0    0 -0.60545772074E+02 -0.43888135690E+03  0.80158528292E+02  0.45984408460E+03  0.93533718715E+02 0.  0.
        254    2    1    2    0    0  0.60545772074E+02  0.43888135690E+03 -0.37906645496E+03  0.10707297513E+04  0.89804687349E+03 0.  0.
         23    2    4    4    0    0 -0.27188995609E+01 -0.19718787888E+03 -0.36793905840E+03  0.42554916740E+03  0.82598372768E+02 0.  0.
         23    2    4    4    0    0  0.63264671635E+02  0.63606923578E+03 -0.11127396553E+02  0.64518058385E+03  0.86877358651E+02 0.  0.
          3    1    3    3  502    0  0.96541948241E+01 -0.25074676263E+03  0.60177298839E+02  0.25804737888E+03  0.00000000000E+00 0. -1.
         -3    1    3    3    0  502 -0.70199966898E+02 -0.18813459426E+03  0.19981229453E+02  0.20179670573E+03  0.00000000000E+00 0.  1.
         11    1    5    5    0    0  0.38152923460E+01 -0.20263181917E+03 -0.36291855552E+03  0.41567305486E+03  0.00000000000E+00 0. -1.
        -11    1    5    5    0    0 -0.65341919069E+01  0.54439402865E+01 -0.50205028814E+01  0.98761125399E+01  0.00000000000E+00 0.  1.
          3    1    6    6  503    0  0.55811504407E+02  0.61757715462E+03  0.40766140561E+01  0.62010731710E+03  0.00000000000E+00 0. -1.
         -3    1    6    6    0  503  0.74531672277E+01  0.18492081157E+02 -0.15204010609E+02  0.25073266756E+02  0.00000000000E+00 0.  1.
<mgrwt>
<rscale>  0 0.15011030E+04</rscale>
<asrwt>0</asrwt>
<pdfrwt beam="1">  1        2 0.94743532E-01 0.15011030E+04</pdfrwt>
<pdfrwt beam="2">  1       -2 0.14072937E+00 0.15011030E+04</pdfrwt>
<totfact> 0.16439293E+01</totfact>
</mgrwt>
</event>
<event>
12    2  0.3751044E-008  0.1620226E+04  0.7818608E-02  0.8808218E-01
         -2   -1    0    0    0  501 -0.00000000000E+00  0.00000000000E+00  0.56999063808E+03  0.56999063808E+03  0.00000000000E+00 0. -1.
          2   -1    0    0  501    0  0.00000000000E+00 -0.00000000000E+00 -0.11513920852E+04  0.11513920852E+04  0.00000000000E+00 0.  1.
         23    2    1    2    0    0 -0.11534822737E+03 -0.23232804895E+03  0.24495109714E+03  0.36808286014E+03  0.90567190842E+02 0.  0.
        254    2    1    2    0    0  0.11534822737E+03  0.23232804895E+03 -0.82635254430E+03  0.13532998632E+04  0.10398463619E+04 0.  0.
         23    2    4    4    0    0  0.11831444737E+03 -0.38665939270E+03 -0.49091783951E+03  0.64288695605E+03  0.93805749748E+02 0.  0.
         23    2    4    4    0    0 -0.29662200014E+01  0.61898744165E+03 -0.33543470478E+03  0.71041290712E+03  0.94951598424E+02 0.  0.
          1    1    3    3  502    0 -0.98024410381E+02 -0.17363701502E+03  0.23130396340E+03  0.30538520183E+03  0.00000000000E+00 0. -1.
         -1    1    3    3    0  502 -0.17323816987E+02 -0.58691033923E+02  0.13647133744E+02  0.62697658309E+02  0.00000000000E+00 0.  1.
         11    1    5    5    0    0  0.54609246701E+02 -0.11826245307E+03 -0.22349892851E+03  0.25868890328E+03  0.00000000000E+00 0.  1.
        -11    1    5    5    0    0  0.63705200668E+02 -0.26839693963E+03 -0.26741891100E+03  0.38419805277E+03  0.00000000000E+00 0. -1.
          4    1    6    6  503    0  0.88712212619E+01  0.45458808400E+03 -0.19845416404E+03  0.49609785315E+03  0.00000000000E+00 0. -1.
         -4    1    6    6    0  503 -0.11837441263E+02  0.16439935765E+03 -0.13698054075E+03  0.21431505397E+03  0.00000000000E+00 0.  1.
<mgrwt>
<rscale>  0 0.16202256E+04</rscale>
<asrwt>0</asrwt>
<pdfrwt beam="1">  1        2 0.17713724E+00 0.16202256E+04</pdfrwt>
<pdfrwt beam="2">  1       -2 0.87690869E-01 0.16202256E+04</pdfrwt>
<totfact> 0.21771225E+01</totfact>
</mgrwt>
</event>
<event>
12    2  0.3751044E-008  0.1218318E+04  0.7818608E-02  0.9096972E-01
          2   -1    0    0  501    0  0.00000000000E+00  0.00000000000E+00  0.65577931385E+03  0.65577931385E+03  0.00000000000E+00 0. -1.
         -2   -1    0    0    0  501 -0.00000000000E+00 -0.00000000000E+00 -0.56585285698E+03  0.56585285698E+03  0.00000000000E+00 0.  1.
         23    2    1    2    0    0 -0.16654100825E+03 -0.15047405316E+03 -0.11831812428E+03  0.26980704813E+03  0.91751384636E+02 0.  0.
        254    2    1    2    0    0  0.16654100825E+03  0.15047405316E+03  0.20824458115E+03  0.95182512271E+03  0.90123632336E+03 0.  0.
         23    2    4    4    0    0 -0.32528359007E+03  0.22402929440E+03  0.18325895575E+03  0.44567620765E+03  0.95104671212E+02 0.  0.
         23    2    4    4    0    0  0.49182459833E+03 -0.73555241240E+02  0.24985625396E+02  0.50614891506E+03  0.90888028383E+02 0.  0.
          2    1    3    3  502    0 -0.44884336665E+02 -0.22205410338E+02  0.10375174916E+02  0.51140279435E+02  0.00000000000E+00 0. -1.
         -2    1    3    3    0  502 -0.12165667159E+03 -0.12826864282E+03 -0.12869329919E+03  0.21866676869E+03  0.00000000000E+00 0.  1.
         11    1    5    5    0    0 -0.29731109113E+03  0.16659340756E+03  0.16814990846E+03  0.38002847271E+03  0.00000000000E+00 0. -1.
        -11    1    5    5    0    0 -0.27972498941E+02  0.57435886836E+02  0.15109047294E+02  0.65647734947E+02  0.00000000000E+00 0.  1.
          4    1    6    6  503    0  0.32011071067E+03 -0.78604002707E+02 -0.14284235326E+02  0.32992953142E+03  0.00000000000E+00 0. -1.
         -4    1    6    6    0  503  0.17171388766E+03  0.50487614668E+01  0.39269860721E+02  0.17621938363E+03  0.00000000000E+00 0.  1.
<mgrwt>
<rscale>  0 0.12183179E+04</rscale>
<asrwt>0</asrwt>
<pdfrwt beam="1">  1        2 0.10088913E+00 0.12183179E+04</pdfrwt>
<pdfrwt beam="2">  1       -2 0.87054286E-01 0.12183179E+04</pdfrwt>
<totfact> 0.50027948E+01</totfact>
</mgrwt>
</event>
<event>
12    2  0.3751044E-008  0.1641232E+04  0.7818608E-02  0.8795610E-01
         -1   -1    0    0    0  501 -0.00000000000E+00  0.00000000000E+00  0.75481312327E+03  0.75481312327E+03  0.00000000000E+00 0.  1.
          1   -1    0    0  501    0  0.00000000000E+00 -0.00000000000E+00 -0.89215569533E+03  0.89215569533E+03  0.00000000000E+00 0. -1.
         23    2    1    2    0    0 -0.54289115303E+03 -0.14851087930E+03 -0.10226809154E+02  0.56950334062E+03  0.86273878149E+02 0.  0.
        254    2    1    2    0    0  0.54289115303E+03  0.14851087930E+03 -0.12711576290E+03  0.10774654780E+04  0.90993799445E+03 0.  0.
         23    2    4    4    0    0  0.17497211995E+03  0.42743091145E+03 -0.31835129276E+03  0.56979136575E+03  0.10001113967E+03 0.  0.
         23    2    4    4    0    0  0.36791903308E+03 -0.27892003216E+03  0.19123552986E+03  0.50767411222E+03  0.89449299028E+02 0.  0.
          4    1    3    3  502    0 -0.51389280283E+03 -0.12110387170E+03 -0.20268873112E+02  0.52835857877E+03  0.00000000000E+00 0. -1.
         -4    1    3    3    0  502 -0.28998350196E+02 -0.27407007595E+02  0.10042063959E+02  0.41144761853E+02  0.00000000000E+00 0.  1.
         11    1    5    5    0    0  0.15971779855E+03  0.34801631435E+03 -0.21699068712E+03  0.44012508282E+03  0.00000000000E+00 0.  1.
        -11    1    5    5    0    0  0.15254321400E+02  0.79414597101E+02 -0.10136060564E+03  0.12966628293E+03  0.00000000000E+00 0. -1.
          4    1    6    6  503    0  0.13627665393E+03 -0.10814969055E+03  0.11955706036E+03  0.21109612183E+03  0.00000000000E+00 0. -1.
         -4    1    6    6    0  503  0.23164237915E+03 -0.17077034161E+03  0.71678469503E+02  0.29657799039E+03  0.00000000000E+00 0.  1.
<mgrwt>
<rscale>  0 0.16412323E+04</rscale>
<asrwt>0</asrwt>
<pdfrwt beam="1">  1        1 0.13725472E+00 0.16412323E+04</pdfrwt>
<pdfrwt beam="2">  1       -1 0.11612510E+00 0.16412323E+04</pdfrwt>
<totfact> 0.11845192E+01</totfact>
</mgrwt>
</event>
<event>
12    2  0.3751044E-008  0.1048123E+04  0.7818608E-02  0.9257284E-01
         -2   -1    0    0    0  501 -0.00000000000E+00  0.00000000000E+00  0.15047997131E+03  0.15047997131E+03  0.00000000000E+00 0.  1.
          2   -1    0    0  501    0  0.00000000000E+00 -0.00000000000E+00 -0.18250966153E+04  0.18250966153E+04  0.00000000000E+00 0. -1.
         23    2    1    2    0    0 -0.11047850420E+03  0.43427202852E+01 -0.10125233459E+03  0.16208516082E+03  0.61605235085E+02 0.  0.
        254    2    1    2    0    0  0.11047850420E+03 -0.43427202852E+01 -0.15733643094E+04  0.18134914258E+04  0.89501482791E+03 0.  0.
         23    2    4    4    0    0  0.99247675430E+02  0.34187615152E+03 -0.13305422605E+04  0.13803604274E+04  0.91229373444E+02 0.  0.
         23    2    4    4    0    0  0.11230828771E+02 -0.34621887180E+03 -0.24282204888E+03  0.43313099834E+03  0.92985351480E+02 0.  0.
          4    1    3    3  502    0 -0.11482197636E+02  0.37028857526E+01 -0.48361892599E+02  0.49844005469E+02  0.00000000000E+00 0. -1.
         -4    1    3    3    0  502 -0.98996306565E+02  0.63983453262E+00 -0.52890441989E+02  0.11224115536E+03  0.00000000000E+00 0.  1.
         11    1    5    5    0    0  0.41564079547E+02  0.25149142231E+03 -0.10363401959E+04  0.10672284244E+04  0.00000000000E+00 0.  1.
        -11    1    5    5    0    0  0.57683595884E+02  0.90384729203E+02 -0.29420206463E+03  0.31313200306E+03  0.00000000000E+00 0. -1.
          4    1    6    6  503    0 -0.32464956364E+02 -0.25356373859E+03 -0.16196709193E+03  0.30262498540E+03  0.00000000000E+00 0. -1.
         -4    1    6    6    0  503  0.43695785135E+02 -0.92655133211E+02 -0.80854956951E+02  0.13050601294E+03  0.00000000000E+00 0.  1.
<mgrwt>
<rscale>  0 0.10481231E+04</rscale>
<asrwt>0</asrwt>
<pdfrwt beam="1">  1        2 0.28078408E+00 0.10481231E+04</pdfrwt>
<pdfrwt beam="2">  1       -2 0.23150766E-01 0.10481231E+04</pdfrwt>
<totfact> 0.13729697E+02</totfact>
</mgrwt>
</event>
<event>
12    2  0.3751044E-008  0.2991377E+04  0.7818608E-02  0.8246197E-01
         -2   -1    0    0    0  501 -0.00000000000E+00  0.00000000000E+00  0.89141971557E+03  0.89141971557E+03  0.00000000000E+00 0.  1.
          2   -1    0    0  501    0  0.00000000000E+00 -0.00000000000E+00 -0.25095752279E+04  0.25095752279E+04  0.00000000000E+00 0. -1.
         23    2    1    2    0    0 -0.19757761993E+03 -0.18602150716E+02 -0.22613488008E+04  0.22718422562E+04  0.90475865344E+02 0.  0.
        254    2    1    2    0    0  0.19757761993E+03  0.18602150716E+02  0.64319328849E+03  0.11291526873E+04  0.90658989014E+03 0.  0.
         23    2    4    4    0    0  0.17752231658E+03  0.41634028982E+02 -0.19690351045E+03  0.28356308447E+03  0.91594023808E+02 0.  0.
         23    2    4    4    0    0  0.20055303354E+02 -0.23031878266E+02  0.84009679893E+03  0.84558960280E+03  0.91249450262E+02 0.  0.
          4    1    3    3  502    0 -0.87269090640E+02  0.55516276455E+01 -0.14549511892E+04  0.14575766455E+04  0.00000000000E+00 0.  1.
         -4    1    3    3    0  502 -0.11030852929E+03 -0.24153778361E+02 -0.80639761161E+03  0.81426561063E+03  0.00000000000E+00 0. -1.
         11    1    5    5    0    0  0.46396709242E+02  0.37907255909E+02 -0.11284262454E+03  0.12776178064E+03  0.00000000000E+00 0. -1.
        -11    1    5    5    0    0  0.13112560733E+03  0.37267730731E+01 -0.84060885903E+02  0.15580130383E+03  0.00000000000E+00 0.  1.
          2    1    6    6  503    0 -0.22000256157E+02 -0.16199666784E+02  0.84811291299E+02  0.89103286172E+02  0.00000000000E+00 0.  1.
         -2    1    6    6    0  503  0.42055559511E+02 -0.68322114823E+01  0.75528550763E+03  0.75648631662E+03  0.00000000000E+00 0. -1.
<mgrwt>
<rscale>  0 0.29913775E+04</rscale>
<asrwt>0</asrwt>
<pdfrwt beam="1">  1        2 0.38608850E+00 0.29913775E+04</pdfrwt>
<pdfrwt beam="2">  1       -2 0.13714149E+00 0.29913775E+04</pdfrwt>
<totfact> 0.11152646E+00</totfact>
</mgrwt>
</event>
<event>
12    2  0.3751044E-008  0.1541629E+04  0.7818608E-02  0.8857232E-01
         -2   -1    0    0    0  501 -0.00000000000E+00  0.00000000000E+00  0.26034268482E+03  0.26034268482E+03  0.00000000000E+00 0.  1.
          2   -1    0    0  501    0  0.00000000000E+00 -0.00000000000E+00 -0.22822035165E+04  0.22822035165E+04  0.00000000000E+00 0. -1.
         23    2    1    2    0    0 -0.32947701049E+02  0.87012549132E+01  0.15762608775E+03  0.18537714997E+03  0.91419042599E+02 0.  0.
        254    2    1    2    0    0  0.32947701049E+02 -0.87012549132E+01 -0.21794869194E+04  0.23571690513E+04  0.89717414244E+03 0.  0.
         23    2    4    4    0    0  0.14880186364E+03 -0.17420036143E+03 -0.21108769907E+04  0.21252012829E+04  0.90504489680E+02 0.  0.
         23    2    4    4    0    0 -0.11585416259E+03  0.16549910652E+03 -0.68609928748E+02  0.23196776842E+03  0.91047141734E+02 0.  0.
          3    1    3    3  502    0 -0.44208331564E+02  0.11124896034E+02  0.24499006797E+02  0.51752692930E+02  0.00000000000E+00 0. -1.
         -3    1    3    3    0  502  0.11260630515E+02 -0.24236411207E+01  0.13312708095E+03  0.13362445704E+03  0.00000000000E+00 0.  1.
         11    1    5    5    0    0  0.60836554799E+02 -0.57177309383E+02 -0.11729676592E+04  0.11759351430E+04  0.00000000000E+00 0.  1.
        -11    1    5    5    0    0  0.87965308841E+02 -0.11702305205E+03 -0.93790933150E+03  0.94926613991E+03  0.00000000000E+00 0. -1.
          1    1    6    6  503    0 -0.43915243642E+01 -0.68465751261E+01  0.93672874940E+01  0.12405932137E+02  0.00000000000E+00 0.  1.
         -1    1    6    6    0  503 -0.11146263823E+03  0.17234568164E+03 -0.77977216242E+02  0.21956183629E+03  0.00000000000E+00 0. -1.
<mgrwt>
<rscale>  0 0.15416290E+04</rscale>
<asrwt>0</asrwt>
<pdfrwt beam="1">  1        2 0.35110824E+00 0.15416290E+04</pdfrwt>
<pdfrwt beam="2">  1       -2 0.40052720E-01 0.15416290E+04</pdfrwt>
<totfact> 0.26398920E+01</totfact>
</mgrwt>
</event>
<event>
12    2  0.3751044E-008  0.1150553E+04  0.7818608E-02  0.9157274E-01
         -2   -1    0    0    0  501 -0.00000000000E+00  0.00000000000E+00  0.17263899251E+03  0.17263899251E+03  0.00000000000E+00 0.  1.
          2   -1    0    0  501    0  0.00000000000E+00 -0.00000000000E+00 -0.19169656737E+04  0.19169656737E+04  0.00000000000E+00 0. -1.
         23    2    1    2    0    0  0.78946152905E+02 -0.34884266839E+02 -0.67335352832E+01  0.12470815254E+03  0.89762885877E+02 0.  0.
        254    2    1    2    0    0 -0.78946152905E+02  0.34884266839E+02 -0.17375931459E+04  0.19648965137E+04  0.91331208335E+03 0.  0.
         23    2    4    4    0    0  0.12953577758E+03  0.42561184927E+03 -0.72046759618E+03  0.85162155324E+03  0.90888662047E+02 0.  0.
         23    2    4    4    0    0 -0.20848193049E+03 -0.39072758243E+03 -0.10171255497E+04  0.11132749604E+04  0.93295201366E+02 0.  0.
          2    1    3    3  502    0  0.33817545617E+02 -0.23114955903E+02 -0.47529319389E+02  0.62745229138E+02  0.00000000000E+00 0. -1.
         -2    1    3    3    0  502  0.45128607288E+02 -0.11769310937E+02  0.40795784106E+02  0.61962923402E+02  0.00000000000E+00 0.  1.
         11    1    5    5    0    0  0.25657998291E+01  0.10211769600E+03 -0.11766538602E+03  0.15581960798E+03  0.00000000000E+00 0. -1.
        -11    1    5    5    0    0  0.12696997775E+03  0.32349415327E+03 -0.60280221016E+03  0.69580194526E+03  0.00000000000E+00 0.  1.
          2    1    6    6  503    0 -0.92619603612E+02 -0.23818877663E+03 -0.66506636878E+03  0.71247846225E+03  0.00000000000E+00 0. -1.
         -2    1    6    6    0  503 -0.11586232687E+03 -0.15253880580E+03 -0.35205918094E+03  0.40079649817E+03  0.00000000000E+00 0.  1.
<mgrwt>
<rscale>  0 0.11505529E+04</rscale>
<asrwt>0</asrwt>
<pdfrwt beam="1">  1        2 0.29491779E+00 0.11505529E+04</pdfrwt>
<pdfrwt beam="2">  1       -2 0.26559846E-01 0.11505529E+04</pdfrwt>
<totfact> 0.94589311E+01</totfact>
</mgrwt>
</event>
<event>
12    2  0.3751044E-008  0.2828634E+04  0.7818608E-02  0.8294433E-01
          2   -1    0    0  501    0  0.00000000000E+00  0.00000000000E+00  0.27906995848E+04  0.27906995848E+04  0.00000000000E+00 0. -1.
         -2   -1    0    0    0  501 -0.00000000000E+00 -0.00000000000E+00 -0.71677118019E+03  0.71677118019E+03  0.00000000000E+00 0.  1.
         23    2    1    2    0    0  0.78470802517E+03 -0.69745039261E+03  0.46726721268E+02  0.10544732920E+04  0.86757145186E+02 0.  0.
        254    2    1    2    0    0 -0.78470802517E+03  0.69745039261E+03  0.20272016834E+04  0.24529974730E+04  0.89746654671E+03 0.  0.
         23    2    4    4    0    0 -0.32731075870E+03  0.35215051981E+03  0.17366532386E+04  0.18042605418E+04  0.90825712573E+02 0.  0.
         23    2    4    4    0    0 -0.45739726647E+03  0.34529987279E+03  0.29054844474E+03  0.64873693119E+03  0.89425642955E+02 0.  0.
          1    1    3    3  502    0  0.78948821536E+02 -0.97907051489E+02 -0.13400492319E+02  0.12648430870E+03  0.00000000000E+00 0. -1.
         -1    1    3    3    0  502  0.70575920363E+03 -0.59954334112E+03  0.60127213587E+02  0.92798898334E+03  0.00000000000E+00 0.  1.
         11    1    5    5    0    0 -0.10601296000E+03  0.17330182780E+03  0.65278422521E+03  0.68366623135E+03  0.00000000000E+00 0.  1.
        -11    1    5    5    0    0 -0.22129779870E+03  0.17884869201E+03  0.10838690134E+04  0.11205943104E+04  0.00000000000E+00 0. -1.
          2    1    6    6  503    0 -0.23934627275E+03  0.13754308197E+03  0.17083680633E+03  0.32463818640E+03  0.00000000000E+00 0.  1.
         -2    1    6    6    0  503 -0.21805099372E+03  0.20775679083E+03  0.11971163841E+03  0.32409874478E+03  0.00000000000E+00 0. -1.
<mgrwt>
<rscale>  0 0.28286343E+04</rscale>
<asrwt>0</asrwt>
<pdfrwt beam="1">  1        2 0.42933839E+00 0.28286343E+04</pdfrwt>
<pdfrwt beam="2">  1       -2 0.11027249E+00 0.28286343E+04</pdfrwt>
<totfact> 0.13276285E+00</totfact>
</mgrwt>
</event>
<event>
12    2  0.3751044E-008  0.2554438E+04  0.7818608E-02  0.8383844E-01
          2   -1    0    0  501    0  0.00000000000E+00  0.00000000000E+00  0.97162280943E+03  0.97162280943E+03  0.00000000000E+00 0. -1.
         -2   -1    0    0    0  501 -0.00000000000E+00 -0.00000000000E+00 -0.16789319078E+04  0.16789319078E+04  0.00000000000E+00 0.  1.
         23    2    1    2    0    0  0.70178259156E+03  0.85988346917E+03 -0.18347347227E+03  0.11286776583E+04  0.91391218987E+02 0.  0.
        254    2    1    2    0    0 -0.70178259156E+03 -0.85988346917E+03 -0.52383562608E+03  0.15218770589E+04  0.89989312306E+03 0.  0.
         23    2    4    4    0    0 -0.32557390853E+03 -0.80901075722E+03 -0.10270960636E+02  0.87681325333E+03  0.90549507776E+02 0.  0.
         23    2    4    4    0    0 -0.37620868304E+03 -0.50872711949E+02 -0.51356466544E+03  0.64506380559E+03  0.90761454818E+02 0.  0.
          2    1    3    3  502    0  0.45785588807E+03  0.56602360525E+03 -0.76251252062E+02  0.73200340804E+03  0.00000000000E+00 0. -1.
         -2    1    3    3    0  502  0.24392670349E+03  0.29385986392E+03 -0.10722222021E+03  0.39667425024E+03  0.00000000000E+00 0.  1.
         11    1    5    5    0    0 -0.26426364871E+03 -0.61776349520E+03  0.27422083021E+02  0.67247229138E+03  0.00000000000E+00 0.  1.
        -11    1    5    5    0    0 -0.61310259814E+02 -0.19124726203E+03 -0.37693043657E+02  0.20434096195E+03  0.00000000000E+00 0. -1.
          4    1    6    6  503    0 -0.34745106063E+02 -0.27432841898E+02 -0.33671177867E+02  0.55619523811E+02  0.00000000000E+00 0. -1.
         -4    1    6    6    0  503 -0.34146357697E+03 -0.23439870051E+02 -0.47989348757E+03  0.58944428178E+03  0.00000000000E+00 0.  1.
<mgrwt>
<rscale>  0 0.25544381E+04</rscale>
<asrwt>0</asrwt>
<pdfrwt beam="1">  1        2 0.14948043E+00 0.25544381E+04</pdfrwt>
<pdfrwt beam="2">  1       -2 0.25829721E+00 0.25544381E+04</pdfrwt>
<totfact> 0.13332630E+00</totfact>
</mgrwt>
</event>
<event>
12    2  0.3751044E-008  0.2023461E+04  0.7818608E-02  0.8595730E-01
          2   -1    0    0  501    0  0.00000000000E+00  0.00000000000E+00  0.11457284603E+04  0.11457284603E+04  0.00000000000E+00 0. -1.
         -2   -1    0    0    0  501 -0.00000000000E+00 -0.00000000000E+00 -0.89340396284E+03  0.89340396284E+03  0.00000000000E+00 0.  1.
         23    2    1    2    0    0  0.23241619386E+02  0.21292864650E+03  0.88678583229E+03  0.91684637482E+03  0.91320212951E+02 0.  0.
        254    2    1    2    0    0 -0.23241619386E+02 -0.21292864650E+03 -0.63446133482E+03  0.11222860483E+04  0.90061423903E+03 0.  0.
         23    2    4    4    0    0 -0.17309067776E+03 -0.12593791618E+03 -0.81899679664E+03  0.85144597731E+03  0.91562863093E+02 0.  0.
         23    2    4    4    0    0  0.14984905837E+03 -0.86990730317E+02  0.18453546183E+03  0.27084007103E+03  0.96326943006E+02 0.  0.
          1    1    3    3  502    0  0.43193357567E+02  0.18453367115E+03  0.81960308104E+03  0.84122978572E+03  0.00000000000E+00 0. -1.
         -1    1    3    3    0  502 -0.19951738181E+02  0.28394975356E+02  0.67182751247E+02  0.75616589099E+02  0.00000000000E+00 0.  1.
         11    1    5    5    0    0 -0.56318952659E+02 -0.63166463485E+02 -0.48083077188E+03  0.48822132043E+03  0.00000000000E+00 0.  1.
        -11    1    5    5    0    0 -0.11677172510E+03 -0.62771452699E+02 -0.33816602476E+03  0.36322465687E+03  0.00000000000E+00 0. -1.
          4    1    6    6  503    0 -0.94972936189E+01 -0.25867959167E+02  0.24289983138E+02  0.36733542960E+02  0.00000000000E+00 0. -1.
         -4    1    6    6    0  503  0.15934635199E+03 -0.61122771150E+02  0.16024547869E+03  0.23410652807E+03  0.00000000000E+00 0.  1.
<mgrwt>
<rscale>  0 0.20234607E+04</rscale>
<asrwt>0</asrwt>
<pdfrwt beam="1">  1        2 0.17626592E+00 0.20234607E+04</pdfrwt>
<pdfrwt beam="2">  1       -2 0.13744676E+00 0.20234607E+04</pdfrwt>
<totfact> 0.71355125E+00</totfact>
</mgrwt>
</event>
<event>
12    2  0.3751044E-008  0.2613975E+04  0.7818608E-02  0.8363470E-01
         -1   -1    0    0    0  501 -0.00000000000E+00  0.00000000000E+00  0.10276218125E+04  0.10276218125E+04  0.00000000000E+00 0.  1.
          1   -1    0    0  501    0  0.00000000000E+00 -0.00000000000E+00 -0.16623003982E+04  0.16623003982E+04  0.00000000000E+00 0. -1.
         23    2    1    2    0    0 -0.50634540831E+03 -0.91822606757E+03 -0.76786412960E+03  0.13027379757E+04  0.89365139046E+02 0.  0.
        254    2    1    2    0    0  0.50634540831E+03  0.91822606757E+03  0.13318554394E+03  0.13871842351E+04  0.89834120980E+03 0.  0.
         23    2    4    4    0    0 -0.20471733413E+03  0.40742058891E+03 -0.10354665399E+03  0.47574310394E+03  0.87800160775E+02 0.  0.
         23    2    4    4    0    0  0.71106274244E+03  0.51080547866E+03  0.23673219793E+03  0.91144113113E+03  0.90279240500E+02 0.  0.
          3    1    3    3  502    0 -0.11299733715E+03 -0.20360363719E+03 -0.21810438492E+03  0.31904915295E+03  0.00000000000E+00 0. -1.
         -3    1    3    3    0  502 -0.39334807116E+03 -0.71462243038E+03 -0.54975974468E+03  0.98368882273E+03  0.00000000000E+00 0.  1.
         11    1    5    5    0    0 -0.17891446890E+03  0.34772545717E+03 -0.11926630287E+03  0.40883717021E+03  0.00000000000E+00 0.  1.
        -11    1    5    5    0    0 -0.25802865232E+02  0.59695131737E+02  0.15719648874E+02  0.66905933728E+02  0.00000000000E+00 0. -1.
          3    1    6    6  503    0  0.17354585956E+03  0.85855750079E+02  0.31557230556E+02  0.19617653783E+03  0.00000000000E+00 0. -1.
         -3    1    6    6    0  503  0.53751688287E+03  0.42494972858E+03  0.20517496737E+03  0.71526459330E+03  0.00000000000E+00 0.  1.
<mgrwt>
<rscale>  0 0.26139749E+04</rscale>
<asrwt>0</asrwt>
<pdfrwt beam="1">  1        1 0.25573852E+00 0.26139749E+04</pdfrwt>
<pdfrwt beam="2">  1       -1 0.15809566E+00 0.26139749E+04</pdfrwt>
<totfact> 0.13442442E+00</totfact>
</mgrwt>
</event>
<event>
12    2  0.3751044E-008  0.1767160E+04  0.7818608E-02  0.8723961E-01
          1   -1    0    0  501    0  0.00000000000E+00  0.00000000000E+00  0.16522849927E+04  0.16522849927E+04  0.00000000000E+00 0. -1.
         -1   -1    0    0    0  501 -0.00000000000E+00 -0.00000000000E+00 -0.47250544588E+03  0.47250544588E+03  0.00000000000E+00 0.  1.
         23    2    1    2    0    0  0.10226156887E+03  0.36562280378E+03  0.10329991760E+04  0.11043124700E+04  0.91001487288E+02 0.  0.
        254    2    1    2    0    0 -0.10226156887E+03 -0.36562280378E+03  0.14678037076E+03  0.10204779685E+04  0.93578488118E+03 0.  0.
         23    2    4    4    0    0 -0.45471123612E+03 -0.54088730315E+02  0.25010789794E+03  0.52956777173E+03  0.90554763828E+02 0.  0.
         23    2    4    4    0    0  0.35244966725E+03 -0.31153407347E+03 -0.10332752718E+03  0.49091019677E+03  0.95089413409E+02 0.  0.
          4    1    3    3  502    0  0.34694124536E+02  0.25141690558E+03  0.60098085534E+03  0.65237422632E+03  0.00000000000E+00 0. -1.
         -4    1    3    3    0  502  0.67567444330E+02  0.11420589820E+03  0.43201832069E+03  0.45193824371E+03  0.00000000000E+00 0.  1.
         11    1    5    5    0    0 -0.39718217174E+03 -0.25358322538E+02  0.23920898540E+03  0.46434648783E+03  0.00000000000E+00 0. -1.
        -11    1    5    5    0    0 -0.57529064376E+02 -0.28730407777E+02  0.10898912543E+02  0.65221283900E+02  0.00000000000E+00 0.  1.
          4    1    6    6  503    0  0.35350388322E+03 -0.28987427674E+03 -0.10532596482E+03  0.46913287098E+03  0.00000000000E+00 0. -1.
         -4    1    6    6    0  503 -0.10542159720E+01 -0.21659796727E+02  0.19984376347E+01  0.21777325789E+02  0.00000000000E+00 0.  1.
<mgrwt>
<rscale>  0 0.17671600E+04</rscale>
<asrwt>0</asrwt>
<pdfrwt beam="1">  1        1 0.25419769E+00 0.17671600E+04</pdfrwt>
<pdfrwt beam="2">  1       -1 0.72693146E-01 0.17671600E+04</pdfrwt>
<totfact> 0.92769591E+00</totfact>
</mgrwt>
</event>
<event>
12    2  0.3751044E-008  0.1726509E+04  0.7818608E-02  0.8746388E-01
         -1   -1    0    0    0  501 -0.00000000000E+00  0.00000000000E+00  0.52635037598E+03  0.52635037598E+03  0.00000000000E+00 0.  1.
          1   -1    0    0  501    0  0.00000000000E+00 -0.00000000000E+00 -0.14158033254E+04  0.14158033254E+04  0.00000000000E+00 0. -1.
         23    2    1    2    0    0 -0.32092781281E+03  0.49223589368E+03 -0.55868127970E+03  0.81609807938E+03  0.92738701766E+02 0.  0.
        254    2    1    2    0    0  0.32092781281E+03 -0.49223589368E+03 -0.33077166976E+03  0.11260556221E+04  0.90183176389E+03 0.  0.
         23    2    4    4    0    0  0.59504431068E+03 -0.20481193550E+03 -0.63486752363E+02  0.63847759614E+03  0.87163137001E+02 0.  0.
         23    2    4    4    0    0 -0.27411649787E+03 -0.28742395819E+03 -0.26728491740E+03  0.48757802591E+03  0.92405184557E+02 0.  0.
          3    1    3    3  502    0 -0.17761146524E+03  0.22894347760E+03 -0.32931098939E+03  0.43864185420E+03  0.00000000000E+00 0. -1.
         -3    1    3    3    0  502 -0.14331634757E+03  0.26329241608E+03 -0.22937029031E+03  0.37745622517E+03  0.00000000000E+00 0.  1.
         11    1    5    5    0    0  0.22007150297E+00  0.30312128977E+01  0.37300937879E+01  0.48114740740E+01  0.00000000000E+00 0. -1.
        -11    1    5    5    0    0  0.59482423918E+03 -0.20784314839E+03 -0.67216846151E+02  0.63366612207E+03  0.00000000000E+00 0.  1.
          3    1    6    6  503    0 -0.51661731071E+02 -0.59566662937E+02 -0.12669990824E+02  0.79860193201E+02  0.00000000000E+00 0. -1.
         -3    1    6    6    0  503 -0.22245476680E+03 -0.22785729525E+03 -0.25461492658E+03  0.40771783271E+03  0.00000000000E+00 0.  1.
<mgrwt>
<rscale>  0 0.17265093E+04</rscale>
<asrwt>0</asrwt>
<pdfrwt beam="1">  1        1 0.21781589E+00 0.17265093E+04</pdfrwt>
<pdfrwt beam="2">  1       -1 0.80976982E-01 0.17265093E+04</pdfrwt>
<totfact> 0.10807960E+01</totfact>
</mgrwt>
</event>
<event>
12    2  0.3751044E-008  0.1494450E+04  0.7818608E-02  0.8888152E-01
         -1   -1    0    0    0  501 -0.00000000000E+00  0.00000000000E+00  0.26813395463E+03  0.26813395463E+03  0.00000000000E+00 0.  1.
          1   -1    0    0  501    0  0.00000000000E+00 -0.00000000000E+00 -0.20823371773E+04  0.20823371773E+04  0.00000000000E+00 0. -1.
         23    2    1    2    0    0  0.16806011705E+03 -0.14355124387E+03 -0.12256057262E+04  0.12488292576E+04  0.92811400769E+02 0.  0.
        254    2    1    2    0    0 -0.16806011705E+03  0.14355124387E+03 -0.58859749647E+03  0.11016418743E+04  0.90460855830E+03 0.  0.
         23    2    4    4    0    0  0.11550944712E+03  0.34254849848E+03  0.43327933735E+02  0.37581100616E+03  0.93138049804E+02 0.  0.
         23    2    4    4    0    0 -0.28356956417E+03 -0.19899725461E+03 -0.63192543020E+03  0.72583086812E+03  0.86539555802E+02 0.  0.
          4    1    3    3  502    0  0.14437696829E+03 -0.15630917801E+03 -0.10813358672E+04  0.11020728315E+04  0.00000000000E+00 0. -1.
         -4    1    3    3    0  502  0.23683148762E+02  0.12757934141E+02 -0.14426985894E+03  0.14675642616E+03  0.00000000000E+00 0.  1.
         11    1    5    5    0    0  0.12756579803E+03  0.32601154471E+03  0.29946630272E+02  0.35135930438E+03  0.00000000000E+00 0. -1.
        -11    1    5    5    0    0 -0.12056350911E+02  0.16536953771E+02  0.13381303463E+02  0.24451701775E+02  0.00000000000E+00 0.  1.
          3    1    6    6  503    0 -0.23303062656E+03 -0.19656172837E+03 -0.56413822298E+03  0.64124232596E+03  0.00000000000E+00 0. -1.
         -3    1    6    6    0  503 -0.50538937604E+02 -0.24355262420E+01 -0.67787207228E+02  0.84588542167E+02  0.00000000000E+00 0.  1.
<mgrwt>
<rscale>  0 0.14944501E+04</rscale>
<asrwt>0</asrwt>
<pdfrwt beam="1">  1        1 0.32035957E+00 0.14944501E+04</pdfrwt>
<pdfrwt beam="2">  1       -1 0.41251378E-01 0.14944501E+04</pdfrwt>
<totfact> 0.14606284E+01</totfact>
</mgrwt>
</event>
<event>
12    2  0.3751044E-008  0.1291154E+04  0.7818608E-02  0.9036610E-01
          2   -1    0    0  501    0  0.00000000000E+00  0.00000000000E+00  0.42231438530E+03  0.42231438530E+03  0.00000000000E+00 0. -1.
         -2   -1    0    0    0  501 -0.00000000000E+00 -0.00000000000E+00 -0.98687003341E+03  0.98687003341E+03  0.00000000000E+00 0.  1.
         23    2    1    2    0    0  0.20550428836E+03  0.25095212957E+03 -0.13329515057E+03  0.36164817012E+03  0.88390146004E+02 0.  0.
        254    2    1    2    0    0 -0.20550428836E+03 -0.25095212957E+03 -0.43126049754E+03  0.10475362486E+04  0.89785165340E+03 0.  0.
         23    2    4    4    0    0 -0.45398255474E+03 -0.39647427820E+03 -0.42459371776E+03  0.74303341731E+03  0.92340786149E+02 0.  0.
         23    2    4    4    0    0  0.24847826639E+03  0.14552214862E+03 -0.66667797793E+01  0.30450283129E+03  0.98789593084E+02 0.  0.
          4    1    3    3  502    0  0.42296537953E+02  0.31745965542E+02  0.88185657710E+01  0.53615021713E+02  0.00000000000E+00 0. -1.
         -4    1    3    3    0  502  0.16320775040E+03  0.21920616403E+03 -0.14211371635E+03  0.30803314840E+03  0.00000000000E+00 0.  1.
         11    1    5    5    0    0 -0.30435713805E+03 -0.30301322274E+03 -0.26178931583E+03  0.50297507545E+03  0.00000000000E+00 0. -1.
        -11    1    5    5    0    0 -0.14962541669E+03 -0.93461055456E+02 -0.16280440193E+03  0.24005834186E+03  0.00000000000E+00 0.  1.
          4    1    6    6  503    0  0.44288645898E+02 -0.57324143866E+01  0.20129191692E+02  0.48984988398E+02  0.00000000000E+00 0. -1.
         -4    1    6    6    0  503  0.20418962049E+03  0.15125456301E+03 -0.26795971471E+02  0.25551784289E+03  0.00000000000E+00 0.  1.
<mgrwt>
<rscale>  0 0.12911536E+04</rscale>
<asrwt>0</asrwt>
<pdfrwt beam="1">  1        2 0.64971445E-01 0.12911536E+04</pdfrwt>
<pdfrwt beam="2">  1       -2 0.15182616E+00 0.12911536E+04</pdfrwt>
<totfact> 0.21255151E+01</totfact>
</mgrwt>
</event>
<event>
12    2  0.3751044E-008  0.1888140E+04  0.7818608E-02  0.8660782E-01
          2   -1    0    0  501    0  0.00000000000E+00  0.00000000000E+00  0.76419301375E+03  0.76419301375E+03  0.00000000000E+00 0. -1.
         -2   -1    0    0    0  501 -0.00000000000E+00 -0.00000000000E+00 -0.11662871876E+04  0.11662871876E+04  0.00000000000E+00 0.  1.
         23    2    1    2    0    0  0.25774221169E+03  0.67156458767E+03 -0.21630728387E+03  0.75649727436E+03  0.89828959469E+02 0.  0.
        254    2    1    2    0    0 -0.25774221169E+03 -0.67156458767E+03 -0.18578688998E+03  0.11739829270E+04  0.90900445613E+03 0.  0.
         23    2    4    4    0    0 -0.24628056315E+03 -0.28269701061E+03 -0.52505664226E+03  0.65167627342E+03  0.91792004944E+02 0.  0.
         23    2    4    4    0    0 -0.11461648546E+02 -0.38886757706E+03  0.33926975228E+03  0.52230665356E+03  0.79692619904E+02 0.  0.
          1    1    3    3  502    0  0.98211782119E+02  0.20182902960E+03 -0.10632569621E+03  0.24836599004E+03  0.00000000000E+00 0. -1.
         -1    1    3    3    0  502  0.15953042957E+03  0.46973555807E+03 -0.10998158765E+03  0.50813128431E+03  0.00000000000E+00 0.  1.
         11    1    5    5    0    0 -0.19847329326E+03 -0.18864410344E+03 -0.32073005199E+03  0.42171792960E+03  0.00000000000E+00 0. -1.
        -11    1    5    5    0    0 -0.47807269887E+02 -0.94052907165E+02 -0.20432659027E+03  0.22995834382E+03  0.00000000000E+00 0.  1.
          3    1    6    6  503    0  0.34222025693E+02 -0.19001109030E+03  0.16681531081E+03  0.25515232588E+03  0.00000000000E+00 0. -1.
         -3    1    6    6    0  503 -0.45683674239E+02 -0.19885648676E+03  0.17245444147E+03  0.26715432768E+03  0.00000000000E+00 0.  1.
<mgrwt>
<rscale>  0 0.18881404E+04</rscale>
<asrwt>0</asrwt>
<pdfrwt beam="1">  1        2 0.11756816E+00 0.18881404E+04</pdfrwt>
<pdfrwt beam="2">  1       -2 0.17942880E+00 0.18881404E+04</pdfrwt>
<totfact> 0.62736950E+00</totfact>
</mgrwt>
</event>
<event>
12    2  0.3751044E-008  0.1398637E+04  0.7818608E-02  0.8954806E-01
          2   -1    0    0  501    0  0.00000000000E+00  0.00000000000E+00  0.99558231070E+03  0.99558231070E+03  0.00000000000E+00 0. -1.
         -2   -1    0    0    0  501 -0.00000000000E+00 -0.00000000000E+00 -0.49121651541E+03  0.49121651541E+03  0.00000000000E+00 0.  1.
         23    2    1    2    0    0 -0.16516233951E+03 -0.31040693381E+03 -0.60184636476E+02  0.36729299344E+03  0.87469363859E+02 0.  0.
        254    2    1    2    0    0  0.16516233951E+03  0.31040693381E+03  0.56455043177E+03  0.11195058327E+04  0.90052487830E+03 0.  0.
         23    2    4    4    0    0  0.11863103495E+03 -0.17479030473E+03 -0.13098838620E+03  0.26510169361E+03  0.92173627208E+02 0.  0.
         23    2    4    4    0    0  0.46531304555E+02  0.48519723854E+03  0.69553881796E+03  0.85440413907E+03  0.93008940250E+02 0.  0.
          3    1    3    3  502    0 -0.12065293057E+03 -0.18812036158E+03  0.10072165928E+01  0.22348918225E+03  0.00000000000E+00 0. -1.
         -3    1    3    3    0  502 -0.44509408936E+02 -0.12228657223E+03 -0.61191853069E+02  0.14380381119E+03  0.00000000000E+00 0.  1.
         11    1    5    5    0    0  0.56832114787E+02 -0.15574717163E+03 -0.95841256093E+02  0.19150095851E+03  0.00000000000E+00 0.  1.
        -11    1    5    5    0    0  0.61798920168E+02 -0.19043133105E+02 -0.35147130103E+02  0.73600735097E+02  0.00000000000E+00 0. -1.
          3    1    6    6  503    0  0.11112878464E+02  0.11540416512E+03  0.24048385321E+03  0.26697209788E+03  0.00000000000E+00 0. -1.
         -3    1    6    6    0  503  0.35418426090E+02  0.36979307343E+03  0.45505496476E+03  0.58743204119E+03  0.00000000000E+00 0.  1.
<mgrwt>
<rscale>  0 0.13986372E+04</rscale>
<asrwt>0</asrwt>
<pdfrwt beam="1">  1        2 0.15316651E+00 0.13986372E+04</pdfrwt>
<pdfrwt beam="2">  1       -2 0.75571772E-01 0.13986372E+04</pdfrwt>
<totfact> 0.38759546E+01</totfact>
</mgrwt>
</event>
<event>
12    2  0.3751044E-008  0.1352765E+04  0.7818608E-02  0.8988738E-01
          2   -1    0    0  501    0  0.00000000000E+00  0.00000000000E+00  0.17064899376E+04  0.17064899376E+04  0.00000000000E+00 0. -1.
         -2   -1    0    0    0  501 -0.00000000000E+00 -0.00000000000E+00 -0.26809032170E+03  0.26809032170E+03  0.00000000000E+00 0.  1.
         23    2    1    2    0    0  0.16218654117E+03  0.94150081877E+02  0.87438448362E+03  0.89910604738E+03  0.93138322850E+02 0.  0.
        254    2    1    2    0    0 -0.16218654117E+03 -0.94150081877E+02  0.56401513224E+03  0.10754742119E+04  0.89630519299E+03 0.  0.
         23    2    4    4    0    0  0.30353597585E+03  0.14656846970E+03  0.85196940758E+02  0.35968707061E+03  0.92194712956E+02 0.  0.
         23    2    4    4    0    0 -0.46572251702E+03 -0.24071855158E+03  0.47881819148E+03  0.71578714128E+03  0.90782637021E+02 0.  0.
          4    1    3    3  502    0  0.77504225204E+02  0.69647186460E+02  0.29088967675E+03  0.30898938420E+03  0.00000000000E+00 0. -1.
         -4    1    3    3    0  502  0.84682315964E+02  0.24502895417E+02  0.58349480687E+03  0.59011666318E+03  0.00000000000E+00 0.  1.
         11    1    5    5    0    0  0.21027804902E+03  0.14620673337E+03  0.65870206846E+02  0.26444687734E+03  0.00000000000E+00 0. -1.
        -11    1    5    5    0    0  0.93257926833E+02  0.36173633503E+00  0.19326733912E+02  0.95240193270E+02  0.00000000000E+00 0.  1.
          3    1    6    6  503    0 -0.95722512915E+02 -0.88481477956E+02  0.94426438122E+02  0.16096000633E+03  0.00000000000E+00 0. -1.
         -3    1    6    6    0  503 -0.37000000411E+03 -0.15223707363E+03  0.38439175336E+03  0.55482713495E+03  0.00000000000E+00 0.  1.
<mgrwt>
<rscale>  0 0.13527652E+04</rscale>
<asrwt>0</asrwt>
<pdfrwt beam="1">  1        2 0.26253691E+00 0.13527652E+04</pdfrwt>
<pdfrwt beam="2">  1       -2 0.41244666E-01 0.13527652E+04</pdfrwt>
<totfact> 0.52882608E+01</totfact>
</mgrwt>
</event>
<event>
12    2  0.3751044E-008  0.1904118E+04  0.7818608E-02  0.8652809E-01
          2   -1    0    0  501    0  0.00000000000E+00  0.00000000000E+00  0.23417342567E+04  0.23417342567E+04  0.00000000000E+00 0. -1.
         -2   -1    0    0    0  501 -0.00000000000E+00 -0.00000000000E+00 -0.38707066650E+03  0.38707066650E+03  0.00000000000E+00 0.  1.
         23    2    1    2    0    0 -0.74718227194E+02  0.10640238406E+03  0.18552414264E+04  0.18620259558E+04  0.91190071540E+02 0.  0.
        254    2    1    2    0    0  0.74718227194E+02 -0.10640238406E+03  0.99422163888E+02  0.86677896745E+03  0.85118548562E+03 0.  0.
         23    2    4    4    0    0  0.45801160795E+02  0.14586781475E+03  0.41491636716E+03  0.45123300123E+03  0.89891400860E+02 0.  0.
         23    2    4    4    0    0  0.28917066399E+02 -0.25227019881E+03 -0.31549420327E+03  0.41554596622E+03  0.93088172191E+02 0.  0.
          2    1    3    3  502    0  0.19507283929E+02  0.83535308763E+01  0.17285644711E+03  0.17415414699E+03  0.00000000000E+00 0.  1.
         -2    1    3    3    0  502 -0.94225511123E+02  0.98048853182E+02  0.16823849792E+04  0.16878718088E+04  0.00000000000E+00 0. -1.
         11    1    5    5    0    0 -0.22443749690E+02  0.14867009409E+02  0.97187248132E+02  0.10084696856E+03  0.00000000000E+00 0.  1.
        -11    1    5    5    0    0  0.68244910485E+02  0.13100080535E+03  0.31772911903E+03  0.35038603267E+03  0.00000000000E+00 0. -1.
          3    1    6    6  503    0  0.17849865246E+02 -0.24779622282E+03 -0.26330851866E+03  0.36201237787E+03  0.00000000000E+00 0. -1.
         -3    1    6    6    0  503  0.11067201153E+02 -0.44739759912E+01 -0.52185684612E+02  0.53533588343E+02  0.00000000000E+00 0.  1.
<mgrwt>
<rscale>  0 0.19041183E+04</rscale>
<asrwt>0</asrwt>
<pdfrwt beam="1">  1        2 0.36026680E+00 0.19041183E+04</pdfrwt>
<pdfrwt beam="2">  1       -2 0.59549335E-01 0.19041183E+04</pdfrwt>
<totfact> 0.10580004E+01</totfact>
</mgrwt>
</event>
<event>
12    2  0.3751044E-008  0.1493751E+04  0.7818608E-02  0.8888619E-01
         -2   -1    0    0    0  501 -0.00000000000E+00  0.00000000000E+00  0.66798412303E+03  0.66798412303E+03  0.00000000000E+00 0.  1.
          2   -1    0    0  501    0  0.00000000000E+00 -0.00000000000E+00 -0.83508389767E+03  0.83508389767E+03  0.00000000000E+00 0. -1.
         23    2    1    2    0    0 -0.19364855201E+02 -0.31977668013E+03 -0.39505830246E+03  0.52038468402E+03  0.10998651848E+03 0.  0.
        254    2    1    2    0    0  0.19364855201E+02  0.31977668013E+03  0.22795852783E+03  0.98268333668E+03  0.90059387462E+03 0.  0.
         23    2    4    4    0    0  0.24793041457E+03  0.45794582962E+03 -0.11283337883E+03  0.54069433476E+03  0.91842903503E+02 0.  0.
         23    2    4    4    0    0 -0.22856555937E+03 -0.13816914950E+03  0.34079190666E+03  0.44198900192E+03  0.88781897744E+02 0.  0.
          4    1    3    3  502    0  0.13995568106E+02 -0.12519370451E+03 -0.82118354024E+02  0.15037540904E+03  0.00000000000E+00 0. -1.
         -4    1    3    3    0  502 -0.33360423307E+02 -0.19458297562E+03 -0.31293994844E+03  0.37000927498E+03  0.00000000000E+00 0.  1.
         11    1    5    5    0    0  0.15646922459E+02  0.71885486540E+02 -0.41686350223E+02  0.84558270751E+02  0.00000000000E+00 0.  1.
        -11    1    5    5    0    0  0.23228349211E+03  0.38606034308E+03 -0.71147028610E+02  0.45613606401E+03  0.00000000000E+00 0. -1.
          4    1    6    6  503    0  0.43947388649E+01 -0.19485773699E+02  0.22661903604E+02  0.30208789802E+02  0.00000000000E+00 0.  1.
         -4    1    6    6    0  503 -0.23296029823E+03 -0.11868337580E+03  0.31813000306E+03  0.41178021212E+03  0.00000000000E+00 0. -1.
<mgrwt>
<rscale>  0 0.14937507E+04</rscale>
<asrwt>0</asrwt>
<pdfrwt beam="1">  1        2 0.12847444E+00 0.14937507E+04</pdfrwt>
<pdfrwt beam="2">  1       -2 0.10276679E+00 0.14937507E+04</pdfrwt>
<totfact> 0.24329614E+01</totfact>
</mgrwt>
</event>
<event>
12    2  0.3751044E-008  0.1971179E+04  0.7818608E-02  0.8620215E-01
          2   -1    0    0  501    0  0.00000000000E+00  0.00000000000E+00  0.12415974225E+04  0.12415974225E+04  0.00000000000E+00 0. -1.
         -2   -1    0    0    0  501 -0.00000000000E+00 -0.00000000000E+00 -0.78236836776E+03  0.78236836776E+03  0.00000000000E+00 0.  1.
         23    2    1    2    0    0  0.59357872364E+02 -0.53120242710E+03 -0.39130784542E+03  0.66851704969E+03  0.89965772787E+02 0.  0.
        254    2    1    2    0    0 -0.59357872364E+02  0.53120242710E+03  0.85053690020E+03  0.13554487406E+04  0.91001587582E+03 0.  0.
         23    2    4    4    0    0 -0.39010439827E+03  0.13785445385E+03  0.68805407414E+03  0.80823830492E+03  0.92980947524E+02 0.  0.
         23    2    4    4    0    0  0.33074652590E+03  0.39334797325E+03  0.16248282607E+03  0.54721043569E+03  0.94460042915E+02 0.  0.
          1    1    3    3  502    0  0.73373297969E+02 -0.25213222321E+03 -0.18721885635E+03  0.32249837055E+03  0.00000000000E+00 0. -1.
         -1    1    3    3    0  502 -0.14015425606E+02 -0.27907020389E+03 -0.20408898906E+03  0.34601867914E+03  0.00000000000E+00 0.  1.
         11    1    5    5    0    0 -0.29330894392E+03  0.81697919681E+02  0.56565137050E+03  0.64239097099E+03  0.00000000000E+00 0. -1.
        -11    1    5    5    0    0 -0.96795454346E+02  0.56156534168E+02  0.12240270364E+03  0.16584733393E+03  0.00000000000E+00 0.  1.
          4    1    6    6  503    0  0.30064823707E+01  0.38928920478E+02  0.45771448533E+01  0.39312212363E+02  0.00000000000E+00 0. -1.
         -4    1    6    6    0  503  0.32774004353E+03  0.35441905277E+03  0.15790568121E+03  0.50789822333E+03  0.00000000000E+00 0.  1.
<mgrwt>
<rscale>  0 0.19711789E+04</rscale>
<asrwt>0</asrwt>
<pdfrwt beam="1">  1        2 0.19101499E+00 0.19711789E+04</pdfrwt>
<pdfrwt beam="2">  1       -2 0.12036436E+00 0.19711789E+04</pdfrwt>
<totfact> 0.87818712E+00</totfact>
</mgrwt>
</event>
<event>
12    2  0.3751044E-008  0.2169106E+04  0.7818608E-02  0.8531398E-01
         -3   -1    0    0    0  501 -0.00000000000E+00  0.00000000000E+00  0.11262567667E+04  0.11262567667E+04  0.00000000000E+00 0.  1.
          3   -1    0    0  501    0  0.00000000000E+00 -0.00000000000E+00 -0.10443937339E+04  0.10443937339E+04  0.00000000000E+00 0. -1.
         23    2    1    2    0    0 -0.55833595516E+03 -0.12990611382E+03 -0.65746861646E+03  0.87652259300E+03  0.86094350442E+02 0.  0.
        254    2    1    2    0    0  0.55833595516E+03  0.12990611382E+03  0.73933164927E+03  0.12941279076E+04  0.89417063044E+03 0.  0.
         23    2    4    4    0    0  0.68302321338E+03  0.20527466723E+03  0.22771336109E+03  0.75417207923E+03  0.90905177303E+02 0.  0.
         23    2    4    4    0    0 -0.12468725822E+03 -0.75368553400E+02  0.51161828819E+03  0.53995582835E+03  0.92583435670E+02 0.  0.
          4    1    3    3  502    0 -0.49267912225E+03 -0.11265048320E+03 -0.53150690046E+03  0.73343195601E+03  0.00000000000E+00 0. -1.
         -4    1    3    3    0  502 -0.65656832915E+02 -0.17255630629E+02 -0.12596171600E+03  0.14309063699E+03  0.00000000000E+00 0.  1.
         11    1    5    5    0    0  0.64339263301E+03  0.21461091268E+03  0.21596671141E+03  0.71179599921E+03  0.00000000000E+00 0.  1.
        -11    1    5    5    0    0  0.39630580365E+02 -0.93362454573E+01  0.11746649673E+02  0.42376080019E+02  0.00000000000E+00 0. -1.
          2    1    6    6  503    0  0.12813050857E+02  0.18200668442E+01  0.21481942949E+02  0.25079090663E+02  0.00000000000E+00 0. -1.
         -2    1    6    6    0  503 -0.13750030907E+03 -0.77188620244E+02  0.49013634524E+03  0.51487673769E+03  0.00000000000E+00 0.  1.
<mgrwt>
<rscale>  0 0.21691063E+04</rscale>
<asrwt>0</asrwt>
<pdfrwt beam="1">  1        3 0.16067596E+00 0.21691063E+04</pdfrwt>
<pdfrwt beam="2">  1       -3 0.17327027E+00 0.21691063E+04</pdfrwt>
<totfact> 0.14190807E-01</totfact>
</mgrwt>
</event>
<event>
12    2  0.4677335E-008  0.2014152E+04  0.7818608E-02  0.8600033E-01
          1   -1    0    0  501    0  0.00000000000E+00  0.00000000000E+00  0.21977564183E+04  0.21977564183E+04  0.00000000000E+00 0. -1.
         -1   -1    0    0    0  501 -0.00000000000E+00 -0.00000000000E+00 -0.46147137257E+03  0.46147137257E+03  0.00000000000E+00 0.  1.
         23    2    1    2    0    0 -0.47948943857E+03 -0.47780182880E+02  0.15444043299E+04  0.16204201361E+04  0.91562086808E+02 0.  0.
        254    2    1    2    0    0  0.47948943857E+03  0.47780182880E+02  0.19188071580E+03  0.10388076547E+04  0.90006114617E+03 0.  0.
         23    2    4    4    0    0 -0.16361900599E+03  0.26248231668E+03 -0.19927313541E+02  0.32275270238E+03  0.90022571504E+02 0.  0.
         23    2    4    4    0    0  0.64310844456E+03 -0.21470213380E+03  0.21180802934E+03  0.71605495234E+03  0.90479698044E+02 0.  0.
          3    1    3    3  502    0 -0.47568304683E+03 -0.49808037619E+02  0.15436423153E+04  0.16160404696E+04  0.00000000000E+00 0. -1.
         -3    1    3    3    0  502 -0.38063917394E+01  0.20278547394E+01  0.76201459690E+00  0.43796665585E+01  0.00000000000E+00 0.  1.
         11    1    5    5    0    0 -0.14535433589E+03  0.21859898516E+03 -0.48980867377E+02  0.26704405001E+03  0.00000000000E+00 0. -1.
        -11    1    5    5    0    0 -0.18264670098E+02  0.43883331519E+02  0.29053553835E+02  0.55708652375E+02  0.00000000000E+00 0.  1.
          3    1    6    6  503    0  0.60742156378E+03 -0.21257536116E+03  0.21861404385E+03  0.67966266669E+03  0.00000000000E+00 0. -1.
         -3    1    6    6    0  503  0.35686880777E+02 -0.21267726347E+01 -0.68060145121E+01  0.36392285652E+02  0.00000000000E+00 0.  1.
<mgrwt>
<rscale>  0 0.20141516E+04</rscale>
<asrwt>0</asrwt>
<pdfrwt beam="1">  1        1 0.33811637E+00 0.20141516E+04</pdfrwt>
<pdfrwt beam="2">  1       -1 0.70995597E-01 0.20141516E+04</pdfrwt>
<totfact> 0.40595387E+00</totfact>
</mgrwt>
</event>
<event>
12    2  0.3751044E-008  0.1449678E+04  0.7818608E-02  0.8918624E-01
          2   -1    0    0  501    0  0.00000000000E+00  0.00000000000E+00  0.33336771748E+04  0.33336771748E+04  0.00000000000E+00 0. -1.
         -2   -1    0    0    0  501 -0.00000000000E+00 -0.00000000000E+00 -0.15760112366E+03  0.15760112366E+03  0.00000000000E+00 0.  1.
         23    2    1    2    0    0  0.22881382818E+02 -0.31790837346E+03  0.25732709157E+03  0.41962533683E+03  0.90988458964E+02 0.  0.
        254    2    1    2    0    0 -0.22881382818E+02  0.31790837346E+03  0.29187489595E+04  0.30716529616E+04  0.90242292527E+03 0.  0.
         23    2    4    4    0    0  0.12273671762E+03  0.39497430355E+03  0.54374720525E+03  0.68924749488E+03  0.91280247899E+02 0.  0.
         23    2    4    4    0    0 -0.14561810043E+03 -0.77065930093E+02  0.23750017543E+04  0.23824054667E+04  0.89881512139E+02 0.  0.
          4    1    3    3  502    0  0.30788111074E+02 -0.31678260085E+03  0.23419586011E+03  0.39515417862E+03  0.00000000000E+00 0.  1.
         -4    1    3    3    0  502 -0.79067282557E+01 -0.11257726017E+01  0.23131231453E+02  0.24471158211E+02  0.00000000000E+00 0. -1.
         11    1    5    5    0    0 -0.10448152847E+02  0.58508963597E+01  0.20054489680E+02  0.23357642057E+02  0.00000000000E+00 0. -1.
        -11    1    5    5    0    0  0.13318487046E+03  0.38912340719E+03  0.52369271557E+03  0.66588985282E+03  0.00000000000E+00 0.  1.
          4    1    6    6  503    0 -0.13054853285E+03 -0.26121792453E+02  0.18219623519E+04  0.18268202099E+04  0.00000000000E+00 0. -1.
         -4    1    6    6    0  503 -0.15069567581E+02 -0.50944137640E+02  0.55303940237E+03  0.55558525682E+03  0.00000000000E+00 0.  1.
<mgrwt>
<rscale>  0 0.14496776E+04</rscale>
<asrwt>0</asrwt>
<pdfrwt beam="1">  1        2 0.51287336E+00 0.14496776E+04</pdfrwt>
<pdfrwt beam="2">  1       -2 0.24246329E-01 0.14496776E+04</pdfrwt>
<totfact> 0.15752681E+01</totfact>
</mgrwt>
</event>
<event>
12    2  0.3751044E-008  0.1298437E+04  0.7818608E-02  0.9030805E-01
         -2   -1    0    0    0  501 -0.00000000000E+00  0.00000000000E+00  0.29326918568E+03  0.29326918568E+03  0.00000000000E+00 0.  1.
          2   -1    0    0  501    0  0.00000000000E+00 -0.00000000000E+00 -0.14371947053E+04  0.14371947053E+04  0.00000000000E+00 0. -1.
         23    2    1    2    0    0 -0.73908201827E+02  0.29241865545E+03 -0.12263339491E+03  0.33804942038E+03  0.90925072004E+02 0.  0.
        254    2    1    2    0    0  0.73908201827E+02 -0.29241865545E+03 -0.10212921247E+04  0.13924144706E+04  0.89711167733E+03 0.  0.
         23    2    4    4    0    0 -0.12613761986E+03 -0.78677729087E+02 -0.10679422417E+04  0.10822623852E+04  0.93222071485E+02 0.  0.
         23    2    4    4    0    0  0.20004582169E+03 -0.21374092636E+03  0.46650117050E+02  0.31015208535E+03  0.91184254403E+02 0.  0.
          1    1    3    3  502    0 -0.24521631814E+02  0.77703222131E+02  0.80635322402E+01  0.81878701190E+02  0.00000000000E+00 0. -1.
         -1    1    3    3    0  502 -0.49386570013E+02  0.21471543332E+03 -0.13069692715E+03  0.25617071919E+03  0.00000000000E+00 0.  1.
         11    1    5    5    0    0 -0.18901030178E+02 -0.41009355907E+02 -0.55716975553E+03  0.55899655875E+03  0.00000000000E+00 0. -1.
        -11    1    5    5    0    0 -0.10723658968E+03 -0.37668373180E+02 -0.51077248620E+03  0.52326582648E+03  0.00000000000E+00 0.  1.
          1    1    6    6  503    0  0.54816281852E+00 -0.19435954137E+02 -0.15441406416E+02  0.24829293743E+02  0.00000000000E+00 0. -1.
         -1    1    6    6    0  503  0.19949765887E+03 -0.19430497222E+03  0.62091523465E+02  0.28532279161E+03  0.00000000000E+00 0.  1.
<mgrwt>
<rscale>  0 0.12984374E+04</rscale>
<asrwt>0</asrwt>
<pdfrwt beam="1">  1        2 0.22110688E+00 0.12984374E+04</pdfrwt>
<pdfrwt beam="2">  1       -2 0.45118335E-01 0.12984374E+04</pdfrwt>
<totfact> 0.62903788E+01</totfact>
</mgrwt>
</event>
<event>
12    2  0.3751044E-008  0.1124959E+04  0.7818608E-02  0.9181200E-01
         -1   -1    0    0    0  501 -0.00000000000E+00  0.00000000000E+00  0.47944405241E+03  0.47944405241E+03  0.00000000000E+00 0.  1.
          1   -1    0    0  501    0  0.00000000000E+00 -0.00000000000E+00 -0.65989651480E+03  0.65989651480E+03  0.00000000000E+00 0. -1.
         23    2    1    2    0    0 -0.43187310712E+02  0.88077716938E+02 -0.13853892867E+03  0.19247467408E+03  0.90722860291E+02 0.  0.
        254    2    1    2    0    0  0.43187310712E+02 -0.88077716938E+02 -0.41913533721E+02  0.94686589313E+03  0.94083763065E+03 0.  0.
         23    2    4    4    0    0 -0.15551952364E+03  0.34877310176E+03 -0.18953364395E+03  0.43644412757E+03  0.93442364867E+02 0.  0.
         23    2    4    4    0    0  0.19870683436E+03 -0.43685081870E+03  0.14762011023E+03  0.51042176556E+03  0.91736786504E+02 0.  0.
          4    1    3    3  502    0 -0.64617940942E+02  0.64066836198E+02 -0.13086000958E+03  0.15938751488E+03  0.00000000000E+00 0. -1.
         -4    1    3    3    0  502  0.21430630230E+02  0.24010880740E+02 -0.76789190912E+01  0.33087159207E+02  0.00000000000E+00 0.  1.
         11    1    5    5    0    0 -0.95261614829E+02  0.29411370550E+03 -0.12877195810E+03  0.33490276830E+03  0.00000000000E+00 0. -1.
        -11    1    5    5    0    0 -0.60257908815E+02  0.54659396264E+02 -0.60761685850E+02  0.10154135927E+03  0.00000000000E+00 0.  1.
          3    1    6    6  503    0  0.47532810993E+02 -0.20894053690E+03  0.50032371758E+02  0.22004261929E+03  0.00000000000E+00 0. -1.
         -3    1    6    6    0  503  0.15117402336E+03 -0.22791028180E+03  0.97587738470E+02  0.29037914627E+03  0.00000000000E+00 0.  1.
<mgrwt>
<rscale>  0 0.11249595E+04</rscale>
<asrwt>0</asrwt>
<pdfrwt beam="1">  1        1 0.10152254E+00 0.11249595E+04</pdfrwt>
<pdfrwt beam="2">  1       -1 0.73760623E-01 0.11249595E+04</pdfrwt>
<totfact> 0.54869673E+01</totfact>
</mgrwt>
</event>
<event>
12    2  0.3751044E-008  0.1493123E+04  0.7818608E-02  0.8889039E-01
         -2   -1    0    0    0  501 -0.00000000000E+00  0.00000000000E+00  0.37614492389E+03  0.37614492389E+03  0.00000000000E+00 0.  1.
          2   -1    0    0  501    0  0.00000000000E+00 -0.00000000000E+00 -0.14817540423E+04  0.14817540423E+04  0.00000000000E+00 0. -1.
         23    2    1    2    0    0  0.38881204366E+03 -0.90118761931E+02 -0.43077788616E+02  0.41183486728E+03  0.91956867548E+02 0.  0.
        254    2    1    2    0    0 -0.38881204366E+03  0.90118761931E+02 -0.10625313297E+04  0.14460640989E+04  0.89600912649E+03 0.  0.
         23    2    4    4    0    0 -0.20543626348E+03 -0.71869610762E+02 -0.11475172420E+04  0.11715321530E+04  0.91227547832E+02 0.  0.
         23    2    4    4    0    0 -0.18337578018E+03  0.16198837269E+03  0.84985912270E+02  0.27453194586E+03  0.90985022759E+02 0.  0.
          4    1    3    3  502    0  0.37700131785E+03 -0.66889765340E+02 -0.34683129789E+02  0.38445695970E+03  0.00000000000E+00 0.  1.
         -4    1    3    3    0  502  0.11810725809E+02 -0.23228996591E+02 -0.83946588272E+01  0.27377907582E+02  0.00000000000E+00 0. -1.
         11    1    5    5    0    0 -0.20702352550E+03 -0.78216169096E+02 -0.11411213000E+04  0.11623830395E+04  0.00000000000E+00 0.  1.
        -11    1    5    5    0    0  0.15872620202E+01  0.63465583337E+01 -0.63959420104E+01  0.91491134874E+01  0.00000000000E+00 0. -1.
          3    1    6    6  503    0  0.91174790842E+01  0.16466232676E+02  0.12408872567E+02  0.22544297766E+02  0.00000000000E+00 0. -1.
         -3    1    6    6    0  503 -0.19249325927E+03  0.14552214002E+03  0.72577039703E+02  0.25198764809E+03  0.00000000000E+00 0.  1.
<mgrwt>
<rscale>  0 0.14931233E+04</rscale>
<asrwt>0</asrwt>
<pdfrwt beam="1">  1        2 0.22796216E+00 0.14931233E+04</pdfrwt>
<pdfrwt beam="2">  1       -2 0.57868449E-01 0.14931233E+04</pdfrwt>
<totfact> 0.35121160E+01</totfact>
</mgrwt>
</event>
<event>
12    2  0.3751044E-008  0.1671622E+04  0.7818608E-02  0.8777717E-01
         -2   -1    0    0    0  501 -0.00000000000E+00  0.00000000000E+00  0.10269668953E+04  0.10269668953E+04  0.00000000000E+00 0.  1.
          2   -1    0    0  501    0  0.00000000000E+00 -0.00000000000E+00 -0.68023600520E+03  0.68023600520E+03  0.00000000000E+00 0. -1.
         23    2    1    2    0    0 -0.39142660895E+03  0.19747124753E+03  0.52568308462E+03  0.69050889681E+03  0.90830321646E+02 0.  0.
        254    2    1    2    0    0  0.39142660895E+03 -0.19747124753E+03 -0.17895219447E+03  0.10166940037E+04  0.89968501461E+03 0.  0.
         23    2    4    4    0    0 -0.15744338424E+03 -0.14479154572E+03 -0.36062148369E+03  0.42900105360E+03  0.90780165978E+02 0.  0.
         23    2    4    4    0    0  0.54886999319E+03 -0.52679701812E+02  0.18166928922E+03  0.58769295012E+03  0.91355637874E+02 0.  0.
          2    1    3    3  502    0 -0.14503275660E+02  0.13567423688E+02  0.62901126649E+02  0.65961896002E+02  0.00000000000E+00 0. -1.
         -2    1    3    3    0  502 -0.37692333329E+03  0.18390382385E+03  0.46278195797E+03  0.62454700081E+03  0.00000000000E+00 0.  1.
         11    1    5    5    0    0 -0.19292308240E+02 -0.24257805274E+02 -0.87110393800E+01  0.32194976022E+02  0.00000000000E+00 0. -1.
        -11    1    5    5    0    0 -0.13815107600E+03 -0.12053374045E+03 -0.35191044431E+03  0.39680607758E+03  0.00000000000E+00 0.  1.
          3    1    6    6  503    0  0.33234110724E+03 -0.76138687276E+02  0.11774157144E+03  0.36070873140E+03  0.00000000000E+00 0. -1.
         -3    1    6    6    0  503  0.21652888595E+03  0.23458985464E+02  0.63927717785E+02  0.22698421873E+03  0.00000000000E+00 0.  1.
<mgrwt>
<rscale>  0 0.16716218E+04</rscale>
<asrwt>0</asrwt>
<pdfrwt beam="1">  1        2 0.10465169E+00 0.16716218E+04</pdfrwt>
<pdfrwt beam="2">  1       -2 0.15799491E+00 0.16716218E+04</pdfrwt>
<totfact> 0.10553966E+01</totfact>
</mgrwt>
</event>
<event>
12    2  0.3751044E-008  0.1476193E+04  0.7818608E-02  0.8900440E-01
         -2   -1    0    0    0  501 -0.00000000000E+00  0.00000000000E+00  0.67829385507E+03  0.67829385507E+03  0.00000000000E+00 0.  1.
          2   -1    0    0  501    0  0.00000000000E+00 -0.00000000000E+00 -0.80317219309E+03  0.80317219309E+03  0.00000000000E+00 0. -1.
         23    2    1    2    0    0 -0.24905210540E+03  0.38247312274E+03  0.21777600799E+02  0.46556641144E+03  0.89247850072E+02 0.  0.
        254    2    1    2    0    0  0.24905210540E+03 -0.38247312274E+03 -0.14665593883E+03  0.10158996367E+04  0.89567375012E+03 0.  0.
         23    2    4    4    0    0 -0.17077249659E+03 -0.49574811697E+03 -0.19877514781E+03  0.56821845567E+03  0.91821636392E+02 0.  0.
         23    2    4    4    0    0  0.41982460199E+03  0.11327499422E+03  0.52119208984E+02  0.44768118105E+03  0.92833760912E+02 0.  0.
          3    1    3    3  502    0 -0.12485694304E+03  0.20404521468E+03  0.55505173776E+02  0.24556980714E+03  0.00000000000E+00 0. -1.
         -3    1    3    3    0  502 -0.12419516236E+03  0.17842790806E+03 -0.33727572977E+02  0.21999660431E+03  0.00000000000E+00 0.  1.
         11    1    5    5    0    0 -0.12750585615E+02 -0.11726377842E+03 -0.75085384559E+02  0.13982555609E+03  0.00000000000E+00 0. -1.
        -11    1    5    5    0    0 -0.15802191097E+03 -0.37848433855E+03 -0.12368976325E+03  0.42839289958E+03  0.00000000000E+00 0.  1.
          4    1    6    6  503    0  0.27438719116E+02  0.16167282880E+02  0.28550159874E+02  0.42771204931E+02  0.00000000000E+00 0. -1.
         -4    1    6    6    0  503  0.39238588288E+03  0.97107711342E+02  0.23569049111E+02  0.40490997612E+03  0.00000000000E+00 0.  1.
<mgrwt>
<rscale>  0 0.14761934E+04</rscale>
<asrwt>0</asrwt>
<pdfrwt beam="1">  1        2 0.12356495E+00 0.14761934E+04</pdfrwt>
<pdfrwt beam="2">  1       -2 0.10435290E+00 0.14761934E+04</pdfrwt>
<totfact> 0.24747841E+01</totfact>
</mgrwt>
</event>
<event>
12    2  0.3751044E-008  0.1682405E+04  0.7818608E-02  0.8771464E-01
          1   -1    0    0  501    0  0.00000000000E+00  0.00000000000E+00  0.35180118185E+04  0.35180118185E+04  0.00000000000E+00 0. -1.
         -1   -1    0    0    0  501 -0.00000000000E+00 -0.00000000000E+00 -0.20114239814E+03  0.20114239814E+03  0.00000000000E+00 0.  1.
         23    2    1    2    0    0 -0.41296855388E+03  0.38742759876E+03  0.78298756135E+03  0.97063211357E+03  0.91727901385E+02 0.  0.
        254    2    1    2    0    0  0.41296855388E+03 -0.38742759876E+03  0.25338818591E+04  0.27485221031E+04  0.90176122390E+03 0.  0.
         23    2    4    4    0    0  0.40102788347E+03  0.18071343898E+03  0.74403680254E+03  0.86840496641E+03  0.83998284555E+02 0.  0.
         23    2    4    4    0    0  0.11940670406E+02 -0.56814103773E+03  0.17898450565E+04  0.18801171367E+04  0.91478429343E+02 0.  0.
          1    1    3    3  502    0 -0.41658594734E+02  0.38674606061E+02  0.13428234506E+03  0.14581807797E+03  0.00000000000E+00 0. -1.
         -1    1    3    3    0  502 -0.37130995915E+03  0.34875299270E+03  0.64870521629E+03  0.82481403560E+03  0.00000000000E+00 0.  1.
         11    1    5    5    0    0  0.23042364408E+03  0.60162287785E+02  0.42161952389E+03  0.48422885039E+03  0.00000000000E+00 0. -1.
        -11    1    5    5    0    0  0.17060423939E+03  0.12055115119E+03  0.32241727865E+03  0.38417611602E+03  0.00000000000E+00 0.  1.
          3    1    6    6  503    0  0.39479052721E+01 -0.47565665848E+02  0.25344909171E+03  0.25790409189E+03  0.00000000000E+00 0. -1.
         -3    1    6    6    0  503  0.79927651342E+01 -0.52057537189E+03  0.15363959648E+04  0.16222130448E+04  0.00000000000E+00 0.  1.
<mgrwt>
<rscale>  0 0.16824046E+04</rscale>
<asrwt>0</asrwt>
<pdfrwt beam="1">  1        1 0.54123254E+00 0.16824046E+04</pdfrwt>
<pdfrwt beam="2">  1       -1 0.30944987E-01 0.16824046E+04</pdfrwt>
<totfact> 0.22456317E+00</totfact>
</mgrwt>
</event>
<event>
12    2  0.3751044E-008  0.1909322E+04  0.7818608E-02  0.8650230E-01
         -2   -1    0    0    0  501 -0.00000000000E+00  0.00000000000E+00  0.69173627903E+03  0.69173627903E+03  0.00000000000E+00 0.  1.
          2   -1    0    0  501    0  0.00000000000E+00 -0.00000000000E+00 -0.13175222836E+04  0.13175222836E+04  0.00000000000E+00 0. -1.
         23    2    1    2    0    0 -0.22335238945E+03  0.55693021344E+03  0.20992785513E+03  0.64219320176E+03  0.91021159668E+02 0.  0.
        254    2    1    2    0    0  0.22335238945E+03 -0.55693021344E+03 -0.83571385974E+03  0.13670653609E+04  0.90021802532E+03 0.  0.
         23    2    4    4    0    0  0.55879494579E+03 -0.35168205841E+03 -0.61476838775E+03  0.90671784929E+03  0.90912188336E+02 0.  0.
         23    2    4    4    0    0 -0.33544255635E+03 -0.20524815503E+03 -0.22094547199E+03  0.46034751162E+03  0.91947898876E+02 0.  0.
          1    1    3    3  502    0 -0.96612163561E+02  0.28298777672E+03  0.59268878445E+02  0.30484224096E+03  0.00000000000E+00 0. -1.
         -1    1    3    3    0  502 -0.12674022588E+03  0.27394243672E+03  0.15065897669E+03  0.33735096079E+03  0.00000000000E+00 0.  1.
         11    1    5    5    0    0  0.40062511673E+03 -0.26281618896E+03 -0.38953350763E+03  0.61750237805E+03  0.00000000000E+00 0.  1.
        -11    1    5    5    0    0  0.15816982907E+03 -0.88865869453E+02 -0.22523488012E+03  0.28921547124E+03  0.00000000000E+00 0. -1.
          2    1    6    6  503    0 -0.13790621621E+03 -0.88702750543E+02 -0.41512344873E+02  0.16914365847E+03  0.00000000000E+00 0. -1.
         -2    1    6    6    0  503 -0.19753634013E+03 -0.11654540448E+03 -0.17943312711E+03  0.29120385314E+03  0.00000000000E+00 0.  1.
<mgrwt>
<rscale>  0 0.19093224E+04</rscale>
<asrwt>0</asrwt>
<pdfrwt beam="1">  1        2 0.20269573E+00 0.19093224E+04</pdfrwt>
<pdfrwt beam="2">  1       -2 0.10642097E+00 0.19093224E+04</pdfrwt>
<totfact> 0.10756628E+01</totfact>
</mgrwt>
</event>
<event>
12    2  0.3751044E-008  0.2498931E+04  0.7818608E-02  0.8403367E-01
         -2   -1    0    0    0  501 -0.00000000000E+00  0.00000000000E+00  0.18892605562E+04  0.18892605562E+04  0.00000000000E+00 0.  1.
          2   -1    0    0  501    0  0.00000000000E+00 -0.00000000000E+00 -0.82633585293E+03  0.82633585293E+03  0.00000000000E+00 0. -1.
         23    2    1    2    0    0  0.54277643185E+03  0.11125663283E+03 -0.55046688415E+03  0.78635350298E+03  0.91398839068E+02 0.  0.
        254    2    1    2    0    0 -0.54277643185E+03 -0.11125663283E+03  0.16133915874E+04  0.19292429062E+04  0.90108905401E+03 0.  0.
         23    2    4    4    0    0 -0.42102461411E+03 -0.48808274787E+03  0.99473493240E+03  0.11888172811E+04  0.91117768600E+02 0.  0.
         23    2    4    4    0    0 -0.12175181774E+03  0.37682611505E+03  0.61865665503E+03  0.74042562501E+03  0.93126920169E+02 0.  0.
          2    1    3    3  502    0  0.31190723878E+02 -0.12398281641E+02 -0.48956451766E+02  0.59357500059E+02  0.00000000000E+00 0.  1.
         -2    1    3    3    0  502  0.51158570797E+03  0.12365491447E+03 -0.50151043238E+03  0.72699600292E+03  0.00000000000E+00 0. -1.
         11    1    5    5    0    0 -0.20240490862E+03 -0.18714578155E+03  0.48383276590E+03  0.55685315474E+03  0.00000000000E+00 0.  1.
        -11    1    5    5    0    0 -0.21861970549E+03 -0.30093696632E+03  0.51090216650E+03  0.63196412640E+03  0.00000000000E+00 0. -1.
          1    1    6    6  503    0 -0.75861633823E+02  0.26517872091E+03  0.50074845737E+03  0.57168501735E+03  0.00000000000E+00 0. -1.
         -1    1    6    6    0  503 -0.45890183914E+02  0.11164739414E+03  0.11790819766E+03  0.16874060766E+03  0.00000000000E+00 0.  1.
<mgrwt>
<rscale>  0 0.24989308E+04</rscale>
<asrwt>0</asrwt>
<pdfrwt beam="1">  1        2 0.12712859E+00 0.24989308E+04</pdfrwt>
<pdfrwt beam="2">  1       -2 0.29065547E+00 0.24989308E+04</pdfrwt>
<totfact> 0.10666097E+00</totfact>
</mgrwt>
</event>
<event>
12    2  0.3751044E-008  0.1200123E+04  0.7818608E-02  0.9112749E-01
         -1   -1    0    0    0  501 -0.00000000000E+00  0.00000000000E+00  0.63155335144E+03  0.63155335144E+03  0.00000000000E+00 0.  1.
          1   -1    0    0  501    0  0.00000000000E+00 -0.00000000000E+00 -0.57014002798E+03  0.57014002798E+03  0.00000000000E+00 0. -1.
         23    2    1    2    0    0  0.36830083443E+02 -0.85381803643E+02 -0.20513640199E+03  0.24401840677E+03  0.93901714466E+02 0.  0.
        254    2    1    2    0    0 -0.36830083443E+02  0.85381803643E+02  0.26654972545E+03  0.95767497266E+03  0.91512080606E+03 0.  0.
         23    2    4    4    0    0 -0.37658678184E+02 -0.39724397936E+03  0.22013765225E+03  0.46434987037E+03  0.89102530802E+02 0.  0.
         23    2    4    4    0    0  0.82859474148E+00  0.48262578300E+03  0.46412073197E+02  0.49332510229E+03  0.91034295855E+02 0.  0.
          1    1    3    3  502    0  0.16766773362E+02 -0.69379204948E+02 -0.20633010705E+03  0.21832707538E+03  0.00000000000E+00 0. -1.
         -1    1    3    3    0  502  0.20063310081E+02 -0.16002598695E+02  0.11937050662E+01  0.25691331382E+02  0.00000000000E+00 0.  1.
         11    1    5    5    0    0 -0.46710444381E+02 -0.25202224402E+03  0.18066512360E+03  0.31358725098E+03  0.00000000000E+00 0.  1.
        -11    1    5    5    0    0  0.90517661969E+01 -0.14522173534E+03  0.39472528654E+02  0.15076261939E+03  0.00000000000E+00 0. -1.
          1    1    6    6  503    0 -0.29448307839E+02  0.66695750503E+02  0.19275024881E+02  0.75412549048E+02  0.00000000000E+00 0. -1.
         -1    1    6    6    0  503  0.30276902581E+02  0.41593003250E+03  0.27137048315E+02  0.41791255324E+03  0.00000000000E+00 0.  1.
<mgrwt>
<rscale>  0 0.12001231E+04</rscale>
<asrwt>0</asrwt>
<pdfrwt beam="1">  1        1 0.87713850E-01 0.12001231E+04</pdfrwt>
<pdfrwt beam="2">  1       -1 0.97162054E-01 0.12001231E+04</pdfrwt>
<totfact> 0.37145364E+01</totfact>
</mgrwt>
</event>
<event>
12    2  0.3751044E-008  0.1312035E+04  0.7818608E-02  0.9020075E-01
         -1   -1    0    0    0  501 -0.00000000000E+00  0.00000000000E+00  0.37896066913E+03  0.37896066913E+03  0.00000000000E+00 0.  1.
          1   -1    0    0  501    0  0.00000000000E+00 -0.00000000000E+00 -0.11356296426E+04  0.11356296426E+04  0.00000000000E+00 0. -1.
         23    2    1    2    0    0  0.27520960243E+03  0.18822445039E+03 -0.18919167279E+03  0.39439032171E+03  0.92636212236E+02 0.  0.
        254    2    1    2    0    0 -0.27520960243E+03 -0.18822445039E+03 -0.56747730070E+03  0.11201999900E+04  0.90644843311E+03 0.  0.
         23    2    4    4    0    0 -0.40929547451E+03  0.85755930626E+02 -0.66175868863E+03  0.78806180558E+03  0.90774348477E+02 0.  0.
         23    2    4    4    0    0  0.13408587209E+03 -0.27398038102E+03  0.94281387925E+02  0.33213818447E+03  0.91556120478E+02 0.  0.
          3    1    3    3  502    0  0.62281681446E+02  0.12450688830E+01 -0.41369649679E+02  0.74779716200E+02  0.00000000000E+00 0. -1.
         -3    1    3    3    0  502  0.21292792098E+03  0.18697938151E+03 -0.14782202311E+03  0.31961060551E+03  0.00000000000E+00 0.  1.
         11    1    5    5    0    0 -0.33843931282E+02 -0.12713065552E+02 -0.31928611883E+02  0.48233494349E+02  0.00000000000E+00 0.  1.
        -11    1    5    5    0    0 -0.37545154323E+03  0.98468996178E+02 -0.62983007675E+03  0.73982831123E+03  0.00000000000E+00 0. -1.
          3    1    6    6  503    0  0.14476945237E+03 -0.22726618488E+03  0.89711536278E+02  0.28400048041E+03  0.00000000000E+00 0. -1.
         -3    1    6    6    0  503 -0.10683580282E+02 -0.46714196135E+02  0.45698516469E+01  0.48137704061E+02  0.00000000000E+00 0.  1.
<mgrwt>
<rscale>  0 0.13120350E+04</rscale>
<asrwt>0</asrwt>
<pdfrwt beam="1">  1        1 0.17471225E+00 0.13120350E+04</pdfrwt>
<pdfrwt beam="2">  1       -1 0.58301642E-01 0.13120350E+04</pdfrwt>
<totfact> 0.34885467E+01</totfact>
</mgrwt>
</event>
<event>
12    2  0.3751044E-008  0.1531353E+04  0.7818608E-02  0.8863867E-01
          2   -1    0    0  501    0  0.00000000000E+00  0.00000000000E+00  0.13250218505E+04  0.13250218505E+04  0.00000000000E+00 0. -1.
         -2   -1    0    0    0  501 -0.00000000000E+00 -0.00000000000E+00 -0.44245328789E+03  0.44245328789E+03  0.00000000000E+00 0.  1.
         23    2    1    2    0    0 -0.43435588349E+03  0.50222311705E+02  0.35128214937E+02  0.44856399601E+03  0.93746215457E+02 0.  0.
        254    2    1    2    0    0  0.43435588349E+03 -0.50222311705E+02  0.84744034762E+03  0.13189111423E+04  0.91114441472E+03 0.  0.
         23    2    4    4    0    0  0.13949483677E+03 -0.54119678986E+02  0.97140552408E+03  0.98664637225E+03  0.86340155923E+02 0.  0.
         23    2    4    4    0    0  0.29486104673E+03  0.38973672807E+01 -0.12396517646E+03  0.33226477008E+03  0.89857031524E+02 0.  0.
          1    1    3    3  502    0 -0.36965091607E+03  0.13118164368E+02  0.10563092271E+02  0.37003441043E+03  0.00000000000E+00 0. -1.
         -1    1    3    3    0  502 -0.64704967427E+02  0.37104147337E+02  0.24565122666E+02  0.78529585578E+02  0.00000000000E+00 0.  1.
         11    1    5    5    0    0  0.14731414558E+03 -0.58454009280E+02  0.95404017769E+03  0.96711477568E+03  0.00000000000E+00 0.  1.
        -11    1    5    5    0    0 -0.78193088136E+01  0.43343302940E+01  0.17365346389E+02  0.19531596572E+02  0.00000000000E+00 0. -1.
          2    1    6    6  503    0  0.13087573504E+03  0.14226205348E+02 -0.94488337576E+01  0.13198531509E+03  0.00000000000E+00 0. -1.
         -2    1    6    6    0  503  0.16398531169E+03 -0.10328838068E+02 -0.11451634270E+03  0.20027945499E+03  0.00000000000E+00 0.  1.
<mgrwt>
<rscale>  0 0.15313527E+04</rscale>
<asrwt>0</asrwt>
<pdfrwt beam="1">  1        2 0.20384951E+00 0.15313527E+04</pdfrwt>
<pdfrwt beam="2">  1       -2 0.68069737E-01 0.15313527E+04</pdfrwt>
<totfact> 0.30444795E+01</totfact>
</mgrwt>
</event>
<event>
12    2  0.3751044E-008  0.2184937E+04  0.7818608E-02  0.8524724E-01
          2   -1    0    0  501    0  0.00000000000E+00  0.00000000000E+00  0.12256677468E+04  0.12256677468E+04  0.00000000000E+00 0. -1.
         -2   -1    0    0    0  501 -0.00000000000E+00 -0.00000000000E+00 -0.97374466547E+03  0.97374466547E+03  0.00000000000E+00 0.  1.
         23    2    1    2    0    0  0.13078633166E+03 -0.87913649421E+03  0.27696201788E+03  0.93457222018E+03  0.82044106347E+02 0.  0.
        254    2    1    2    0    0 -0.13078633166E+03  0.87913649421E+03 -0.25038936515E+02  0.12648401921E+04  0.89955973857E+03 0.  0.
         23    2    4    4    0    0  0.80310160615E+02 -0.62520333039E+02  0.22572983361E+03  0.26363156641E+03  0.90493817911E+02 0.  0.
         23    2    4    4    0    0 -0.21109649227E+03  0.94165682724E+03 -0.25076877013E+03  0.10012086257E+04  0.90853875998E+02 0.  0.
          4    1    3    3  502    0  0.24776373419E+02 -0.98504183879E+02  0.70398662089E+01  0.10181602348E+03  0.00000000000E+00 0. -1.
         -4    1    3    3    0  502  0.10600995824E+03 -0.78063231033E+03  0.26992215167E+03  0.83275619669E+03  0.00000000000E+00 0.  1.
         11    1    5    5    0    0  0.13086870372E+02 -0.33865017895E+01  0.13670971159E+03  0.13737641651E+03  0.00000000000E+00 0. -1.
        -11    1    5    5    0    0  0.67223290243E+02 -0.59133831250E+02  0.89020122024E+02  0.12625514989E+03  0.00000000000E+00 0.  1.
          3    1    6    6  503    0 -0.98909637333E+01  0.92283873516E+01 -0.11531129162E+02  0.17775298491E+02  0.00000000000E+00 0. -1.
         -3    1    6    6    0  503 -0.20120552854E+03  0.93242843989E+03 -0.23923764097E+03  0.98343332722E+03  0.00000000000E+00 0.  1.
<mgrwt>
<rscale>  0 0.21849370E+04</rscale>
<asrwt>0</asrwt>
<pdfrwt beam="1">  1        2 0.18856427E+00 0.21849370E+04</pdfrwt>
<pdfrwt beam="2">  1       -2 0.14980687E+00 0.21849370E+04</pdfrwt>
<totfact> 0.50313858E+00</totfact>
</mgrwt>
</event>
<event>
12    2  0.3751044E-008  0.2227632E+04  0.7818608E-02  0.8507014E-01
          1   -1    0    0  501    0  0.00000000000E+00  0.00000000000E+00  0.57841172545E+03  0.57841172545E+03  0.00000000000E+00 0. -1.
         -1   -1    0    0    0  501 -0.00000000000E+00 -0.00000000000E+00 -0.21448143816E+04  0.21448143816E+04  0.00000000000E+00 0.  1.
         23    2    1    2    0    0  0.52462093905E+03 -0.54558363421E+03 -0.13373163578E+04  0.15393492959E+04  0.91063617719E+02 0.  0.
        254    2    1    2    0    0 -0.52462093905E+03  0.54558363421E+03 -0.22908629835E+03  0.11838768111E+04  0.88101937557E+03 0.  0.
         23    2    4    4    0    0 -0.28910689132E+03 -0.25077091719E+02  0.25409729276E+03  0.39469827200E+03  0.83723572505E+02 0.  0.
         23    2    4    4    0    0 -0.23551404773E+03  0.57066072593E+03 -0.48318359111E+03  0.78917853909E+03  0.90641342890E+02 0.  0.
          1    1    3    3  502    0  0.14060069098E+03 -0.14563691631E+03 -0.44364810660E+03  0.48764978026E+03  0.00000000000E+00 0. -1.
         -1    1    3    3    0  502  0.38402024807E+03 -0.39994671790E+03 -0.89366825117E+03  0.10516995157E+04  0.00000000000E+00 0.  1.
         11    1    5    5    0    0 -0.24846685368E+03 -0.51093736352E+02  0.21730183847E+03  0.33401562280E+03  0.00000000000E+00 0. -1.
        -11    1    5    5    0    0 -0.40640037639E+02  0.26016644633E+02  0.36795454290E+02  0.60682649198E+02  0.00000000000E+00 0.  1.
          3    1    6    6  503    0 -0.13408278223E+03  0.36079909430E+03 -0.24698662210E+03  0.45733638652E+03  0.00000000000E+00 0. -1.
         -3    1    6    6    0  503 -0.10143126550E+03  0.20986163163E+03 -0.23619696901E+03  0.33184215257E+03  0.00000000000E+00 0.  1.
<mgrwt>
<rscale>  0 0.22276317E+04</rscale>
<asrwt>0</asrwt>
<pdfrwt beam="1">  1        1 0.88986418E-01 0.22276317E+04</pdfrwt>
<pdfrwt beam="2">  1       -1 0.32997145E+00 0.22276317E+04</pdfrwt>
<totfact> 0.69205758E-01</totfact>
</mgrwt>
</event>
<event>
12    2  0.3751044E-008  0.1736949E+04  0.7818608E-02  0.8740567E-01
         -1   -1    0    0    0  501 -0.00000000000E+00  0.00000000000E+00  0.89722024381E+03  0.89722024381E+03  0.00000000000E+00 0.  1.
          1   -1    0    0  501    0  0.00000000000E+00 -0.00000000000E+00 -0.84064946935E+03  0.84064946935E+03  0.00000000000E+00 0. -1.
         23    2    1    2    0    0  0.33019107674E+03  0.34566842643E+03  0.44562671262E+03  0.65991947375E+03  0.91639165451E+02 0.  0.
        254    2    1    2    0    0 -0.33019107674E+03 -0.34566842643E+03 -0.38905593816E+03  0.10779502394E+04  0.88436383203E+03 0.  0.
         23    2    4    4    0    0 -0.70877758000E+02  0.21688496928E+03  0.11711258377E+03  0.27291767706E+03  0.93305705591E+02 0.  0.
         23    2    4    4    0    0 -0.25931331874E+03 -0.56255339571E+03 -0.50616852193E+03  0.80503256234E+03  0.90338992340E+02 0.  0.
          4    1    3    3  502    0  0.48707353712E+02  0.46873860939E+02  0.24713195547E+02  0.71974350841E+02  0.00000000000E+00 0. -1.
         -4    1    3    3    0  502  0.28148372303E+03  0.29879456549E+03  0.42091351708E+03  0.58794512291E+03  0.00000000000E+00 0.  1.
         11    1    5    5    0    0 -0.26423038968E+02  0.84952374003E+02  0.98051953049E+02  0.13239814324E+03  0.00000000000E+00 0. -1.
        -11    1    5    5    0    0 -0.44454719032E+02  0.13193259528E+03  0.19060630716E+02  0.14051953382E+03  0.00000000000E+00 0.  1.
          3    1    6    6  503    0 -0.25796995032E+03 -0.56287271067E+03 -0.50922677040E+03  0.80167704681E+03  0.00000000000E+00 0. -1.
         -3    1    6    6    0  503 -0.13433684220E+01  0.31931495734E+00  0.30582484756E+01  0.33555155338E+01  0.00000000000E+00 0.  1.
<mgrwt>
<rscale>  0 0.17369487E+04</rscale>
<asrwt>0</asrwt>
<pdfrwt beam="1">  1        1 0.12933069E+00 0.17369487E+04</pdfrwt>
<pdfrwt beam="2">  1       -1 0.13803388E+00 0.17369487E+04</pdfrwt>
<totfact> 0.84169175E+00</totfact>
</mgrwt>
</event>
<event>
12    2  0.3751044E-008  0.3600926E+04  0.7818608E-02  0.8090280E-01
         -2   -1    0    0    0  501 -0.00000000000E+00  0.00000000000E+00  0.10399864042E+04  0.10399864042E+04  0.00000000000E+00 0.  1.
          2   -1    0    0  501    0  0.00000000000E+00 -0.00000000000E+00 -0.31170281747E+04  0.31170281747E+04  0.00000000000E+00 0. -1.
         23    2    1    2    0    0 -0.59657532313E+03  0.28502472815E+03 -0.27688535880E+04  0.28481807342E+04  0.91880850869E+02 0.  0.
        254    2    1    2    0    0  0.59657532313E+03 -0.28502472815E+03  0.69181181753E+03  0.13088338447E+04  0.89291725842E+03 0.  0.
         23    2    4    4    0    0  0.37556350026E+03 -0.48176790004E+03  0.77150780216E+03  0.98835531415E+03  0.92052626114E+02 0.  0.
         23    2    4    4    0    0  0.22101182286E+03  0.19674317189E+03 -0.79695984633E+02  0.32047853056E+03  0.93813309583E+02 0.  0.
          4    1    3    3  502    0 -0.45086814337E+03  0.21363901742E+03 -0.22451592116E+04  0.22999268680E+04  0.00000000000E+00 0. -1.
         -4    1    3    3    0  502 -0.14570717976E+03  0.71385710732E+02 -0.52369437642E+03  0.54825386622E+03  0.00000000000E+00 0.  1.
         11    1    5    5    0    0  0.11984808485E+03 -0.13308652358E+03  0.16518129699E+03  0.24363999482E+03  0.00000000000E+00 0.  1.
        -11    1    5    5    0    0  0.25571541541E+03 -0.34868137646E+03  0.60632650518E+03  0.74471531933E+03  0.00000000000E+00 0. -1.
          3    1    6    6  503    0  0.21692659635E+03  0.16999901677E+03 -0.92279073919E+02  0.29064108689E+03  0.00000000000E+00 0. -1.
         -3    1    6    6    0  503  0.40852265105E+01  0.26744155120E+02  0.12583089286E+02  0.29837443669E+02  0.00000000000E+00 0.  1.
<mgrwt>
<rscale>  0 0.36009259E+04</rscale>
<asrwt>0</asrwt>
<pdfrwt beam="1">  1        2 0.47954279E+00 0.36009259E+04</pdfrwt>
<pdfrwt beam="2">  1       -2 0.15999791E+00 0.36009259E+04</pdfrwt>
<totfact> 0.30099906E-01</totfact>
</mgrwt>
</event>
<event>
12    2  0.3751044E-008  0.1772788E+04  0.7818608E-02  0.8720906E-01
          1   -1    0    0  501    0  0.00000000000E+00  0.00000000000E+00  0.22275376318E+04  0.22275376318E+04  0.00000000000E+00 0. -1.
         -1   -1    0    0    0  501 -0.00000000000E+00 -0.00000000000E+00 -0.35271866983E+03  0.35271866983E+03  0.00000000000E+00 0.  1.
         23    2    1    2    0    0 -0.29834024828E+01  0.15684746451E+03  0.16336676559E+04  0.16437451815E+04  0.91750661665E+02 0.  0.
        254    2    1    2    0    0  0.29834024828E+01 -0.15684746451E+03  0.24115130602E+03  0.93651112009E+03  0.89122898171E+03 0.  0.
         23    2    4    4    0    0 -0.84689250627E+02  0.35417368431E+03  0.13883728884E+03  0.40051559196E+03  0.92334602366E+02 0.  0.
         23    2    4    4    0    0  0.87672653110E+02 -0.51102114882E+03  0.10231401718E+03  0.53599552813E+03  0.89408833022E+02 0.  0.
          1    1    3    3  502    0  0.10578594883E+02  0.12121988419E+03  0.79947404126E+03  0.80868096901E+03  0.00000000000E+00 0. -1.
         -1    1    3    3    0  502 -0.13561997366E+02  0.35627580320E+02  0.83419361468E+03  0.83506421252E+03  0.00000000000E+00 0.  1.
         11    1    5    5    0    0 -0.15206630220E+02  0.14431494906E+03  0.11900744700E+02  0.14560107778E+03  0.00000000000E+00 0.  1.
        -11    1    5    5    0    0 -0.69482620407E+02  0.20985873525E+03  0.12693654414E+03  0.25491451418E+03  0.00000000000E+00 0. -1.
          3    1    6    6  503    0  0.22110288706E+02 -0.15809787873E+03 -0.97896594486E+01  0.15993636721E+03  0.00000000000E+00 0. -1.
         -3    1    6    6    0  503  0.65562364404E+02 -0.35292327009E+03  0.11210367663E+03  0.37605916092E+03  0.00000000000E+00 0.  1.
<mgrwt>
<rscale>  0 0.17727878E+04</rscale>
<asrwt>0</asrwt>
<pdfrwt beam="1">  1        1 0.34269809E+00 0.17727878E+04</pdfrwt>
<pdfrwt beam="2">  1       -1 0.54264412E-01 0.17727878E+04</pdfrwt>
<totfact> 0.67705193E+00</totfact>
</mgrwt>
</event>
<event>
12    2  0.3751044E-008  0.1140281E+04  0.7818608E-02  0.9166797E-01
         -2   -1    0    0    0  501 -0.00000000000E+00  0.00000000000E+00  0.11845481216E+03  0.11845481216E+03  0.00000000000E+00 0.  1.
          2   -1    0    0  501    0  0.00000000000E+00 -0.00000000000E+00 -0.27441717440E+04  0.27441717440E+04  0.00000000000E+00 0. -1.
         23    2    1    2    0    0 -0.16820593002E+03 -0.63111039841E+01 -0.24698583765E+03  0.31254923531E+03  0.91389034163E+02 0.  0.
        254    2    1    2    0    0  0.16820593002E+03  0.63111039841E+01 -0.23787310942E+04  0.25500773209E+04  0.90343768959E+03 0.  0.
         23    2    4    4    0    0  0.17438959957E+03 -0.38232220249E+03 -0.17709506313E+04  0.18225795541E+04  0.94594364073E+02 0.  0.
         23    2    4    4    0    0 -0.61836695473E+01  0.38863330648E+03 -0.60778046290E+03  0.72749776673E+03  0.93711391180E+02 0.  0.
          1    1    3    3  502    0 -0.17750787237E+03 -0.12215843995E+02 -0.24221351203E+03  0.30054227159E+03  0.00000000000E+00 0. -1.
         -1    1    3    3    0  502  0.93019423483E+01  0.59047400114E+01 -0.47723256116E+01  0.12006963721E+02  0.00000000000E+00 0.  1.
         11    1    5    5    0    0  0.10023774160E+02 -0.71551295399E+02 -0.44437709288E+03  0.45021224394E+03  0.00000000000E+00 0. -1.
        -11    1    5    5    0    0  0.16436582541E+03 -0.31077090709E+03 -0.13265735384E+04  0.13723673102E+04  0.00000000000E+00 0.  1.
          3    1    6    6  503    0  0.38711909630E+02  0.27108332137E+03 -0.42573654053E+03  0.50619796622E+03  0.00000000000E+00 0. -1.
         -3    1    6    6    0  503 -0.44895579178E+02  0.11754998511E+03 -0.18204392238E+03  0.22129980051E+03  0.00000000000E+00 0.  1.
<mgrwt>
<rscale>  0 0.11402813E+04</rscale>
<asrwt>0</asrwt>
<pdfrwt beam="1">  1        2 0.42218027E+00 0.11402813E+04</pdfrwt>
<pdfrwt beam="2">  1       -2 0.18223817E-01 0.11402813E+04</pdfrwt>
<totfact> 0.62979638E+01</totfact>
</mgrwt>
</event>
<event>
12    2  0.3751044E-008  0.1434373E+04  0.7818608E-02  0.8929307E-01
          1   -1    0    0  501    0  0.00000000000E+00  0.00000000000E+00  0.59578634154E+03  0.59578634154E+03  0.00000000000E+00 0. -1.
         -1   -1    0    0    0  501 -0.00000000000E+00 -0.00000000000E+00 -0.86332328811E+03  0.86332328811E+03  0.00000000000E+00 0.  1.
         23    2    1    2    0    0 -0.28926155424E+03 -0.11092076255E+03 -0.39765616493E+03  0.51286386900E+03  0.94463010163E+02 0.  0.
        254    2    1    2    0    0  0.28926155424E+03  0.11092076255E+03  0.13011921837E+03  0.94624576065E+03  0.88457581147E+03 0.  0.
         23    2    4    4    0    0  0.35851947541E+03 -0.54984796562E+02  0.43952481321E+03  0.57698422176E+03  0.90383563929E+02 0.  0.
         23    2    4    4    0    0 -0.69257921175E+02  0.16590555911E+03 -0.30940559484E+03  0.36926153889E+03  0.91109537349E+02 0.  0.
          4    1    3    3  502    0 -0.18716826679E+03 -0.11785277553E+03 -0.28312515297E+03  0.35927856746E+03  0.00000000000E+00 0.  1.
         -4    1    3    3    0  502 -0.10209328745E+03  0.69320129856E+01 -0.11453101196E+03  0.15358530153E+03  0.00000000000E+00 0. -1.
         11    1    5    5    0    0  0.42117813504E+01  0.90040768042E+01  0.30462763579E+02  0.32043602577E+02  0.00000000000E+00 0. -1.
        -11    1    5    5    0    0  0.35430769406E+03 -0.63988873366E+02  0.40906204963E+03  0.54494061918E+03  0.00000000000E+00 0.  1.
          4    1    6    6  503    0 -0.14935265934E+02 -0.21357770513E+01 -0.70910488697E+02  0.72497731822E+02  0.00000000000E+00 0. -1.
         -4    1    6    6    0  503 -0.54322655241E+02  0.16804133616E+03 -0.23849510615E+03  0.29676380707E+03  0.00000000000E+00 0.  1.
<mgrwt>
<rscale>  0 0.14343726E+04</rscale>
<asrwt>0</asrwt>
<pdfrwt beam="1">  1        1 0.91659437E-01 0.14343726E+04</pdfrwt>
<pdfrwt beam="2">  1       -1 0.13281897E+00 0.14343726E+04</pdfrwt>
<totfact> 0.16162144E+01</totfact>
</mgrwt>
</event>
<event>
12    2  0.3751044E-008  0.1308830E+04  0.7818608E-02  0.9022592E-01
          2   -1    0    0  501    0  0.00000000000E+00  0.00000000000E+00  0.96847778256E+03  0.96847778256E+03  0.00000000000E+00 0. -1.
         -2   -1    0    0    0  501 -0.00000000000E+00 -0.00000000000E+00 -0.44219834729E+03  0.44219834729E+03  0.00000000000E+00 0.  1.
         23    2    1    2    0    0  0.49376521191E+01  0.11392272532E+03 -0.19550561926E+03  0.24265481163E+03  0.87499386813E+02 0.  0.
        254    2    1    2    0    0 -0.49376521191E+01 -0.11392272532E+03  0.72178505454E+03  0.11680213182E+04  0.91120654470E+03 0.  0.
         23    2    4    4    0    0 -0.21830746888E+03  0.23362760787E+03  0.66912878177E+03  0.74712394689E+03  0.90668932343E+02 0.  0.
         23    2    4    4    0    0  0.21336981676E+03 -0.34755033319E+03  0.52656272767E+02  0.42089737133E+03  0.89799784674E+02 0.  0.
          1    1    3    3  502    0  0.32768550945E+02  0.84439567069E+02 -0.82200195647E+02  0.12231390184E+03  0.00000000000E+00 0. -1.
         -1    1    3    3    0  502 -0.27830898825E+02  0.29483158247E+02 -0.11330542362E+03  0.12034090980E+03  0.00000000000E+00 0.  1.
         11    1    5    5    0    0 -0.18551875518E+03  0.23503661781E+03  0.60848855371E+03  0.67817235290E+03  0.00000000000E+00 0. -1.
        -11    1    5    5    0    0 -0.32788713698E+02 -0.14090099381E+01  0.60640228058E+02  0.68951593991E+02  0.00000000000E+00 0.  1.
          2    1    6    6  503    0  0.13074926698E+03 -0.27894482010E+03  0.57540695995E+02  0.31339514223E+03  0.00000000000E+00 0. -1.
         -2    1    6    6    0  503  0.82620549776E+02 -0.68605513089E+02 -0.48844232281E+01  0.10750222910E+03  0.00000000000E+00 0.  1.
<mgrwt>
<rscale>  0 0.13088304E+04</rscale>
<asrwt>0</asrwt>
<pdfrwt beam="1">  1        2 0.14899658E+00 0.13088304E+04</pdfrwt>
<pdfrwt beam="2">  1       -2 0.68030515E-01 0.13088304E+04</pdfrwt>
<totfact> 0.51176480E+01</totfact>
</mgrwt>
</event>
<event>
12    2  0.3751044E-008  0.2602052E+04  0.7818608E-02  0.8367504E-01
         -2   -1    0    0    0  501 -0.00000000000E+00  0.00000000000E+00  0.16243315781E+04  0.16243315781E+04  0.00000000000E+00 0.  1.
          2   -1    0    0  501    0  0.00000000000E+00 -0.00000000000E+00 -0.10420712080E+04  0.10420712080E+04  0.00000000000E+00 0. -1.
         23    2    1    2    0    0 -0.43795572251E+03 -0.15942789355E+03 -0.81357619440E+03  0.94215433845E+03  0.92336911596E+02 0.  0.
        254    2    1    2    0    0  0.43795572251E+03  0.15942789355E+03  0.13958365644E+04  0.17242484476E+04  0.89858250952E+03 0.  0.
         23    2    4    4    0    0  0.19000197249E+03  0.51495447194E+03  0.63899627296E+03  0.84731630425E+03  0.91377376140E+02 0.  0.
         23    2    4    4    0    0  0.24795375002E+03 -0.35552657840E+03  0.75684029148E+03  0.87693214338E+03  0.91227995676E+02 0.  0.
          4    1    3    3  502    0 -0.28014186430E+03 -0.12494462133E+03 -0.45342008670E+03  0.54743072398E+03  0.00000000000E+00 0. -1.
         -4    1    3    3    0  502 -0.15781385821E+03 -0.34483272212E+02 -0.36015610770E+03  0.39472361447E+03  0.00000000000E+00 0.  1.
         11    1    5    5    0    0  0.18524630379E+03  0.51725135223E+03  0.62395798552E+03  0.83137760503E+03  0.00000000000E+00 0. -1.
        -11    1    5    5    0    0  0.47556687018E+01 -0.22968802844E+01  0.15038287436E+02  0.15938699221E+02  0.00000000000E+00 0.  1.
          3    1    6    6  503    0  0.22085166249E+03 -0.32038974851E+03  0.72320886333E+03  0.82125276728E+03  0.00000000000E+00 0. -1.
         -3    1    6    6    0  503  0.27102087531E+02 -0.35136829890E+02  0.33631428146E+02  0.55679376095E+02  0.00000000000E+00 0.  1.
<mgrwt>
<rscale>  0 0.26020524E+04</rscale>
<asrwt>0</asrwt>
<pdfrwt beam="1">  1        2 0.16031865E+00 0.26020524E+04</pdfrwt>
<pdfrwt beam="2">  1       -2 0.24989716E+00 0.26020524E+04</pdfrwt>
<totfact> 0.13476480E+00</totfact>
</mgrwt>
</event>
<event>
12    2  0.3751044E-008  0.1598001E+04  0.7818608E-02  0.8821777E-01
         -1   -1    0    0    0  501 -0.00000000000E+00  0.00000000000E+00  0.12887310260E+04  0.12887310260E+04  0.00000000000E+00 0.  1.
          1   -1    0    0  501    0  0.00000000000E+00 -0.00000000000E+00 -0.49537261760E+03  0.49537261760E+03  0.00000000000E+00 0. -1.
         23    2    1    2    0    0  0.28517027876E+03  0.18990441489E+03 -0.19959973451E+03  0.40627660468E+03  0.88514692622E+02 0.  0.
        254    2    1    2    0    0 -0.28517027876E+03 -0.18990441489E+03  0.99295814296E+03  0.13778270390E+04  0.89165896001E+03 0.  0.
         23    2    4    4    0    0 -0.12785584488E+03 -0.23034752492E+03 -0.80037790248E+02  0.28895799593E+03  0.87656010850E+02 0.  0.
         23    2    4    4    0    0 -0.15731443388E+03  0.40443110034E+02  0.10729959332E+04  0.10888690430E+04  0.89062023012E+02 0.  0.
          1    1    3    3  502    0  0.17445619524E+03  0.16543380652E+03 -0.13899294539E+03  0.27770910547E+03  0.00000000000E+00 0. -1.
         -1    1    3    3    0  502  0.11071408352E+03  0.24470608372E+02 -0.60606789125E+02  0.12856749920E+03  0.00000000000E+00 0.  1.
         11    1    5    5    0    0 -0.36473475786E+02 -0.65703065226E+02 -0.66196156107E+02  0.10014558552E+03  0.00000000000E+00 0. -1.
        -11    1    5    5    0    0 -0.91382369091E+02 -0.16464445970E+03 -0.13841634141E+02  0.18881241041E+03  0.00000000000E+00 0.  1.
          3    1    6    6  503    0 -0.30886288223E+02  0.26133799500E+02  0.10463108427E+03  0.11218111281E+03  0.00000000000E+00 0. -1.
         -3    1    6    6    0  503 -0.12642814566E+03  0.14309310535E+02  0.96836484894E+03  0.97668793023E+03  0.00000000000E+00 0.  1.
<mgrwt>
<rscale>  0 0.15980013E+04</rscale>
<asrwt>0</asrwt>
<pdfrwt beam="1">  1        1 0.76211173E-01 0.15980013E+04</pdfrwt>
<pdfrwt beam="2">  1       -1 0.19826631E+00 0.15980013E+04</pdfrwt>
<totfact> 0.66648919E+00</totfact>
</mgrwt>
</event>
<event>
12    2  0.3751044E-008  0.2626562E+04  0.7818608E-02  0.8359234E-01
          2   -1    0    0  501    0  0.00000000000E+00  0.00000000000E+00  0.91878261919E+03  0.91878261919E+03  0.00000000000E+00 0. -1.
         -2   -1    0    0    0  501 -0.00000000000E+00 -0.00000000000E+00 -0.18771650546E+04  0.18771650546E+04  0.00000000000E+00 0.  1.
         23    2    1    2    0    0 -0.66566223159E+03 -0.91137251788E+03 -0.66803507165E+03  0.13142291172E+04  0.84977894894E+02 0.  0.
        254    2    1    2    0    0  0.66566223159E+03  0.91137251788E+03 -0.29034736373E+03  0.14817185566E+04  0.91514054458E+03 0.  0.
         23    2    4    4    0    0  0.31146885661E+03  0.94234807776E+03 -0.43481106917E+03  0.10874726124E+04  0.92213169189E+02 0.  0.
         23    2    4    4    0    0  0.35419337498E+03 -0.30975559883E+02  0.14446370544E+03  0.39424594415E+03  0.90264445387E+02 0.  0.
          2    1    3    3  502    0 -0.47200357773E+02 -0.84566600491E+02 -0.82580321319E+02  0.12727487247E+03  0.00000000000E+00 0. -1.
         -2    1    3    3    0  502 -0.61846187382E+03 -0.82680591739E+03 -0.58545475033E+03  0.11869542447E+04  0.00000000000E+00 0.  1.
         11    1    5    5    0    0  0.24774460165E+03  0.76761875926E+03 -0.31333368854E+03  0.86532880895E+03  0.00000000000E+00 0. -1.
        -11    1    5    5    0    0  0.63724254968E+02  0.17472931850E+03 -0.12147738063E+03  0.22214380347E+03  0.00000000000E+00 0.  1.
          2    1    6    6  503    0  0.35540325130E+03 -0.36223963748E+02  0.14912780401E+03  0.38712110316E+03  0.00000000000E+00 0. -1.
         -2    1    6    6    0  503 -0.12098763161E+01  0.52484038654E+01 -0.46640985620E+01  0.71248409969E+01  0.00000000000E+00 0.  1.
<mgrwt>
<rscale>  0 0.26265617E+04</rscale>
<asrwt>0</asrwt>
<pdfrwt beam="1">  1        2 0.14135117E+00 0.26265617E+04</pdfrwt>
<pdfrwt beam="2">  1       -2 0.28879463E+00 0.26265617E+04</pdfrwt>
<totfact> 0.93548332E-01</totfact>
</mgrwt>
</event>
<event>
12    2  0.3751044E-008  0.1715768E+04  0.7818608E-02  0.8752422E-01
         -1   -1    0    0    0  501 -0.00000000000E+00  0.00000000000E+00  0.53854089628E+03  0.53854089628E+03  0.00000000000E+00 0.  1.
          1   -1    0    0  501    0  0.00000000000E+00 -0.00000000000E+00 -0.13665898727E+04  0.13665898727E+04  0.00000000000E+00 0. -1.
         23    2    1    2    0    0 -0.50070178580E+03  0.30843568724E+03 -0.49107921797E+03  0.77160615765E+03  0.91555517249E+02 0.  0.
        254    2    1    2    0    0  0.50070178580E+03 -0.30843568724E+03 -0.33696975844E+03  0.11335246113E+04  0.90856731995E+03 0.  0.
         23    2    4    4    0    0  0.73185443457E+03 -0.37237133649E+03 -0.24335813043E+03  0.86020818284E+03  0.80396595256E+02 0.  0.
         23    2    4    4    0    0 -0.23115264877E+03  0.63935649253E+02 -0.93611628005E+02  0.27331642847E+03  0.91757391516E+02 0.  0.
          2    1    3    3  502    0 -0.46045895607E+03  0.26782010676E+03 -0.40906074245E+03  0.67162545427E+03  0.00000000000E+00 0. -1.
         -2    1    3    3    0  502 -0.40242829733E+02  0.40615580485E+02 -0.82018475517E+02  0.99980703384E+02  0.00000000000E+00 0.  1.
         11    1    5    5    0    0  0.95387005549E+02 -0.43657469828E+02 -0.41554170133E+01  0.10498534655E+03  0.00000000000E+00 0. -1.
        -11    1    5    5    0    0  0.63646742902E+03 -0.32871386667E+03 -0.23920271342E+03  0.75522283629E+03  0.00000000000E+00 0.  1.
          1    1    6    6  503    0 -0.11939350499E+03 -0.13777424544E+02 -0.35598820185E+02  0.12534712784E+03  0.00000000000E+00 0. -1.
         -1    1    6    6    0  503 -0.11175914378E+03  0.77713073797E+02 -0.58012807820E+02  0.14796930063E+03  0.00000000000E+00 0.  1.
<mgrwt>
<rscale>  0 0.17157675E+04</rscale>
<asrwt>0</asrwt>
<pdfrwt beam="1">  1        1 0.21024460E+00 0.17157675E+04</pdfrwt>
<pdfrwt beam="2">  1       -1 0.82852445E-01 0.17157675E+04</pdfrwt>
<totfact> 0.11154394E+01</totfact>
</mgrwt>
</event>
<event>
12    2  0.3751044E-008  0.1871857E+04  0.7818608E-02  0.8668993E-01
          1   -1    0    0  501    0  0.00000000000E+00  0.00000000000E+00  0.12276400412E+04  0.12276400412E+04  0.00000000000E+00 0. -1.
         -1   -1    0    0    0  501 -0.00000000000E+00 -0.00000000000E+00 -0.71353315743E+03  0.71353315743E+03  0.00000000000E+00 0.  1.
         23    2    1    2    0    0 -0.28169052887E+03 -0.65642996532E+03  0.25683501359E+03  0.76481158929E+03  0.93395339749E+02 0.  0.
        254    2    1    2    0    0  0.28169052887E+03  0.65642996532E+03  0.25727187016E+03  0.11763616093E+04  0.89854769894E+03 0.  0.
         23    2    4    4    0    0  0.50439257559E+03  0.31233067407E+03  0.41507802898E+03  0.72968327480E+03  0.90474256600E+02 0.  0.
         23    2    4    4    0    0 -0.22270204672E+03  0.34409929124E+03 -0.15780615883E+03  0.44667833451E+03  0.81352485592E+02 0.  0.
          2    1    3    3  502    0 -0.94533506159E+02 -0.20958885830E+03  0.12958583139E+03  0.26392529437E+03  0.00000000000E+00 0. -1.
         -2    1    3    3    0  502 -0.18715702271E+03 -0.44684110702E+03  0.12724918220E+03  0.50088629492E+03  0.00000000000E+00 0.  1.
         11    1    5    5    0    0  0.11755096604E+03  0.10939913119E+03  0.81723158064E+02  0.18018067068E+03  0.00000000000E+00 0.  1.
        -11    1    5    5    0    0  0.38684160955E+03  0.20293154288E+03  0.33335487092E+03  0.54950260413E+03  0.00000000000E+00 0. -1.
          2    1    6    6  503    0 -0.12956881146E+03  0.20745508389E+03 -0.51097027602E+02  0.24987315775E+03  0.00000000000E+00 0. -1.
         -2    1    6    6    0  503 -0.93133235257E+02  0.13664420735E+03 -0.10670913122E+03  0.19680517676E+03  0.00000000000E+00 0.  1.
<mgrwt>
<rscale>  0 0.18718567E+04</rscale>
<asrwt>0</asrwt>
<pdfrwt beam="1">  1        1 0.18886770E+00 0.18718567E+04</pdfrwt>
<pdfrwt beam="2">  1       -1 0.10977433E+00 0.18718567E+04</pdfrwt>
<totfact> 0.73374559E+00</totfact>
</mgrwt>
</event>
<event>
12    2  0.3751044E-008  0.3809194E+04  0.7818608E-02  0.8044185E-01
         -1   -1    0    0    0  501 -0.00000000000E+00  0.00000000000E+00  0.17805583877E+04  0.17805583877E+04  0.00000000000E+00 0.  1.
          1   -1    0    0  501    0  0.00000000000E+00 -0.00000000000E+00 -0.20372770106E+04  0.20372770106E+04  0.00000000000E+00 0. -1.
         23    2    1    2    0    0 -0.98377656168E+03  0.44648907009E+03 -0.15610087569E+04  0.19005248046E+04  0.89874250234E+02 0.  0.
        254    2    1    2    0    0  0.98377656168E+03 -0.44648907009E+03  0.13042901340E+04  0.19173105937E+04  0.89874264736E+03 0.  0.
         23    2    4    4    0    0  0.20347536160E+01  0.48595718011E+02 -0.91997126631E+02  0.13781299662E+03  0.90350797987E+02 0.  0.
         23    2    4    4    0    0  0.98174180806E+03 -0.49508478811E+03  0.13962872606E+04  0.17794975971E+04  0.89820147185E+02 0.  0.
          2    1    3    3  502    0 -0.98054465923E+03  0.43625368949E+03 -0.15422990625E+04  0.18789548979E+04  0.00000000000E+00 0. -1.
         -2    1    3    3    0  502 -0.32319024530E+01  0.10235380607E+02 -0.18709694384E+02  0.21569906666E+02  0.00000000000E+00 0.  1.
         11    1    5    5    0    0  0.41124279770E+02  0.17650466832E+01 -0.43452463640E+02  0.59853474192E+02  0.00000000000E+00 0. -1.
        -11    1    5    5    0    0 -0.39089526154E+02  0.46830671327E+02 -0.48544662991E+02  0.77959522425E+02  0.00000000000E+00 0.  1.
          1    1    6    6  503    0  0.92239933566E+03 -0.47866972106E+03  0.13426651764E+04  0.16978501148E+04  0.00000000000E+00 0. -1.
         -1    1    6    6    0  503  0.59342472403E+02 -0.16415067041E+02  0.53622084201E+02  0.81647482331E+02  0.00000000000E+00 0.  1.
<mgrwt>
<rscale>  0 0.38091945E+04</rscale>
<asrwt>0</asrwt>
<pdfrwt beam="1">  1        1 0.31342723E+00 0.38091945E+04</pdfrwt>
<pdfrwt beam="2">  1       -1 0.27393206E+00 0.38091945E+04</pdfrwt>
<totfact> 0.10890743E-01</totfact>
</mgrwt>
</event>
<event>
12    2  0.3751044E-008  0.1638482E+04  0.7818608E-02  0.8797249E-01
         -1   -1    0    0    0  501 -0.00000000000E+00  0.00000000000E+00  0.34042893582E+04  0.34042893582E+04  0.00000000000E+00 0.  1.
          1   -1    0    0  501    0  0.00000000000E+00 -0.00000000000E+00 -0.19715013361E+03  0.19715013361E+03  0.00000000000E+00 0. -1.
         23    2    1    2    0    0  0.21226726592E+03 -0.31057344087E+03  0.20591589611E+04  0.20952188755E+04  0.91067308768E+02 0.  0.
        254    2    1    2    0    0 -0.21226726592E+03  0.31057344087E+03  0.11479802635E+04  0.15062206163E+04  0.89962692565E+03 0.  0.
         23    2    4    4    0    0 -0.14639816728E+03  0.51255104170E+03  0.11544187322E+04  0.12749500294E+04  0.93134175085E+02 0.  0.
         23    2    4    4    0    0 -0.65869098634E+02 -0.20197760084E+03 -0.64384687116E+01  0.23127058690E+03  0.91164363059E+02 0.  0.
          4    1    3    3  502    0 -0.36425652880E+01 -0.83761610536E+00  0.96563453113E+02  0.96635761288E+02  0.00000000000E+00 0. -1.
         -4    1    3    3    0  502  0.21590983121E+03 -0.30973582476E+03  0.19625955080E+04  0.19985831142E+04  0.00000000000E+00 0.  1.
         11    1    5    5    0    0 -0.70899274067E+02  0.13512521946E+03  0.39759911443E+03  0.42587625878E+03  0.00000000000E+00 0. -1.
        -11    1    5    5    0    0 -0.75498893218E+02  0.37742582224E+03  0.75681961776E+03  0.84907377065E+03  0.00000000000E+00 0.  1.
          3    1    6    6  503    0 -0.49476969794E+02 -0.30311706401E+02 -0.95013078269E+01  0.58796640510E+02  0.00000000000E+00 0. -1.
         -3    1    6    6    0  503 -0.16392128840E+02 -0.17166589444E+03  0.30628391153E+01  0.17247394639E+03  0.00000000000E+00 0.  1.
<mgrwt>
<rscale>  0 0.16384823E+04</rscale>
<asrwt>0</asrwt>
<pdfrwt beam="1">  1        1 0.30330792E-01 0.16384823E+04</pdfrwt>
<pdfrwt beam="2">  1       -1 0.52373678E+00 0.16384823E+04</pdfrwt>
<totfact> 0.15249992E-01</totfact>
</mgrwt>
</event>
<event>
12    2  0.3751044E-008  0.3024721E+04  0.7818608E-02  0.8236707E-01
          1   -1    0    0  501    0  0.00000000000E+00  0.00000000000E+00  0.12153829947E+04  0.12153829947E+04  0.00000000000E+00 0. -1.
         -1   -1    0    0    0  501 -0.00000000000E+00 -0.00000000000E+00 -0.18819039317E+04  0.18819039317E+04  0.00000000000E+00 0.  1.
         23    2    1    2    0    0  0.11825326802E+03  0.57263349491E+03 -0.15828248192E+04  0.16899635345E+04  0.93538145085E+02 0.  0.
        254    2    1    2    0    0 -0.11825326802E+03 -0.57263349491E+03  0.91630388225E+03  0.14073233919E+04  0.89389785210E+03 0.  0.
         23    2    4    4    0    0 -0.14093101321E+03  0.21598081605E+03  0.25444072211E+03  0.37307667036E+03  0.89089042600E+02 0.  0.
         23    2    4    4    0    0  0.22677745195E+02 -0.78861431096E+03  0.66186316013E+03  0.10342467216E+04  0.95794711594E+02 0.  0.
          1    1    3    3  502    0  0.10866353391E+02  0.11583990395E+02 -0.17339353670E+02  0.23514243666E+02  0.00000000000E+00 0. -1.
         -1    1    3    3    0  502  0.10738691462E+03  0.56104950451E+03 -0.15654854656E+04  0.16664492908E+04  0.00000000000E+00 0.  1.
         11    1    5    5    0    0 -0.84565444574E+02  0.74199160761E+02  0.65345881442E+02  0.13010347457E+03  0.00000000000E+00 0.  1.
        -11    1    5    5    0    0 -0.56365568637E+02  0.14178165529E+03  0.18909484067E+03  0.24297319579E+03  0.00000000000E+00 0. -1.
          1    1    6    6  503    0  0.91719185853E+00 -0.60731969476E+03  0.45865877392E+03  0.76105579544E+03  0.00000000000E+00 0. -1.
         -1    1    6    6    0  503  0.21760553337E+02 -0.18129461621E+03  0.20320438622E+03  0.27319092614E+03  0.00000000000E+00 0.  1.
<mgrwt>
<rscale>  0 0.30247208E+04</rscale>
<asrwt>0</asrwt>
<pdfrwt beam="1">  1        1 0.18698200E+00 0.30247208E+04</pdfrwt>
<pdfrwt beam="2">  1       -1 0.28952368E+00 0.30247208E+04</pdfrwt>
<totfact> 0.34142907E-01</totfact>
</mgrwt>
</event>
<event>
12    2  0.3751044E-008  0.1510383E+04  0.7818608E-02  0.8877577E-01
          1   -1    0    0  501    0  0.00000000000E+00  0.00000000000E+00  0.51814404202E+03  0.51814404202E+03  0.00000000000E+00 0. -1.
         -1   -1    0    0    0  501 -0.00000000000E+00 -0.00000000000E+00 -0.11006872224E+04  0.11006872224E+04  0.00000000000E+00 0.  1.
         23    2    1    2    0    0 -0.19805905377E+02 -0.19967932692E+03 -0.66025654329E+03  0.69611504980E+03  0.91506022247E+02 0.  0.
        254    2    1    2    0    0  0.19805905377E+02  0.19967932692E+03  0.77713362958E+02  0.92271621458E+03  0.89727461704E+03 0.  0.
         23    2    4    4    0    0 -0.56281044621E+02  0.34672995542E+03  0.40495771555E+03  0.54391049406E+03  0.91970953006E+02 0.  0.
         23    2    4    4    0    0  0.76086949998E+02 -0.14705062850E+03 -0.32724435259E+03  0.37880572052E+03  0.94825082645E+02 0.  0.
          1    1    3    3  502    0 -0.22061896069E+02 -0.39283334493E+01 -0.10484669618E+03  0.10721468538E+03  0.00000000000E+00 0. -1.
         -1    1    3    3    0  502  0.22559906919E+01 -0.19575099347E+03 -0.55540984711E+03  0.58890036442E+03  0.00000000000E+00 0.  1.
         11    1    5    5    0    0 -0.69924984182E+02  0.15961734853E+03  0.17264429178E+03  0.24530237025E+03  0.00000000000E+00 0. -1.
        -11    1    5    5    0    0  0.13643939561E+02  0.18711260689E+03  0.23231342377E+03  0.29860812381E+03  0.00000000000E+00 0.  1.
          2    1    6    6  503    0  0.58889307778E+02 -0.67637353309E+02 -0.86029855569E+02  0.12427348141E+03  0.00000000000E+00 0.  1.
         -2    1    6    6    0  503  0.17197642220E+02 -0.79413275189E+02 -0.24121449702E+03  0.25453223911E+03  0.00000000000E+00 0. -1.
<mgrwt>
<rscale>  0 0.15103834E+04</rscale>
<asrwt>0</asrwt>
<pdfrwt beam="1">  1        1 0.79714468E-01 0.15103834E+04</pdfrwt>
<pdfrwt beam="2">  1       -1 0.16933649E+00 0.15103834E+04</pdfrwt>
<totfact> 0.10144663E+01</totfact>
</mgrwt>
</event>
<event>
12    2  0.3751044E-008  0.3626732E+04  0.7818608E-02  0.8084396E-01
         -2   -1    0    0    0  501 -0.00000000000E+00  0.00000000000E+00  0.10869274579E+04  0.10869274579E+04  0.00000000000E+00 0.  1.
          2   -1    0    0  501    0  0.00000000000E+00 -0.00000000000E+00 -0.30253130163E+04  0.30253130163E+04  0.00000000000E+00 0. -1.
         23    2    1    2    0    0 -0.48365464161E+03  0.13661481475E+03  0.93205206725E+03  0.10628783374E+04  0.91672701157E+02 0.  0.
        254    2    1    2    0    0  0.48365464161E+03 -0.13661481475E+03 -0.28704376257E+04  0.30493621368E+04  0.89811572672E+03 0.  0.
         23    2    4    4    0    0  0.47523806029E+03  0.28070156527E+03 -0.11823497196E+04  0.13080353110E+04  0.91438135212E+02 0.  0.
         23    2    4    4    0    0  0.84165813126E+01 -0.41731638002E+03 -0.16880879060E+04  0.17413268258E+04  0.91403150687E+02 0.  0.
          1    1    3    3  502    0 -0.21924175517E+03  0.22418117502E+02  0.35292184535E+03  0.41608093939E+03  0.00000000000E+00 0. -1.
         -1    1    3    3    0  502 -0.26441288644E+03  0.11419669725E+03  0.57913022190E+03  0.64679739803E+03  0.00000000000E+00 0.  1.
         11    1    5    5    0    0  0.23285962547E+03  0.85809230490E+02 -0.54561350016E+03  0.59940046778E+03  0.00000000000E+00 0. -1.
        -11    1    5    5    0    0  0.24237843482E+03  0.19489233478E+03 -0.63673621948E+03  0.70863484321E+03  0.00000000000E+00 0.  1.
          4    1    6    6  503    0  0.77489088723E+00 -0.31120744232E+03 -0.14013428840E+04  0.14354833859E+04  0.00000000000E+00 0. -1.
         -4    1    6    6    0  503  0.76416904253E+01 -0.10610893770E+03 -0.28674502205E+03  0.30584343995E+03  0.00000000000E+00 0.  1.
<mgrwt>
<rscale>  0 0.36267317E+04</rscale>
<asrwt>0</asrwt>
<pdfrwt beam="1">  1        2 0.46543277E+00 0.36267317E+04</pdfrwt>
<pdfrwt beam="2">  1       -2 0.16721961E+00 0.36267317E+04</pdfrwt>
<totfact> 0.30435333E-01</totfact>
</mgrwt>
</event>
<event>
12    2  0.3751044E-008  0.3088172E+04  0.7818608E-02  0.8218992E-01
          2   -1    0    0  501    0  0.00000000000E+00  0.00000000000E+00  0.27216799458E+04  0.27216799458E+04  0.00000000000E+00 0.  1.
         -2   -1    0    0    0  501 -0.00000000000E+00 -0.00000000000E+00 -0.87600353043E+03  0.87600353043E+03  0.00000000000E+00 0. -1.
         23    2    1    2    0    0 -0.19498528691E+03  0.46391151673E+03  0.24000216408E+04  0.24539927987E+04  0.93507339488E+02 0.  0.
        254    2    1    2    0    0  0.19498528691E+03 -0.46391151673E+03 -0.55434522541E+03  0.11436906775E+04  0.86457884510E+03 0.  0.
         23    2    4    4    0    0  0.74149656464E+02  0.21222618288E+03 -0.34166505509E+03  0.41906109752E+03  0.91318504883E+02 0.  0.
         23    2    4    4    0    0  0.12083563044E+03 -0.67613769960E+03 -0.21268017033E+03  0.72462957998E+03  0.89954071180E+02 0.  0.
          4    1    3    3  502    0 -0.71797983910E+02  0.22356153219E+03  0.13194553597E+04  0.13401854929E+04  0.00000000000E+00 0. -1.
         -4    1    3    3    0  502 -0.12318730300E+03  0.24034998454E+03  0.10805662811E+04  0.11138073059E+04  0.00000000000E+00 0.  1.
         11    1    5    5    0    0  0.52666264144E+02  0.13075198270E+03 -0.13207122615E+03  0.19316476163E+03  0.00000000000E+00 0. -1.
        -11    1    5    5    0    0  0.21483392320E+02  0.81474200176E+02 -0.20959382893E+03  0.22589633588E+03  0.00000000000E+00 0.  1.
          2    1    6    6  503    0  0.35469517844E+01 -0.26345226142E+01 -0.11011653933E+02  0.11864994678E+02  0.00000000000E+00 0. -1.
         -2    1    6    6    0  503  0.11728867866E+03 -0.67350317699E+03 -0.20166851639E+03  0.71276458530E+03  0.00000000000E+00 0.  1.
<mgrwt>
<rscale>  0 0.30881718E+04</rscale>
<asrwt>0</asrwt>
<pdfrwt beam="1">  1        2 0.41871999E+00 0.30881718E+04</pdfrwt>
<pdfrwt beam="2">  1       -2 0.13476977E+00 0.30881718E+04</pdfrwt>
<totfact> 0.86761442E-01</totfact>
</mgrwt>
</event>
<event>
12    2  0.3751044E-008  0.1122322E+04  0.7818608E-02  0.9183704E-01
         -1   -1    0    0    0  501 -0.00000000000E+00  0.00000000000E+00  0.57465130167E+03  0.57465130167E+03  0.00000000000E+00 0.  1.
          1   -1    0    0  501    0  0.00000000000E+00 -0.00000000000E+00 -0.54798748682E+03  0.54798748682E+03  0.00000000000E+00 0. -1.
         23    2    1    2    0    0  0.94905775657E+01 -0.45767490732E+02  0.16818479729E+03  0.20041376475E+03  0.98462260749E+02 0.  0.
        254    2    1    2    0    0 -0.94905775657E+01  0.45767490732E+02 -0.14152098244E+03  0.92222502374E+03  0.91010223144E+03 0.  0.
         23    2    4    4    0    0  0.43494264457E+03  0.16213333076E+01 -0.34085508135E+00  0.44501191476E+03  0.94115648583E+02 0.  0.
         23    2    4    4    0    0 -0.44443322213E+03  0.44146157425E+02 -0.14118012736E+03  0.47721310898E+03  0.91272947115E+02 0.  0.
          4    1    3    3  502    0  0.25815518253E+02  0.18942642762E+02  0.19633350847E+02  0.37559727941E+02  0.00000000000E+00 0. -1.
         -4    1    3    3    0  502 -0.16324940687E+02 -0.64710133494E+02  0.14855144644E+03  0.16285403681E+03  0.00000000000E+00 0.  1.
         11    1    5    5    0    0  0.35026565214E+03  0.32067785612E+02  0.21593763011E+02  0.35239276460E+03  0.00000000000E+00 0.  1.
        -11    1    5    5    0    0  0.84676992428E+02 -0.30446452304E+02 -0.21934618092E+02  0.92619150155E+02  0.00000000000E+00 0. -1.
          3    1    6    6  503    0 -0.26225983777E+03  0.56228311848E+02 -0.48890557410E+02  0.27263919778E+03  0.00000000000E+00 0. -1.
         -3    1    6    6    0  503 -0.18217338436E+03 -0.12082154424E+02 -0.92289569946E+02  0.20457391121E+03  0.00000000000E+00 0.  1.
<mgrwt>
<rscale>  0 0.11223221E+04</rscale>
<asrwt>0</asrwt>
<pdfrwt beam="1">  1        1 0.84305767E-01 0.11223221E+04</pdfrwt>
<pdfrwt beam="2">  1       -1 0.88407893E-01 0.11223221E+04</pdfrwt>
<totfact> 0.48775610E+01</totfact>
</mgrwt>
</event>
<event>
12    2  0.3751044E-008  0.1842898E+04  0.7818608E-02  0.8683813E-01
          1   -1    0    0  501    0  0.00000000000E+00  0.00000000000E+00  0.74248256770E+03  0.74248256770E+03  0.00000000000E+00 0. -1.
         -1   -1    0    0    0  501 -0.00000000000E+00 -0.00000000000E+00 -0.11435536260E+04  0.11435536260E+04  0.00000000000E+00 0.  1.
         23    2    1    2    0    0  0.14753173792E+03 -0.22017798574E+03 -0.81578739824E+03  0.86259070798E+03  0.91157508011E+02 0.  0.
        254    2    1    2    0    0 -0.14753173792E+03  0.22017798574E+03  0.41471633992E+03  0.10234454857E+04  0.89733330519E+03 0.  0.
         23    2    4    4    0    0 -0.22900159629E+03  0.53979100221E+03  0.26258570242E+03  0.64873930404E+03  0.89974309178E+02 0.  0.
         23    2    4    4    0    0  0.81469858371E+02 -0.31961301647E+03  0.15213063750E+03  0.37470618171E+03  0.92038978839E+02 0.  0.
          4    1    3    3  502    0  0.29781605037E+02 -0.69615596957E+02 -0.12781295888E+03  0.14855782644E+03  0.00000000000E+00 0. -1.
         -4    1    3    3    0  502  0.11775013288E+03 -0.15056238878E+03 -0.68797443936E+03  0.71403288154E+03  0.00000000000E+00 0.  1.
         11    1    5    5    0    0 -0.17163331876E+03  0.43250083564E+03  0.16828535267E+03  0.49480797171E+03  0.00000000000E+00 0. -1.
        -11    1    5    5    0    0 -0.57368277530E+02  0.10729016657E+03  0.94300349756E+02  0.15393133233E+03  0.00000000000E+00 0.  1.
          3    1    6    6  503    0  0.28902411401E+02 -0.67683253252E+02  0.77210804825E+02  0.10666714835E+03  0.00000000000E+00 0. -1.
         -3    1    6    6    0  503  0.52567446970E+02 -0.25192976322E+03  0.74919832673E+02  0.26803903336E+03  0.00000000000E+00 0.  1.
<mgrwt>
<rscale>  0 0.18428984E+04</rscale>
<asrwt>0</asrwt>
<pdfrwt beam="1">  1        1 0.11422809E+00 0.18428984E+04</pdfrwt>
<pdfrwt beam="2">  1       -1 0.17593133E+00 0.18428984E+04</pdfrwt>
<totfact> 0.52087301E+00</totfact>
</mgrwt>
</event>
<event>
12    2  0.3751044E-008  0.1793259E+04  0.7818608E-02  0.8709893E-01
          2   -1    0    0  501    0  0.00000000000E+00  0.00000000000E+00  0.94280478493E+03  0.94280478493E+03  0.00000000000E+00 0. -1.
         -2   -1    0    0    0  501 -0.00000000000E+00 -0.00000000000E+00 -0.85271543021E+03  0.85271543021E+03  0.00000000000E+00 0.  1.
         23    2    1    2    0    0  0.28367855877E+03  0.29226899265E+03 -0.47068422315E+03  0.62897519053E+03  0.90396148226E+02 0.  0.
        254    2    1    2    0    0 -0.28367855877E+03 -0.29226899265E+03  0.56077357787E+03  0.11665450246E+04  0.93833128481E+03 0.  0.
         23    2    4    4    0    0  0.23215876126E+03 -0.41553890280E+03  0.24623134396E+03  0.54325408983E+03  0.89021689496E+02 0.  0.
         23    2    4    4    0    0 -0.51583732003E+03  0.12326991015E+03  0.31454223391E+03  0.62329093478E+03  0.90945923394E+02 0.  0.
          2    1    3    3  502    0  0.12343401251E+02  0.25578636080E+02 -0.71263367707E+01  0.29281578747E+02  0.00000000000E+00 0. -1.
         -2    1    3    3    0  502  0.27133515752E+03  0.26669035657E+03 -0.46355788638E+03  0.59969361178E+03  0.00000000000E+00 0.  1.
         11    1    5    5    0    0  0.59969548438E+02 -0.42863847963E+02  0.38108884711E+02  0.82981584077E+02  0.00000000000E+00 0. -1.
        -11    1    5    5    0    0  0.17218921283E+03 -0.37267505483E+03  0.20812245925E+03  0.46027250575E+03  0.00000000000E+00 0.  1.
          2    1    6    6  503    0 -0.13058608461E+03 -0.22352549770E+01  0.52512963742E+02  0.14076694648E+03  0.00000000000E+00 0. -1.
         -2    1    6    6    0  503 -0.38525123542E+03  0.12550516513E+03  0.26202927017E+03  0.48252398831E+03  0.00000000000E+00 0.  1.
<mgrwt>
<rscale>  0 0.17932587E+04</rscale>
<asrwt>0</asrwt>
<pdfrwt beam="1">  1        2 0.14504689E+00 0.17932587E+04</pdfrwt>
<pdfrwt beam="2">  1       -2 0.13118699E+00 0.17932587E+04</pdfrwt>
<totfact> 0.11003002E+01</totfact>
</mgrwt>
</event>
<event>
12    2  0.3751044E-008  0.2156205E+04  0.7818608E-02  0.8536881E-01
         -1   -1    0    0    0  501 -0.00000000000E+00  0.00000000000E+00  0.17278061089E+04  0.17278061089E+04  0.00000000000E+00 0.  1.
          1   -1    0    0  501    0  0.00000000000E+00 -0.00000000000E+00 -0.67270558151E+03  0.67270558151E+03  0.00000000000E+00 0. -1.
         23    2    1    2    0    0  0.37234336498E+03 -0.70088458120E+03  0.88925869055E+03  0.11954946824E+04  0.92453985112E+02 0.  0.
        254    2    1    2    0    0 -0.37234336498E+03  0.70088458120E+03  0.16584183688E+03  0.12050170080E+04  0.89145033355E+03 0.  0.
         23    2    4    4    0    0 -0.46696905271E+03  0.25538468131E+03 -0.23758460967E+03  0.59005848330E+03  0.91875651415E+02 0.  0.
         23    2    4    4    0    0  0.94625687729E+02  0.44549989989E+03  0.40342644656E+03  0.61495852474E+03  0.89425431460E+02 0.  0.
          3    1    3    3  502    0  0.18620225491E+03 -0.35650196146E+03  0.51959152877E+03  0.65706946743E+03  0.00000000000E+00 0. -1.
         -3    1    3    3    0  502  0.18614111007E+03 -0.34438261974E+03  0.36966716177E+03  0.53842521498E+03  0.00000000000E+00 0.  1.
         11    1    5    5    0    0 -0.19111608003E+03  0.14236414466E+03 -0.13995906773E+03  0.27637193485E+03  0.00000000000E+00 0.  1.
        -11    1    5    5    0    0 -0.27585297268E+03  0.11302053665E+03 -0.97625541945E+02  0.31368654845E+03  0.00000000000E+00 0. -1.
          4    1    6    6  503    0 -0.11009390090E+01  0.16106763444E+02 -0.25297927362E+01  0.16341350820E+02  0.00000000000E+00 0. -1.
         -4    1    6    6    0  503  0.95726626738E+02  0.42939313644E+03  0.40595623929E+03  0.59861717392E+03  0.00000000000E+00 0.  1.
<mgrwt>
<rscale>  0 0.21562048E+04</rscale>
<asrwt>0</asrwt>
<pdfrwt beam="1">  1        1 0.10349317E+00 0.21562048E+04</pdfrwt>
<pdfrwt beam="2">  1       -1 0.26581632E+00 0.21562048E+04</pdfrwt>
<totfact> 0.14565839E+00</totfact>
</mgrwt>
</event>
<event>
12    2  0.3751044E-008  0.2588953E+04  0.7818608E-02  0.8371963E-01
          1   -1    0    0  501    0  0.00000000000E+00  0.00000000000E+00  0.18128271780E+04  0.18128271780E+04  0.00000000000E+00 0. -1.
         -1   -1    0    0    0  501 -0.00000000000E+00 -0.00000000000E+00 -0.92434069177E+03  0.92434069177E+03  0.00000000000E+00 0.  1.
         23    2    1    2    0    0 -0.29902535215E+03  0.88545462864E+03 -0.29138791371E+03  0.98380964349E+03  0.97613717065E+02 0.  0.
        254    2    1    2    0    0  0.29902535215E+03 -0.88545462864E+03  0.11798744000E+04  0.17533582263E+04  0.89928605543E+03 0.  0.
         23    2    4    4    0    0  0.27575656902E+03 -0.96375826444E+03  0.62725497985E+03  0.11865902625E+04  0.98366475889E+02 0.  0.
         23    2    4    4    0    0  0.23268783139E+02  0.78303635806E+02  0.55261942014E+03  0.56676796387E+03  0.95732991745E+02 0.  0.
          2    1    3    3  502    0 -0.28513038024E+02  0.28689343818E+02 -0.46903187151E+01  0.40719416447E+02  0.00000000000E+00 0. -1.
         -2    1    3    3    0  502 -0.27051231413E+03  0.85676528482E+03 -0.28669759499E+03  0.94309022704E+03  0.00000000000E+00 0.  1.
         11    1    5    5    0    0  0.27123538206E+03 -0.95446431763E+03  0.63065382752E+03  0.11757104305E+04  0.00000000000E+00 0.  1.
        -11    1    5    5    0    0  0.45211869536E+01 -0.92939468095E+01 -0.33988476788E+01  0.10879831998E+02  0.00000000000E+00 0. -1.
          3    1    6    6  503    0 -0.14955724185E+02  0.28332264278E+02  0.44858761218E+02  0.55124398799E+02  0.00000000000E+00 0. -1.
         -3    1    6    6    0  503  0.38224507324E+02  0.49971371527E+02  0.50776065892E+03  0.51164356507E+03  0.00000000000E+00 0.  1.
<mgrwt>
<rscale>  0 0.25889534E+04</rscale>
<asrwt>0</asrwt>
<pdfrwt beam="1">  1        1 0.27889649E+00 0.25889534E+04</pdfrwt>
<pdfrwt beam="2">  1       -1 0.14220626E+00 0.25889534E+04</pdfrwt>
<totfact> 0.14160344E+00</totfact>
</mgrwt>
</event>
<event>
12    2  0.3751044E-008  0.2143106E+04  0.7818608E-02  0.8542489E-01
         -1   -1    0    0    0  501 -0.00000000000E+00  0.00000000000E+00  0.97433081542E+03  0.97433081542E+03  0.00000000000E+00 0.  1.
          1   -1    0    0  501    0  0.00000000000E+00 -0.00000000000E+00 -0.11784768259E+04  0.11784768259E+04  0.00000000000E+00 0. -1.
         23    2    1    2    0    0 -0.56814612396E+03  0.55555218797E+03 -0.47361837454E+03  0.92955092424E+03  0.91226664452E+02 0.  0.
        254    2    1    2    0    0  0.56814612396E+03 -0.55555218797E+03  0.26947236412E+03  0.12232567170E+04  0.89011987340E+03 0.  0.
         23    2    4    4    0    0  0.37906400974E+03 -0.64614182230E+03 -0.12753484766E+03  0.76446903999E+03  0.83420607296E+02 0.  0.
         23    2    4    4    0    0  0.18908211422E+03  0.90589634328E+02  0.39700721178E+03  0.45878767705E+03  0.94408043322E+02 0.  0.
          4    1    3    3  502    0 -0.24417125719E+03  0.23027173595E+03 -0.25238606323E+03  0.41993261379E+03  0.00000000000E+00 0. -1.
         -4    1    3    3    0  502 -0.32397486677E+03  0.32528045202E+03 -0.22123231132E+03  0.50961831044E+03  0.00000000000E+00 0.  1.
         11    1    5    5    0    0  0.27260551040E+03 -0.46733225030E+03 -0.12968859938E+03  0.55635629706E+03  0.00000000000E+00 0. -1.
        -11    1    5    5    0    0  0.10645849934E+03 -0.17880957200E+03  0.21537517177E+01  0.20811274292E+03  0.00000000000E+00 0.  1.
          3    1    6    6  503    0  0.17345807710E+03  0.90883247731E+02  0.39753757424E+03  0.44315188385E+03  0.00000000000E+00 0. -1.
         -3    1    6    6    0  503  0.15624037118E+02 -0.29361340283E+00 -0.53036245701E+00  0.15635793202E+02  0.00000000000E+00 0.  1.
<mgrwt>
<rscale>  0 0.21431064E+04</rscale>
<asrwt>0</asrwt>
<pdfrwt beam="1">  1        1 0.18130413E+00 0.21431064E+04</pdfrwt>
<pdfrwt beam="2">  1       -1 0.14989705E+00 0.21431064E+04</pdfrwt>
<totfact> 0.35494691E+00</totfact>
</mgrwt>
</event>
<event>
12    2  0.3751044E-008  0.2300950E+04  0.7818608E-02  0.8477546E-01
          1   -1    0    0  501    0  0.00000000000E+00  0.00000000000E+00  0.31241398521E+04  0.31241398521E+04  0.00000000000E+00 0.  1.
         -1   -1    0    0    0  501 -0.00000000000E+00 -0.00000000000E+00 -0.42366642035E+03  0.42366642035E+03  0.00000000000E+00 0. -1.
         23    2    1    2    0    0 -0.25484128789E+03 -0.93439183239E+03  0.10054013921E+04  0.13990080158E+04  0.91429155317E+02 0.  0.
        254    2    1    2    0    0  0.25484128789E+03  0.93439183239E+03  0.16950720396E+04  0.21487982567E+04  0.89779315546E+03 0.  0.
         23    2    4    4    0    0  0.32697086531E+03  0.96211222432E+03  0.94924821306E+03  0.13934977158E+04  0.90519803711E+02 0.  0.
         23    2    4    4    0    0 -0.72129577418E+02 -0.27720391933E+02  0.74582382658E+03  0.75530054095E+03  0.90854998717E+02 0.  0.
          3    1    3    3  502    0 -0.15994708479E+03 -0.42735571285E+03  0.49805988122E+03  0.67548473004E+03  0.00000000000E+00 0. -1.
         -3    1    3    3    0  502 -0.94894203105E+02 -0.50703611954E+03  0.50734151089E+03  0.72352328572E+03  0.00000000000E+00 0.  1.
         11    1    5    5    0    0  0.17931324221E+03  0.59586091473E+03  0.63235949378E+03  0.88717641871E+03  0.00000000000E+00 0. -1.
        -11    1    5    5    0    0  0.14765762310E+03  0.36625130960E+03  0.31688871927E+03  0.50632129705E+03  0.00000000000E+00 0.  1.
          1    1    6    6  503    0  0.49323455402E+01  0.54526683016E+01  0.33125018391E+01  0.80642601997E+01  0.00000000000E+00 0. -1.
         -1    1    6    6    0  503 -0.77061922958E+02 -0.33173060234E+02  0.74251132474E+03  0.74723628075E+03  0.00000000000E+00 0.  1.
<mgrwt>
<rscale>  0 0.23009504E+04</rscale>
<asrwt>0</asrwt>
<pdfrwt beam="1">  1        1 0.48063688E+00 0.23009504E+04</pdfrwt>
<pdfrwt beam="2">  1       -1 0.65179451E-01 0.23009504E+04</pdfrwt>
<totfact> 0.10454005E+00</totfact>
</mgrwt>
</event>
<event>
12    2  0.3751044E-008  0.2397708E+04  0.7818608E-02  0.8440362E-01
          2   -1    0    0  501    0  0.00000000000E+00  0.00000000000E+00  0.42487754399E+04  0.42487754399E+04  0.00000000000E+00 0.  1.
         -2   -1    0    0    0  501 -0.00000000000E+00 -0.00000000000E+00 -0.33827416341E+03  0.33827416341E+03  0.00000000000E+00 0. -1.
         23    2    1    2    0    0  0.46225973499E+02 -0.87348722455E+03  0.59895270064E+03  0.10640894602E+04  0.91789267375E+02 0.  0.
        254    2    1    2    0    0 -0.46225973499E+02  0.87348722455E+03  0.33115485759E+04  0.35229601432E+04  0.82448615984E+03 0.  0.
         23    2    4    4    0    0 -0.17188729342E+03  0.47161320240E+03  0.28360431614E+04  0.28815945965E+04  0.92099680319E+02 0.  0.
         23    2    4    4    0    0  0.12566131992E+03  0.40187402215E+03  0.47550541448E+03  0.64136554662E+03  0.89167640945E+02 0.  0.
          2    1    3    3  502    0  0.28992245736E+02 -0.66284039527E+03  0.49965961141E+03  0.83057670760E+03  0.00000000000E+00 0. -1.
         -2    1    3    3    0  502  0.17233727763E+02 -0.21064682928E+03  0.99293089225E+02  0.23351275260E+03  0.00000000000E+00 0.  1.
         11    1    5    5    0    0 -0.66661287298E+02  0.12284864786E+03  0.59952455907E+03  0.61560150620E+03  0.00000000000E+00 0. -1.
        -11    1    5    5    0    0 -0.10522600612E+03  0.34876455454E+03  0.22365186023E+04  0.22659930903E+04  0.00000000000E+00 0.  1.
          3    1    6    6  503    0  0.49316202317E+02  0.86325321189E+02  0.16185083191E+03  0.18994694175E+03  0.00000000000E+00 0. -1.
         -3    1    6    6    0  503  0.76345117602E+02  0.31554870096E+03  0.31365458257E+03  0.45141860488E+03  0.00000000000E+00 0.  1.
<mgrwt>
<rscale>  0 0.23977080E+04</rscale>
<asrwt>0</asrwt>
<pdfrwt beam="1">  1        2 0.65365772E+00 0.23977080E+04</pdfrwt>
<pdfrwt beam="2">  1       -2 0.52042182E-01 0.23977080E+04</pdfrwt>
<totfact> 0.66477122E-01</totfact>
</mgrwt>
</event>
<event>
12    2  0.3751044E-008  0.1261558E+04  0.7818608E-02  0.9060618E-01
         -1   -1    0    0    0  501 -0.00000000000E+00  0.00000000000E+00  0.90389528582E+03  0.90389528582E+03  0.00000000000E+00 0.  1.
          1   -1    0    0  501    0  0.00000000000E+00 -0.00000000000E+00 -0.44018610169E+03  0.44018610169E+03  0.00000000000E+00 0. -1.
         23    2    1    2    0    0  0.11307373994E+03  0.27914228764E+03  0.11145920157E+03  0.33403506540E+03  0.91924881751E+02 0.  0.
        254    2    1    2    0    0 -0.11307373994E+03 -0.27914228764E+03  0.35224998257E+03  0.10100463221E+04  0.89744494827E+03 0.  0.
         23    2    4    4    0    0  0.18801170479E+03  0.98511019008E+02 -0.17486415225E+03  0.28922797434E+03  0.89568562552E+02 0.  0.
         23    2    4    4    0    0 -0.30108544473E+03 -0.37765330665E+03  0.52711413481E+03  0.72081834777E+03  0.91952783008E+02 0.  0.
          1    1    3    3  502    0 -0.97458898309E+00  0.14724713867E+01  0.20218783636E+02  0.20295743578E+02  0.00000000000E+00 0. -1.
         -1    1    3    3    0  502  0.11404832892E+03  0.27766981626E+03  0.91240417933E+02  0.31373932182E+03  0.00000000000E+00 0.  1.
         11    1    5    5    0    0  0.11330162007E+03  0.27996335228E+02 -0.13643671963E+03  0.17954395105E+03  0.00000000000E+00 0. -1.
        -11    1    5    5    0    0  0.74710084721E+02  0.70514683780E+02 -0.38427432618E+02  0.10968402329E+03  0.00000000000E+00 0.  1.
          3    1    6    6  503    0 -0.24595336559E+03 -0.27852251153E+03  0.34976640586E+03  0.51029833054E+03  0.00000000000E+00 0. -1.
         -3    1    6    6    0  503 -0.55132079136E+02 -0.99130795121E+02  0.17734772895E+03  0.21052001723E+03  0.00000000000E+00 0.  1.
<mgrwt>
<rscale>  0 0.12615580E+04</rscale>
<asrwt>0</asrwt>
<pdfrwt beam="1">  1        1 0.67720939E-01 0.12615580E+04</pdfrwt>
<pdfrwt beam="2">  1       -1 0.13906081E+00 0.12615580E+04</pdfrwt>
<totfact> 0.22179762E+01</totfact>
</mgrwt>
</event>
<event>
12    2  0.3751044E-008  0.1357840E+04  0.7818608E-02  0.8984915E-01
          1   -1    0    0  501    0  0.00000000000E+00  0.00000000000E+00  0.51616545324E+03  0.51616545324E+03  0.00000000000E+00 0. -1.
         -1   -1    0    0    0  501 -0.00000000000E+00 -0.00000000000E+00 -0.89299313198E+03  0.89299313198E+03  0.00000000000E+00 0.  1.
         23    2    1    2    0    0 -0.21075387652E+03 -0.13766280634E+03 -0.39521319225E+03  0.47496473706E+03  0.77651718633E+02 0.  0.
        254    2    1    2    0    0  0.21075387652E+03  0.13766280634E+03  0.18385513511E+02  0.93419384816E+03  0.89945087365E+03 0.  0.
         23    2    4    4    0    0  0.19547729227E+03  0.50105666906E+03  0.86920405400E+02  0.55205232591E+03  0.89092402983E+02 0.  0.
         23    2    4    4    0    0  0.15276584256E+02 -0.36339386272E+03 -0.68534891889E+02  0.38214152224E+03  0.95113816673E+02 0.  0.
          1    1    3    3  502    0 -0.11749999592E+03 -0.11370926693E+03 -0.20928879635E+03  0.26558962085E+03  0.00000000000E+00 0. -1.
         -1    1    3    3    0  502 -0.93253880603E+02 -0.23953539409E+02 -0.18592439590E+03  0.20937511621E+03  0.00000000000E+00 0.  1.
         11    1    5    5    0    0  0.35748576578E+02  0.20944692229E+03  0.41205641004E+02  0.21643446776E+03  0.00000000000E+00 0. -1.
        -11    1    5    5    0    0  0.15972871569E+03  0.29160974677E+03  0.45714764396E+02  0.33561785815E+03  0.00000000000E+00 0.  1.
          2    1    6    6  503    0 -0.20045070677E+02 -0.28375299760E+02  0.10160003969E+02  0.36196521595E+02  0.00000000000E+00 0. -1.
         -2    1    6    6    0  503  0.35321654933E+02 -0.33501856296E+03 -0.78694895859E+02  0.34594500065E+03  0.00000000000E+00 0.  1.
<mgrwt>
<rscale>  0 0.13578398E+04</rscale>
<asrwt>0</asrwt>
<pdfrwt beam="1">  1        1 0.79410070E-01 0.13578398E+04</pdfrwt>
<pdfrwt beam="2">  1       -1 0.13738356E+00 0.13578398E+04</pdfrwt>
<totfact> 0.18269258E+01</totfact>
</mgrwt>
</event>
<event>
12    2  0.3751044E-008  0.2428822E+04  0.7818608E-02  0.8428791E-01
          1   -1    0    0  501    0  0.00000000000E+00  0.00000000000E+00  0.92952677248E+03  0.92952677248E+03  0.00000000000E+00 0. -1.
         -1   -1    0    0    0  501 -0.00000000000E+00 -0.00000000000E+00 -0.15866069721E+04  0.15866069721E+04  0.00000000000E+00 0.  1.
         23    2    1    2    0    0 -0.61952128320E+03  0.77538914087E+03  0.37744546990E+02  0.99667472486E+03  0.83071753532E+02 0.  0.
        254    2    1    2    0    0  0.61952128320E+03 -0.77538914087E+03 -0.69482474663E+03  0.15194590197E+04  0.91702744998E+03 0.  0.
         23    2    4    4    0    0 -0.15091124183E+03  0.52865230944E+02  0.86123811872E+01  0.18431950784E+03  0.91271968891E+02 0.  0.
         23    2    4    4    0    0  0.77043252503E+03 -0.82825437181E+03 -0.70343712781E+03  0.13351395119E+04  0.90565685529E+02 0.  0.
          4    1    3    3  502    0 -0.54462857377E+03  0.68753847091E+03  0.59781017346E+02  0.87914913546E+03  0.00000000000E+00 0. -1.
         -4    1    3    3    0  502 -0.74892709433E+02  0.87850669955E+02 -0.22036470356E+02  0.11752558940E+03  0.00000000000E+00 0.  1.
         11    1    5    5    0    0 -0.17546486427E+02 -0.96122721576E+01 -0.26221207840E+02  0.32982217975E+02  0.00000000000E+00 0.  1.
        -11    1    5    5    0    0 -0.13336475540E+03  0.62477503102E+02  0.34833589027E+02  0.15133728986E+03  0.00000000000E+00 0. -1.
          3    1    6    6  503    0  0.48059775812E+03 -0.46391102816E+03 -0.44537646985E+03  0.80283737273E+03  0.00000000000E+00 0. -1.
         -3    1    6    6    0  503  0.28983476692E+03 -0.36434334365E+03 -0.25806065796E+03  0.53230213917E+03  0.00000000000E+00 0.  1.
<mgrwt>
<rscale>  0 0.24288217E+04</rscale>
<asrwt>0</asrwt>
<pdfrwt beam="1">  1        1 0.14300412E+00 0.24288217E+04</pdfrwt>
<pdfrwt beam="2">  1       -1 0.24409338E+00 0.24288217E+04</pdfrwt>
<totfact> 0.11727241E+00</totfact>
</mgrwt>
</event>
<event>
12    2  0.3751044E-008  0.1023913E+04  0.7818608E-02  0.9282699E-01
          1   -1    0    0  501    0  0.00000000000E+00  0.00000000000E+00  0.17716716929E+03  0.17716716929E+03  0.00000000000E+00 0. -1.
         -1   -1    0    0    0  501 -0.00000000000E+00 -0.00000000000E+00 -0.14793914352E+04  0.14793914352E+04  0.00000000000E+00 0.  1.
         23    2    1    2    0    0  0.47134899661E+02  0.76030574061E+02 -0.41052563585E+03  0.43018969227E+03  0.92355436710E+02 0.  0.
        254    2    1    2    0    0 -0.47134899661E+02 -0.76030574061E+02 -0.89169863008E+03  0.12263689122E+04  0.83716898836E+03 0.  0.
         23    2    4    4    0    0  0.23310693936E+03  0.21648652412E+03 -0.12407420903E+03  0.35372235422E+03  0.92302948111E+02 0.  0.
         23    2    4    4    0    0 -0.28024183902E+03 -0.29251709818E+03 -0.76762442106E+03  0.87264655802E+03  0.90349445837E+02 0.  0.
          1    1    3    3  502    0  0.51047162518E+02  0.91027239412E+00 -0.12760082393E+03  0.13743584563E+03  0.00000000000E+00 0. -1.
         -1    1    3    3    0  502 -0.39122628568E+01  0.75120301666E+02 -0.28292481192E+03  0.29275384664E+03  0.00000000000E+00 0.  1.
         11    1    5    5    0    0  0.13314307924E+03  0.94082529336E+02 -0.10645186291E+03  0.19470644825E+03  0.00000000000E+00 0.  1.
        -11    1    5    5    0    0  0.99963860120E+02  0.12240399478E+03 -0.17622346121E+02  0.15901590597E+03  0.00000000000E+00 0. -1.
          1    1    6    6  503    0 -0.20388023436E+03 -0.26013362515E+03 -0.58120619655E+03  0.66860847721E+03  0.00000000000E+00 0. -1.
         -1    1    6    6    0  503 -0.76361604659E+02 -0.32383473031E+02 -0.18641822451E+03  0.20403808081E+03  0.00000000000E+00 0.  1.
<mgrwt>
<rscale>  0 0.10239133E+04</rscale>
<asrwt>0</asrwt>
<pdfrwt beam="1">  1        1 0.27256486E-01 0.10239133E+04</pdfrwt>
<pdfrwt beam="2">  1       -1 0.22759869E+00 0.10239133E+04</pdfrwt>
<totfact> 0.17153799E+01</totfact>
</mgrwt>
</event>
<event>
12    2  0.3751044E-008  0.1709913E+04  0.7818608E-02  0.8755731E-01
         -3   -1    0    0    0  501 -0.00000000000E+00  0.00000000000E+00  0.16157694238E+04  0.16157694238E+04  0.00000000000E+00 0.  1.
          3   -1    0    0  501    0  0.00000000000E+00 -0.00000000000E+00 -0.45238542610E+03  0.45238542610E+03  0.00000000000E+00 0. -1.
         23    2    1    2    0    0  0.24387267554E+02  0.60834365151E+03  0.50709624490E+03  0.79768067111E+03  0.92038656731E+02 0.  0.
        254    2    1    2    0    0 -0.24387267554E+02 -0.60834365151E+03  0.65628775284E+03  0.12704741788E+04  0.90150667628E+03 0.  0.
         23    2    4    4    0    0 -0.58846872260E+02 -0.35821945604E+02 -0.20321536718E+03  0.23297166328E+03  0.90736675455E+02 0.  0.
         23    2    4    4    0    0  0.34459604707E+02 -0.57252170590E+03  0.85950312002E+03  0.10375025155E+04  0.93259253365E+02 0.  0.
          3    1    3    3  502    0 -0.86221282017E+01  0.25387499576E+03  0.15842883071E+03  0.29937693459E+03  0.00000000000E+00 0. -1.
         -3    1    3    3    0  502  0.33009395755E+02  0.35446865575E+03  0.34866741418E+03  0.49830373652E+03  0.00000000000E+00 0.  1.
         11    1    5    5    0    0 -0.46567690974E+02  0.65144700401E+01 -0.17362590695E+03  0.17988035948E+03  0.00000000000E+00 0.  1.
        -11    1    5    5    0    0 -0.12279181286E+02 -0.42336415644E+02 -0.29589460229E+02  0.53091303801E+02  0.00000000000E+00 0. -1.
          3    1    6    6  503    0  0.43033032829E+02 -0.26713034096E+03  0.47194636217E+03  0.54400719640E+03  0.00000000000E+00 0. -1.
         -3    1    6    6    0  503 -0.85734281224E+01 -0.30539136494E+03  0.38755675785E+03  0.49349531913E+03  0.00000000000E+00 0.  1.
<mgrwt>
<rscale>  0 0.17099129E+04</rscale>
<asrwt>0</asrwt>
<pdfrwt beam="1">  1        3 0.69597759E-01 0.17099129E+04</pdfrwt>
<pdfrwt beam="2">  1       -3 0.24857991E+00 0.17099129E+04</pdfrwt>
<totfact> 0.36684129E-01</totfact>
</mgrwt>
</event>
<event>
12    2  0.3751044E-008  0.1356687E+04  0.7818608E-02  0.8985781E-01
         -2   -1    0    0    0  501 -0.00000000000E+00  0.00000000000E+00  0.13912991511E+03  0.13912991511E+03  0.00000000000E+00 0.  1.
          2   -1    0    0  501    0  0.00000000000E+00 -0.00000000000E+00 -0.33073403697E+04  0.33073403697E+04  0.00000000000E+00 0. -1.
         23    2    1    2    0    0 -0.29641760595E+03 -0.13422544301E+03 -0.13442703883E+04  0.13860625532E+04  0.90700924912E+02 0.  0.
        254    2    1    2    0    0  0.29641760595E+03  0.13422544301E+03 -0.18239400663E+04  0.20604077316E+04  0.90146702019E+03 0.  0.
         23    2    4    4    0    0  0.35169533833E+03 -0.32198973718E+03 -0.82427087257E+03  0.95645923243E+03  0.89581192619E+02 0.  0.
         23    2    4    4    0    0 -0.55277732375E+02  0.45621518019E+03 -0.99966919369E+03  0.11039484992E+04  0.90420538119E+02 0.  0.
          4    1    3    3  502    0 -0.29268158468E+03 -0.13085886039E+03 -0.13431855331E+04  0.13809177845E+04  0.00000000000E+00 0. -1.
         -4    1    3    3    0  502 -0.37360212657E+01 -0.33665826216E+01 -0.10848552075E+01  0.51447686310E+01  0.00000000000E+00 0.  1.
         11    1    5    5    0    0  0.23767815139E+03 -0.26221343499E+03 -0.64563662668E+03  0.73626995243E+03  0.00000000000E+00 0.  1.
        -11    1    5    5    0    0  0.11401718693E+03 -0.59776302181E+02 -0.17863424589E+03  0.22018927999E+03  0.00000000000E+00 0. -1.
          3    1    6    6  503    0  0.19788780612E+02  0.75080699168E+02 -0.21026901991E+03  0.22414675540E+03  0.00000000000E+00 0. -1.
         -3    1    6    6    0  503 -0.75066512987E+02  0.38113448102E+03 -0.78940017379E+03  0.87980174379E+03  0.00000000000E+00 0.  1.
<mgrwt>
<rscale>  0 0.13566871E+04</rscale>
<asrwt>0</asrwt>
<pdfrwt beam="1">  1        2 0.50882162E+00 0.13566871E+04</pdfrwt>
<pdfrwt beam="2">  1       -2 0.21404601E-01 0.13566871E+04</pdfrwt>
<totfact> 0.20694806E+01</totfact>
</mgrwt>
</event>
<event>
12    2  0.3751044E-008  0.1919033E+04  0.7818608E-02  0.8645440E-01
          2   -1    0    0  501    0  0.00000000000E+00  0.00000000000E+00  0.21084792597E+04  0.21084792597E+04  0.00000000000E+00 0. -1.
         -2   -1    0    0    0  501 -0.00000000000E+00 -0.00000000000E+00 -0.43665207750E+03  0.43665207750E+03  0.00000000000E+00 0.  1.
         23    2    1    2    0    0 -0.32870578808E+02  0.70444394333E+03  0.39310825163E+03  0.81251753520E+03  0.91262825245E+02 0.  0.
        254    2    1    2    0    0  0.32870578808E+02 -0.70444394333E+03  0.12787189305E+04  0.17326138020E+04  0.93247345226E+03 0.  0.
         23    2    4    4    0    0 -0.30468007198E+03 -0.36652247318E+03  0.15699830198E+03  0.50992724620E+03  0.90601655546E+02 0.  0.
         23    2    4    4    0    0  0.33755065079E+03 -0.33792147015E+03  0.11217206286E+04  0.12226865558E+04  0.92595265896E+02 0.  0.
          3    1    3    3  502    0 -0.28750249316E+02  0.20014006193E+03  0.15523497540E+03  0.25491276706E+03  0.00000000000E+00 0. -1.
         -3    1    3    3    0  502 -0.41203294918E+01  0.50430388139E+03  0.23787327623E+03  0.55760476814E+03  0.00000000000E+00 0.  1.
         11    1    5    5    0    0 -0.19089986820E+03 -0.15880407401E+03  0.80045263715E+02  0.26089986172E+03  0.00000000000E+00 0. -1.
        -11    1    5    5    0    0 -0.11378020378E+03 -0.20771839916E+03  0.76953038269E+02  0.24902738448E+03  0.00000000000E+00 0.  1.
          4    1    6    6  503    0  0.73613588732E+02 -0.51446007818E+02  0.13797976266E+03  0.16463312872E+03  0.00000000000E+00 0. -1.
         -4    1    6    6    0  503  0.26393706206E+03 -0.28647546233E+03  0.98374086589E+03  0.10580534270E+04  0.00000000000E+00 0.  1.
<mgrwt>
<rscale>  0 0.19190329E+04</rscale>
<asrwt>0</asrwt>
<pdfrwt beam="1">  1        2 0.32438142E+00 0.19190329E+04</pdfrwt>
<pdfrwt beam="2">  1       -2 0.67177244E-01 0.19190329E+04</pdfrwt>
<totfact> 0.11050564E+01</totfact>
</mgrwt>
</event>
<event>
12    2  0.3751044E-008  0.1654098E+04  0.7818608E-02  0.8787986E-01
         -2   -1    0    0    0  501 -0.00000000000E+00  0.00000000000E+00  0.10955266707E+04  0.10955266707E+04  0.00000000000E+00 0.  1.
          2   -1    0    0  501    0  0.00000000000E+00 -0.00000000000E+00 -0.62436676152E+03  0.62436676152E+03  0.00000000000E+00 0. -1.
         23    2    1    2    0    0  0.10684113539E+03 -0.48834977332E+03 -0.13481397141E+03  0.52515803141E+03  0.87838611984E+02 0.  0.
        254    2    1    2    0    0 -0.10684113539E+03  0.48834977332E+03  0.60597388057E+03  0.11947354008E+04  0.90015987728E+03 0.  0.
         23    2    4    4    0    0 -0.16258185371E+03  0.67120911070E+03  0.18096988501E+03  0.71963463824E+03  0.90384643718E+02 0.  0.
         23    2    4    4    0    0  0.55740718319E+02 -0.18285933739E+03  0.42500399556E+03  0.47510076256E+03  0.92454169138E+02 0.  0.
          3    1    3    3  502    0  0.73552978254E+02 -0.44092441998E+03 -0.10176869486E+03  0.45845528899E+03  0.00000000000E+00 0. -1.
         -3    1    3    3    0  502  0.33288157136E+02 -0.47425353336E+02 -0.33045276546E+02  0.66702742422E+02  0.00000000000E+00 0.  1.
         11    1    5    5    0    0 -0.70731165741E+01  0.19918591254E+03  0.43703451665E+02  0.20404668196E+03  0.00000000000E+00 0. -1.
        -11    1    5    5    0    0 -0.15550873713E+03  0.47202319816E+03  0.13726643335E+03  0.51558795627E+03  0.00000000000E+00 0.  1.
          1    1    6    6  503    0  0.32336015230E+02 -0.18154433767E+03  0.33840816816E+03  0.38538818443E+03  0.00000000000E+00 0. -1.
         -1    1    6    6    0  503  0.23404703089E+02 -0.13149997171E+01  0.86595827398E+02  0.89712578124E+02  0.00000000000E+00 0.  1.
<mgrwt>
<rscale>  0 0.16540985E+04</rscale>
<asrwt>0</asrwt>
<pdfrwt beam="1">  1        2 0.96056425E-01 0.16540985E+04</pdfrwt>
<pdfrwt beam="2">  1       -2 0.16854256E+00 0.16540985E+04</pdfrwt>
<totfact> 0.98413633E+00</totfact>
</mgrwt>
</event>
<event>
12    2  0.3751044E-008  0.2047483E+04  0.7818608E-02  0.8584737E-01
         -2   -1    0    0    0  501 -0.00000000000E+00  0.00000000000E+00  0.31174108589E+03  0.31174108589E+03  0.00000000000E+00 0. -1.
          2   -1    0    0  501    0  0.00000000000E+00 -0.00000000000E+00 -0.33619138753E+04  0.33619138753E+04  0.00000000000E+00 0.  1.
         23    2    1    2    0    0 -0.17701334980E+02 -0.67562822179E+03 -0.22002972573E+04  0.23035519122E+04  0.90865615734E+02 0.  0.
        254    2    1    2    0    0  0.17701334980E+02  0.67562822179E+03 -0.84987553212E+03  0.13701030491E+04  0.83552804477E+03 0.  0.
         23    2    4    4    0    0  0.21669736652E+03  0.56735047111E+02  0.59652680737E+02  0.24849732775E+03  0.89531365195E+02 0.  0.
         23    2    4    4    0    0 -0.19899603154E+03  0.61889317468E+03 -0.90952821286E+03  0.11216057213E+04  0.90164526484E+02 0.  0.
          4    1    3    3  502    0  0.30691336838E+02 -0.26738691712E+03 -0.79223750522E+03  0.83670663095E+03  0.00000000000E+00 0. -1.
         -4    1    3    3    0  502 -0.48392671818E+02 -0.40824130467E+03 -0.14080597521E+04  0.14668452812E+04  0.00000000000E+00 0.  1.
         11    1    5    5    0    0  0.11023359367E+03 -0.12330215317E+01 -0.64396288567E+01  0.11042841272E+03  0.00000000000E+00 0.  1.
        -11    1    5    5    0    0  0.10646377285E+03  0.57968068643E+02  0.66092309594E+02  0.13806891504E+03  0.00000000000E+00 0. -1.
          1    1    6    6  503    0 -0.15648576036E+03  0.53857117908E+03 -0.82438331648E+03  0.99707299663E+03  0.00000000000E+00 0. -1.
         -1    1    6    6    0  503 -0.42510271185E+02  0.80321995601E+02 -0.85144896380E+02  0.12453272467E+03  0.00000000000E+00 0.  1.
<mgrwt>
<rscale>  0 0.20474830E+04</rscale>
<asrwt>0</asrwt>
<pdfrwt beam="1">  1        2 0.51721752E+00 0.20474830E+04</pdfrwt>
<pdfrwt beam="2">  1       -2 0.47960167E-01 0.20474830E+04</pdfrwt>
<totfact> 0.38739260E+00</totfact>
</mgrwt>
</event>
<event>
12    2  0.3751044E-008  0.1358688E+04  0.7818608E-02  0.8984277E-01
         -2   -1    0    0    0  501 -0.00000000000E+00  0.00000000000E+00  0.41676882572E+03  0.41676882572E+03  0.00000000000E+00 0.  1.
          2   -1    0    0  501    0  0.00000000000E+00 -0.00000000000E+00 -0.11073480973E+04  0.11073480973E+04  0.00000000000E+00 0. -1.
         23    2    1    2    0    0  0.16653996150E+02 -0.76273467960E+02  0.21100016381E+03  0.24292156218E+03  0.91623243457E+02 0.  0.
        254    2    1    2    0    0 -0.16653996150E+02  0.76273467960E+02 -0.90157943544E+03  0.12811953609E+04  0.90692947733E+03 0.  0.
         23    2    4    4    0    0  0.39215321727E+03 -0.15400699955E+03 -0.39823437695E+03  0.58674606475E+03  0.90432426690E+02 0.  0.
         23    2    4    4    0    0 -0.40880721342E+03  0.23028046751E+03 -0.50334505849E+03  0.69444929613E+03  0.93547557606E+02 0.  0.
          1    1    3    3  502    0  0.48245825298E+02 -0.63271387751E+02  0.10624356503E+03  0.13273516217E+03  0.00000000000E+00 0. -1.
         -1    1    3    3    0  502 -0.31591829148E+02 -0.13002080209E+02  0.10475659878E+03  0.11018640001E+03  0.00000000000E+00 0.  1.
         11    1    5    5    0    0  0.16686863004E+03 -0.95720693004E+02 -0.13284796486E+03  0.23378659613E+03  0.00000000000E+00 0.  1.
        -11    1    5    5    0    0  0.22528458723E+03 -0.58286306545E+02 -0.26538641209E+03  0.35295946863E+03  0.00000000000E+00 0. -1.
          2    1    6    6  503    0 -0.23720478162E+03  0.13427671557E+03 -0.22382328334E+03  0.35269421166E+03  0.00000000000E+00 0. -1.
         -2    1    6    6    0  503 -0.17160243179E+03  0.96003751936E+02 -0.27952177515E+03  0.34175508448E+03  0.00000000000E+00 0.  1.
<mgrwt>
<rscale>  0 0.13586878E+04</rscale>
<asrwt>0</asrwt>
<pdfrwt beam="1">  1        2 0.17036124E+00 0.13586878E+04</pdfrwt>
<pdfrwt beam="2">  1       -2 0.64118282E-01 0.13586878E+04</pdfrwt>
<totfact> 0.47320728E+01</totfact>
</mgrwt>
</event>
<event>
12    2  0.3751044E-008  0.2861132E+04  0.7818608E-02  0.8284537E-01
          1   -1    0    0  501    0  0.00000000000E+00  0.00000000000E+00  0.25680849304E+04  0.25680849304E+04  0.00000000000E+00 0. -1.
         -1   -1    0    0    0  501 -0.00000000000E+00 -0.00000000000E+00 -0.79690475469E+03  0.79690475469E+03  0.00000000000E+00 0.  1.
         23    2    1    2    0    0  0.19625083055E+03 -0.12709812588E+04  0.82805679881E+03  0.15323288157E+04  0.91900972766E+02 0.  0.
        254    2    1    2    0    0 -0.19625083055E+03  0.12709812588E+04  0.94312337687E+03  0.18326608693E+04  0.90291550501E+03 0.  0.
         23    2    4    4    0    0 -0.16534596713E+03  0.13944094395E+04  0.79147511933E+03  0.16144334122E+04  0.90804207678E+02 0.  0.
         23    2    4    4    0    0 -0.30904863424E+02 -0.12342818067E+03  0.15164825754E+03  0.21822745712E+03  0.91849891998E+02 0.  0.
          2    1    3    3  502    0  0.52982285650E+02 -0.33094644260E+03  0.16887660571E+03  0.37530251587E+03  0.00000000000E+00 0. -1.
         -2    1    3    3    0  502  0.14326854490E+03 -0.94003481620E+03  0.65918019310E+03  0.11570262999E+04  0.00000000000E+00 0.  1.
         11    1    5    5    0    0 -0.11976330831E+03  0.92841697334E+03  0.47919349469E+03  0.10516309865E+04  0.00000000000E+00 0.  1.
        -11    1    5    5    0    0 -0.45582658825E+02  0.46599246613E+03  0.31228162464E+03  0.56280242570E+03  0.00000000000E+00 0. -1.
          4    1    6    6  503    0  0.14280179343E+02 -0.37138349057E+02  0.22138956154E+01  0.39850744366E+02  0.00000000000E+00 0. -1.
         -4    1    6    6    0  503 -0.45185042767E+02 -0.86289831617E+02  0.14943436193E+03  0.17837671276E+03  0.00000000000E+00 0.  1.
<mgrwt>
<rscale>  0 0.28611320E+04</rscale>
<asrwt>0</asrwt>
<pdfrwt beam="1">  1        1 0.39508998E+00 0.28611320E+04</pdfrwt>
<pdfrwt beam="2">  1       -1 0.12260073E+00 0.28611320E+04</pdfrwt>
<totfact> 0.61399676E-01</totfact>
</mgrwt>
</event>
<event>
12    2  0.3751044E-008  0.1220843E+04  0.7818608E-02  0.9094806E-01
         -2   -1    0    0    0  501 -0.00000000000E+00  0.00000000000E+00  0.72444428180E+03  0.72444428180E+03  0.00000000000E+00 0.  1.
          2   -1    0    0  501    0  0.00000000000E+00 -0.00000000000E+00 -0.51434494822E+03  0.51434494822E+03  0.00000000000E+00 0. -1.
         23    2    1    2    0    0  0.26220985894E+03  0.73702020207E+02  0.33910176251E+02  0.28916898139E+03  0.91009899647E+02 0.  0.
        254    2    1    2    0    0 -0.26220985894E+03 -0.73702020207E+02  0.17618915733E+03  0.94962024863E+03  0.89249649833E+03 0.  0.
         23    2    4    4    0    0 -0.11955102126E+03  0.20220184835E+03 -0.28916423319E+03  0.38299766409E+03  0.88843811207E+02 0.  0.
         23    2    4    4    0    0 -0.14265883769E+03 -0.27590386855E+03  0.46535339052E+03  0.56662258453E+03  0.89626372164E+02 0.  0.
          1    1    3    3  502    0  0.19299180266E+02  0.11278218492E+02  0.31162626412E+02  0.38350565265E+02  0.00000000000E+00 0. -1.
         -1    1    3    3    0  502  0.24291067868E+03  0.62423801715E+02  0.27475498391E+01  0.25081841612E+03  0.00000000000E+00 0.  1.
         11    1    5    5    0    0 -0.10273680805E+03  0.20834402129E+03 -0.27617576788E+03  0.36088105755E+03  0.00000000000E+00 0.  1.
        -11    1    5    5    0    0 -0.16814213204E+02 -0.61421729379E+01 -0.12988465304E+02  0.22116606544E+02  0.00000000000E+00 0. -1.
          3    1    6    6  503    0 -0.57210926723E+02 -0.33641300339E+02  0.97910004851E+02  0.11828438728E+03  0.00000000000E+00 0. -1.
         -3    1    6    6    0  503 -0.85447910962E+02 -0.24226256821E+03  0.36744338566E+03  0.44833819725E+03  0.00000000000E+00 0.  1.
<mgrwt>
<rscale>  0 0.12208428E+04</rscale>
<asrwt>0</asrwt>
<pdfrwt beam="1">  1        2 0.79129992E-01 0.12208428E+04</pdfrwt>
<pdfrwt beam="2">  1       -2 0.11145297E+00 0.12208428E+04</pdfrwt>
<totfact> 0.37361877E+01</totfact>
</mgrwt>
</event>
<event>
12    2  0.3751044E-008  0.1543627E+04  0.7818608E-02  0.8855949E-01
          1   -1    0    0  501    0  0.00000000000E+00  0.00000000000E+00  0.93896782341E+03  0.93896782341E+03  0.00000000000E+00 0. -1.
         -1   -1    0    0    0  501 -0.00000000000E+00 -0.00000000000E+00 -0.63441596606E+03  0.63441596606E+03  0.00000000000E+00 0.  1.
         23    2    1    2    0    0  0.73169821058E+02 -0.43712105295E+03  0.36168197723E+03  0.57943025779E+03  0.92178811812E+02 0.  0.
        254    2    1    2    0    0 -0.73169821058E+02  0.43712105295E+03 -0.57130119883E+02  0.99395353167E+03  0.88783508316E+03 0.  0.
         23    2    4    4    0    0 -0.28559529856E+03  0.61516464857E+03  0.42302796241E+02  0.68541140026E+03  0.89482074337E+02 0.  0.
         23    2    4    4    0    0  0.21242547750E+03 -0.17804359562E+03 -0.99432916124E+02  0.30854213141E+03  0.92126199404E+02 0.  0.
          2    1    3    3  502    0  0.22521407605E+02 -0.22598738955E+03  0.24047837542E+03  0.33076783864E+03  0.00000000000E+00 0. -1.
         -2    1    3    3    0  502  0.50648413453E+02 -0.21113366340E+03  0.12120360182E+03  0.24866241916E+03  0.00000000000E+00 0.  1.
         11    1    5    5    0    0 -0.12849017198E+02  0.89333531361E+02 -0.97090846231E+01  0.90773583121E+02  0.00000000000E+00 0. -1.
        -11    1    5    5    0    0 -0.27274628136E+03  0.52583111721E+03  0.52011880864E+02  0.59463781714E+03  0.00000000000E+00 0.  1.
          1    1    6    6  503    0  0.57844418171E+02 -0.10571391597E+03 -0.29215822586E+02  0.12399585894E+03  0.00000000000E+00 0. -1.
         -1    1    6    6    0  503  0.15458105933E+03 -0.72329679648E+02 -0.70217093538E+02  0.18454627248E+03  0.00000000000E+00 0.  1.
<mgrwt>
<rscale>  0 0.15436271E+04</rscale>
<asrwt>0</asrwt>
<pdfrwt beam="1">  1        1 0.14445659E+00 0.15436271E+04</pdfrwt>
<pdfrwt beam="2">  1       -1 0.97602456E-01 0.15436271E+04</pdfrwt>
<totfact> 0.16430570E+01</totfact>
</mgrwt>
</event>
<event>
12    2  0.3751044E-008  0.1051413E+04  0.7818608E-02  0.9253887E-01
         -1   -1    0    0    0  501 -0.00000000000E+00  0.00000000000E+00  0.35423531858E+03  0.35423531858E+03  0.00000000000E+00 0.  1.
          1   -1    0    0  501    0  0.00000000000E+00 -0.00000000000E+00 -0.78017974948E+03  0.78017974948E+03  0.00000000000E+00 0. -1.
         23    2    1    2    0    0  0.92962357139E+02  0.93270528519E+02 -0.60217033021E+02  0.17389074752E+03  0.96283485984E+02 0.  0.
        254    2    1    2    0    0 -0.92962357139E+02 -0.93270528519E+02 -0.36572739788E+03  0.96052432054E+03  0.87835587858E+03 0.  0.
         23    2    4    4    0    0 -0.16129959767E+03 -0.21809718321E+03 -0.60423011370E+03  0.66815741326E+03  0.88070182596E+02 0.  0.
         23    2    4    4    0    0  0.68337240530E+02  0.12482665469E+03  0.23850271582E+03  0.29236690728E+03  0.91341068840E+02 0.  0.
          1    1    3    3  502    0  0.29544375978E+02  0.37443674913E+02 -0.74244387222E+02  0.88244705093E+02  0.00000000000E+00 0. -1.
         -1    1    3    3    0  502  0.63417981161E+02  0.55826853606E+02  0.14027354201E+02  0.85646042430E+02  0.00000000000E+00 0.  1.
         11    1    5    5    0    0 -0.84085897872E+02 -0.12143972833E+03 -0.22407814554E+03  0.26838230409E+03  0.00000000000E+00 0. -1.
        -11    1    5    5    0    0 -0.77213699797E+02 -0.96657454874E+02 -0.38015196816E+03  0.39977510917E+03  0.00000000000E+00 0.  1.
          1    1    6    6  503    0  0.19320541527E+02  0.53107237196E+02  0.24860851921E+02  0.61739160390E+02  0.00000000000E+00 0. -1.
         -1    1    6    6    0  503  0.49016699002E+02  0.71719417490E+02  0.21364186389E+03  0.23062774689E+03  0.00000000000E+00 0.  1.
<mgrwt>
<rscale>  0 0.10514128E+04</rscale>
<asrwt>0</asrwt>
<pdfrwt beam="1">  1        1 0.12002765E+00 0.10514128E+04</pdfrwt>
<pdfrwt beam="2">  1       -1 0.54497742E-01 0.10514128E+04</pdfrwt>
<totfact> 0.78232151E+01</totfact>
</mgrwt>
</event>
<event>
12    2  0.3751044E-008  0.2415118E+04  0.7818608E-02  0.8433865E-01
         -2   -1    0    0    0  501 -0.00000000000E+00  0.00000000000E+00  0.78331710052E+03  0.78331710052E+03  0.00000000000E+00 0.  1.
          2   -1    0    0  501    0  0.00000000000E+00 -0.00000000000E+00 -0.18615685532E+04  0.18615685532E+04  0.00000000000E+00 0. -1.
         23    2    1    2    0    0  0.28447801061E+03 -0.12868840411E+03 -0.15439807750E+04  0.15797471106E+04  0.11931410673E+03 0.  0.
        254    2    1    2    0    0 -0.28447801061E+03  0.12868840411E+03  0.46572932237E+03  0.10651385431E+04  0.90560911564E+03 0.  0.
         23    2    4    4    0    0 -0.52138478570E+03  0.13120486340E+03  0.13265656329E+02  0.54530234156E+03  0.90121335603E+02 0.  0.
         23    2    4    4    0    0  0.23690677510E+03 -0.25164592934E+01  0.45246366604E+03  0.51983620150E+03  0.96825382255E+02 0.  0.
          4    1    3    3  502    0  0.28476263309E+03 -0.95609356920E+02 -0.14204279819E+04  0.14518424702E+04  0.00000000000E+00 0. -1.
         -4    1    3    3    0  502 -0.28462248625E+00 -0.33079047189E+02 -0.12355279306E+03  0.12790464043E+03  0.00000000000E+00 0.  1.
         11    1    5    5    0    0 -0.55403444201E+02  0.34180845127E+02 -0.20176284241E+02  0.68153901199E+02  0.00000000000E+00 0. -1.
        -11    1    5    5    0    0 -0.46598134150E+03  0.97024018275E+02  0.33441940570E+02  0.47714844036E+03  0.00000000000E+00 0.  1.
          1    1    6    6  503    0  0.42098514413E+02 -0.21403548299E+02  0.16823258309E+03  0.17473579715E+03  0.00000000000E+00 0. -1.
         -1    1    6    6    0  503  0.19480826068E+03  0.18887089005E+02  0.28423108295E+03  0.34510040434E+03  0.00000000000E+00 0.  1.
<mgrwt>
<rscale>  0 0.24151178E+04</rscale>
<asrwt>0</asrwt>
<pdfrwt beam="1">  1        2 0.28639516E+00 0.24151178E+04</pdfrwt>
<pdfrwt beam="2">  1       -2 0.12051032E+00 0.24151178E+04</pdfrwt>
<totfact> 0.37639283E+00</totfact>
</mgrwt>
</event>
<event>
12    2  0.3751044E-008  0.3237182E+04  0.7818608E-02  0.8179066E-01
          3   -1    0    0  501    0  0.00000000000E+00  0.00000000000E+00  0.10825068693E+04  0.10825068693E+04  0.00000000000E+00 0. -1.
         -3   -1    0    0    0  501 -0.00000000000E+00 -0.00000000000E+00 -0.24201573262E+04  0.24201573262E+04  0.00000000000E+00 0.  1.
         23    2    1    2    0    0  0.11689897893E+04  0.11925976432E+03  0.41633160244E+03  0.12497922447E+04  0.88817975804E+02 0.  0.
        254    2    1    2    0    0 -0.11689897893E+04 -0.11925976432E+03 -0.17539820594E+04  0.22528719508E+04  0.78626900179E+03 0.  0.
         23    2    4    4    0    0 -0.37578021046E+03 -0.35587054005E+03 -0.99780493094E+03  0.11281094468E+04  0.95716435421E+02 0.  0.
         23    2    4    4    0    0 -0.79320957884E+03  0.23661077574E+03 -0.75617712847E+03  0.11247625040E+04  0.90115179405E+02 0.  0.
          1    1    3    3  502    0  0.23102352773E+03  0.10616572439E+02  0.11744314930E+03  0.25937901860E+03  0.00000000000E+00 0.  1.
         -1    1    3    3    0  502  0.93796626157E+03  0.10864319188E+03  0.29888845314E+03  0.99041322609E+03  0.00000000000E+00 0. -1.
         11    1    5    5    0    0 -0.38085574332E+03 -0.34882271402E+03 -0.96920445177E+03  0.10982193098E+04  0.00000000000E+00 0.  1.
        -11    1    5    5    0    0  0.50755328539E+01 -0.70478260336E+01 -0.28600479167E+02  0.29890137071E+02  0.00000000000E+00 0. -1.
          3    1    6    6  503    0 -0.34070472280E+03  0.55311262137E+02 -0.31350082643E+03  0.46628511882E+03  0.00000000000E+00 0.  1.
         -3    1    6    6    0  503 -0.45250485603E+03  0.18129951360E+03 -0.44267630203E+03  0.65847738514E+03  0.00000000000E+00 0. -1.
<mgrwt>
<rscale>  0 0.32371821E+04</rscale>
<asrwt>0</asrwt>
<pdfrwt beam="1">  1        3 0.16653952E+00 0.32371821E+04</pdfrwt>
<pdfrwt beam="2">  1       -3 0.37233189E+00 0.32371821E+04</pdfrwt>
<totfact> 0.80278907E-03</totfact>
</mgrwt>
</event>
<event>
12    2  0.3751044E-008  0.1102718E+04  0.7818608E-02  0.9202547E-01
         -2   -1    0    0    0  501 -0.00000000000E+00  0.00000000000E+00  0.68623556557E+03  0.68623556557E+03  0.00000000000E+00 0.  1.
          2   -1    0    0  501    0  0.00000000000E+00 -0.00000000000E+00 -0.44299186080E+03  0.44299186080E+03  0.00000000000E+00 0. -1.
         23    2    1    2    0    0 -0.82039789441E+02  0.35656312589E+02  0.16728898074E+03  0.21491887767E+03  0.10100802555E+03 0.  0.
        254    2    1    2    0    0  0.82039789441E+02 -0.35656312589E+02  0.75954724039E+02  0.91430854870E+03  0.90674643779E+03 0.  0.
         23    2    4    4    0    0 -0.79682232998E+02  0.40796474773E+03 -0.14001509788E+02  0.42497177952E+03  0.87295346222E+02 0.  0.
         23    2    4    4    0    0  0.16172202244E+03 -0.44362106032E+03  0.89956233827E+02  0.48933676917E+03  0.91677107080E+02 0.  0.
          4    1    3    3  502    0 -0.43705149076E+02 -0.20224241154E+02  0.18799106352E+02  0.51696870173E+02  0.00000000000E+00 0. -1.
         -4    1    3    3    0  502 -0.38334640365E+02  0.55880553743E+02  0.14848987438E+03  0.16322200750E+03  0.00000000000E+00 0.  1.
         11    1    5    5    0    0 -0.98398782464E+02  0.32160654622E+03 -0.13863576121E+02  0.33660851104E+03  0.00000000000E+00 0.  1.
        -11    1    5    5    0    0  0.18716549466E+02  0.86358201505E+02 -0.13793366668E+00  0.88363268482E+02  0.00000000000E+00 0. -1.
          1    1    6    6  503    0  0.47637165327E+02 -0.21897482217E+03  0.74626280914E+01  0.22422079092E+03  0.00000000000E+00 0. -1.
         -1    1    6    6    0  503  0.11408485711E+03 -0.22464623815E+03  0.82493605736E+02  0.26511597825E+03  0.00000000000E+00 0.  1.
<mgrwt>
<rscale>  0 0.11027180E+04</rscale>
<asrwt>0</asrwt>
<pdfrwt beam="1">  1        2 0.68152594E-01 0.11027180E+04</pdfrwt>
<pdfrwt beam="2">  1       -2 0.10557470E+00 0.11027180E+04</pdfrwt>
<totfact> 0.51001780E+01</totfact>
</mgrwt>
</event>
<event>
12    2  0.3751044E-008  0.1975178E+04  0.7818608E-02  0.8618315E-01
         -2   -1    0    0    0  501 -0.00000000000E+00  0.00000000000E+00  0.42694358520E+03  0.42694358520E+03  0.00000000000E+00 0.  1.
          2   -1    0    0  501    0  0.00000000000E+00 -0.00000000000E+00 -0.22844509003E+04  0.22844509003E+04  0.00000000000E+00 0. -1.
         23    2    1    2    0    0 -0.50807985316E+03 -0.26459717086E+03 -0.81721895095E+01  0.58019693920E+03  0.91678261105E+02 0.  0.
        254    2    1    2    0    0  0.50807985316E+03  0.26459717086E+03 -0.18493351256E+04  0.21311975463E+04  0.89095778496E+03 0.  0.
         23    2    4    4    0    0 -0.11738011456E+03 -0.21835537911E+03 -0.46832717864E+03  0.53760644469E+03  0.90736873637E+02 0.  0.
         23    2    4    4    0    0  0.62545996772E+03  0.48295254997E+03 -0.13810079469E+04  0.15935911016E+04  0.88917449580E+02 0.  0.
          2    1    3    3  502    0 -0.81593711198E+02 -0.74541452265E+02  0.20492963329E+02  0.11240072668E+03  0.00000000000E+00 0. -1.
         -2    1    3    3    0  502 -0.42648614196E+03 -0.19005571859E+03 -0.28665152838E+02  0.46779621251E+03  0.00000000000E+00 0.  1.
         11    1    5    5    0    0 -0.64003145606E+02 -0.16252432755E+03 -0.39132785492E+03  0.42854177127E+03  0.00000000000E+00 0. -1.
        -11    1    5    5    0    0 -0.53376968952E+02 -0.55831051564E+02 -0.76999323719E+02  0.10906467341E+03  0.00000000000E+00 0.  1.
          3    1    6    6  503    0  0.54833741412E+02  0.67820829318E+02 -0.11671348376E+03  0.14569983315E+03  0.00000000000E+00 0. -1.
         -3    1    6    6    0  503  0.57062622630E+03  0.41513172065E+03 -0.12642944632E+04  0.14478912684E+04  0.00000000000E+00 0.  1.
<mgrwt>
<rscale>  0 0.19751776E+04</rscale>
<asrwt>0</asrwt>
<pdfrwt beam="1">  1        2 0.35145399E+00 0.19751776E+04</pdfrwt>
<pdfrwt beam="2">  1       -2 0.65683627E-01 0.19751776E+04</pdfrwt>
<totfact> 0.91948394E+00</totfact>
</mgrwt>
</event>
<event>
12    2  0.3751044E-008  0.1252697E+04  0.7818608E-02  0.9067941E-01
          1   -1    0    0  501    0  0.00000000000E+00  0.00000000000E+00  0.49941039069E+03  0.49941039069E+03  0.00000000000E+00 0. -1.
         -1   -1    0    0    0  501 -0.00000000000E+00 -0.00000000000E+00 -0.78555153518E+03  0.78555153518E+03  0.00000000000E+00 0.  1.
         23    2    1    2    0    0  0.16384116123E+03  0.24611211080E+03 -0.56601076988E+02  0.31427823543E+03  0.90288593701E+02 0.  0.
        254    2    1    2    0    0 -0.16384116123E+03 -0.24611211080E+03 -0.22954006751E+03  0.97068369044E+03  0.89561324639E+03 0.  0.
         23    2    4    4    0    0  0.33610274463E+03 -0.14356206992E+03 -0.24960741139E+03  0.45162619868E+03  0.89929086765E+02 0.  0.
         23    2    4    4    0    0 -0.49994390586E+03 -0.10255004088E+03  0.20067343886E+02  0.51905749176E+03  0.92507089316E+02 0.  0.
          1    1    3    3  502    0  0.14983035136E+03  0.22152726961E+03 -0.20239465385E+02  0.26820347001E+03  0.00000000000E+00 0. -1.
         -1    1    3    3    0  502  0.14010809867E+02  0.24584841195E+02 -0.36361611603E+02  0.46074765416E+02  0.00000000000E+00 0.  1.
         11    1    5    5    0    0  0.12645055709E+03 -0.57532714712E+02 -0.44238752691E+02  0.14579720124E+03  0.00000000000E+00 0.  1.
        -11    1    5    5    0    0  0.20965218754E+03 -0.86029355209E+02 -0.20536865870E+03  0.30582899744E+03  0.00000000000E+00 0. -1.
          1    1    6    6  503    0 -0.32409856244E+03 -0.33445324523E+02 -0.18029912636E+02  0.32631816630E+03  0.00000000000E+00 0. -1.
         -1    1    6    6    0  503 -0.17584534342E+03 -0.69104716357E+02  0.38097256522E+02  0.19273932546E+03  0.00000000000E+00 0.  1.
<mgrwt>
<rscale>  0 0.12526972E+04</rscale>
<asrwt>0</asrwt>
<pdfrwt beam="1">  1        1 0.76832367E-01 0.12526972E+04</pdfrwt>
<pdfrwt beam="2">  1       -1 0.12085408E+00 0.12526972E+04</pdfrwt>
<totfact> 0.26640166E+01</totfact>
</mgrwt>
</event>
<event>
12    2  0.3751044E-008  0.1486027E+04  0.7818608E-02  0.8893798E-01
          2   -1    0    0  501    0  0.00000000000E+00  0.00000000000E+00  0.32033196963E+03  0.32033196963E+03  0.00000000000E+00 0. -1.
         -2   -1    0    0    0  501 -0.00000000000E+00 -0.00000000000E+00 -0.17234283780E+04  0.17234283780E+04  0.00000000000E+00 0.  1.
         23    2    1    2    0    0 -0.11921050830E+03 -0.30755511438E+03 -0.89747759171E+03  0.96051483040E+03  0.91221807358E+02 0.  0.
        254    2    1    2    0    0  0.11921050830E+03  0.30755511438E+03 -0.50561881670E+03  0.10832455173E+04  0.89942713390E+03 0.  0.
         23    2    4    4    0    0  0.16779642042E+03  0.55058740798E+03 -0.56549111981E+03  0.81205586963E+03  0.91391445299E+02 0.  0.
         23    2    4    4    0    0 -0.48585912116E+02 -0.24303229360E+03  0.59872303112E+02  0.27118964764E+03  0.92378816381E+02 0.  0.
          1    1    3    3  502    0 -0.70383778616E+02 -0.12956372087E+03 -0.28572921523E+03  0.32153043168E+03  0.00000000000E+00 0. -1.
         -1    1    3    3    0  502 -0.48826729687E+02 -0.17799139352E+03 -0.61174837647E+03  0.63898439873E+03  0.00000000000E+00 0.  1.
         11    1    5    5    0    0  0.17246720850E+03  0.54507091219E+03 -0.54317264876E+03  0.78859607131E+03  0.00000000000E+00 0. -1.
        -11    1    5    5    0    0 -0.46707880792E+01  0.55164957978E+01 -0.22318471052E+02  0.23459798321E+02  0.00000000000E+00 0.  1.
          4    1    6    6  503    0 -0.17041616635E+01 -0.20254700582E+03  0.46081904419E+02  0.20772995848E+03  0.00000000000E+00 0. -1.
         -4    1    6    6    0  503 -0.46881750453E+02 -0.40485287782E+02  0.13790398693E+02  0.63459689161E+02  0.00000000000E+00 0.  1.
<mgrwt>
<rscale>  0 0.14860272E+04</rscale>
<asrwt>0</asrwt>
<pdfrwt beam="1">  1        2 0.49281842E-01 0.14860272E+04</pdfrwt>
<pdfrwt beam="2">  1       -2 0.26514283E+00 0.14860272E+04</pdfrwt>
<totfact> 0.51295300E+00</totfact>
</mgrwt>
</event>
<event>
12    2  0.3751044E-008  0.2111042E+04  0.7818608E-02  0.8556395E-01
         -2   -1    0    0    0  501 -0.00000000000E+00  0.00000000000E+00  0.47216581854E+03  0.47216581854E+03  0.00000000000E+00 0.  1.
          2   -1    0    0  501    0  0.00000000000E+00 -0.00000000000E+00 -0.23596039838E+04  0.23596039838E+04  0.00000000000E+00 0. -1.
         23    2    1    2    0    0  0.60205342756E+03 -0.40243059877E+03 -0.14025427200E+04  0.15810221659E+04  0.89923808560E+02 0.  0.
        254    2    1    2    0    0 -0.60205342756E+03  0.40243059877E+03 -0.48489544535E+03  0.12507476365E+04  0.89712169784E+03 0.  0.
         23    2    4    4    0    0  0.16549500508E+03 -0.20799564756E+02  0.77633137788E+02  0.20521951939E+03  0.90922650966E+02 0.  0.
         23    2    4    4    0    0 -0.76754843263E+03  0.42323016353E+03 -0.56252858313E+03  0.10455281171E+04  0.91849164265E+02 0.  0.
          4    1    3    3  502    0  0.95878292088E+02 -0.33740927362E+02 -0.15910909022E+03  0.18880360077E+03  0.00000000000E+00 0.  1.
         -4    1    3    3    0  502  0.50617513547E+03 -0.36868967141E+03 -0.12434336297E+04  0.13922185651E+04  0.00000000000E+00 0. -1.
         11    1    5    5    0    0  0.83566490671E+02  0.35050471219E+02  0.41721925230E+02  0.99762783344E+02  0.00000000000E+00 0.  1.
        -11    1    5    5    0    0  0.81928514405E+02 -0.55850035975E+02  0.35911212558E+02  0.10545673605E+03  0.00000000000E+00 0. -1.
          4    1    6    6  503    0 -0.14063391469E+03  0.11603566987E+03 -0.13533540248E+03  0.22706352814E+03  0.00000000000E+00 0. -1.
         -4    1    6    6    0  503 -0.62691451794E+03  0.30719449366E+03 -0.42719318065E+03  0.81846458893E+03  0.00000000000E+00 0.  1.
<mgrwt>
<rscale>  0 0.21110418E+04</rscale>
<asrwt>0</asrwt>
<pdfrwt beam="1">  1        2 0.36301599E+00 0.21110418E+04</pdfrwt>
<pdfrwt beam="2">  1       -2 0.72640896E-01 0.21110418E+04</pdfrwt>
<totfact> 0.66163555E+00</totfact>
</mgrwt>
</event>
<event>
12    2  0.3751044E-008  0.1377152E+04  0.7818608E-02  0.8970525E-01
         -2   -1    0    0    0  501 -0.00000000000E+00  0.00000000000E+00  0.29530292231E+03  0.29530292231E+03  0.00000000000E+00 0.  1.
          2   -1    0    0  501    0  0.00000000000E+00 -0.00000000000E+00 -0.16055955554E+04  0.16055955554E+04  0.00000000000E+00 0. -1.
         23    2    1    2    0    0  0.13358290795E+03 -0.20519669614E+03 -0.71507444475E+03  0.76162053604E+03  0.93724607103E+02 0.  0.
        254    2    1    2    0    0 -0.13358290795E+03  0.20519669614E+03 -0.59521818830E+03  0.11392779416E+04  0.94006353998E+03 0.  0.
         23    2    4    4    0    0  0.17711187559E+03 -0.30610398968E+03 -0.25114696828E+03  0.44331418511E+03  0.91566358851E+02 0.  0.
         23    2    4    4    0    0 -0.31069478354E+03  0.51130068581E+03 -0.34407122003E+03  0.69596375652E+03  0.89559511529E+02 0.  0.
          3    1    3    3  502    0  0.14513647056E+03 -0.16257314251E+03 -0.60140845763E+03  0.63967707060E+03  0.00000000000E+00 0. -1.
         -3    1    3    3    0  502 -0.11553562611E+02 -0.42623553630E+02 -0.11366598712E+03  0.12194346543E+03  0.00000000000E+00 0.  1.
         11    1    5    5    0    0  0.91044800004E+02 -0.10075963201E+03 -0.13780710467E+03  0.19347469382E+03  0.00000000000E+00 0.  1.
        -11    1    5    5    0    0  0.86067075586E+02 -0.20534435767E+03 -0.11333986360E+03  0.24983949129E+03  0.00000000000E+00 0. -1.
          1    1    6    6  503    0 -0.24362071590E+03  0.35783668015E+03 -0.28537233837E+03  0.51849350467E+03  0.00000000000E+00 0. -1.
         -1    1    6    6    0  503 -0.67074067642E+02  0.15346400566E+03 -0.58698881654E+02  0.17747025185E+03  0.00000000000E+00 0.  1.
<mgrwt>
<rscale>  0 0.13771522E+04</rscale>
<asrwt>0</asrwt>
<pdfrwt beam="1">  1        2 0.24701470E+00 0.13771522E+04</pdfrwt>
<pdfrwt beam="2">  1       -2 0.45431219E-01 0.13771522E+04</pdfrwt>
<totfact> 0.49581116E+01</totfact>
</mgrwt>
</event>
<event>
12    2  0.3751044E-008  0.1141882E+04  0.7818608E-02  0.9165305E-01
         -1   -1    0    0    0  501 -0.00000000000E+00  0.00000000000E+00  0.32640857319E+03  0.32640857319E+03  0.00000000000E+00 0.  1.
          1   -1    0    0  501    0  0.00000000000E+00 -0.00000000000E+00 -0.99866804995E+03  0.99866804995E+03  0.00000000000E+00 0. -1.
         23    2    1    2    0    0  0.11504401386E+03 -0.14498970119E+03 -0.23302614905E+03  0.31129249205E+03  0.91349279633E+02 0.  0.
        254    2    1    2    0    0 -0.11504401386E+03  0.14498970119E+03 -0.43923332771E+03  0.10137841311E+04  0.89474868522E+03 0.  0.
         23    2    4    4    0    0 -0.45044363091E+03  0.26031015188E+03 -0.36211816684E+03  0.64046700105E+03  0.91692818025E+02 0.  0.
         23    2    4    4    0    0  0.33539961705E+03 -0.11532045069E+03 -0.77115160870E+02  0.37331713004E+03  0.87333968681E+02 0.  0.
          3    1    3    3  502    0  0.94145048768E+02 -0.11203796918E+03 -0.22940114758E+03  0.27210417721E+03  0.00000000000E+00 0. -1.
         -3    1    3    3    0  502  0.20898965094E+02 -0.32951732006E+02 -0.36250014725E+01  0.39188314838E+02  0.00000000000E+00 0.  1.
         11    1    5    5    0    0 -0.10954370320E+03  0.11055810170E+03 -0.11650723126E+03  0.19441412423E+03  0.00000000000E+00 0. -1.
        -11    1    5    5    0    0 -0.34089992770E+03  0.14975205017E+03 -0.24561093558E+03  0.44605287682E+03  0.00000000000E+00 0.  1.
          1    1    6    6  503    0  0.33211556033E+03 -0.12264085719E+03 -0.82668230378E+02  0.36355957088E+03  0.00000000000E+00 0. -1.
         -1    1    6    6    0  503  0.32840567135E+01  0.73204064980E+01  0.55530695085E+01  0.97575591599E+01  0.00000000000E+00 0.  1.
<mgrwt>
<rscale>  0 0.11418823E+04</rscale>
<asrwt>0</asrwt>
<pdfrwt beam="1">  1        1 0.15364124E+00 0.11418823E+04</pdfrwt>
<pdfrwt beam="2">  1       -1 0.50216705E-01 0.11418823E+04</pdfrwt>
<totfact> 0.59981423E+01</totfact>
</mgrwt>
</event>
<event>
12    2  0.3751044E-008  0.1248785E+04  0.7818608E-02  0.9071195E-01
         -2   -1    0    0    0  501 -0.00000000000E+00  0.00000000000E+00  0.35432772344E+03  0.35432772344E+03  0.00000000000E+00 0.  1.
          2   -1    0    0  501    0  0.00000000000E+00 -0.00000000000E+00 -0.11002978954E+04  0.11002978954E+04  0.00000000000E+00 0. -1.
         23    2    1    2    0    0 -0.10909408303E+03  0.22867129062E+03 -0.14718068731E+02  0.26916071843E+03  0.89659314607E+02 0.  0.
        254    2    1    2    0    0  0.10909408303E+03 -0.22867129062E+03 -0.73125210321E+03  0.11854649004E+04  0.89800073135E+03 0.  0.
         23    2    4    4    0    0 -0.15789558844E+03 -0.52525361367E+02 -0.81893593041E+03  0.84048689414E+03  0.89845593468E+02 0.  0.
         23    2    4    4    0    0  0.26698967147E+03 -0.17614592925E+03  0.87683827203E+02  0.34497800625E+03  0.94923643956E+02 0.  0.
          3    1    3    3  502    0 -0.67522791712E+02  0.93417827028E+02 -0.46238862149E+02  0.12419440479E+03  0.00000000000E+00 0. -1.
         -3    1    3    3    0  502 -0.41571291313E+02  0.13525346359E+03  0.31520793418E+02  0.14496631365E+03  0.00000000000E+00 0.  1.
         11    1    5    5    0    0 -0.13241832091E+03 -0.56356878482E+02 -0.78388524234E+03  0.79698606175E+03  0.00000000000E+00 0.  1.
        -11    1    5    5    0    0 -0.25477267532E+02  0.38315171152E+01 -0.35050688070E+02  0.43500832389E+02  0.00000000000E+00 0. -1.
          2    1    6    6  503    0  0.10512740342E+02 -0.41863650759E+02  0.26493978399E+01  0.43244679133E+02  0.00000000000E+00 0. -1.
         -2    1    6    6    0  503  0.25647693113E+03 -0.13428227849E+03  0.85034429363E+02  0.30173332712E+03  0.00000000000E+00 0.  1.
<mgrwt>
<rscale>  0 0.12487851E+04</rscale>
<asrwt>0</asrwt>
<pdfrwt beam="1">  1        2 0.16927659E+00 0.12487851E+04</pdfrwt>
<pdfrwt beam="2">  1       -2 0.54511959E-01 0.12487851E+04</pdfrwt>
<totfact> 0.67832727E+01</totfact>
</mgrwt>
</event>
<event>
12    2  0.3751044E-008  0.1767885E+04  0.7818608E-02  0.8723567E-01
          2   -1    0    0  501    0  0.00000000000E+00  0.00000000000E+00  0.15656925687E+04  0.15656925687E+04  0.00000000000E+00 0.  1.
         -2   -1    0    0    0  501 -0.00000000000E+00 -0.00000000000E+00 -0.49904683914E+03  0.49904683914E+03  0.00000000000E+00 0. -1.
         23    2    1    2    0    0  0.64249817558E+03 -0.20638080117E+02  0.28618461750E+03  0.70967513984E+03  0.92235203917E+02 0.  0.
        254    2    1    2    0    0 -0.64249817558E+03  0.20638080117E+02  0.78046111209E+03  0.13550642680E+04  0.90213623530E+03 0.  0.
         23    2    4    4    0    0 -0.46775586009E+03  0.37616872652E+03  0.72420868961E+03  0.94487392485E+03  0.89498895488E+02 0.  0.
         23    2    4    4    0    0 -0.17474231549E+03 -0.35553064641E+03  0.56252422482E+02  0.41019034319E+03  0.90304292542E+02 0.  0.
          2    1    3    3  502    0  0.64567839277E+02 -0.30439910357E+02  0.33024951757E+02  0.78652663337E+02  0.00000000000E+00 0.  1.
         -2    1    3    3    0  502  0.57793033630E+03  0.98018302405E+01  0.25315966574E+03  0.63102247650E+03  0.00000000000E+00 0. -1.
         11    1    5    5    0    0 -0.17516897703E+03  0.14232919734E+03  0.20674282733E+03  0.30607902179E+03  0.00000000000E+00 0.  1.
        -11    1    5    5    0    0 -0.29258688306E+03  0.23383952918E+03  0.51746586229E+03  0.63879490306E+03  0.00000000000E+00 0. -1.
          2    1    6    6  503    0 -0.18019787462E+03 -0.35722265119E+03  0.52937016186E+02  0.40358595642E+03  0.00000000000E+00 0. -1.
         -2    1    6    6    0  503  0.54555591294E+01  0.16920047830E+01  0.33154062961E+01  0.66043867625E+01  0.00000000000E+00 0.  1.
<mgrwt>
<rscale>  0 0.17678845E+04</rscale>
<asrwt>0</asrwt>
<pdfrwt beam="1">  1        2 0.24087578E+00 0.17678845E+04</pdfrwt>
<pdfrwt beam="2">  1       -2 0.76776438E-01 0.17678845E+04</pdfrwt>
<totfact> 0.16722692E+01</totfact>
</mgrwt>
</event>
<event>
12    2  0.3751044E-008  0.1543200E+04  0.7818608E-02  0.8856223E-01
         -2   -1    0    0    0  501 -0.00000000000E+00  0.00000000000E+00  0.38031993625E+03  0.38031993625E+03  0.00000000000E+00 0.  1.
          2   -1    0    0  501    0  0.00000000000E+00 -0.00000000000E+00 -0.15654367968E+04  0.15654367968E+04  0.00000000000E+00 0. -1.
         23    2    1    2    0    0 -0.49358634312E+03 -0.74617726363E+02 -0.32319822992E+03  0.60163594738E+03  0.91178035501E+02 0.  0.
        254    2    1    2    0    0  0.49358634312E+03  0.74617726363E+02 -0.86191863059E+03  0.13441207856E+04  0.90253070718E+03 0.  0.
         23    2    4    4    0    0  0.25823718954E+01 -0.35417452193E+03 -0.24189454801E+03  0.43905919406E+03  0.93881536566E+02 0.  0.
         23    2    4    4    0    0  0.49100397123E+03  0.42879224829E+03 -0.62002408258E+03  0.90506159157E+03  0.98787294660E+02 0.  0.
          1    1    3    3  502    0 -0.83658261518E+01 -0.24876511815E+01 -0.27505107807E+02  0.28856652805E+02  0.00000000000E+00 0. -1.
         -1    1    3    3    0  502 -0.48522051697E+03 -0.72130075181E+02 -0.29569312211E+03  0.57277929458E+03  0.00000000000E+00 0.  1.
         11    1    5    5    0    0  0.69995561584E+01 -0.35611068283E+03 -0.24587747531E+03  0.43280428033E+03  0.00000000000E+00 0.  1.
        -11    1    5    5    0    0 -0.44171842630E+01  0.19361608983E+01  0.39829273052E+01  0.62549137289E+01  0.00000000000E+00 0. -1.
          4    1    6    6  503    0  0.40117265746E+03  0.30634774178E+03 -0.50978964138E+03  0.71740777696E+03  0.00000000000E+00 0. -1.
         -4    1    6    6    0  503  0.89831313771E+02  0.12244450651E+03 -0.11023444120E+03  0.18765381460E+03  0.00000000000E+00 0.  1.
<mgrwt>
<rscale>  0 0.15432003E+04</rscale>
<asrwt>0</asrwt>
<pdfrwt beam="1">  1        2 0.24083644E+00 0.15432003E+04</pdfrwt>
<pdfrwt beam="2">  1       -2 0.58510758E-01 0.15432003E+04</pdfrwt>
<totfact> 0.30666547E+01</totfact>
</mgrwt>
</event>
<event>
12    2  0.3751044E-008  0.1520408E+04  0.7818608E-02  0.8870994E-01
          1   -1    0    0  501    0  0.00000000000E+00  0.00000000000E+00  0.52353421989E+03  0.52353421989E+03  0.00000000000E+00 0. -1.
         -1   -1    0    0    0  501 -0.00000000000E+00 -0.00000000000E+00 -0.11038634863E+04  0.11038634863E+04  0.00000000000E+00 0.  1.
         23    2    1    2    0    0 -0.44831433299E+03 -0.12258254415E+03 -0.30772901167E+03  0.56411112214E+03  0.86671749745E+02 0.  0.
        254    2    1    2    0    0  0.44831433299E+03  0.12258254415E+03 -0.27260025475E+03  0.10632865841E+04  0.91665437307E+03 0.  0.
         23    2    4    4    0    0  0.58710481521E+03 -0.10074915124E+03 -0.43518371382E+03  0.74345147911E+03  0.92156288369E+02 0.  0.
         23    2    4    4    0    0 -0.13879048223E+03  0.22333169540E+03  0.16258345907E+03  0.31983510496E+03  0.81983346326E+02 0.  0.
          1    1    3    3  502    0 -0.64438280433E+02 -0.84243177082E+01 -0.11562560752E+02  0.66007226310E+02  0.00000000000E+00 0. -1.
         -1    1    3    3    0  502 -0.38387605255E+03 -0.11415822644E+03 -0.29616645092E+03  0.49810389583E+03  0.00000000000E+00 0.  1.
         11    1    5    5    0    0  0.29765862699E+03 -0.95664073092E+02 -0.24290277710E+03  0.39592175013E+03  0.00000000000E+00 0. -1.
        -11    1    5    5    0    0  0.28944618822E+03 -0.50850781526E+01 -0.19228093673E+03  0.34752972898E+03  0.00000000000E+00 0.  1.
          3    1    6    6  503    0 -0.10087428166E+03  0.18987226396E+03  0.94076399015E+02  0.23468588832E+03  0.00000000000E+00 0. -1.
         -3    1    6    6    0  503 -0.37916200563E+02  0.33459431434E+02  0.68507060059E+02  0.85149216643E+02  0.00000000000E+00 0.  1.
<mgrwt>
<rscale>  0 0.15204082E+04</rscale>
<asrwt>0</asrwt>
<pdfrwt beam="1">  1        1 0.80543726E-01 0.15204082E+04</pdfrwt>
<pdfrwt beam="2">  1       -1 0.16982515E+00 0.15204082E+04</pdfrwt>
<totfact> 0.99085041E+00</totfact>
</mgrwt>
</event>
<event>
12    2  0.3751044E-008  0.1191745E+04  0.7818608E-02  0.9120113E-01
         -1   -1    0    0    0  501 -0.00000000000E+00  0.00000000000E+00  0.13706554022E+04  0.13706554022E+04  0.00000000000E+00 0.  1.
          1   -1    0    0  501    0  0.00000000000E+00 -0.00000000000E+00 -0.25904707736E+03  0.25904707736E+03  0.00000000000E+00 0. -1.
         23    2    1    2    0    0 -0.45484284521E+02 -0.27149436615E+02 -0.83062289571E+02  0.13428220102E+03  0.91249402823E+02 0.  0.
        254    2    1    2    0    0  0.45484284521E+02  0.27149436615E+02  0.11946706144E+04  0.14954202785E+04  0.89790757902E+03 0.  0.
         23    2    4    4    0    0  0.19338065767E+03 -0.33319531294E+03  0.94819332392E+03  0.10275571434E+04  0.91585523574E+02 0.  0.
         23    2    4    4    0    0 -0.14789637315E+03  0.36034474956E+03  0.24647729044E+03  0.46786313508E+03  0.80144761145E+02 0.  0.
          1    1    3    3  502    0  0.48553137137E+01  0.22273769862E+02 -0.52815616189E+02  0.57525509198E+02  0.00000000000E+00 0. -1.
         -1    1    3    3    0  502 -0.50339598235E+02 -0.49423206478E+02 -0.30246673382E+02  0.76756691823E+02  0.00000000000E+00 0.  1.
         11    1    5    5    0    0  0.13646463583E+03 -0.20356714296E+03  0.70214053573E+03  0.74368239891E+03  0.00000000000E+00 0.  1.
        -11    1    5    5    0    0  0.56916021838E+02 -0.12962816998E+03  0.24605278819E+03  0.28387474451E+03  0.00000000000E+00 0. -1.
          3    1    6    6  503    0 -0.82672567281E+02  0.17776075461E+03  0.16983878134E+03  0.25938167034E+03  0.00000000000E+00 0. -1.
         -3    1    6    6    0  503 -0.65223805869E+02  0.18258399495E+03  0.76638509097E+02  0.20848146474E+03  0.00000000000E+00 0.  1.
<mgrwt>
<rscale>  0 0.11917454E+04</rscale>
<asrwt>0</asrwt>
<pdfrwt beam="1">  1        1 0.39853397E-01 0.11917454E+04</pdfrwt>
<pdfrwt beam="2">  1       -1 0.21087006E+00 0.11917454E+04</pdfrwt>
<totfact> 0.13343416E+01</totfact>
</mgrwt>
</event>
<event>
12    2  0.3751044E-008  0.2070896E+04  0.7818608E-02  0.8574174E-01
          3   -1    0    0  501    0  0.00000000000E+00  0.00000000000E+00  0.77313891421E+03  0.77313891421E+03  0.00000000000E+00 0. -1.
         -3   -1    0    0    0  501 -0.00000000000E+00 -0.00000000000E+00 -0.13867522901E+04  0.13867522901E+04  0.00000000000E+00 0.  1.
         23    2    1    2    0    0  0.19350681750E+03 -0.31808277632E+03 -0.10516567860E+04  0.11196056433E+04  0.94410062670E+02 0.  0.
        254    2    1    2    0    0 -0.19350681750E+03  0.31808277632E+03  0.43804341015E+03  0.10402855610E+04  0.86700085247E+03 0.  0.
         23    2    4    4    0    0 -0.12484175019E+03 -0.28084201122E+03  0.22154283377E+03  0.39274244662E+03  0.10347803791E+03 0.  0.
         23    2    4    4    0    0 -0.68665067311E+02  0.59892478753E+03  0.21650057639E+03  0.64754311436E+03  0.94940996330E+02 0.  0.
          4    1    3    3  502    0 -0.80247468277E+01 -0.19626439842E+01 -0.13445726262E+02  0.15780877281E+02  0.00000000000E+00 0. -1.
         -4    1    3    3    0  502  0.20153156432E+03 -0.31612013233E+03 -0.10382110598E+04  0.11038247660E+04  0.00000000000E+00 0.  1.
         11    1    5    5    0    0 -0.87503693572E+01 -0.42639193228E+02 -0.53945996577E+01  0.43860819287E+02  0.00000000000E+00 0. -1.
        -11    1    5    5    0    0 -0.11609138083E+03 -0.23820281799E+03  0.22693743342E+03  0.34888162733E+03  0.00000000000E+00 0.  1.
          3    1    6    6  503    0 -0.76635122919E+02  0.26219974501E+03  0.87051804951E+02  0.28670483968E+03  0.00000000000E+00 0. -1.
         -3    1    6    6    0  503  0.79700556073E+01  0.33672504252E+03  0.12944877144E+03  0.36083827468E+03  0.00000000000E+00 0.  1.
<mgrwt>
<rscale>  0 0.20708956E+04</rscale>
<asrwt>0</asrwt>
<pdfrwt beam="1">  1        3 0.11894445E+00 0.20708956E+04</pdfrwt>
<pdfrwt beam="2">  1       -3 0.21334651E+00 0.20708956E+04</pdfrwt>
<totfact> 0.16881531E-01</totfact>
</mgrwt>
</event>
<event>
12    2  0.3751044E-008  0.1448320E+04  0.7818608E-02  0.8919566E-01
          2   -1    0    0  501    0  0.00000000000E+00  0.00000000000E+00  0.20825039152E+04  0.20825039152E+04  0.00000000000E+00 0. -1.
         -2   -1    0    0    0  501 -0.00000000000E+00 -0.00000000000E+00 -0.25181601489E+03  0.25181601489E+03  0.00000000000E+00 0.  1.
         23    2    1    2    0    0 -0.40329433130E+03  0.10995106781E+03  0.69711994019E+03  0.81792991548E+03  0.91091056935E+02 0.  0.
        254    2    1    2    0    0  0.40329433130E+03 -0.10995106781E+03  0.11335679601E+04  0.15163900146E+04  0.91636608470E+03 0.  0.
         23    2    4    4    0    0  0.38925732245E+02  0.27757963364E+03  0.86437432884E+03  0.91314359495E+03  0.90125351583E+02 0.  0.
         23    2    4    4    0    0  0.36436859906E+03 -0.38753070145E+03  0.26919363123E+03  0.60324641962E+03  0.92176521609E+02 0.  0.
          1    1    3    3  502    0 -0.38791930908E+03  0.92945779171E+02  0.61801322781E+03  0.73556825514E+03  0.00000000000E+00 0. -1.
         -1    1    3    3    0  502 -0.15375022220E+02  0.17005288643E+02  0.79106712382E+02  0.82361660340E+02  0.00000000000E+00 0.  1.
         11    1    5    5    0    0  0.28754076343E+02  0.17362805807E+03  0.66710486392E+03  0.68992927095E+03  0.00000000000E+00 0. -1.
        -11    1    5    5    0    0  0.10171655902E+02  0.10395157556E+03  0.19726946492E+03  0.22321432399E+03  0.00000000000E+00 0.  1.
          3    1    6    6  503    0  0.28809151542E+03 -0.33224991289E+03  0.18566522700E+03  0.47734505590E+03  0.00000000000E+00 0. -1.
         -3    1    6    6    0  503  0.76277083643E+02 -0.55280788559E+02  0.83528404234E+02  0.12590136372E+03  0.00000000000E+00 0.  1.
<mgrwt>
<rscale>  0 0.14483202E+04</rscale>
<asrwt>0</asrwt>
<pdfrwt beam="1">  1        2 0.32038521E+00 0.14483202E+04</pdfrwt>
<pdfrwt beam="2">  1       -2 0.38740927E-01 0.14483202E+04</pdfrwt>
<totfact> 0.36726027E+01</totfact>
</mgrwt>
</event>
<event>
12    2  0.3751044E-008  0.1677084E+04  0.7818608E-02  0.8774543E-01
          2   -1    0    0  501    0  0.00000000000E+00  0.00000000000E+00  0.17657330569E+04  0.17657330569E+04  0.00000000000E+00 0. -1.
         -2   -1    0    0    0  501 -0.00000000000E+00 -0.00000000000E+00 -0.39822129315E+03  0.39822129315E+03  0.00000000000E+00 0.  1.
         23    2    1    2    0    0  0.30771316196E+03  0.85342557111E+02 -0.15511370510E+03  0.36644923500E+03  0.90851737594E+02 0.  0.
        254    2    1    2    0    0 -0.30771316196E+03 -0.85342557111E+02  0.15226254688E+04  0.17975051150E+04  0.90036968968E+03 0.  0.
         23    2    4    4    0    0 -0.20896239292E+03 -0.48359678845E+03  0.86958649847E+03  0.10207671445E+04  0.90850148942E+02 0.  0.
         23    2    4    4    0    0 -0.98750769048E+02  0.39825423134E+03  0.65303897038E+03  0.77673797052E+03  0.92216217881E+02 0.  0.
          3    1    3    3  502    0  0.75080704427E+01 -0.34501277351E+01  0.96283364012E+01  0.12687764382E+02  0.00000000000E+00 0. -1.
         -3    1    3    3    0  502  0.30020509152E+03  0.88792684846E+02 -0.16474204150E+03  0.35376147062E+03  0.00000000000E+00 0.  1.
         11    1    5    5    0    0 -0.15178208194E+03 -0.34446401356E+03  0.53750522071E+03  0.65620508937E+03  0.00000000000E+00 0. -1.
        -11    1    5    5    0    0 -0.57180310973E+02 -0.13913277489E+03  0.33208127776E+03  0.36456205514E+03  0.00000000000E+00 0.  1.
          2    1    6    6  503    0 -0.90945582308E+02  0.36654996895E+03  0.63656740946E+03  0.74016757931E+03  0.00000000000E+00 0. -1.
         -2    1    6    6    0  503 -0.78051867399E+01  0.31704262392E+02  0.16471560923E+02  0.36570391208E+02  0.00000000000E+00 0.  1.
<mgrwt>
<rscale>  0 0.16770838E+04</rscale>
<asrwt>0</asrwt>
<pdfrwt beam="1">  1        2 0.27165124E+00 0.16770838E+04</pdfrwt>
<pdfrwt beam="2">  1       -2 0.61264815E-01 0.16770838E+04</pdfrwt>
<totfact> 0.21291895E+01</totfact>
</mgrwt>
</event>
<event>
12    2  0.3751044E-008  0.1237101E+04  0.7818608E-02  0.9080988E-01
          2   -1    0    0  501    0  0.00000000000E+00  0.00000000000E+00  0.36122433350E+04  0.36122433350E+04  0.00000000000E+00 0.  1.
         -2   -1    0    0    0  501 -0.00000000000E+00 -0.00000000000E+00 -0.10591887782E+03  0.10591887782E+03  0.00000000000E+00 0. -1.
         23    2    1    2    0    0 -0.20787794282E+03 -0.91480940789E+02  0.95873528700E+03  0.98958026810E+03  0.92270010489E+02 0.  0.
        254    2    1    2    0    0  0.20787794282E+03  0.91480940789E+02  0.25475891702E+04  0.27285819447E+04  0.95045612596E+03 0.  0.
         23    2    4    4    0    0 -0.20507430084E+03 -0.29665942057E+03  0.68516096946E+03  0.77964772975E+03  0.91338643321E+02 0.  0.
         23    2    4    4    0    0  0.41295224366E+03  0.38814036136E+03  0.18624282007E+04  0.19489342150E+04  0.92321588760E+02 0.  0.
          3    1    3    3  502    0  0.21041759824E+01  0.20408016085E+01 -0.68258832433E+00  0.30097100510E+01  0.00000000000E+00 0. -1.
         -3    1    3    3    0  502 -0.20998211880E+03 -0.93521742398E+02  0.95941787532E+03  0.98657055805E+03  0.00000000000E+00 0.  1.
         11    1    5    5    0    0 -0.37438125074E+01 -0.60313728690E+02  0.90587669121E+02  0.10889392911E+03  0.00000000000E+00 0.  1.
        -11    1    5    5    0    0 -0.20133048833E+03 -0.23634569188E+03  0.59457330033E+03  0.67075380064E+03  0.00000000000E+00 0. -1.
          2    1    6    6  503    0  0.14644173657E+03  0.98394082126E+02  0.47384190871E+03  0.50562113490E+03  0.00000000000E+00 0. -1.
         -2    1    6    6    0  503  0.26651050708E+03  0.28974627923E+03  0.13885862920E+04  0.14433130801E+04  0.00000000000E+00 0.  1.
<mgrwt>
<rscale>  0 0.12371011E+04</rscale>
<asrwt>0</asrwt>
<pdfrwt beam="1">  1        2 0.55572965E+00 0.12371011E+04</pdfrwt>
<pdfrwt beam="2">  1       -2 0.16295215E-01 0.12371011E+04</pdfrwt>
<totfact> 0.20854947E+01</totfact>
</mgrwt>
</event>
<event>
12    2  0.3751044E-008  0.1688731E+04  0.7818608E-02  0.8767818E-01
         -2   -1    0    0    0  501 -0.00000000000E+00  0.00000000000E+00  0.16176653214E+04  0.16176653214E+04  0.00000000000E+00 0.  1.
          2   -1    0    0  501    0  0.00000000000E+00 -0.00000000000E+00 -0.44072954197E+03  0.44072954197E+03  0.00000000000E+00 0. -1.
         23    2    1    2    0    0 -0.16428210265E+03 -0.50167357350E+03  0.86368405438E+03  0.10169132913E+04  0.97455182315E+02 0.  0.
        254    2    1    2    0    0  0.16428210265E+03  0.50167357350E+03  0.31325172505E+03  0.10414815721E+04  0.84136332115E+03 0.  0.
         23    2    4    4    0    0  0.26984354170E+02  0.65221296326E+03  0.43297196123E+03  0.78870801626E+03  0.92117918421E+02 0.  0.
         23    2    4    4    0    0  0.13729774848E+03 -0.15053938976E+03 -0.11972023618E+03  0.25277355583E+03  0.89714859244E+02 0.  0.
          4    1    3    3  502    0 -0.13586907132E+03 -0.25914574250E+03  0.47487869936E+03  0.55778732461E+03  0.00000000000E+00 0. -1.
         -4    1    3    3    0  502 -0.28413031339E+02 -0.24252783100E+03  0.38880535502E+03  0.45912596665E+03  0.00000000000E+00 0.  1.
         11    1    5    5    0    0 -0.33888975647E+01  0.12521007810E+03  0.43095038700E+02  0.13246218572E+03  0.00000000000E+00 0. -1.
        -11    1    5    5    0    0  0.30373251735E+02  0.52700288515E+03  0.38987692253E+03  0.65624583054E+03  0.00000000000E+00 0.  1.
          3    1    6    6  503    0  0.35345177652E+02 -0.70841745958E+02 -0.41590856729E+01  0.79278827863E+02  0.00000000000E+00 0. -1.
         -3    1    6    6    0  503  0.10195257083E+03 -0.79697643804E+02 -0.11556115051E+03  0.17349472797E+03  0.00000000000E+00 0.  1.
<mgrwt>
<rscale>  0 0.16887308E+04</rscale>
<asrwt>0</asrwt>
<pdfrwt beam="1">  1        2 0.67804546E-01 0.16887308E+04</pdfrwt>
<pdfrwt beam="2">  1       -2 0.24887158E+00 0.16887308E+04</pdfrwt>
<totfact> 0.44296303E+00</totfact>
</mgrwt>
</event>
<event>
12    2  0.3751044E-008  0.2020688E+04  0.7818608E-02  0.8597009E-01
         -1   -1    0    0    0  501 -0.00000000000E+00  0.00000000000E+00  0.20766710719E+03  0.20766710719E+03  0.00000000000E+00 0.  1.
          1   -1    0    0  501    0  0.00000000000E+00 -0.00000000000E+00 -0.49155344397E+04  0.49155344397E+04  0.00000000000E+00 0. -1.
         23    2    1    2    0    0 -0.66665688002E+03  0.15488935705E+03 -0.82041159628E+03  0.10719427070E+04  0.86970519249E+02 0.  0.
        254    2    1    2    0    0  0.66665688002E+03 -0.15488935705E+03 -0.38874557362E+04  0.40512588398E+04  0.91212059389E+03 0.  0.
         23    2    4    4    0    0  0.84677081630E+03 -0.58547910893E+01 -0.33727205815E+04  0.34785000672E+04  0.87541435623E+02 0.  0.
         23    2    4    4    0    0 -0.18011393628E+03 -0.14903456596E+03 -0.51473515470E+03  0.57275877260E+03  0.91913003484E+02 0.  0.
          4    1    3    3  502    0 -0.38388930711E+03  0.93645010945E+02 -0.40620435103E+03  0.56669424118E+03  0.00000000000E+00 0. -1.
         -4    1    3    3    0  502 -0.28276757291E+03  0.61244346105E+02 -0.41420724525E+03  0.50524846584E+03  0.00000000000E+00 0.  1.
         11    1    5    5    0    0  0.69796117595E+03  0.77518435640E+01 -0.26414351170E+04  0.27321034701E+04  0.00000000000E+00 0.  1.
        -11    1    5    5    0    0  0.14880964036E+03 -0.13606634653E+02 -0.73128546456E+03  0.74639659715E+03  0.00000000000E+00 0. -1.
          2    1    6    6  503    0 -0.77413063733E+02 -0.22719686483E+02 -0.24240989268E+03  0.25548292048E+03  0.00000000000E+00 0. -1.
         -2    1    6    6    0  503 -0.10270087255E+03 -0.12631487948E+03 -0.27232526202E+03  0.31727585212E+03  0.00000000000E+00 0.  1.
<mgrwt>
<rscale>  0 0.20206878E+04</rscale>
<asrwt>0</asrwt>
<pdfrwt beam="1">  1        1 0.75623612E+00 0.20206878E+04</pdfrwt>
<pdfrwt beam="2">  1       -1 0.31948783E-01 0.20206878E+04</pdfrwt>
<totfact> 0.95109907E-02</totfact>
</mgrwt>
</event>
<event>
12    2  0.3751044E-008  0.3664689E+04  0.7818608E-02  0.8075833E-01
          2   -1    0    0  501    0  0.00000000000E+00  0.00000000000E+00  0.18368924678E+04  0.18368924678E+04  0.00000000000E+00 0. -1.
         -2   -1    0    0    0  501 -0.00000000000E+00 -0.00000000000E+00 -0.18278078821E+04  0.18278078821E+04  0.00000000000E+00 0.  1.
         23    2    1    2    0    0 -0.12066814848E+04 -0.42687970565E+03 -0.11439550156E+04  0.17197882117E+04  0.10359501143E+03 0.  0.
        254    2    1    2    0    0  0.12066814848E+04  0.42687970565E+03  0.11530396014E+04  0.19449121382E+04  0.90270505382E+03 0.  0.
         23    2    4    4    0    0  0.58223680530E+03  0.66542090828E+03  0.71823969954E+03  0.11427268230E+04  0.90397142923E+02 0.  0.
         23    2    4    4    0    0  0.62444467949E+03 -0.23854120263E+03  0.43479990186E+03  0.80218531520E+03  0.87276928037E+02 0.  0.
          1    1    3    3  502    0 -0.85560284753E+03 -0.28355327150E+03 -0.74531797720E+03  0.11695971860E+04  0.00000000000E+00 0. -1.
         -1    1    3    3    0  502 -0.35107863726E+03 -0.14332643415E+03 -0.39863703844E+03  0.55019102563E+03  0.00000000000E+00 0.  1.
         11    1    5    5    0    0  0.26066460310E+03  0.36554757304E+03  0.37271391434E+03  0.58351240382E+03  0.00000000000E+00 0. -1.
        -11    1    5    5    0    0  0.32157220220E+03  0.29987333524E+03  0.34552578520E+03  0.55921441921E+03  0.00000000000E+00 0.  1.
          3    1    6    6  503    0  0.30066960536E+03 -0.73093175556E+02  0.17707824708E+03  0.35651301448E+03  0.00000000000E+00 0. -1.
         -3    1    6    6    0  503  0.32377507413E+03 -0.16544802707E+03  0.25772165479E+03  0.44567230073E+03  0.00000000000E+00 0.  1.
<mgrwt>
<rscale>  0 0.36646891E+04</rscale>
<asrwt>0</asrwt>
<pdfrwt beam="1">  1        2 0.28259884E+00 0.36646891E+04</pdfrwt>
<pdfrwt beam="2">  1       -2 0.28120121E+00 0.36646891E+04</pdfrwt>
<totfact> 0.27633783E-01</totfact>
</mgrwt>
</event>
<event>
12    2  0.3751044E-008  0.1867240E+04  0.7818608E-02  0.8671337E-01
         -1   -1    0    0    0  501 -0.00000000000E+00  0.00000000000E+00  0.34141438791E+03  0.34141438791E+03  0.00000000000E+00 0.  1.
          1   -1    0    0  501    0  0.00000000000E+00 -0.00000000000E+00 -0.25530446343E+04  0.25530446343E+04  0.00000000000E+00 0. -1.
         23    2    1    2    0    0 -0.52181672133E+03 -0.30685705233E+03 -0.25652317836E+03  0.66379290214E+03  0.91449082432E+02 0.  0.
        254    2    1    2    0    0  0.52181672133E+03  0.30685705233E+03 -0.19551070681E+04  0.22306661201E+04  0.88711540997E+03 0.  0.
         23    2    4    4    0    0  0.54296693446E+03 -0.14183765773E+03 -0.13977990532E+04  0.15090384939E+04  0.91782187461E+02 0.  0.
         23    2    4    4    0    0 -0.21150213130E+02  0.44869471006E+03 -0.55730801487E+03  0.72162762620E+03  0.91541974543E+02 0.  0.
          4    1    3    3  502    0 -0.24685452105E+03 -0.15479398872E+03 -0.74812129892E+02  0.30082418169E+03  0.00000000000E+00 0. -1.
         -4    1    3    3    0  502 -0.27496220027E+03 -0.15206306361E+03 -0.18171104847E+03  0.36296872046E+03  0.00000000000E+00 0.  1.
         11    1    5    5    0    0  0.49924614669E+03 -0.14370351012E+03 -0.13347583628E+04  0.14322979092E+04  0.00000000000E+00 0. -1.
        -11    1    5    5    0    0  0.43720787767E+02  0.18658523881E+01 -0.63040690430E+02  0.76740584686E+02  0.00000000000E+00 0.  1.
          3    1    6    6  503    0 -0.24589098144E+02  0.31356737499E+03 -0.32112832455E+03  0.44950252862E+03  0.00000000000E+00 0. -1.
         -3    1    6    6    0  503  0.34388850137E+01  0.13512733507E+03 -0.23617969033E+03  0.27212509759E+03  0.00000000000E+00 0.  1.
<mgrwt>
<rscale>  0 0.18672399E+04</rscale>
<asrwt>0</asrwt>
<pdfrwt beam="1">  1        1 0.39277610E+00 0.18672399E+04</pdfrwt>
<pdfrwt beam="2">  1       -1 0.52525290E-01 0.18672399E+04</pdfrwt>
<totfact> 0.42682609E+00</totfact>
</mgrwt>
</event>
<event>
12    2  0.3751044E-008  0.1220147E+04  0.7818608E-02  0.9095403E-01
          1   -1    0    0  501    0  0.00000000000E+00  0.00000000000E+00  0.17194395038E+04  0.17194395038E+04  0.00000000000E+00 0. -1.
         -1   -1    0    0    0  501 -0.00000000000E+00 -0.00000000000E+00 -0.21645977490E+03  0.21645977490E+03  0.00000000000E+00 0.  1.
         23    2    1    2    0    0  0.71295579015E+02  0.13177298660E+03 -0.57125311775E+01  0.17601982288E+03  0.92212610035E+02 0.  0.
        254    2    1    2    0    0 -0.71295579015E+02 -0.13177298660E+03  0.15086922600E+04  0.17598794558E+04  0.89363089906E+03 0.  0.
         23    2    4    4    0    0 -0.29231581449E+03  0.18533439972E+03  0.12130611625E+04  0.12648385308E+04  0.92204933477E+02 0.  0.
         23    2    4    4    0    0  0.22102023547E+03 -0.31710738633E+03  0.29563109752E+03  0.49504092501E+03  0.90888572796E+02 0.  0.
          2    1    3    3  502    0  0.70108863280E+02  0.40963596120E+02  0.15723116041E+02  0.82707226380E+02  0.00000000000E+00 0. -1.
         -2    1    3    3    0  502  0.11867157350E+01  0.90809390485E+02 -0.21435647218E+02  0.93312596503E+02  0.00000000000E+00 0.  1.
         11    1    5    5    0    0 -0.11707915293E+03  0.11178300827E+03  0.44222324693E+03  0.47091864384E+03  0.00000000000E+00 0.  1.
        -11    1    5    5    0    0 -0.17523666155E+03  0.73551391458E+02  0.77083791559E+03  0.79391988692E+03  0.00000000000E+00 0. -1.
          2    1    6    6  503    0  0.21608313653E+03 -0.30923351495E+03  0.30244361605E+03  0.48351776550E+03  0.00000000000E+00 0. -1.
         -2    1    6    6    0  503  0.49370989391E+01 -0.78738713745E+01 -0.68125185332E+01  0.11523159511E+02  0.00000000000E+00 0.  1.
<mgrwt>
<rscale>  0 0.12201467E+04</rscale>
<asrwt>0</asrwt>
<pdfrwt beam="1">  1        1 0.26452915E+00 0.12201467E+04</pdfrwt>
<pdfrwt beam="2">  1       -1 0.33301505E-01 0.12201467E+04</pdfrwt>
<totfact> 0.38764483E+01</totfact>
</mgrwt>
</event>
<event>
12    2  0.3751044E-008  0.1586435E+04  0.7818608E-02  0.8828925E-01
          1   -1    0    0  501    0  0.00000000000E+00  0.00000000000E+00  0.18483366731E+04  0.18483366731E+04  0.00000000000E+00 0. -1.
         -1   -1    0    0    0  501 -0.00000000000E+00 -0.00000000000E+00 -0.34041089565E+03  0.34041089565E+03  0.00000000000E+00 0.  1.
         23    2    1    2    0    0 -0.81307308037E+00  0.34998088202E+03 -0.40431213494E+02  0.36415126161E+03  0.92109605592E+02 0.  0.
        254    2    1    2    0    0  0.81307308037E+00 -0.34998088202E+03  0.15483569910E+04  0.18245963072E+04  0.89958603468E+03 0.  0.
         23    2    4    4    0    0  0.58180339844E+02 -0.21067137001E+03 -0.28997560327E+02  0.23799744868E+03  0.89635645753E+02 0.  0.
         23    2    4    4    0    0 -0.57367266764E+02 -0.13930951201E+03  0.15773545513E+04  0.15865988585E+04  0.80934626880E+02 0.  0.
          4    1    3    3  502    0 -0.81079204091E+00  0.29648526781E+03 -0.67683797284E+02  0.30411390601E+03  0.00000000000E+00 0.  1.
         -4    1    3    3    0  502 -0.22810394531E-02  0.53495614209E+02  0.27252583790E+02  0.60037355605E+02  0.00000000000E+00 0. -1.
         11    1    5    5    0    0  0.69048477770E+01 -0.11636325598E+03  0.22849399729E+02  0.11878627587E+03  0.00000000000E+00 0. -1.
        -11    1    5    5    0    0  0.51275492067E+02 -0.94308114021E+02 -0.51846960057E+02  0.11921117282E+03  0.00000000000E+00 0.  1.
          3    1    6    6  503    0 -0.64882176768E+02 -0.12068352385E+03  0.10552911891E+04  0.10641492864E+04  0.00000000000E+00 0.  1.
         -3    1    6    6    0  503  0.75149100036E+01 -0.18625988162E+02  0.52206336219E+03  0.52244957216E+03  0.00000000000E+00 0. -1.
<mgrwt>
<rscale>  0 0.15864349E+04</rscale>
<asrwt>0</asrwt>
<pdfrwt beam="1">  1        1 0.28435948E+00 0.15864349E+04</pdfrwt>
<pdfrwt beam="2">  1       -1 0.52370908E-01 0.15864349E+04</pdfrwt>
<totfact> 0.13329632E+01</totfact>
</mgrwt>
</event>
<event>
12    2  0.3751044E-008  0.1808055E+04  0.7818608E-02  0.8702028E-01
         -1   -1    0    0    0  501 -0.00000000000E+00  0.00000000000E+00  0.36870419752E+03  0.36870419752E+03  0.00000000000E+00 0.  1.
          1   -1    0    0  501    0  0.00000000000E+00 -0.00000000000E+00 -0.22165879170E+04  0.22165879170E+04  0.00000000000E+00 0. -1.
         23    2    1    2    0    0 -0.60692997285E+03 -0.11202292201E+03 -0.32428194464E+03  0.70296365030E+03  0.89922116424E+02 0.  0.
        254    2    1    2    0    0  0.60692997285E+03  0.11202292201E+03 -0.15236017748E+04  0.18823284642E+04  0.91699779276E+03 0.  0.
         23    2    4    4    0    0  0.54607632129E+03 -0.13879619265E+03 -0.33316763730E+03  0.66078733377E+03  0.90418439259E+02 0.  0.
         23    2    4    4    0    0  0.60853651553E+02  0.25081911466E+03 -0.11904341375E+04  0.12215411304E+04  0.91738227501E+02 0.  0.
          1    1    3    3  502    0 -0.48250677749E+03 -0.83745662535E+02 -0.29615016349E+03  0.57230328118E+03  0.00000000000E+00 0. -1.
         -1    1    3    3    0  502 -0.12442319536E+03 -0.28277259470E+02 -0.28131781152E+02  0.13066036912E+03  0.00000000000E+00 0.  1.
         11    1    5    5    0    0  0.50755544471E+01  0.59851882263E+01  0.20221734093E+01  0.81038827945E+01  0.00000000000E+00 0. -1.
        -11    1    5    5    0    0  0.54100076685E+03 -0.14478138088E+03 -0.33518981071E+03  0.65268345098E+03  0.00000000000E+00 0.  1.
          2    1    6    6  503    0  0.64862698456E+01 -0.69968930052E+01 -0.26765193840E+02  0.28414851918E+02  0.00000000000E+00 0. -1.
         -2    1    6    6    0  503  0.54367381708E+02  0.25781600767E+03 -0.11636689437E+04  0.11931262785E+04  0.00000000000E+00 0.  1.
<mgrwt>
<rscale>  0 0.18080545E+04</rscale>
<asrwt>0</asrwt>
<pdfrwt beam="1">  1        1 0.34101352E+00 0.18080545E+04</pdfrwt>
<pdfrwt beam="2">  1       -1 0.56723723E-01 0.18080545E+04</pdfrwt>
<totfact> 0.62989496E+00</totfact>
</mgrwt>
</event>
<event>
12    2  0.3751044E-008  0.1841595E+04  0.7818608E-02  0.8684487E-01
          2   -1    0    0  501    0  0.00000000000E+00  0.00000000000E+00  0.91023451234E+03  0.91023451234E+03  0.00000000000E+00 0. -1.
         -2   -1    0    0    0  501 -0.00000000000E+00 -0.00000000000E+00 -0.93148294213E+03  0.93148294213E+03  0.00000000000E+00 0.  1.
         23    2    1    2    0    0  0.27450443659E+03  0.33873075418E+03  0.52865678216E+03  0.69119156760E+03  0.90424444967E+02 0.  0.
        254    2    1    2    0    0 -0.27450443659E+03 -0.33873075418E+03 -0.54990521196E+03  0.11505258869E+04  0.91171424508E+03 0.  0.
         23    2    4    4    0    0 -0.21214761953E+03 -0.26598740979E+03 -0.79527633352E+03  0.87088672448E+03  0.10111046230E+03 0.  0.
         23    2    4    4    0    0 -0.62356817061E+02 -0.72743344397E+02  0.24537112155E+03  0.27963916239E+03  0.93867497375E+02 0.  0.
          3    1    3    3  502    0  0.26060504761E+03  0.31309089028E+03  0.52040848366E+03  0.66088265697E+03  0.00000000000E+00 0. -1.
         -3    1    3    3    0  502  0.13899388985E+02  0.25639863902E+02  0.82482985000E+01  0.30308910623E+02  0.00000000000E+00 0.  1.
         11    1    5    5    0    0 -0.12074051374E+03 -0.18249590617E+03 -0.60995716722E+03  0.64802065806E+03  0.00000000000E+00 0. -1.
        -11    1    5    5    0    0 -0.91407105791E+02 -0.83491503622E+02 -0.18531916630E+03  0.22286606642E+03  0.00000000000E+00 0.  1.
          3    1    6    6  503    0 -0.50547083726E+02 -0.22563018886E+02  0.20986762924E+03  0.21704497068E+03  0.00000000000E+00 0. -1.
         -3    1    6    6    0  503 -0.11809733335E+02 -0.50180325511E+02  0.35503492314E+02  0.62594191714E+02  0.00000000000E+00 0.  1.
<mgrwt>
<rscale>  0 0.18415949E+04</rscale>
<asrwt>0</asrwt>
<pdfrwt beam="1">  1        2 0.14003608E+00 0.18415949E+04</pdfrwt>
<pdfrwt beam="2">  1       -2 0.14330507E+00 0.18415949E+04</pdfrwt>
<totfact> 0.91747760E+00</totfact>
</mgrwt>
</event>
<event>
12    2  0.3751044E-008  0.1378049E+04  0.7818608E-02  0.8969863E-01
          2   -1    0    0  501    0  0.00000000000E+00  0.00000000000E+00  0.47193780344E+03  0.47193780344E+03  0.00000000000E+00 0.  1.
         -2   -1    0    0    0  501 -0.00000000000E+00 -0.00000000000E+00 -0.10059691994E+04  0.10059691994E+04  0.00000000000E+00 0. -1.
         23    2    1    2    0    0  0.36158276170E+02 -0.27154536114E+03 -0.38177577392E+03  0.47866802245E+03  0.91247082552E+02 0.  0.
        254    2    1    2    0    0 -0.36158276170E+02  0.27154536114E+03 -0.15225562207E+03  0.99923898042E+03  0.94881634759E+03 0.  0.
         23    2    4    4    0    0  0.33531260942E+03  0.39299845675E+03  0.87218604501E+02  0.53186064371E+03  0.91576887437E+02 0.  0.
         23    2    4    4    0    0 -0.37147088559E+03 -0.12145309561E+03 -0.23947422657E+03  0.46737833671E+03  0.91395465726E+02 0.  0.
          4    1    3    3  502    0  0.41984964468E+02 -0.27734978924E+03 -0.37137010734E+03  0.46540455462E+03  0.00000000000E+00 0. -1.
         -4    1    3    3    0  502 -0.58266882981E+01  0.58044280983E+01 -0.10405666580E+02  0.13263467836E+02  0.00000000000E+00 0.  1.
         11    1    5    5    0    0  0.53514750316E+02  0.68171641523E+02  0.50411249224E+02  0.10026213272E+03  0.00000000000E+00 0.  1.
        -11    1    5    5    0    0  0.28179785911E+03  0.32482681523E+03  0.36807355278E+02  0.43159851099E+03  0.00000000000E+00 0. -1.
          1    1    6    6  503    0 -0.31059220087E+03 -0.10910647670E+03 -0.15862862394E+03  0.36542410817E+03  0.00000000000E+00 0. -1.
         -1    1    6    6    0  503 -0.60878684727E+02 -0.12346618914E+02 -0.80845602631E+02  0.10195422854E+03  0.00000000000E+00 0.  1.
<mgrwt>
<rscale>  0 0.13780492E+04</rscale>
<asrwt>0</asrwt>
<pdfrwt beam="1">  1        2 0.72605817E-01 0.13780492E+04</pdfrwt>
<pdfrwt beam="2">  1       -2 0.15476449E+00 0.13780492E+04</pdfrwt>
<totfact> 0.17675350E+01</totfact>
</mgrwt>
</event>
<event>
12    2  0.3751044E-008  0.1718439E+04  0.7818608E-02  0.8750917E-01
         -2   -1    0    0    0  501 -0.00000000000E+00  0.00000000000E+00  0.36409903364E+03  0.36409903364E+03  0.00000000000E+00 0.  1.
          2   -1    0    0  501    0  0.00000000000E+00 -0.00000000000E+00 -0.20276296033E+04  0.20276296033E+04  0.00000000000E+00 0. -1.
         23    2    1    2    0    0 -0.41910551325E+02  0.12284165932E+03 -0.14511719283E+04  0.14597113915E+04  0.89503146866E+02 0.  0.
        254    2    1    2    0    0  0.41910551325E+02 -0.12284165932E+03 -0.21235864137E+03  0.93201724549E+03  0.89817224726E+03 0.  0.
         23    2    4    4    0    0 -0.34371975009E+02 -0.28470894694E+03 -0.49773998255E+03  0.58250730883E+03  0.96587046131E+02 0.  0.
         23    2    4    4    0    0  0.76282526334E+02  0.16186728762E+03  0.28538134118E+03  0.34950993666E+03  0.93245071239E+02 0.  0.
          3    1    3    3  502    0 -0.51677811660E+02  0.92765617667E+02 -0.13379232765E+04  0.13421306754E+04  0.00000000000E+00 0. -1.
         -3    1    3    3    0  502  0.97672603355E+01  0.30076041655E+02 -0.11324865183E+03  0.11758071609E+03  0.00000000000E+00 0.  1.
         11    1    5    5    0    0 -0.59041208834E+02 -0.20676515818E+03 -0.40741074336E+03  0.46067473208E+03  0.00000000000E+00 0. -1.
        -11    1    5    5    0    0  0.24669233825E+02 -0.77943788761E+02 -0.90329239190E+02  0.12183257675E+03  0.00000000000E+00 0.  1.
          1    1    6    6  503    0  0.75617360974E+02  0.99185636620E+02  0.24506966717E+03  0.27498166768E+03  0.00000000000E+00 0. -1.
         -1    1    6    6    0  503  0.66516536033E+00  0.62681650996E+02  0.40311674005E+02  0.74528268984E+02  0.00000000000E+00 0.  1.
<mgrwt>
<rscale>  0 0.17184388E+04</rscale>
<asrwt>0</asrwt>
<pdfrwt beam="1">  1        2 0.31194301E+00 0.17184388E+04</pdfrwt>
<pdfrwt beam="2">  1       -2 0.56015236E-01 0.17184388E+04</pdfrwt>
<totfact> 0.18339095E+01</totfact>
</mgrwt>
</event>
<event>
12    2  0.3751044E-008  0.1393492E+04  0.7818608E-02  0.8958543E-01
          2   -1    0    0  501    0  0.00000000000E+00  0.00000000000E+00  0.16443400882E+04  0.16443400882E+04  0.00000000000E+00 0. -1.
         -2   -1    0    0    0  501 -0.00000000000E+00 -0.00000000000E+00 -0.29522804404E+03  0.29522804404E+03  0.00000000000E+00 0.  1.
         23    2    1    2    0    0 -0.15632821230E+03  0.20972041991E+03 -0.21604306050E+02  0.27799452340E+03  0.91613560741E+02 0.  0.
        254    2    1    2    0    0  0.15632821230E+03 -0.20972041991E+03  0.13707163502E+04  0.16615736089E+04  0.90196584214E+03 0.  0.
         23    2    4    4    0    0  0.26532106893E+03 -0.20056291688E+03  0.14545112789E+04  0.14948496838E+04  0.91387983553E+02 0.  0.
         23    2    4    4    0    0 -0.10899285663E+03 -0.91575030251E+01 -0.83794928615E+02  0.16672392509E+03  0.93872117677E+02 0.  0.
          4    1    3    3  502    0 -0.17101826644E+02  0.33597426664E+01 -0.23245892409E+02  0.29053947396E+02  0.00000000000E+00 0. -1.
         -4    1    3    3    0  502 -0.13922638566E+03  0.20636067724E+03  0.16415863590E+01  0.24894057600E+03  0.00000000000E+00 0.  1.
         11    1    5    5    0    0  0.10523994847E+03 -0.13606547101E+03  0.69372709593E+03  0.71473529560E+03  0.00000000000E+00 0. -1.
        -11    1    5    5    0    0  0.16008112047E+03 -0.64497445876E+02  0.76078418292E+03  0.78011438818E+03  0.00000000000E+00 0.  1.
          1    1    6    6  503    0 -0.11125488197E+03 -0.18388168948E+02 -0.98157694648E+02  0.14950152688E+03  0.00000000000E+00 0. -1.
         -1    1    6    6    0  503  0.22620253409E+01  0.92306659232E+01  0.14362766033E+02  0.17222398211E+02  0.00000000000E+00 0.  1.
<mgrwt>
<rscale>  0 0.13934925E+04</rscale>
<asrwt>0</asrwt>
<pdfrwt beam="1">  1        2 0.25297539E+00 0.13934925E+04</pdfrwt>
<pdfrwt beam="2">  1       -2 0.45419700E-01 0.13934925E+04</pdfrwt>
<totfact> 0.47140119E+01</totfact>
</mgrwt>
</event>
<event>
12    2  0.3751044E-008  0.1707356E+04  0.7818608E-02  0.8757180E-01
          1   -1    0    0  501    0  0.00000000000E+00  0.00000000000E+00  0.25075433573E+04  0.25075433573E+04  0.00000000000E+00 0. -1.
         -1   -1    0    0    0  501 -0.00000000000E+00 -0.00000000000E+00 -0.29062965997E+03  0.29062965997E+03  0.00000000000E+00 0.  1.
         23    2    1    2    0    0 -0.12059910178E+03  0.32426257179E+03  0.16085754357E+04  0.16478355095E+04  0.90313761227E+02 0.  0.
        254    2    1    2    0    0  0.12059910178E+03 -0.32426257179E+03  0.60833826161E+03  0.11503375077E+04  0.91296800722E+03 0.  0.
         23    2    4    4    0    0  0.12577650941E+03 -0.52948278315E+03  0.71440782810E+03  0.90236930182E+03  0.87863895031E+02 0.  0.
         23    2    4    4    0    0 -0.51774076261E+01  0.20522021136E+03 -0.10606956649E+03  0.24796820585E+03  0.89974093381E+02 0.  0.
          4    1    3    3  502    0 -0.73592693678E+02  0.25145458110E+03  0.13480161495E+04  0.13732417232E+04  0.00000000000E+00 0. -1.
         -4    1    3    3    0  502 -0.47006408104E+02  0.72807990696E+02  0.26055928615E+03  0.27459378637E+03  0.00000000000E+00 0.  1.
         11    1    5    5    0    0  0.25631751398E+02 -0.50869963059E+02  0.11882786601E+03  0.13177557270E+03  0.00000000000E+00 0. -1.
        -11    1    5    5    0    0  0.10014475801E+03 -0.47861282009E+03  0.59557996210E+03  0.77059372912E+03  0.00000000000E+00 0.  1.
          3    1    6    6  503    0  0.12165071048E+02 -0.49997883606E+01 -0.74861818020E+01  0.15133729059E+02  0.00000000000E+00 0. -1.
         -3    1    6    6    0  503 -0.17342478674E+02  0.21021999972E+03 -0.98583384688E+02  0.23283447679E+03  0.00000000000E+00 0.  1.
<mgrwt>
<rscale>  0 0.17073564E+04</rscale>
<asrwt>0</asrwt>
<pdfrwt beam="1">  1        1 0.38577589E+00 0.17073564E+04</pdfrwt>
<pdfrwt beam="2">  1       -1 0.44712257E-01 0.17073564E+04</pdfrwt>
<totfact> 0.63189972E+00</totfact>
</mgrwt>
</event>
<event>
12    2  0.3751044E-008  0.2105506E+04  0.7818608E-02  0.8558822E-01
          1   -1    0    0  501    0  0.00000000000E+00  0.00000000000E+00  0.14613599646E+04  0.14613599646E+04  0.00000000000E+00 0. -1.
         -1   -1    0    0    0  501 -0.00000000000E+00 -0.00000000000E+00 -0.75839542617E+03  0.75839542617E+03  0.00000000000E+00 0.  1.
         23    2    1    2    0    0  0.25557614924E+03  0.68352956350E+03  0.77301374895E+03  0.10662035469E+04  0.81901862207E+02 0.  0.
        254    2    1    2    0    0 -0.25557614924E+03 -0.68352956350E+03 -0.70049210542E+02  0.11535518439E+04  0.89064197769E+03 0.  0.
         23    2    4    4    0    0  0.17998656744E+03 -0.37308451209E+03  0.27989148114E+03  0.50799451729E+03  0.90177440465E+02 0.  0.
         23    2    4    4    0    0 -0.43556271668E+03 -0.31044505141E+03 -0.34994069168E+03  0.64555732660E+03  0.90524936478E+02 0.  0.
          2    1    3    3  502    0  0.11078693191E+03  0.28662992899E+03  0.26773766245E+03  0.40757075014E+03  0.00000000000E+00 0.  1.
         -2    1    3    3    0  502  0.14478921733E+03  0.39689963451E+03  0.50527608649E+03  0.65863279672E+03  0.00000000000E+00 0. -1.
         11    1    5    5    0    0  0.11847272371E+03 -0.20354052133E+03  0.20669668059E+03  0.31334972132E+03  0.00000000000E+00 0. -1.
        -11    1    5    5    0    0  0.61513843732E+02 -0.16954399075E+03  0.73194800557E+02  0.19464479597E+03  0.00000000000E+00 0.  1.
          2    1    6    6  503    0 -0.40203921256E+02 -0.66719192337E+02 -0.55435903457E+02  0.95608290972E+02  0.00000000000E+00 0. -1.
         -2    1    6    6    0  503 -0.39535879542E+03 -0.24372585907E+03 -0.29450478823E+03  0.54994903563E+03  0.00000000000E+00 0.  1.
<mgrwt>
<rscale>  0 0.21055058E+04</rscale>
<asrwt>0</asrwt>
<pdfrwt beam="1">  1        1 0.22482461E+00 0.21055058E+04</pdfrwt>
<pdfrwt beam="2">  1       -1 0.11667622E+00 0.21055058E+04</pdfrwt>
<totfact> 0.42406822E+00</totfact>
</mgrwt>
</event>
<event>
12    2  0.3751044E-008  0.2297658E+04  0.7818608E-02  0.8478845E-01
         -2   -1    0    0    0  501 -0.00000000000E+00  0.00000000000E+00  0.26481686958E+04  0.26481686958E+04  0.00000000000E+00 0.  1.
          2   -1    0    0  501    0  0.00000000000E+00 -0.00000000000E+00 -0.49838522960E+03  0.49838522960E+03  0.00000000000E+00 0. -1.
         23    2    1    2    0    0 -0.75044340835E+03 -0.10812919745E+03  0.17499956532E+04  0.19101908971E+04  0.10717856545E+03 0.  0.
        254    2    1    2    0    0  0.75044340835E+03  0.10812919745E+03  0.39978781299E+03  0.12363630282E+04  0.89101403450E+03 0.  0.
         23    2    4    4    0    0  0.89893703039E+03  0.30837402207E+01  0.15261336753E+03  0.91628851819E+03  0.90534604181E+02 0.  0.
         23    2    4    4    0    0 -0.14849362204E+03  0.10504545723E+03  0.24717444546E+03  0.32007451004E+03  0.90926242722E+02 0.  0.
          2    1    3    3  502    0 -0.11880877626E+03  0.18198237025E+02  0.23537460831E+03  0.26428754678E+03  0.00000000000E+00 0. -1.
         -2    1    3    3    0  502 -0.63163463210E+03 -0.12632743448E+03  0.15146210449E+04  0.16459033504E+04  0.00000000000E+00 0.  1.
         11    1    5    5    0    0  0.47311280984E+02  0.15474292542E+02 -0.52940818100E+01  0.50058349356E+02  0.00000000000E+00 0. -1.
        -11    1    5    5    0    0  0.85162574941E+03 -0.12390552321E+02  0.15790744934E+03  0.86623016883E+03  0.00000000000E+00 0.  1.
          4    1    6    6  503    0 -0.73447698363E+02 -0.97326933822E+00  0.87992118465E+02  0.11462165834E+03  0.00000000000E+00 0. -1.
         -4    1    6    6    0  503 -0.75045923677E+02  0.10601872657E+03  0.15918232700E+03  0.20545285170E+03  0.00000000000E+00 0.  1.
<mgrwt>
<rscale>  0 0.22976581E+04</rscale>
<asrwt>0</asrwt>
<pdfrwt beam="1">  1        2 0.76674652E-01 0.22976581E+04</pdfrwt>
<pdfrwt beam="2">  1       -2 0.40741056E+00 0.22976581E+04</pdfrwt>
<totfact> 0.37238023E-01</totfact>
</mgrwt>
</event>
<event>
12    2  0.3751044E-008  0.2616487E+04  0.7818608E-02  0.8362622E-01
          1   -1    0    0  501    0  0.00000000000E+00  0.00000000000E+00  0.24906128035E+04  0.24906128035E+04  0.00000000000E+00 0. -1.
         -1   -1    0    0    0  501 -0.00000000000E+00 -0.00000000000E+00 -0.68718094001E+03  0.68718094001E+03  0.00000000000E+00 0.  1.
         23    2    1    2    0    0  0.77475402818E+03  0.27981617018E+02 -0.24357461194E+03  0.81789711064E+03  0.92737893767E+02 0.  0.
        254    2    1    2    0    0 -0.77475402818E+03 -0.27981617018E+02  0.20470064754E+04  0.23598966329E+04  0.88195795380E+03 0.  0.
         23    2    4    4    0    0 -0.91669536573E+03 -0.13736984232E+03  0.18807443214E+04  0.20987661756E+04  0.91757234992E+02 0.  0.
         23    2    4    4    0    0  0.14194133756E+03  0.10938822530E+03  0.16626215407E+03  0.26113045731E+03  0.91830739503E+02 0.  0.
          2    1    3    3  502    0  0.34797805993E+03  0.38912049245E+01 -0.15693762438E+03  0.38175029746E+03  0.00000000000E+00 0. -1.
         -2    1    3    3    0  502  0.42677596825E+03  0.24090412093E+02 -0.86636987565E+02  0.43614681318E+03  0.00000000000E+00 0.  1.
         11    1    5    5    0    0 -0.39606751891E+03 -0.30621790778E+02  0.72549951248E+03  0.82713766461E+03  0.00000000000E+00 0. -1.
        -11    1    5    5    0    0 -0.52062784682E+03 -0.10674805154E+03  0.11552448089E+04  0.12716285109E+04  0.00000000000E+00 0.  1.
          3    1    6    6  503    0  0.13097190372E+03  0.51675315151E+02  0.10072019505E+03  0.17311422660E+03  0.00000000000E+00 0. -1.
         -3    1    6    6    0  503  0.10969433836E+02  0.57712910147E+02  0.65541959018E+02  0.88016230709E+02  0.00000000000E+00 0.  1.
<mgrwt>
<rscale>  0 0.26164875E+04</rscale>
<asrwt>0</asrwt>
<pdfrwt beam="1">  1        1 0.38317119E+00 0.26164875E+04</pdfrwt>
<pdfrwt beam="2">  1       -1 0.10572015E+00 0.26164875E+04</pdfrwt>
<totfact> 0.10129900E+00</totfact>
</mgrwt>
</event>
<event>
12    2  0.3751044E-008  0.2830336E+04  0.7818608E-02  0.8293912E-01
          1   -1    0    0  501    0  0.00000000000E+00  0.00000000000E+00  0.11558798488E+04  0.11558798488E+04  0.00000000000E+00 0. -1.
         -1   -1    0    0    0  501 -0.00000000000E+00 -0.00000000000E+00 -0.17326196015E+04  0.17326196015E+04  0.00000000000E+00 0.  1.
         23    2    1    2    0    0  0.31904880225E+03  0.88760389362E+03  0.60818951056E+03  0.11260050994E+04  0.91434090578E+02 0.  0.
        254    2    1    2    0    0 -0.31904880225E+03 -0.88760389362E+03 -0.11849292633E+04  0.17624943509E+04  0.90149662656E+03 0.  0.
         23    2    4    4    0    0 -0.49223046480E+03 -0.22407770785E+03 -0.25890089971E+03  0.60655101876E+03  0.91503075691E+02 0.  0.
         23    2    4    4    0    0  0.17318166255E+03 -0.66352618577E+03 -0.92602836363E+03  0.11559433321E+04  0.91747312996E+02 0.  0.
          1    1    3    3  502    0  0.29421874427E+03  0.86632376088E+03  0.58762463805E+03  0.10873749323E+04  0.00000000000E+00 0. -1.
         -1    1    3    3    0  502  0.24830057978E+02  0.21280132744E+02  0.20564872518E+02  0.38630167103E+02  0.00000000000E+00 0.  1.
         11    1    5    5    0    0 -0.11012283494E+02  0.59272906172E+01 -0.16467379206E+02  0.20677952987E+02  0.00000000000E+00 0.  1.
        -11    1    5    5    0    0 -0.48121818131E+03 -0.23000499847E+03 -0.24243352050E+03  0.58587306578E+03  0.00000000000E+00 0. -1.
          1    1    6    6  503    0  0.17528644899E+03 -0.52837932775E+03 -0.74695264964E+03  0.93158376650E+03  0.00000000000E+00 0. -1.
         -1    1    6    6    0  503 -0.21047864387E+01 -0.13514685802E+03 -0.17907571399E+03  0.22435956565E+03  0.00000000000E+00 0.  1.
<mgrwt>
<rscale>  0 0.28303357E+04</rscale>
<asrwt>0</asrwt>
<pdfrwt beam="1">  1        1 0.17782767E+00 0.28303357E+04</pdfrwt>
<pdfrwt beam="2">  1       -1 0.26655686E+00 0.28303357E+04</pdfrwt>
<totfact> 0.54089215E-01</totfact>
</mgrwt>
</event>
<event>
12    2  0.3751044E-008  0.1922090E+04  0.7818608E-02  0.8643938E-01
         -1   -1    0    0    0  501 -0.00000000000E+00  0.00000000000E+00  0.11520881619E+04  0.11520881619E+04  0.00000000000E+00 0.  1.
          1   -1    0    0  501    0  0.00000000000E+00 -0.00000000000E+00 -0.80168156542E+03  0.80168156542E+03  0.00000000000E+00 0. -1.
         23    2    1    2    0    0  0.48823974103E+02 -0.16989877681E+03 -0.59820827670E+03  0.63037572155E+03  0.90945220903E+02 0.  0.
        254    2    1    2    0    0 -0.48823974103E+02  0.16989877681E+03  0.94861487319E+03  0.13233940058E+04  0.90567772530E+03 0.  0.
         23    2    4    4    0    0 -0.33834014727E+03  0.43214879278E+02  0.38124521840E+02  0.35523617528E+03  0.91638856479E+02 0.  0.
         23    2    4    4    0    0  0.28951617317E+03  0.12668389753E+03  0.91049035135E+03  0.96815783050E+03  0.92024346986E+02 0.  0.
          2    1    3    3  502    0  0.36809609541E+02 -0.10942275523E+03 -0.23337905256E+03  0.26037294193E+03  0.00000000000E+00 0. -1.
         -2    1    3    3    0  502  0.12014364562E+02 -0.60476021580E+02 -0.36482922414E+03  0.37000277962E+03  0.00000000000E+00 0.  1.
         11    1    5    5    0    0 -0.17136293178E+03 -0.20296087749E+02 -0.23943641867E-01  0.17256067379E+03  0.00000000000E+00 0. -1.
        -11    1    5    5    0    0 -0.16697721549E+03  0.63510967027E+02  0.38148465482E+02  0.18267550149E+03  0.00000000000E+00 0.  1.
          2    1    6    6  503    0  0.57994084836E+02  0.56235567457E+02  0.15400070265E+03  0.17390218326E+03  0.00000000000E+00 0. -1.
         -2    1    6    6    0  503  0.23152208833E+03  0.70448330077E+02  0.75648964870E+03  0.79425564725E+03  0.00000000000E+00 0.  1.
<mgrwt>
<rscale>  0 0.19220904E+04</rscale>
<asrwt>0</asrwt>
<pdfrwt beam="1">  1        1 0.12333563E+00 0.19220904E+04</pdfrwt>
<pdfrwt beam="2">  1       -1 0.17724433E+00 0.19220904E+04</pdfrwt>
<totfact> 0.44827586E+00</totfact>
</mgrwt>
</event>
<event>
12    2  0.3751044E-008  0.2271154E+04  0.7818608E-02  0.8489382E-01
          2   -1    0    0  501    0  0.00000000000E+00  0.00000000000E+00  0.64347484942E+03  0.64347484942E+03  0.00000000000E+00 0. -1.
         -2   -1    0    0    0  501 -0.00000000000E+00 -0.00000000000E+00 -0.20040176353E+04  0.20040176353E+04  0.00000000000E+00 0.  1.
         23    2    1    2    0    0 -0.69028557972E+02 -0.16112195736E+03 -0.16703038173E+04  0.16819470696E+04  0.91136576636E+02 0.  0.
        254    2    1    2    0    0  0.69028557972E+02  0.16112195736E+03  0.30976103150E+03  0.96554541513E+03  0.89755268652E+03 0.  0.
         23    2    4    4    0    0  0.28602641283E+03  0.40208878752E+03 -0.91216504330E+01  0.50144973227E+03  0.88781347178E+02 0.  0.
         23    2    4    4    0    0 -0.21699785486E+03 -0.24096683015E+03  0.31888268194E+03  0.46409568286E+03  0.92442175214E+02 0.  0.
          1    1    3    3  502    0 -0.42090987724E+02 -0.29130265549E+02 -0.76088704647E+03  0.76260692438E+03  0.00000000000E+00 0. -1.
         -1    1    3    3    0  502 -0.26937570248E+02 -0.13199169181E+03 -0.90941677087E+03  0.91934014518E+03  0.00000000000E+00 0.  1.
         11    1    5    5    0    0  0.26252842726E+03  0.37713721539E+03 -0.31375451670E+02  0.46058449097E+03  0.00000000000E+00 0. -1.
        -11    1    5    5    0    0  0.23497985568E+02  0.24951572124E+02  0.22253801237E+02  0.40865241303E+02  0.00000000000E+00 0.  1.
          2    1    6    6  503    0 -0.21918957296E+03 -0.21813530374E+03  0.31387596422E+03  0.44061911052E+03  0.00000000000E+00 0. -1.
         -2    1    6    6    0  503  0.21917181062E+01 -0.22831526413E+02  0.50067177151E+01  0.23476572341E+02  0.00000000000E+00 0.  1.
<mgrwt>
<rscale>  0 0.22711538E+04</rscale>
<asrwt>0</asrwt>
<pdfrwt beam="1">  1        2 0.98996130E-01 0.22711538E+04</pdfrwt>
<pdfrwt beam="2">  1       -2 0.30831041E+00 0.22711538E+04</pdfrwt>
<totfact> 0.11699947E+00</totfact>
</mgrwt>
</event>
<event>
12    2  0.3751044E-008  0.1936496E+04  0.7818608E-02  0.8636900E-01
          1   -1    0    0  501    0  0.00000000000E+00  0.00000000000E+00  0.15082287260E+04  0.15082287260E+04  0.00000000000E+00 0. -1.
         -1   -1    0    0    0  501 -0.00000000000E+00 -0.00000000000E+00 -0.62159315375E+03  0.62159315375E+03  0.00000000000E+00 0.  1.
         23    2    1    2    0    0 -0.35040009653E+03  0.64933954129E+03  0.16455484096E+03  0.76184885968E+03  0.94410390227E+02 0.  0.
        254    2    1    2    0    0  0.35040009653E+03 -0.64933954129E+03  0.72208073130E+03  0.13679730201E+04  0.89751185711E+03 0.  0.
         23    2    4    4    0    0  0.39192718446E+03 -0.17013363202E+03 -0.65266192080E+02  0.44156546804E+03  0.90377077155E+02 0.  0.
         23    2    4    4    0    0 -0.41527087935E+02 -0.47920590927E+03  0.78734692338E+03  0.92640755205E+03  0.83384484269E+02 0.  0.
          2    1    3    3  502    0 -0.16324142480E+03  0.32258225749E+03  0.12796844814E+03  0.38351401452E+03  0.00000000000E+00 0. -1.
         -2    1    3    3    0  502 -0.18715867173E+03  0.32675728380E+03  0.36586392826E+02  0.37833484516E+03  0.00000000000E+00 0.  1.
         11    1    5    5    0    0  0.13307460484E+03 -0.44757150810E+02  0.19427299756E+02  0.14173733798E+03  0.00000000000E+00 0. -1.
        -11    1    5    5    0    0  0.25885257962E+03 -0.12537648121E+03 -0.84693491836E+02  0.29982813006E+03  0.00000000000E+00 0.  1.
          3    1    6    6  503    0 -0.45467504331E+02 -0.11190714304E+03  0.18837534205E+03  0.22377616519E+03  0.00000000000E+00 0. -1.
         -3    1    6    6    0  503  0.39404163953E+01 -0.36729876624E+03  0.59897158133E+03  0.70263138686E+03  0.00000000000E+00 0.  1.
<mgrwt>
<rscale>  0 0.19364965E+04</rscale>
<asrwt>0</asrwt>
<pdfrwt beam="1">  1        1 0.23203519E+00 0.19364965E+04</pdfrwt>
<pdfrwt beam="2">  1       -1 0.95629716E-01 0.19364965E+04</pdfrwt>
<totfact> 0.63524311E+00</totfact>
</mgrwt>
</event>
<event>
12    2  0.3751044E-008  0.1847497E+04  0.7818608E-02  0.8681441E-01
         -1   -1    0    0    0  501 -0.00000000000E+00  0.00000000000E+00  0.11320398718E+04  0.11320398718E+04  0.00000000000E+00 0.  1.
          1   -1    0    0  501    0  0.00000000000E+00 -0.00000000000E+00 -0.75378232525E+03  0.75378232525E+03  0.00000000000E+00 0. -1.
         23    2    1    2    0    0  0.68697093665E+03  0.10345596449E+03  0.22649312059E+03  0.73645675438E+03  0.91854303199E+02 0.  0.
        254    2    1    2    0    0 -0.68697093665E+03 -0.10345596449E+03  0.15176442600E+03  0.11493654427E+04  0.90298187995E+03 0.  0.
         23    2    4    4    0    0 -0.69783324181E+03 -0.20852369784E+03  0.42223897107E+03  0.84673748671E+03  0.90693201383E+02 0.  0.
         23    2    4    4    0    0  0.10862305159E+02  0.10506773335E+03 -0.27047454507E+03  0.30262795601E+03  0.85264189217E+02 0.  0.
          3    1    3    3  502    0  0.29689849531E+02  0.14942333736E+02 -0.57962951368E+01  0.33739554532E+02  0.00000000000E+00 0. -1.
         -3    1    3    3    0  502  0.65728108712E+03  0.88513630753E+02  0.23228941572E+03  0.70271719985E+03  0.00000000000E+00 0.  1.
         11    1    5    5    0    0 -0.44728236493E+03 -0.11816037736E+03  0.21978912060E+03  0.51218223933E+03  0.00000000000E+00 0. -1.
        -11    1    5    5    0    0 -0.25055087688E+03 -0.90363320481E+02  0.20244985046E+03  0.33455524738E+03  0.00000000000E+00 0.  1.
          4    1    6    6  503    0  0.11763738624E+02  0.26996509878E+02 -0.10631862374E+02  0.31308682335E+02  0.00000000000E+00 0. -1.
         -4    1    6    6    0  503 -0.90143346558E+00  0.78071223474E+02 -0.25984268269E+03  0.27131927367E+03  0.00000000000E+00 0.  1.
<mgrwt>
<rscale>  0 0.18474974E+04</rscale>
<asrwt>0</asrwt>
<pdfrwt beam="1">  1        1 0.11596651E+00 0.18474974E+04</pdfrwt>
<pdfrwt beam="2">  1       -1 0.17415998E+00 0.18474974E+04</pdfrwt>
<totfact> 0.52386031E+00</totfact>
</mgrwt>
</event>
<event>
12    2  0.3751044E-008  0.1121518E+04  0.7818608E-02  0.9184469E-01
          1   -1    0    0  501    0  0.00000000000E+00  0.00000000000E+00  0.23194874612E+03  0.23194874612E+03  0.00000000000E+00 0. -1.
         -1   -1    0    0    0  501 -0.00000000000E+00 -0.00000000000E+00 -0.13556896044E+04  0.13556896044E+04  0.00000000000E+00 0.  1.
         23    2    1    2    0    0 -0.17868074803E+03 -0.23537519560E+02 -0.20382455510E+03  0.28615167124E+03  0.88642569628E+02 0.  0.
        254    2    1    2    0    0  0.17868074803E+03  0.23537519560E+02 -0.91991630314E+03  0.13014866792E+04  0.90285145338E+03 0.  0.
         23    2    4    4    0    0 -0.15311236630E+02 -0.40509469788E+03 -0.27495992714E+03  0.49799025284E+03  0.89750666700E+02 0.  0.
         23    2    4    4    0    0  0.19399198466E+03  0.42863221744E+03 -0.64495637600E+03  0.80349642639E+03  0.90990726643E+02 0.  0.
          1    1    3    3  502    0  0.27864640364E+01 -0.17527003540E+02 -0.92219384176E+01  0.20000109577E+02  0.00000000000E+00 0. -1.
         -1    1    3    3    0  502 -0.18146721207E+03 -0.60105160201E+01 -0.19460261668E+03  0.26615156167E+03  0.00000000000E+00 0.  1.
         11    1    5    5    0    0 -0.54065392416E+00 -0.31796125195E+03 -0.16924134721E+03  0.36019756198E+03  0.00000000000E+00 0. -1.
        -11    1    5    5    0    0 -0.14770582706E+02 -0.87133445924E+02 -0.10571857992E+03  0.13779269086E+03  0.00000000000E+00 0.  1.
          1    1    6    6  503    0  0.51799394166E+02  0.72270759008E+02 -0.74439038120E+02  0.11596296926E+03  0.00000000000E+00 0. -1.
         -1    1    6    6    0  503  0.14219259050E+03  0.35636145843E+03 -0.57051733788E+03  0.68753345713E+03  0.00000000000E+00 0.  1.
<mgrwt>
<rscale>  0 0.11215177E+04</rscale>
<asrwt>0</asrwt>
<pdfrwt beam="1">  1        1 0.35684423E-01 0.11215177E+04</pdfrwt>
<pdfrwt beam="2">  1       -1 0.20856763E+00 0.11215177E+04</pdfrwt>
<totfact> 0.16058517E+01</totfact>
</mgrwt>
</event>
<event>
12    2  0.3751044E-008  0.1746248E+04  0.7818608E-02  0.8735418E-01
          2   -1    0    0  501    0  0.00000000000E+00  0.00000000000E+00  0.12377648843E+04  0.12377648843E+04  0.00000000000E+00 0. -1.
         -2   -1    0    0    0  501 -0.00000000000E+00 -0.00000000000E+00 -0.61590526533E+03  0.61590526533E+03  0.00000000000E+00 0.  1.
         23    2    1    2    0    0 -0.37387056984E+03  0.51884748159E+03  0.21553301673E+03  0.67921818803E+03  0.76817664043E+02 0.  0.
        254    2    1    2    0    0  0.37387056984E+03 -0.51884748159E+03  0.40632660224E+03  0.11744519616E+04  0.89735956578E+03 0.  0.
         23    2    4    4    0    0 -0.17900023669E+03 -0.15631992654E+03 -0.15835970342E+03  0.29997777148E+03  0.91825179260E+02 0.  0.
         23    2    4    4    0    0  0.55287080653E+03 -0.36252755505E+03  0.56468630565E+03  0.87447419012E+03  0.93499350353E+02 0.  0.
          3    1    3    3  502    0 -0.35535894527E+02  0.69157846908E+02  0.34569649373E+01  0.77830316685E+02  0.00000000000E+00 0. -1.
         -3    1    3    3    0  502 -0.33833467531E+03  0.44968963468E+03  0.21207605180E+03  0.60138787134E+03  0.00000000000E+00 0.  1.
         11    1    5    5    0    0 -0.59345781748E+02 -0.20343440046E+02 -0.82410163822E+02  0.10357225722E+03  0.00000000000E+00 0. -1.
        -11    1    5    5    0    0 -0.11965445495E+03 -0.13597648649E+03 -0.75949539594E+02  0.19640551426E+03  0.00000000000E+00 0.  1.
          1    1    6    6  503    0  0.31264540694E+03 -0.25928559877E+03  0.33758375788E+03  0.52814672753E+03  0.00000000000E+00 0. -1.
         -1    1    6    6    0  503  0.24022539959E+03 -0.10324195627E+03  0.22710254777E+03  0.34632746260E+03  0.00000000000E+00 0.  1.
<mgrwt>
<rscale>  0 0.17462484E+04</rscale>
<asrwt>0</asrwt>
<pdfrwt beam="1">  1        2 0.19042537E+00 0.17462484E+04</pdfrwt>
<pdfrwt beam="2">  1       -2 0.94754657E-01 0.17462484E+04</pdfrwt>
<totfact> 0.15991116E+01</totfact>
</mgrwt>
</event>
<event>
12    2  0.3751044E-008  0.1226470E+04  0.7818608E-02  0.9089997E-01
          1   -1    0    0  501    0  0.00000000000E+00  0.00000000000E+00  0.70540240301E+03  0.70540240301E+03  0.00000000000E+00 0. -1.
         -1   -1    0    0    0  501 -0.00000000000E+00 -0.00000000000E+00 -0.53311045494E+03  0.53311045494E+03  0.00000000000E+00 0.  1.
         23    2    1    2    0    0  0.13710077423E+03 -0.17060773098E+03  0.19649701522E+03  0.30891164586E+03  0.94401842099E+02 0.  0.
        254    2    1    2    0    0 -0.13710077423E+03  0.17060773098E+03 -0.24205067144E+02  0.92960121209E+03  0.90314390220E+03 0.  0.
         23    2    4    4    0    0 -0.28236637204E+03  0.48520195733E+03 -0.28680555880E+02  0.57121182996E+03  0.10153163520E+03 0.  0.
         23    2    4    4    0    0  0.14526559781E+03 -0.31459422635E+03  0.44754887360E+01  0.35838938213E+03  0.91385436819E+02 0.  0.
          3    1    3    3  502    0  0.58635664159E+02 -0.10928135906E+03  0.16091007076E+03  0.20315660812E+03  0.00000000000E+00 0. -1.
         -3    1    3    3    0  502  0.78465110073E+02 -0.61326371916E+02  0.35586944457E+02  0.10575503774E+03  0.00000000000E+00 0.  1.
         11    1    5    5    0    0 -0.52262156624E+02  0.55392249481E+02 -0.34600582688E+02  0.83647083869E+02  0.00000000000E+00 0.  1.
        -11    1    5    5    0    0 -0.23010421541E+03  0.42980970785E+03  0.59200268081E+01  0.48756474609E+03  0.00000000000E+00 0. -1.
          2    1    6    6  503    0  0.33195185449E+02 -0.33448330047E+02  0.28002971933E+02  0.54816763467E+02  0.00000000000E+00 0.  1.
         -2    1    6    6    0  503  0.11207041236E+03 -0.28114589631E+03 -0.23527483197E+02  0.30357261866E+03  0.00000000000E+00 0. -1.
<mgrwt>
<rscale>  0 0.12264704E+04</rscale>
<asrwt>0</asrwt>
<pdfrwt beam="1">  1        1 0.10852345E+00 0.12264704E+04</pdfrwt>
<pdfrwt beam="2">  1       -1 0.82016994E-01 0.12264704E+04</pdfrwt>
<totfact> 0.39357708E+01</totfact>
</mgrwt>
</event>
<event>
12    2  0.3751044E-008  0.1356393E+04  0.7818608E-02  0.8986003E-01
         -1   -1    0    0    0  501 -0.00000000000E+00  0.00000000000E+00  0.31452715820E+03  0.31452715820E+03  0.00000000000E+00 0.  1.
          1   -1    0    0  501    0  0.00000000000E+00 -0.00000000000E+00 -0.14623552214E+04  0.14623552214E+04  0.00000000000E+00 0. -1.
         23    2    1    2    0    0 -0.25505103068E+03  0.74007226322E+02  0.21449914600E+02  0.28280333829E+03  0.94813139973E+02 0.  0.
        254    2    1    2    0    0  0.25505103068E+03 -0.74007226322E+02 -0.11692779778E+04  0.14940790413E+04  0.89136585898E+03 0.  0.
         23    2    4    4    0    0 -0.90027151794E+02  0.35004085128E+03 -0.41416719885E+03  0.55726307919E+03  0.91510574255E+02 0.  0.
         23    2    4    4    0    0  0.34507818247E+03 -0.42404807760E+03 -0.75511077896E+03  0.93681596214E+03  0.92391202412E+02 0.  0.
          3    1    3    3  502    0 -0.61405347167E+02  0.61659699702E+02  0.17281056323E+02  0.88719615281E+02  0.00000000000E+00 0. -1.
         -3    1    3    3    0  502 -0.19364568351E+03  0.12347526621E+02  0.41688582766E+01  0.19408372300E+03  0.00000000000E+00 0.  1.
         11    1    5    5    0    0 -0.60044014291E+02  0.30567294032E+03 -0.30651076211E+03  0.43702411534E+03  0.00000000000E+00 0.  1.
        -11    1    5    5    0    0 -0.29983137503E+02  0.44367910964E+02 -0.10765643674E+03  0.12023896386E+03  0.00000000000E+00 0. -1.
          2    1    6    6  503    0  0.12926882605E+03 -0.97553364833E+02 -0.19426341294E+03  0.25291374416E+03  0.00000000000E+00 0. -1.
         -2    1    6    6    0  503  0.21580935642E+03 -0.32649471277E+03 -0.56084736602E+03  0.68390221798E+03  0.00000000000E+00 0.  1.
<mgrwt>
<rscale>  0 0.13563929E+04</rscale>
<asrwt>0</asrwt>
<pdfrwt beam="1">  1        1 0.22497772E+00 0.13563929E+04</pdfrwt>
<pdfrwt beam="2">  1       -1 0.48388795E-01 0.13563929E+04</pdfrwt>
<totfact> 0.29034650E+01</totfact>
</mgrwt>
</event>
<event>
12    2  0.3751044E-008  0.1578811E+04  0.7818608E-02  0.8833672E-01
         -2   -1    0    0    0  501 -0.00000000000E+00  0.00000000000E+00  0.13298312868E+04  0.13298312868E+04  0.00000000000E+00 0.  1.
          2   -1    0    0  501    0  0.00000000000E+00 -0.00000000000E+00 -0.46860135749E+03  0.46860135749E+03  0.00000000000E+00 0. -1.
         23    2    1    2    0    0 -0.22783389128E+02 -0.36625114089E+03  0.70547293878E+03  0.80049445207E+03  0.91871211107E+02 0.  0.
        254    2    1    2    0    0  0.22783389128E+02  0.36625114089E+03  0.15575699056E+03  0.99793819225E+03  0.91485595282E+03 0.  0.
         23    2    4    4    0    0 -0.20144996924E+03 -0.90036296744E+02 -0.24641557842E+03  0.34320670468E+03  0.91550969448E+02 0.  0.
         23    2    4    4    0    0  0.22423335837E+03  0.45628743764E+03  0.40217256899E+03  0.65473148757E+03  0.91933241108E+02 0.  0.
          2    1    3    3  502    0  0.24514624107E+02 -0.52658127049E+02  0.76107931034E+02  0.95740599046E+02  0.00000000000E+00 0. -1.
         -2    1    3    3    0  502 -0.47298013235E+02 -0.31359301384E+03  0.62936500774E+03  0.70475385303E+03  0.00000000000E+00 0.  1.
         11    1    5    5    0    0 -0.17063046734E+03 -0.73774121676E+02 -0.24602252200E+03  0.30835767988E+03  0.00000000000E+00 0.  1.
        -11    1    5    5    0    0 -0.30819501907E+02 -0.16262175068E+02 -0.39305642313E+00  0.34849024794E+02  0.00000000000E+00 0. -1.
          4    1    6    6  503    0  0.13659168849E+02  0.65347776664E+00  0.18212609983E+02  0.22774966284E+02  0.00000000000E+00 0. -1.
         -4    1    6    6    0  503  0.21057418952E+03  0.45563395987E+03  0.38395995900E+03  0.63195652129E+03  0.00000000000E+00 0.  1.
<mgrwt>
<rscale>  0 0.15788106E+04</rscale>
<asrwt>0</asrwt>
<pdfrwt beam="1">  1        2 0.72092517E-01 0.15788106E+04</pdfrwt>
<pdfrwt beam="2">  1       -2 0.20458943E+00 0.15788106E+04</pdfrwt>
<totfact> 0.79066551E+00</totfact>
</mgrwt>
</event>
<event>
12    2  0.3751044E-008  0.1668396E+04  0.7818608E-02  0.8779597E-01
         -2   -1    0    0    0  501 -0.00000000000E+00  0.00000000000E+00  0.11848239430E+04  0.11848239430E+04  0.00000000000E+00 0.  1.
          2   -1    0    0  501    0  0.00000000000E+00 -0.00000000000E+00 -0.58733311579E+03  0.58733311579E+03  0.00000000000E+00 0. -1.
         23    2    1    2    0    0  0.54138950363E+03  0.75456826385E+02 -0.18946192225E+02  0.55466349368E+03  0.92175407400E+02 0.  0.
        254    2    1    2    0    0 -0.54138950363E+03 -0.75456826385E+02  0.61643701943E+03  0.12174935651E+04  0.89638142262E+03 0.  0.
         23    2    4    4    0    0 -0.76073867095E+03 -0.17753821778E+03  0.51376613641E+03  0.93946158706E+03  0.91593047636E+02 0.  0.
         23    2    4    4    0    0  0.21934916732E+03  0.10208139140E+03  0.10267088302E+03  0.27803197804E+03  0.90696212258E+02 0.  0.
          3    1    3    3  502    0  0.31579066235E+03  0.63540458779E+02  0.29983282954E+02  0.32351217842E+03  0.00000000000E+00 0. -1.
         -3    1    3    3    0  502  0.22559884129E+03  0.11916367606E+02 -0.48929475179E+02  0.23115131526E+03  0.00000000000E+00 0.  1.
         11    1    5    5    0    0 -0.93078006880E+02 -0.15258689753E+02  0.29395274668E+02  0.98794863988E+02  0.00000000000E+00 0. -1.
        -11    1    5    5    0    0 -0.66766066407E+03 -0.16227952803E+03  0.48437086174E+03  0.84066672307E+03  0.00000000000E+00 0.  1.
          1    1    6    6  503    0  0.97225362954E+02  0.32830894072E+02  0.91000670840E+02  0.13715597289E+03  0.00000000000E+00 0. -1.
         -1    1    6    6    0  503  0.12212380436E+03  0.69250497328E+02  0.11670212176E+02  0.14087600514E+03  0.00000000000E+00 0.  1.
<mgrwt>
<rscale>  0 0.16683960E+04</rscale>
<asrwt>0</asrwt>
<pdfrwt beam="1">  1        2 0.90358941E-01 0.16683960E+04</pdfrwt>
<pdfrwt beam="2">  1       -2 0.18228061E+00 0.16683960E+04</pdfrwt>
<totfact> 0.84818900E+00</totfact>
</mgrwt>
</event>
<event>
12    2  0.3751044E-008  0.1300187E+04  0.7818608E-02  0.9029417E-01
         -1   -1    0    0    0  501 -0.00000000000E+00  0.00000000000E+00  0.28914477640E+03  0.28914477640E+03  0.00000000000E+00 0.  1.
          1   -1    0    0  501    0  0.00000000000E+00 -0.00000000000E+00 -0.14616264828E+04  0.14616264828E+04  0.00000000000E+00 0. -1.
         23    2    1    2    0    0 -0.95537356346E+02 -0.16047926599E+03  0.58671486554E+02  0.21617022870E+03  0.91685566860E+02 0.  0.
        254    2    1    2    0    0  0.95537356346E+02  0.16047926599E+03 -0.12311531929E+04  0.15346010305E+04  0.89687298821E+03 0.  0.
         23    2    4    4    0    0  0.45013131112E+03  0.26212664842E+03 -0.81460437940E+03  0.97117604043E+03  0.90961692499E+02 0.  0.
         23    2    4    4    0    0 -0.35459395478E+03 -0.10164738243E+03 -0.41654881354E+03  0.56342499005E+03  0.88689019786E+02 0.  0.
          1    1    3    3  502    0 -0.35583843360E+02 -0.28271334712E+02 -0.21565778218E+02  0.50304682335E+02  0.00000000000E+00 0. -1.
         -1    1    3    3    0  502 -0.59953512986E+02 -0.13220793128E+03  0.80237264772E+02  0.16586554636E+03  0.00000000000E+00 0.  1.
         11    1    5    5    0    0  0.19353976545E+03  0.62508863301E+02 -0.32941810713E+03  0.38714504789E+03  0.00000000000E+00 0. -1.
        -11    1    5    5    0    0  0.25659154568E+03  0.19961778512E+03 -0.48518627227E+03  0.58403099253E+03  0.00000000000E+00 0.  1.
          1    1    6    6  503    0 -0.41087783656E+02  0.14527730327E+02 -0.65174314676E+02  0.78402501285E+02  0.00000000000E+00 0. -1.
         -1    1    6    6    0  503 -0.31350617112E+03 -0.11617511275E+03 -0.35137449887E+03  0.48502248876E+03  0.00000000000E+00 0.  1.
<mgrwt>
<rscale>  0 0.13001872E+04</rscale>
<asrwt>0</asrwt>
<pdfrwt beam="1">  1        1 0.22486562E+00 0.13001872E+04</pdfrwt>
<pdfrwt beam="2">  1       -1 0.44483811E-01 0.13001872E+04</pdfrwt>
<totfact> 0.34195434E+01</totfact>
</mgrwt>
</event>
<event>
12    2  0.3751044E-008  0.4067480E+04  0.7818608E-02  0.7991070E-01
          2   -1    0    0  501    0  0.00000000000E+00  0.00000000000E+00  0.20575225727E+04  0.20575225727E+04  0.00000000000E+00 0. -1.
         -2   -1    0    0    0  501 -0.00000000000E+00 -0.00000000000E+00 -0.20102323641E+04  0.20102323641E+04  0.00000000000E+00 0.  1.
         23    2    1    2    0    0  0.65251319820E+03  0.91374239683E+03 -0.15565989801E+04  0.19214489880E+04  0.90924073830E+02 0.  0.
        254    2    1    2    0    0 -0.65251319820E+03 -0.91374239683E+03  0.16038891887E+04  0.21463059488E+04  0.87947146326E+03 0.  0.
         23    2    4    4    0    0  0.48203012051E+01 -0.37431124879E+03  0.74092993346E+02  0.39374908013E+03  0.97038240750E+02 0.  0.
         23    2    4    4    0    0 -0.65733349940E+03 -0.53943114804E+03  0.15297961954E+04  0.17525568687E+04  0.90032692443E+02 0.  0.
          3    1    3    3  502    0  0.22120915724E+03  0.23942003472E+03 -0.45924010811E+03  0.56316686797E+03  0.00000000000E+00 0. -1.
         -3    1    3    3    0  502  0.43130404095E+03  0.67432236211E+03 -0.10973588720E+04  0.13582821201E+04  0.00000000000E+00 0.  1.
         11    1    5    5    0    0  0.12074114045E+02 -0.37707699278E+03  0.77700652146E+02  0.38518856948E+03  0.00000000000E+00 0.  1.
        -11    1    5    5    0    0 -0.72538128400E+01  0.27657439936E+01 -0.36076588003E+01  0.85605106492E+01  0.00000000000E+00 0. -1.
          1    1    6    6  503    0 -0.29212929473E+03 -0.29521200402E+03  0.71550995768E+03  0.82731139947E+03  0.00000000000E+00 0. -1.
         -1    1    6    6    0  503 -0.36520420467E+03 -0.24421914402E+03  0.81428623770E+03  0.92524546923E+03  0.00000000000E+00 0.  1.
<mgrwt>
<rscale>  0 0.40674800E+04</rscale>
<asrwt>0</asrwt>
<pdfrwt beam="1">  1        2 0.31654193E+00 0.40674800E+04</pdfrwt>
<pdfrwt beam="2">  1       -2 0.30926652E+00 0.40674800E+04</pdfrwt>
<totfact> 0.13576669E-01</totfact>
</mgrwt>
</event>
<event>
12    2  0.3751044E-008  0.1552717E+04  0.7818608E-02  0.8850134E-01
         -2   -1    0    0    0  501 -0.00000000000E+00  0.00000000000E+00  0.42330393227E+03  0.42330393227E+03  0.00000000000E+00 0.  1.
          2   -1    0    0  501    0  0.00000000000E+00 -0.00000000000E+00 -0.14238760578E+04  0.14238760578E+04  0.00000000000E+00 0. -1.
         23    2    1    2    0    0  0.55135065202E+02  0.14729440634E+03  0.24268183725E+03  0.30709818036E+03  0.10334070202E+03 0.  0.
        254    2    1    2    0    0 -0.55135065202E+02 -0.14729440634E+03 -0.12432539628E+04  0.15400818097E+04  0.89522960580E+03 0.  0.
         23    2    4    4    0    0  0.10989559087E+03  0.26766990334E+03 -0.11663351727E+03  0.32473099455E+03  0.90125598060E+02 0.  0.
         23    2    4    4    0    0 -0.16503065607E+03 -0.41496430968E+03 -0.11266204455E+04  0.12153508152E+04  0.91506720547E+02 0.  0.
          1    1    3    3  502    0 -0.36571043362E+01  0.74293438695E+02  0.41558234717E+02  0.85205494647E+02  0.00000000000E+00 0. -1.
         -1    1    3    3    0  502  0.58792169538E+02  0.73000967647E+02  0.20112360253E+03  0.22189268571E+03  0.00000000000E+00 0.  1.
         11    1    5    5    0    0  0.94092418050E+02  0.26841648496E+03 -0.11974138426E+03  0.30860782822E+03  0.00000000000E+00 0.  1.
        -11    1    5    5    0    0  0.15803172822E+02 -0.74658162118E+00  0.31078669940E+01  0.16123166333E+02  0.00000000000E+00 0. -1.
          4    1    6    6  503    0  0.11767710554E+01 -0.95425272099E+02 -0.25244680857E+03  0.26988286071E+03  0.00000000000E+00 0. -1.
         -4    1    6    6    0  503 -0.16620742713E+03 -0.31953903758E+03 -0.87417363695E+03  0.94546795446E+03  0.00000000000E+00 0.  1.
<mgrwt>
<rscale>  0 0.15527168E+04</rscale>
<asrwt>0</asrwt>
<pdfrwt beam="1">  1        2 0.21905786E+00 0.15527168E+04</pdfrwt>
<pdfrwt beam="2">  1       -2 0.65123682E-01 0.15527168E+04</pdfrwt>
<totfact> 0.29339332E+01</totfact>
</mgrwt>
</event>
<event>
12    2  0.3751044E-008  0.1072485E+04  0.7818608E-02  0.9232432E-01
         -2   -1    0    0    0  501 -0.00000000000E+00  0.00000000000E+00  0.94894355345E+02  0.94894355345E+02  0.00000000000E+00 0.  1.
          2   -1    0    0  501    0  0.00000000000E+00 -0.00000000000E+00 -0.30302766946E+04  0.30302766946E+04  0.00000000000E+00 0. -1.
         23    2    1    2    0    0 -0.72024262021E+02  0.62241515847E+02 -0.71097849450E+03  0.72288138427E+03  0.89473881486E+02 0.  0.
        254    2    1    2    0    0  0.72024262021E+02 -0.62241515847E+02 -0.22244038447E+04  0.24022896656E+04  0.90219824463E+03 0.  0.
         23    2    4    4    0    0 -0.36528341334E+03 -0.18079042059E+03 -0.76642736058E+03  0.87282926867E+03  0.91120167651E+02 0.  0.
         23    2    4    4    0    0  0.43730767536E+03  0.11854890474E+03 -0.14579764841E+04  0.15294603970E+04  0.90894619595E+02 0.  0.
          4    1    3    3  502    0 -0.71864935278E+02  0.42508691073E+02 -0.68593175169E+03  0.69099488111E+03  0.00000000000E+00 0. -1.
         -4    1    3    3    0  502 -0.15932674234E+00  0.19732824775E+02 -0.25046742810E+02  0.31886503163E+02  0.00000000000E+00 0.  1.
         11    1    5    5    0    0 -0.12908937402E+03 -0.17191456744E+02 -0.23079642642E+03  0.26500302473E+03  0.00000000000E+00 0. -1.
        -11    1    5    5    0    0 -0.23619403932E+03 -0.16359896384E+03 -0.53563093416E+03  0.60782624393E+03  0.00000000000E+00 0.  1.
          2    1    6    6  503    0  0.14721241451E+03  0.72897570678E+02 -0.42819284738E+03  0.45862257396E+03  0.00000000000E+00 0. -1.
         -2    1    6    6    0  503  0.29009526086E+03  0.45651334060E+02 -0.10297836367E+04  0.10708378230E+04  0.00000000000E+00 0.  1.
<mgrwt>
<rscale>  0 0.10724853E+04</rscale>
<asrwt>0</asrwt>
<pdfrwt beam="1">  1        2 0.46619638E+00 0.10724853E+04</pdfrwt>
<pdfrwt beam="2">  1       -2 0.14599133E-01 0.10724853E+04</pdfrwt>
<totfact> 0.62206197E+01</totfact>
</mgrwt>
</event>
<event>
12    2  0.3751044E-008  0.1525019E+04  0.7818608E-02  0.8867984E-01
          2   -1    0    0  501    0  0.00000000000E+00  0.00000000000E+00  0.23676652729E+04  0.23676652729E+04  0.00000000000E+00 0. -1.
         -2   -1    0    0    0  501 -0.00000000000E+00 -0.00000000000E+00 -0.24556709376E+03  0.24556709376E+03  0.00000000000E+00 0.  1.
         23    2    1    2    0    0 -0.48667569321E+03 -0.81126290099E+02  0.75381884757E+03  0.90560093125E+03  0.91844904104E+02 0.  0.
        254    2    1    2    0    0  0.48667569321E+03  0.81126290099E+02  0.13682793315E+04  0.17076314354E+04  0.89464075733E+03 0.  0.
         23    2    4    4    0    0  0.12459845765E+03  0.46081411975E+02  0.13198233647E+04  0.13298564064E+04  0.94530817769E+02 0.  0.
         23    2    4    4    0    0  0.36207723557E+03  0.35044878123E+02  0.48455966861E+02  0.37777502899E+03  0.89654468966E+02 0.  0.
          1    1    3    3  502    0 -0.41472091916E+03 -0.10062776359E+03  0.62586811047E+03  0.75751586076E+03  0.00000000000E+00 0. -1.
         -1    1    3    3    0  502 -0.71954774052E+02  0.19501473487E+02  0.12795073711E+03  0.14808507049E+03  0.00000000000E+00 0.  1.
         11    1    5    5    0    0 -0.54728390090E+00 -0.23478661423E+01 -0.71730882848E+00  0.25152588427E+01  0.00000000000E+00 0.  1.
        -11    1    5    5    0    0  0.12514574155E+03  0.48429278118E+02  0.13205406735E+04  0.13273411475E+04  0.00000000000E+00 0. -1.
          1    1    6    6  503    0  0.36520472510E+03  0.29056794178E+02  0.42586347911E+02  0.36882568451E+03  0.00000000000E+00 0. -1.
         -1    1    6    6    0  503 -0.31274895311E+01  0.59880839456E+01  0.58696189498E+01  0.89493444856E+01  0.00000000000E+00 0.  1.
<mgrwt>
<rscale>  0 0.15250189E+04</rscale>
<asrwt>0</asrwt>
<pdfrwt beam="1">  1        2 0.36425618E+00 0.15250189E+04</pdfrwt>
<pdfrwt beam="2">  1       -2 0.37779554E-01 0.15250189E+04</pdfrwt>
<totfact> 0.26497943E+01</totfact>
</mgrwt>
</event>
<event>
12    2  0.3751044E-008  0.1713691E+04  0.7818608E-02  0.8753594E-01
         -2   -1    0    0    0  501 -0.00000000000E+00  0.00000000000E+00  0.57178729827E+03  0.57178729827E+03  0.00000000000E+00 0.  1.
          2   -1    0    0  501    0  0.00000000000E+00 -0.00000000000E+00 -0.12840170225E+04  0.12840170225E+04  0.00000000000E+00 0. -1.
         23    2    1    2    0    0  0.45073831470E+03  0.41868612638E+03 -0.26356202433E+03  0.67532207357E+03  0.90176835261E+02 0.  0.
        254    2    1    2    0    0 -0.45073831470E+03 -0.41868612638E+03 -0.44866769989E+03  0.11804822472E+04  0.90209341549E+03 0.  0.
         23    2    4    4    0    0  0.24268721296E+03 -0.19202658429E+03 -0.27733389853E+03  0.42540363002E+03  0.91010245316E+02 0.  0.
         23    2    4    4    0    0 -0.69342552766E+03 -0.22665954209E+03 -0.17133380136E+03  0.75507861718E+03  0.92600951373E+02 0.  0.
          2    1    3    3  502    0  0.25592330582E+03  0.27633406335E+03 -0.19689209184E+03  0.42499852806E+03  0.00000000000E+00 0. -1.
         -2    1    3    3    0  502  0.19481500888E+03  0.14235206303E+03 -0.66669932487E+02  0.25032354550E+03  0.00000000000E+00 0.  1.
         11    1    5    5    0    0  0.15694430895E+03 -0.12519322601E+03 -0.11912257967E+03  0.23344174635E+03  0.00000000000E+00 0.  1.
        -11    1    5    5    0    0  0.85742904012E+02 -0.66833358273E+02 -0.15821131887E+03  0.19196188367E+03  0.00000000000E+00 0. -1.
          3    1    6    6  503    0 -0.33140513715E+03 -0.93906660964E+02 -0.35577376328E+02  0.34628539618E+03  0.00000000000E+00 0. -1.
         -3    1    6    6    0  503 -0.36202039051E+03 -0.13275288112E+03 -0.13575642503E+03  0.40879322099E+03  0.00000000000E+00 0.  1.
<mgrwt>
<rscale>  0 0.17136915E+04</rscale>
<asrwt>0</asrwt>
<pdfrwt beam="1">  1        2 0.19754108E+00 0.17136915E+04</pdfrwt>
<pdfrwt beam="2">  1       -2 0.87967278E-01 0.17136915E+04</pdfrwt>
<totfact> 0.17886648E+01</totfact>
</mgrwt>
</event>
<event>
12    2  0.3751044E-008  0.1408107E+04  0.7818608E-02  0.8947971E-01
         -2   -1    0    0    0  501 -0.00000000000E+00  0.00000000000E+00  0.82412309335E+03  0.82412309335E+03  0.00000000000E+00 0.  1.
          2   -1    0    0  501    0  0.00000000000E+00 -0.00000000000E+00 -0.60147762110E+03  0.60147762110E+03  0.00000000000E+00 0. -1.
         23    2    1    2    0    0  0.21056274427E+03  0.24630477805E+03  0.32147138141E+03  0.46595863532E+03  0.93653018119E+02 0.  0.
        254    2    1    2    0    0 -0.21056274427E+03 -0.24630477805E+03 -0.98825909160E+02  0.95964207913E+03  0.89785502546E+03 0.  0.
         23    2    4    4    0    0  0.30697104822E+03 -0.27633146147E+03 -0.95293018622E+02  0.43318537311E+03  0.89322488990E+02 0.  0.
         23    2    4    4    0    0 -0.51753379249E+03  0.30026683415E+02 -0.35328905387E+01  0.52645670602E+03  0.91658899774E+02 0.  0.
          3    1    3    3  502    0  0.91894426373E+02  0.10686196647E+03  0.77256531125E+02  0.16072534672E+03  0.00000000000E+00 0. -1.
         -3    1    3    3    0  502  0.11866831790E+03  0.13944281158E+03  0.24421485028E+03  0.30523328861E+03  0.00000000000E+00 0.  1.
         11    1    5    5    0    0  0.63508756285E+02 -0.32301803990E+02 -0.46395745180E+02  0.85025489335E+02  0.00000000000E+00 0. -1.
        -11    1    5    5    0    0  0.24346229194E+03 -0.24402965748E+03 -0.48897273442E+02  0.34815988378E+03  0.00000000000E+00 0.  1.
          2    1    6    6  503    0 -0.25454676382E+03  0.54217036247E+02 -0.25190381224E+02  0.26147293798E+03  0.00000000000E+00 0.  1.
         -2    1    6    6    0  503 -0.26298702867E+03 -0.24190352832E+02  0.21657490686E+02  0.26498376803E+03  0.00000000000E+00 0. -1.
<mgrwt>
<rscale>  0 0.14081074E+04</rscale>
<asrwt>0</asrwt>
<pdfrwt beam="1">  1        2 0.92535018E-01 0.14081074E+04</pdfrwt>
<pdfrwt beam="2">  1       -2 0.12678817E+00 0.14081074E+04</pdfrwt>
<totfact> 0.22245950E+01</totfact>
</mgrwt>
</event>
<event>
12    2  0.3751044E-008  0.3949669E+04  0.7818608E-02  0.8014778E-01
         -1   -1    0    0    0  501 -0.00000000000E+00  0.00000000000E+00  0.18388824678E+04  0.18388824678E+04  0.00000000000E+00 0.  1.
          1   -1    0    0  501    0  0.00000000000E+00 -0.00000000000E+00 -0.21208373578E+04  0.21208373578E+04  0.00000000000E+00 0. -1.
         23    2    1    2    0    0  0.16017182931E+04 -0.50546606805E+03  0.69885339243E+03  0.18214094370E+04  0.90215502654E+02 0.  0.
        254    2    1    2    0    0 -0.16017182931E+04  0.50546606805E+03 -0.98080828239E+03  0.21383103886E+04  0.88847565802E+03 0.  0.
         23    2    4    4    0    0  0.58317359453E+02 -0.83671692377E+02 -0.71560000759E+02  0.15369867445E+03  0.90003234946E+02 0.  0.
         23    2    4    4    0    0 -0.16600356525E+04  0.58913776043E+03 -0.90924828163E+03  0.19846117141E+04  0.95653279593E+02 0.  0.
          2    1    3    3  502    0  0.26049586108E+03 -0.11235513022E+03  0.13728288669E+03  0.31516402064E+03  0.00000000000E+00 0. -1.
         -2    1    3    3    0  502  0.13412224320E+04 -0.39311093784E+03  0.56157050574E+03  0.15062454164E+04  0.00000000000E+00 0.  1.
         11    1    5    5    0    0  0.62753018727E+02 -0.69978445941E+02 -0.14812617544E+02  0.95154284686E+02  0.00000000000E+00 0. -1.
        -11    1    5    5    0    0 -0.44356592740E+01 -0.13693246436E+02 -0.56747383216E+02  0.58544389765E+02  0.00000000000E+00 0.  1.
          4    1    6    6  503    0 -0.11480282585E+04  0.44337919146E+03 -0.66591315224E+03  0.13992835009E+04  0.00000000000E+00 0. -1.
         -4    1    6    6    0  503 -0.51200739405E+03  0.14575856897E+03 -0.24333512939E+03  0.58532821321E+03  0.00000000000E+00 0.  1.
<mgrwt>
<rscale>  0 0.39496687E+04</rscale>
<asrwt>0</asrwt>
<pdfrwt beam="1">  1        1 0.32628267E+00 0.39496687E+04</pdfrwt>
<pdfrwt beam="2">  1       -1 0.28290499E+00 0.39496687E+04</pdfrwt>
<totfact> 0.82621625E-02</totfact>
</mgrwt>
</event>
<event>
12    2  0.3751044E-008  0.2252538E+04  0.7818608E-02  0.8496873E-01
         -2   -1    0    0    0  501 -0.00000000000E+00  0.00000000000E+00  0.63911528625E+03  0.63911528625E+03  0.00000000000E+00 0.  1.
          2   -1    0    0  501    0  0.00000000000E+00 -0.00000000000E+00 -0.19847461251E+04  0.19847461251E+04  0.00000000000E+00 0. -1.
         23    2    1    2    0    0  0.72136455240E+03 -0.60225561851E+02  0.14084186595E+03  0.74329643580E+03  0.93054954234E+02 0.  0.
        254    2    1    2    0    0 -0.72136455240E+03  0.60225561851E+02 -0.14864727048E+04  0.18805649756E+04  0.89606338472E+03 0.  0.
         23    2    4    4    0    0 -0.34994152003E+03  0.93203902443E+02 -0.14460554142E+04  0.14939512933E+04  0.98326858554E+02 0.  0.
         23    2    4    4    0    0 -0.37142303238E+03 -0.32978340592E+02 -0.40417290643E+02  0.38661368224E+03  0.93776020313E+02 0.  0.
          2    1    3    3  502    0  0.50903458892E+03 -0.84454376583E+02  0.93196790713E+02  0.52434186962E+03  0.00000000000E+00 0. -1.
         -2    1    3    3    0  502  0.21232996349E+03  0.24228814733E+02  0.47645075234E+02  0.21895456618E+03  0.00000000000E+00 0.  1.
         11    1    5    5    0    0 -0.24473236300E+03  0.58531223054E+02 -0.11647237801E+04  0.11915961218E+04  0.00000000000E+00 0.  1.
        -11    1    5    5    0    0 -0.10520915703E+03  0.34672679389E+02 -0.28133163411E+03  0.30235517156E+03  0.00000000000E+00 0. -1.
          2    1    6    6  503    0 -0.67472387215E+01 -0.11021592909E+02 -0.15852672896E+02  0.20452578775E+02  0.00000000000E+00 0. -1.
         -2    1    6    6    0  503 -0.36467579366E+03 -0.21956747683E+02 -0.24564617747E+02  0.36616110347E+03  0.00000000000E+00 0.  1.
<mgrwt>
<rscale>  0 0.22525378E+04</rscale>
<asrwt>0</asrwt>
<pdfrwt beam="1">  1        2 0.30534556E+00 0.22525378E+04</pdfrwt>
<pdfrwt beam="2">  1       -2 0.98325429E-01 0.22525378E+04</pdfrwt>
<totfact> 0.53301561E+00</totfact>
</mgrwt>
</event>
<event>
12    2  0.3751044E-008  0.1811221E+04  0.7818608E-02  0.8700355E-01
         -2   -1    0    0    0  501 -0.00000000000E+00  0.00000000000E+00  0.71059242799E+03  0.71059242799E+03  0.00000000000E+00 0.  1.
          2   -1    0    0  501    0  0.00000000000E+00 -0.00000000000E+00 -0.11541502255E+04  0.11541502255E+04  0.00000000000E+00 0. -1.
         23    2    1    2    0    0 -0.14045717275E+03 -0.62732810366E+03  0.58366714738E+02  0.65196365209E+03  0.91548693249E+02 0.  0.
        254    2    1    2    0    0  0.14045717275E+03  0.62732810366E+03 -0.50192451222E+03  0.12127790014E+04  0.89757223843E+03 0.  0.
         23    2    4    4    0    0 -0.13451857712E+03  0.69530296772E+03 -0.11201260043E+03  0.72262790879E+03  0.90015595271E+02 0.  0.
         23    2    4    4    0    0  0.27497574987E+03 -0.67974864056E+02 -0.38991191180E+03  0.49015109260E+03  0.89356306173E+02 0.  0.
          2    1    3    3  502    0 -0.72209638248E+02 -0.15516551074E+03  0.32425160104E+02  0.17418943305E+03  0.00000000000E+00 0. -1.
         -2    1    3    3    0  502 -0.68247534502E+02 -0.47216259292E+03  0.25941554634E+02  0.47777421904E+03  0.00000000000E+00 0.  1.
         11    1    5    5    0    0 -0.17943938173E+01 -0.68467974733E+00  0.42116493462E+01  0.46288903360E+01  0.00000000000E+00 0. -1.
        -11    1    5    5    0    0 -0.13272418330E+03  0.69598764747E+03 -0.11622424977E+03  0.71799901845E+03  0.00000000000E+00 0.  1.
          1    1    6    6  503    0  0.72819286232E+02 -0.30993086535E+02 -0.17877802626E+03  0.19551164296E+03  0.00000000000E+00 0. -1.
         -1    1    6    6    0  503  0.20215646364E+03 -0.36981777521E+02 -0.21113388554E+03  0.29463944963E+03  0.00000000000E+00 0.  1.
<mgrwt>
<rscale>  0 0.18112210E+04</rscale>
<asrwt>0</asrwt>
<pdfrwt beam="1">  1        2 0.17756157E+00 0.18112210E+04</pdfrwt>
<pdfrwt beam="2">  1       -2 0.10932191E+00 0.18112210E+04</pdfrwt>
<totfact> 0.12699894E+01</totfact>
</mgrwt>
</event>
<event>
12    2  0.3751044E-008  0.1747407E+04  0.7818608E-02  0.8734779E-01
         -1   -1    0    0    0  501 -0.00000000000E+00  0.00000000000E+00  0.62759846816E+03  0.62759846816E+03  0.00000000000E+00 0.  1.
          1   -1    0    0  501    0  0.00000000000E+00 -0.00000000000E+00 -0.12163161416E+04  0.12163161416E+04  0.00000000000E+00 0. -1.
         23    2    1    2    0    0  0.23295823294E+03 -0.26026124451E+03 -0.77351804011E+03  0.85346335219E+03  0.89800230888E+02 0.  0.
        254    2    1    2    0    0 -0.23295823294E+03  0.26026124451E+03  0.18480036668E+03  0.99045125757E+03  0.90820540871E+03 0.  0.
         23    2    4    4    0    0  0.25323690408E+03  0.35494593742E+03  0.19713394306E+03  0.48688616823E+03  0.89893276852E+02 0.  0.
         23    2    4    4    0    0 -0.48619513701E+03 -0.94684692912E+02 -0.12333576386E+02  0.50356508934E+03  0.89859778386E+02 0.  0.
          3    1    3    3  502    0  0.51632555104E+02 -0.11647130310E+02 -0.11548498670E+03  0.12703683932E+03  0.00000000000E+00 0. -1.
         -3    1    3    3    0  502  0.18132567783E+03 -0.24861411420E+03 -0.65803305341E+03  0.72642651287E+03  0.00000000000E+00 0.  1.
         11    1    5    5    0    0  0.51590613902E+02  0.60729911872E+02  0.70097528747E+00  0.79688173559E+02  0.00000000000E+00 0. -1.
        -11    1    5    5    0    0  0.20164629018E+03  0.29421602555E+03  0.19643296778E+03  0.40719799467E+03  0.00000000000E+00 0.  1.
          3    1    6    6  503    0 -0.25113446064E+03 -0.69836267584E+02  0.33450653104E+02  0.26280138467E+03  0.00000000000E+00 0. -1.
         -3    1    6    6    0  503 -0.23506067637E+03 -0.24848425328E+02 -0.45784229490E+02  0.24076370467E+03  0.00000000000E+00 0.  1.
<mgrwt>
<rscale>  0 0.17474074E+04</rscale>
<asrwt>0</asrwt>
<pdfrwt beam="1">  1        1 0.18712556E+00 0.17474074E+04</pdfrwt>
<pdfrwt beam="2">  1       -1 0.96553611E-01 0.17474074E+04</pdfrwt>
<totfact> 0.10173094E+01</totfact>
</mgrwt>
</event>
<event>
12    2  0.3751044E-008  0.1198540E+04  0.7818608E-02  0.9114135E-01
          2   -1    0    0  501    0  0.00000000000E+00  0.00000000000E+00  0.91737398549E+03  0.91737398549E+03  0.00000000000E+00 0.  1.
         -2   -1    0    0    0  501 -0.00000000000E+00 -0.00000000000E+00 -0.39147019062E+03  0.39147019062E+03  0.00000000000E+00 0. -1.
         23    2    1    2    0    0 -0.82457635879E+02  0.18461583387E+03  0.27668982552E+03  0.35392935396E+03  0.88467283348E+02 0.  0.
        254    2    1    2    0    0  0.82457635879E+02 -0.18461583387E+03  0.24921396936E+03  0.95491482215E+03  0.89937336363E+03 0.  0.
         23    2    4    4    0    0  0.35474046895E+03 -0.22615953394E+03 -0.15430086593E+03  0.45765577943E+03  0.93011397801E+02 0.  0.
         23    2    4    4    0    0 -0.27228283307E+03  0.41543700072E+02  0.40351483528E+03  0.49725904272E+03  0.92620262733E+02 0.  0.
          3    1    3    3  502    0 -0.87979552309E+02  0.11656436598E+03  0.14613089107E+03  0.20659595922E+03  0.00000000000E+00 0. -1.
         -3    1    3    3    0  502  0.55219164297E+01  0.68051467883E+02  0.13055893445E+03  0.14733339474E+03  0.00000000000E+00 0.  1.
         11    1    5    5    0    0  0.18875077690E+03 -0.17063448040E+03 -0.10933057825E+03  0.27694071030E+03  0.00000000000E+00 0.  1.
        -11    1    5    5    0    0  0.16598969205E+03 -0.55525053537E+02 -0.44970287679E+02  0.18071506913E+03  0.00000000000E+00 0. -1.
          1    1    6    6  503    0 -0.33409736907E+02 -0.33155019087E+01  0.11608995845E+03  0.12084734803E+03  0.00000000000E+00 0. -1.
         -1    1    6    6    0  503 -0.23887309616E+03  0.44859201981E+02  0.28742487683E+03  0.37641169468E+03  0.00000000000E+00 0.  1.
<mgrwt>
<rscale>  0 0.11985401E+04</rscale>
<asrwt>0</asrwt>
<pdfrwt beam="1">  1        2 0.14113446E+00 0.11985401E+04</pdfrwt>
<pdfrwt beam="2">  1       -2 0.60226183E-01 0.11985401E+04</pdfrwt>
<totfact> 0.72382243E+01</totfact>
</mgrwt>
</event>
<event>
12    2  0.3751044E-008  0.2355063E+04  0.7818608E-02  0.8456521E-01
          2   -1    0    0  501    0  0.00000000000E+00  0.00000000000E+00  0.39526595971E+04  0.39526595971E+04  0.00000000000E+00 0. -1.
         -2   -1    0    0    0  501 -0.00000000000E+00 -0.00000000000E+00 -0.35079690871E+03  0.35079690871E+03  0.00000000000E+00 0.  1.
         23    2    1    2    0    0 -0.44964760512E+03  0.85847072157E+03  0.10870088943E+04  0.14589534853E+04  0.88328859250E+02 0.  0.
        254    2    1    2    0    0  0.44964760512E+03 -0.85847072157E+03  0.25148537941E+04  0.28445030205E+04  0.90969933465E+03 0.  0.
         23    2    4    4    0    0  0.18340603258E+03 -0.15841559658E+03  0.17535043317E+04  0.17725202687E+04  0.91199712642E+02 0.  0.
         23    2    4    4    0    0  0.26624157254E+03 -0.70005512499E+03  0.76134946241E+03  0.10719827518E+04  0.92370251543E+02 0.  0.
          1    1    3    3  502    0 -0.41400527555E+03  0.73608199918E+03  0.96720609102E+03  0.12840189641E+04  0.00000000000E+00 0. -1.
         -1    1    3    3    0  502 -0.35642329572E+02  0.12238872239E+03  0.11980280326E+03  0.17493452117E+03  0.00000000000E+00 0.  1.
         11    1    5    5    0    0  0.64358074181E+01 -0.40956813000E+02  0.17810445663E+03  0.18286628344E+03  0.00000000000E+00 0.  1.
        -11    1    5    5    0    0  0.17697022516E+03 -0.11745878358E+03  0.15753998750E+04  0.15896539852E+04  0.00000000000E+00 0. -1.
          3    1    6    6  503    0  0.26196539446E+03 -0.61380904072E+03  0.69031583850E+03  0.96016840359E+03  0.00000000000E+00 0. -1.
         -3    1    6    6    0  503  0.42761780844E+01 -0.86246084266E+02  0.71033623904E+02  0.11181434825E+03  0.00000000000E+00 0.  1.
<mgrwt>
<rscale>  0 0.23550633E+04</rscale>
<asrwt>0</asrwt>
<pdfrwt beam="1">  1        2 0.60810145E+00 0.23550633E+04</pdfrwt>
<pdfrwt beam="2">  1       -2 0.53968758E-01 0.23550633E+04</pdfrwt>
<totfact> 0.10952265E+00</totfact>
</mgrwt>
</event>
<event>
12    2  0.3751044E-008  0.1546993E+04  0.7818608E-02  0.8853791E-01
          2   -1    0    0  501    0  0.00000000000E+00  0.00000000000E+00  0.94988123219E+03  0.94988123219E+03  0.00000000000E+00 0. -1.
         -2   -1    0    0    0  501 -0.00000000000E+00 -0.00000000000E+00 -0.62986508311E+03  0.62986508311E+03  0.00000000000E+00 0.  1.
         23    2    1    2    0    0  0.29017443191E+03 -0.40271357682E+03  0.54711711354E+02  0.50769353528E+03  0.91541949476E+02 0.  0.
        254    2    1    2    0    0 -0.29017443191E+03  0.40271357682E+03  0.26530443772E+03  0.10720527800E+04  0.91243152762E+03 0.  0.
         23    2    4    4    0    0  0.28664804021E+03  0.82085627543E+02  0.25878571027E+03  0.40537124425E+03  0.91927431303E+02 0.  0.
         23    2    4    4    0    0 -0.57682247212E+03  0.32062794928E+03  0.65187274530E+01  0.66668153577E+03  0.94315057792E+02 0.  0.
          3    1    3    3  502    0  0.74988014295E+02 -0.84930080016E+02  0.50099270201E+02  0.12388001313E+03  0.00000000000E+00 0. -1.
         -3    1    3    3    0  502  0.21518641762E+03 -0.31778349680E+03  0.46124411538E+01  0.38381352215E+03  0.00000000000E+00 0.  1.
         11    1    5    5    0    0  0.88577478582E+02 -0.11934635984E+01  0.12159769568E+03  0.15044398845E+03  0.00000000000E+00 0.  1.
        -11    1    5    5    0    0  0.19807056162E+03  0.83279091141E+02  0.13718801459E+03  0.25492725580E+03  0.00000000000E+00 0. -1.
          2    1    6    6  503    0 -0.50842290072E+03  0.26614717929E+03  0.34393813150E+02  0.57490094921E+03  0.00000000000E+00 0. -1.
         -2    1    6    6    0  503 -0.68399571396E+02  0.54480769988E+02 -0.27875085697E+02  0.91780586554E+02  0.00000000000E+00 0.  1.
<mgrwt>
<rscale>  0 0.15469932E+04</rscale>
<asrwt>0</asrwt>
<pdfrwt beam="1">  1        2 0.14613557E+00 0.15469932E+04</pdfrwt>
<pdfrwt beam="2">  1       -2 0.96902320E-01 0.15469932E+04</pdfrwt>
<totfact> 0.23265128E+01</totfact>
</mgrwt>
</event>
<event>
12    2  0.3751044E-008  0.1352109E+04  0.7818608E-02  0.8989233E-01
         -2   -1    0    0    0  501 -0.00000000000E+00  0.00000000000E+00  0.51417637321E+03  0.51417637321E+03  0.00000000000E+00 0. -1.
          2   -1    0    0  501    0  0.00000000000E+00 -0.00000000000E+00 -0.88889669448E+03  0.88889669448E+03  0.00000000000E+00 0.  1.
         23    2    1    2    0    0  0.65391255802E+02  0.79675233671E+02  0.26333339393E+03  0.29745567666E+03  0.92256403685E+02 0.  0.
        254    2    1    2    0    0 -0.65391255802E+02 -0.79675233671E+02 -0.63805371520E+03  0.11056173910E+04  0.89702458867E+03 0.  0.
         23    2    4    4    0    0 -0.22562395213E+03 -0.34166769698E+03 -0.33364492682E+02  0.42144894086E+03  0.94143706363E+02 0.  0.
         23    2    4    4    0    0  0.16023269633E+03  0.26199246331E+03 -0.60468922252E+03  0.68416845017E+03  0.90126824951E+02 0.  0.
          1    1    3    3  502    0  0.76622873374E+02  0.54153544184E+02  0.24902534731E+03  0.26611519061E+03  0.00000000000E+00 0. -1.
         -1    1    3    3    0  502 -0.11231617571E+02  0.25521689487E+02  0.14308046623E+02  0.31340486048E+02  0.00000000000E+00 0.  1.
         11    1    5    5    0    0 -0.12391111660E+03 -0.21696426960E+03  0.23067309636E+02  0.25091743637E+03  0.00000000000E+00 0.  1.
        -11    1    5    5    0    0 -0.10171283553E+03 -0.12470342738E+03 -0.56431802319E+02  0.17053150450E+03  0.00000000000E+00 0. -1.
          2    1    6    6  503    0  0.16010010195E+03  0.21572022326E+03 -0.55297115246E+03  0.61477178921E+03  0.00000000000E+00 0.  1.
         -2    1    6    6    0  503  0.13259437907E+00  0.46272240056E+02 -0.51718070065E+02  0.69396660959E+02  0.00000000000E+00 0. -1.
<mgrwt>
<rscale>  0 0.13521090E+04</rscale>
<asrwt>0</asrwt>
<pdfrwt beam="1">  1        2 0.13675334E+00 0.13521090E+04</pdfrwt>
<pdfrwt beam="2">  1       -2 0.79104057E-01 0.13521090E+04</pdfrwt>
<totfact> 0.41325316E+01</totfact>
</mgrwt>
</event>
<event>
12    2  0.3751044E-008  0.2033528E+04  0.7818608E-02  0.8591104E-01
          2   -1    0    0  501    0  0.00000000000E+00  0.00000000000E+00  0.19035057063E+04  0.19035057063E+04  0.00000000000E+00 0.  1.
         -2   -1    0    0    0  501 -0.00000000000E+00 -0.00000000000E+00 -0.54310766587E+03  0.54310766587E+03  0.00000000000E+00 0. -1.
         23    2    1    2    0    0 -0.30322333092E+03 -0.50922704430E+03 -0.12365894167E+03  0.61243328813E+03  0.92338656539E+02 0.  0.
        254    2    1    2    0    0  0.30322333092E+03  0.50922704430E+03  0.14840569821E+04  0.18341800841E+04  0.90029710848E+03 0.  0.
         23    2    4    4    0    0 -0.66664869044E+01  0.14094927445E+03  0.12999684666E+04  0.13109349400E+04  0.93387700714E+02 0.  0.
         23    2    4    4    0    0  0.30988981783E+03  0.36827776985E+03  0.18408851550E+03  0.52324514409E+03  0.90756180573E+02 0.  0.
          1    1    3    3  502    0 -0.29828057651E+03 -0.45813665924E+03 -0.99336084020E+02  0.55563311497E+03  0.00000000000E+00 0. -1.
         -1    1    3    3    0  502 -0.49427544134E+01 -0.51090385064E+02 -0.24322857646E+02  0.56800173162E+02  0.00000000000E+00 0.  1.
         11    1    5    5    0    0 -0.38646664424E+02  0.59803213892E+02  0.82163196815E+03  0.82471151328E+03  0.00000000000E+00 0.  1.
        -11    1    5    5    0    0  0.31980177519E+02  0.81146060560E+02  0.47833649846E+03  0.48622342669E+03  0.00000000000E+00 0. -1.
          1    1    6    6  503    0  0.41836395536E+01  0.42866621917E+02  0.20890336777E+02  0.47869157974E+02  0.00000000000E+00 0. -1.
         -1    1    6    6    0  503  0.30570617827E+03  0.32541114794E+03  0.16319817872E+03  0.47537598611E+03  0.00000000000E+00 0.  1.
<mgrwt>
<rscale>  0 0.20335275E+04</rscale>
<asrwt>0</asrwt>
<pdfrwt beam="1">  1        2 0.29284703E+00 0.20335275E+04</pdfrwt>
<pdfrwt beam="2">  1       -2 0.83555026E-01 0.20335275E+04</pdfrwt>
<totfact> 0.87744474E+00</totfact>
</mgrwt>
</event>
<event>
12    2  0.3751044E-008  0.1709702E+04  0.7818608E-02  0.8755850E-01
         -2   -1    0    0    0  501 -0.00000000000E+00  0.00000000000E+00  0.18569368825E+03  0.18569368825E+03  0.00000000000E+00 0.  1.
          2   -1    0    0  501    0  0.00000000000E+00 -0.00000000000E+00 -0.39353537600E+04  0.39353537600E+04  0.00000000000E+00 0. -1.
         23    2    1    2    0    0 -0.50803444574E+03  0.34042685209E+03 -0.14510096336E+04  0.15772464173E+04  0.91037709971E+02 0.  0.
        254    2    1    2    0    0  0.50803444574E+03 -0.34042685209E+03 -0.22986504382E+04  0.25438010309E+04  0.90174298345E+03 0.  0.
         23    2    4    4    0    0 -0.80287982500E+02 -0.35172089434E+03 -0.15119745410E+04  0.15570734136E+04  0.90867237701E+02 0.  0.
         23    2    4    4    0    0  0.58832242824E+03  0.11294042250E+02 -0.78667589721E+03  0.98672761738E+03  0.92312451460E+02 0.  0.
          4    1    3    3  502    0 -0.26831129932E+03  0.18634977049E+03 -0.88893679363E+03  0.94706167348E+03  0.00000000000E+00 0. -1.
         -4    1    3    3    0  502 -0.23972314642E+03  0.15407708160E+03 -0.56207283994E+03  0.63018474386E+03  0.00000000000E+00 0.  1.
         11    1    5    5    0    0 -0.76544210672E+02 -0.35263951873E+03 -0.15104031651E+04  0.15529106116E+04  0.00000000000E+00 0. -1.
        -11    1    5    5    0    0 -0.37437718282E+01  0.91862438708E+00 -0.15713759261E+01  0.41628020092E+01  0.00000000000E+00 0.  1.
          1    1    6    6  503    0  0.40300304819E+03 -0.11133455661E+02 -0.47092501300E+03  0.61992401031E+03  0.00000000000E+00 0. -1.
         -1    1    6    6    0  503  0.18531938005E+03  0.22427497911E+02 -0.31575088421E+03  0.36680360707E+03  0.00000000000E+00 0.  1.
<mgrwt>
<rscale>  0 0.17097021E+04</rscale>
<asrwt>0</asrwt>
<pdfrwt beam="1">  1        2 0.60543895E+00 0.17097021E+04</pdfrwt>
<pdfrwt beam="2">  1       -2 0.28568264E-01 0.17097021E+04</pdfrwt>
<totfact> 0.41829411E+00</totfact>
</mgrwt>
</event>
<event>
12    2  0.3751044E-008  0.2117745E+04  0.7818608E-02  0.8553466E-01
          2   -1    0    0  501    0  0.00000000000E+00  0.00000000000E+00  0.17133240535E+04  0.17133240535E+04  0.00000000000E+00 0. -1.
         -2   -1    0    0    0  501 -0.00000000000E+00 -0.00000000000E+00 -0.65440703334E+03  0.65440703334E+03  0.00000000000E+00 0.  1.
         23    2    1    2    0    0  0.50657444374E+03  0.54466988959E+03  0.87621902402E+03  0.11530693482E+04  0.92337360275E+02 0.  0.
        254    2    1    2    0    0 -0.50657444374E+03 -0.54466988959E+03  0.18269799610E+03  0.12146617386E+04  0.94273094023E+03 0.  0.
         23    2    4    4    0    0  0.27021843571E+03 -0.11925268754E+03  0.38734472607E+02  0.31284228271E+03  0.95554842900E+02 0.  0.
         23    2    4    4    0    0 -0.77679287945E+03 -0.42541720205E+03  0.14396352350E+03  0.90181945585E+03  0.90365156320E+02 0.  0.
          2    1    3    3  502    0  0.11802585175E+02  0.23383743381E+00  0.27269188348E+02  0.29714715713E+02  0.00000000000E+00 0.  1.
         -2    1    3    3    0  502  0.49477185857E+03  0.54443605216E+03  0.84894983567E+03  0.11233546325E+04  0.00000000000E+00 0. -1.
         11    1    5    5    0    0  0.27335849536E+02 -0.27597579004E+02 -0.24142288361E+02  0.45735381534E+02  0.00000000000E+00 0.  1.
        -11    1    5    5    0    0  0.24288258618E+03 -0.91655108533E+02  0.62876760969E+02  0.26710690118E+03  0.00000000000E+00 0. -1.
          2    1    6    6  503    0 -0.59417136289E+03 -0.32595150567E+03  0.14864370115E+03  0.69381477529E+03  0.00000000000E+00 0. -1.
         -2    1    6    6    0  503 -0.18262151656E+03 -0.99465696388E+02 -0.46801776534E+01  0.20800468056E+03  0.00000000000E+00 0.  1.
<mgrwt>
<rscale>  0 0.21177453E+04</rscale>
<asrwt>0</asrwt>
<pdfrwt beam="1">  1        2 0.26358831E+00 0.21177453E+04</pdfrwt>
<pdfrwt beam="2">  1       -2 0.10067801E+00 0.21177453E+04</pdfrwt>
<totfact> 0.72115886E+00</totfact>
</mgrwt>
</event>
<event>
12    2  0.3751044E-008  0.1636511E+04  0.7818608E-02  0.8798426E-01
          2   -1    0    0  501    0  0.00000000000E+00  0.00000000000E+00  0.21461894457E+04  0.21461894457E+04  0.00000000000E+00 0. -1.
         -2   -1    0    0    0  501 -0.00000000000E+00 -0.00000000000E+00 -0.31196795921E+03  0.31196795921E+03  0.00000000000E+00 0.  1.
         23    2    1    2    0    0 -0.29097600763E+03 -0.18048201696E+03 -0.30053178673E+02  0.35537095067E+03  0.90247014205E+02 0.  0.
        254    2    1    2    0    0  0.29097600763E+03  0.18048201696E+03  0.18642746652E+04  0.21027864543E+04  0.91046694037E+03 0.  0.
         23    2    4    4    0    0  0.16896157970E+03  0.53983714939E+03  0.95853438976E+03  0.11166513076E+04  0.90276259863E+02 0.  0.
         23    2    4    4    0    0  0.12201442792E+03 -0.35935513243E+03  0.90574027544E+03  0.98613514669E+03  0.89852374272E+02 0.  0.
          1    1    3    3  502    0 -0.10565480478E+03 -0.71082901560E+02  0.32192603420E+02  0.13134717500E+03  0.00000000000E+00 0. -1.
         -1    1    3    3    0  502 -0.18532120285E+03 -0.10939911540E+03 -0.62245782094E+02  0.22402377567E+03  0.00000000000E+00 0.  1.
         11    1    5    5    0    0  0.35046119556E+02  0.75647195549E+02  0.20777223511E+03  0.22387503293E+03  0.00000000000E+00 0. -1.
        -11    1    5    5    0    0  0.13391546015E+03  0.46418995384E+03  0.75076215465E+03  0.89277627465E+03  0.00000000000E+00 0.  1.
          3    1    6    6  503    0  0.10951865493E+03 -0.23226950588E+03  0.52277718928E+03  0.58244265707E+03  0.00000000000E+00 0. -1.
         -3    1    6    6    0  503  0.12495772993E+02 -0.12708562654E+03  0.38296308616E+03  0.40369248963E+03  0.00000000000E+00 0.  1.
<mgrwt>
<rscale>  0 0.16365113E+04</rscale>
<asrwt>0</asrwt>
<pdfrwt beam="1">  1        2 0.33018298E+00 0.16365113E+04</pdfrwt>
<pdfrwt beam="2">  1       -2 0.47995072E-01 0.16365113E+04</pdfrwt>
<totfact> 0.21784782E+01</totfact>
</mgrwt>
</event>
<event>
12    2  0.3751044E-008  0.2206563E+04  0.7818608E-02  0.8515702E-01
         -1   -1    0    0    0  501 -0.00000000000E+00  0.00000000000E+00  0.71248208202E+03  0.71248208202E+03  0.00000000000E+00 0.  1.
          1   -1    0    0  501    0  0.00000000000E+00 -0.00000000000E+00 -0.17084354245E+04  0.17084354245E+04  0.00000000000E+00 0. -1.
         23    2    1    2    0    0  0.53632032182E+03  0.48971574792E+03  0.19760726262E+03  0.75806735335E+03  0.90313236130E+02 0.  0.
        254    2    1    2    0    0 -0.53632032182E+03 -0.48971574792E+03 -0.11935606051E+04  0.16628501532E+04  0.90167772099E+03 0.  0.
         23    2    4    4    0    0  0.20375220530E+02 -0.26084547071E+03  0.46698841713E+02  0.28119177162E+03  0.91828761336E+02 0.  0.
         23    2    4    4    0    0 -0.55669554235E+03 -0.22887027721E+03 -0.12402594469E+04  0.13816583816E+04  0.91895904399E+02 0.  0.
          1    1    3    3  502    0  0.12948994558E+03  0.70223909513E+02  0.46674003972E+02  0.15452348081E+03  0.00000000000E+00 0. -1.
         -1    1    3    3    0  502  0.40683037624E+03  0.41949183841E+03  0.15093325865E+03  0.60354387255E+03  0.00000000000E+00 0.  1.
         11    1    5    5    0    0 -0.14961660058E+01 -0.24421633673E+03  0.23712882268E+02  0.24536943253E+03  0.00000000000E+00 0. -1.
        -11    1    5    5    0    0  0.21871386536E+02 -0.16629133984E+02  0.22985959444E+02  0.35822339087E+02  0.00000000000E+00 0.  1.
          1    1    6    6  503    0 -0.29139867957E+03 -0.13243641949E+03 -0.75884495621E+03  0.82358864928E+03  0.00000000000E+00 0. -1.
         -1    1    6    6    0  503 -0.26529686278E+03 -0.96433857726E+02 -0.48141449065E+03  0.55806973231E+03  0.00000000000E+00 0.  1.
<mgrwt>
<rscale>  0 0.22065626E+04</rscale>
<asrwt>0</asrwt>
<pdfrwt beam="1">  1        1 0.26283622E+00 0.22065626E+04</pdfrwt>
<pdfrwt beam="2">  1       -1 0.10961263E+00 0.22065626E+04</pdfrwt>
<totfact> 0.32977621E+00</totfact>
</mgrwt>
</event>
<event>
12    2  0.3751044E-008  0.1551132E+04  0.7818608E-02  0.8851145E-01
         -4   -1    0    0    0  501 -0.00000000000E+00  0.00000000000E+00  0.27338582124E+03  0.27338582124E+03  0.00000000000E+00 0.  1.
          4   -1    0    0  501    0  0.00000000000E+00 -0.00000000000E+00 -0.22001972208E+04  0.22001972208E+04  0.00000000000E+00 0. -1.
         23    2    1    2    0    0 -0.29731592853E+03 -0.38642789894E+03 -0.42171162144E+03  0.65036402081E+03  0.86077787301E+02 0.  0.
        254    2    1    2    0    0  0.29731592853E+03  0.38642789894E+03 -0.15050997781E+04  0.18232190212E+04  0.90613408215E+03 0.  0.
         23    2    4    4    0    0 -0.44978145195E+02  0.74196138654E+02  0.92678277355E+02  0.15703287344E+03  0.92422722913E+02 0.  0.
         23    2    4    4    0    0  0.34229407373E+03  0.31223176029E+03 -0.15977780555E+04  0.16661861478E+04  0.92885195209E+02 0.  0.
          3    1    3    3  502    0 -0.16616411631E+02 -0.63679454576E+02 -0.39603372379E+02  0.76808887340E+02  0.00000000000E+00 0. -1.
         -3    1    3    3    0  502 -0.28069951690E+03 -0.32274844437E+03 -0.38210824906E+03  0.57355513347E+03  0.00000000000E+00 0.  1.
         11    1    5    5    0    0  0.16823118445E+02  0.48763644705E+02  0.13305557504E+02  0.53272396413E+02  0.00000000000E+00 0.  1.
        -11    1    5    5    0    0 -0.61801263640E+02  0.25432493949E+02  0.79372719851E+02  0.10376047703E+03  0.00000000000E+00 0. -1.
          3    1    6    6  503    0  0.16926811897E+03  0.17204974981E+03 -0.67284509688E+03  0.71482399016E+03  0.00000000000E+00 0. -1.
         -3    1    6    6    0  503  0.17302595476E+03  0.14018201048E+03 -0.92493295857E+03  0.95136215761E+03  0.00000000000E+00 0.  1.
<mgrwt>
<rscale>  0 0.15511321E+04</rscale>
<asrwt>0</asrwt>
<pdfrwt beam="1">  1        4 0.33849188E+00 0.15511321E+04</pdfrwt>
<pdfrwt beam="2">  1       -4 0.42059357E-01 0.15511321E+04</pdfrwt>
<totfact> 0.18851832E-01</totfact>
</mgrwt>
</event>
<event>
12    2  0.3751044E-008  0.1150301E+04  0.7818608E-02  0.9157506E-01
         -2   -1    0    0    0  501 -0.00000000000E+00  0.00000000000E+00  0.36488934558E+03  0.36488934558E+03  0.00000000000E+00 0. -1.
          2   -1    0    0  501    0  0.00000000000E+00 -0.00000000000E+00 -0.90657052837E+03  0.90657052837E+03  0.00000000000E+00 0.  1.
         23    2    1    2    0    0  0.66016188677E+02  0.24191439186E+02 -0.34308299135E+03  0.36281218016E+03  0.94780674304E+02 0.  0.
        254    2    1    2    0    0 -0.66016188677E+02 -0.24191439186E+02 -0.19859819145E+03  0.90864769379E+03  0.88388688580E+03 0.  0.
         23    2    4    4    0    0 -0.26663390791E+03 -0.22704750523E+03 -0.40664597477E+03  0.54407259680E+03  0.89497660918E+02 0.  0.
         23    2    4    4    0    0  0.20061771924E+03  0.20285606604E+03  0.20804778332E+03  0.36457509699E+03  0.90736257369E+02 0.  0.
          3    1    3    3  502    0  0.21303859332E+02 -0.21247794141E+02 -0.23807202122E+03  0.23996585271E+03  0.00000000000E+00 0.  1.
         -3    1    3    3    0  502  0.44712329345E+02  0.45439233327E+02 -0.10501097013E+03  0.12284632745E+03  0.00000000000E+00 0. -1.
         11    1    5    5    0    0 -0.26030617537E+03 -0.18606665547E+03 -0.35790766057E+03  0.48008124178E+03  0.00000000000E+00 0. -1.
        -11    1    5    5    0    0 -0.63277325451E+01 -0.40980849761E+02 -0.48738314196E+02  0.63991355018E+02  0.00000000000E+00 0.  1.
          4    1    6    6  503    0  0.17518667761E+03  0.13132857125E+03  0.18070523260E+03  0.28388720776E+03  0.00000000000E+00 0. -1.
         -4    1    6    6    0  503  0.25431041622E+02  0.71527494793E+02  0.27342550723E+02  0.80687889236E+02  0.00000000000E+00 0.  1.
<mgrwt>
<rscale>  0 0.11503007E+04</rscale>
<asrwt>0</asrwt>
<pdfrwt beam="1">  1        2 0.13947239E+00 0.11503007E+04</pdfrwt>
<pdfrwt beam="2">  1       -2 0.56136822E-01 0.11503007E+04</pdfrwt>
<totfact> 0.85594477E+01</totfact>
</mgrwt>
</event>
<event>
12    2  0.3751044E-008  0.1434815E+04  0.7818608E-02  0.8928996E-01
         -2   -1    0    0    0  501 -0.00000000000E+00  0.00000000000E+00  0.31144377832E+03  0.31144377832E+03  0.00000000000E+00 0.  1.
          2   -1    0    0  501    0  0.00000000000E+00 -0.00000000000E+00 -0.16525405148E+04  0.16525405148E+04  0.00000000000E+00 0. -1.
         23    2    1    2    0    0  0.33855082502E+03 -0.26064672113E+03 -0.37071201002E+03  0.57266046140E+03  0.89214546556E+02 0.  0.
        254    2    1    2    0    0 -0.33855082502E+03  0.26064672113E+03 -0.97038472642E+03  0.13913238317E+04  0.90087852289E+03 0.  0.
         23    2    4    4    0    0  0.26074682824E+03  0.17481358771E+03 -0.57883082267E+03  0.66489544350E+03  0.92152756982E+02 0.  0.
         23    2    4    4    0    0 -0.59929765326E+03  0.85833133413E+02 -0.39155390375E+03  0.72642838819E+03  0.88649532631E+02 0.  0.
          2    1    3    3  502    0  0.21421280044E+03 -0.20653731975E+03 -0.22092510920E+03  0.37061124132E+03  0.00000000000E+00 0. -1.
         -2    1    3    3    0  502  0.12433802458E+03 -0.54109401379E+02 -0.14978690082E+03  0.20204922007E+03  0.00000000000E+00 0.  1.
         11    1    5    5    0    0  0.14912834434E+03  0.14185430690E+03 -0.42284586018E+03  0.47027707678E+03  0.00000000000E+00 0. -1.
        -11    1    5    5    0    0  0.11161848390E+03  0.32959280813E+02 -0.15598496249E+03  0.19461836671E+03  0.00000000000E+00 0.  1.
          3    1    6    6  503    0 -0.16235361767E+03 -0.13164639751E+02 -0.86655910854E+02  0.18450271487E+03  0.00000000000E+00 0. -1.
         -3    1    6    6    0  503 -0.43694403560E+03  0.98997773164E+02 -0.30489799290E+03  0.54192567332E+03  0.00000000000E+00 0.  1.
<mgrwt>
<rscale>  0 0.14348149E+04</rscale>
<asrwt>0</asrwt>
<pdfrwt beam="1">  1        2 0.25423700E+00 0.14348149E+04</pdfrwt>
<pdfrwt beam="2">  1       -2 0.47914428E-01 0.14348149E+04</pdfrwt>
<totfact> 0.41754126E+01</totfact>
</mgrwt>
</event>
<event>
12    2  0.3887410E-008  0.1792208E+04  0.7818608E-02  0.8710454E-01
          1   -1    0    0  501    0  0.00000000000E+00  0.00000000000E+00  0.10729274569E+04  0.10729274569E+04  0.00000000000E+00 0. -1.
         -1   -1    0    0    0  501 -0.00000000000E+00 -0.00000000000E+00 -0.74842151284E+03  0.74842151284E+03  0.00000000000E+00 0.  1.
         23    2    1    2    0    0  0.20241309385E+03 -0.18405870882E+03  0.73606139987E+03  0.79091124005E+03  0.94369149632E+02 0.  0.
        254    2    1    2    0    0 -0.20241309385E+03  0.18405870882E+03 -0.41155545585E+03  0.10304377296E+04  0.90419873512E+03 0.  0.
         23    2    4    4    0    0 -0.41448647612E+02  0.20850201824E+03  0.25122381289E+03  0.34186619669E+03  0.92563547210E+02 0.  0.
         23    2    4    4    0    0 -0.16096444624E+03 -0.24443309417E+02 -0.66277926874E+03  0.68857153296E+03  0.91363934892E+02 0.  0.
          1    1    3    3  502    0  0.19786508746E+03 -0.13854065106E+03  0.65033704131E+03  0.69374517810E+03  0.00000000000E+00 0. -1.
         -1    1    3    3    0  502  0.45480063865E+01 -0.45518057767E+02  0.85724358565E+02  0.97166061958E+02  0.00000000000E+00 0.  1.
         11    1    5    5    0    0 -0.71743872346E+01  0.12943633811E+03  0.20891056166E+03  0.24586349918E+03  0.00000000000E+00 0. -1.
        -11    1    5    5    0    0 -0.34274260378E+02  0.79065680127E+02  0.42313251236E+02  0.96002697507E+02  0.00000000000E+00 0.  1.
          1    1    6    6  503    0 -0.13536885002E+03  0.18156332721E+02 -0.50556579765E+03  0.52368994044E+03  0.00000000000E+00 0. -1.
         -1    1    6    6    0  503 -0.25595596224E+02 -0.42599642138E+02 -0.15721347110E+03  0.16488159252E+03  0.00000000000E+00 0.  1.
<mgrwt>
<rscale>  0 0.17922076E+04</rscale>
<asrwt>0</asrwt>
<pdfrwt beam="1">  1        1 0.16506576E+00 0.17922076E+04</pdfrwt>
<pdfrwt beam="2">  1       -1 0.11514177E+00 0.17922076E+04</pdfrwt>
<totfact> 0.85907170E+00</totfact>
</mgrwt>
</event>
<event>
12    2  0.3751044E-008  0.2114144E+04  0.7818608E-02  0.8555038E-01
         -1   -1    0    0    0  501 -0.00000000000E+00  0.00000000000E+00  0.10767957331E+04  0.10767957331E+04  0.00000000000E+00 0.  1.
          1   -1    0    0  501    0  0.00000000000E+00 -0.00000000000E+00 -0.10377095673E+04  0.10377095673E+04  0.00000000000E+00 0. -1.
         23    2    1    2    0    0 -0.29970591751E+03  0.57145570736E+03 -0.55966373682E+03  0.85852701000E+03  0.86370516511E+02 0.  0.
        254    2    1    2    0    0  0.29970591751E+03 -0.57145570736E+03  0.59874990270E+03  0.12559782904E+04  0.89587653030E+03 0.  0.
         23    2    4    4    0    0 -0.31018836601E+03 -0.15789003337E+03  0.15474511185E+03  0.39057085415E+03  0.86333408529E+02 0.  0.
         23    2    4    4    0    0  0.60989428352E+03 -0.41356567399E+03  0.44400479085E+03  0.86540743626E+03  0.93713247071E+02 0.  0.
          2    1    3    3  502    0 -0.20872916640E+03  0.37393510552E+03 -0.42151481701E+03  0.60089106251E+03  0.00000000000E+00 0. -1.
         -2    1    3    3    0  502 -0.90976751107E+02  0.19752060184E+03 -0.13814891981E+03  0.25763594749E+03  0.00000000000E+00 0.  1.
         11    1    5    5    0    0 -0.11322999235E+03 -0.13835105851E+02  0.59159964601E+02  0.12850036083E+03  0.00000000000E+00 0.  1.
        -11    1    5    5    0    0 -0.19695837365E+03 -0.14405492752E+03  0.95585147254E+02  0.26207049332E+03  0.00000000000E+00 0. -1.
          1    1    6    6  503    0  0.57417605185E+03 -0.39563748820E+03  0.44162287247E+03  0.82537138433E+03  0.00000000000E+00 0. -1.
         -1    1    6    6    0  503  0.35718231670E+02 -0.17928185790E+02  0.23819183800E+01  0.40036051935E+02  0.00000000000E+00 0.  1.
<mgrwt>
<rscale>  0 0.21141440E+04</rscale>
<asrwt>0</asrwt>
<pdfrwt beam="1">  1        1 0.15964763E+00 0.21141440E+04</pdfrwt>
<pdfrwt beam="2">  1       -1 0.16566088E+00 0.21141440E+04</pdfrwt>
<totfact> 0.34425052E+00</totfact>
</mgrwt>
</event>
<event>
12    2  0.3751044E-008  0.2390879E+04  0.7818608E-02  0.8442926E-01
         -2   -1    0    0    0  501 -0.00000000000E+00  0.00000000000E+00  0.33927568777E+03  0.33927568777E+03  0.00000000000E+00 0. -1.
          2   -1    0    0  501    0  0.00000000000E+00 -0.00000000000E+00 -0.42121371068E+04  0.42121371068E+04  0.00000000000E+00 0.  1.
         23    2    1    2    0    0 -0.28369149408E+03 -0.77087986223E+03 -0.51119109131E+03  0.97169451572E+03  0.90206841501E+02 0.  0.
        254    2    1    2    0    0  0.28369149408E+03  0.77087986223E+03 -0.33616703277E+04  0.35797182788E+04  0.91587059009E+03 0.  0.
         23    2    4    4    0    0  0.45230011942E+03  0.10651552736E+03 -0.83602494815E+03  0.96080815594E+03  0.91069440451E+02 0.  0.
         23    2    4    4    0    0 -0.16860862534E+03  0.66436433487E+03 -0.25256453796E+04  0.26189101229E+04  0.99984051428E+02 0.  0.
          2    1    3    3  502    0 -0.21849516813E+03 -0.64176414520E+03 -0.38433175807E+03  0.77930241679E+03  0.00000000000E+00 0. -1.
         -2    1    3    3    0  502 -0.65196325945E+02 -0.12911571703E+03 -0.12685933324E+03  0.19239209893E+03  0.00000000000E+00 0.  1.
         11    1    5    5    0    0  0.12467095243E+03  0.38665564694E+02 -0.15976803085E+03  0.20630970882E+03  0.00000000000E+00 0.  1.
        -11    1    5    5    0    0  0.32762916699E+03  0.67849962665E+02 -0.67625691730E+03  0.75449844711E+03  0.00000000000E+00 0. -1.
          2    1    6    6  503    0 -0.18229577241E+03  0.61610073059E+03 -0.23392706378E+04  0.24259016831E+04  0.00000000000E+00 0. -1.
         -2    1    6    6    0  503  0.13687147068E+02  0.48263604276E+02 -0.18637474173E+03  0.19300843983E+03  0.00000000000E+00 0.  1.
<mgrwt>
<rscale>  0 0.23908791E+04</rscale>
<asrwt>0</asrwt>
<pdfrwt beam="1">  1        2 0.64802108E+00 0.23908791E+04</pdfrwt>
<pdfrwt beam="2">  1       -2 0.52196261E-01 0.23908791E+04</pdfrwt>
<totfact> 0.71185402E-01</totfact>
</mgrwt>
</event>
<event>
12    2  0.3751044E-008  0.1660446E+04  0.7818608E-02  0.8784251E-01
         -2   -1    0    0    0  501 -0.00000000000E+00  0.00000000000E+00  0.15513778636E+04  0.15513778636E+04  0.00000000000E+00 0.  1.
          2   -1    0    0  501    0  0.00000000000E+00 -0.00000000000E+00 -0.44429530888E+03  0.44429530888E+03  0.00000000000E+00 0. -1.
         23    2    1    2    0    0  0.52845469315E+03  0.73055037034E+02  0.63146153256E+03  0.83158537485E+03  0.90494018634E+02 0.  0.
        254    2    1    2    0    0 -0.52845469315E+03 -0.73055037034E+02  0.47562102215E+03  0.11640877976E+04  0.91884908592E+03 0.  0.
         23    2    4    4    0    0 -0.22636127789E+03 -0.19664920179E+03 -0.22482254150E+03  0.38579398962E+03  0.91550480963E+02 0.  0.
         23    2    4    4    0    0 -0.30209341526E+03  0.12359416476E+03  0.70044356364E+03  0.77829380800E+03  0.92650507902E+02 0.  0.
          4    1    3    3  502    0  0.30751364996E+03  0.42289917965E+02  0.43459767255E+03  0.53406761656E+03  0.00000000000E+00 0. -1.
         -4    1    3    3    0  502  0.22094104319E+03  0.30765119069E+02  0.19686386001E+03  0.29751775829E+03  0.00000000000E+00 0.  1.
         11    1    5    5    0    0 -0.10148032044E+03 -0.93382167595E+02 -0.16008143795E+03  0.21129257308E+03  0.00000000000E+00 0.  1.
        -11    1    5    5    0    0 -0.12488095745E+03 -0.10326703420E+03 -0.64741103548E+02  0.17450141654E+03  0.00000000000E+00 0. -1.
          4    1    6    6  503    0 -0.92124625234E+02  0.64686147706E+02  0.32707727041E+03  0.34590574598E+03  0.00000000000E+00 0. -1.
         -4    1    6    6    0  503 -0.20996879003E+03  0.58908017053E+02  0.37336629323E+03  0.43238806202E+03  0.00000000000E+00 0.  1.
<mgrwt>
<rscale>  0 0.16604456E+04</rscale>
<asrwt>0</asrwt>
<pdfrwt beam="1">  1        2 0.68353125E-01 0.16604456E+04</pdfrwt>
<pdfrwt beam="2">  1       -2 0.23867352E+00 0.16604456E+04</pdfrwt>
<totfact> 0.50838693E+00</totfact>
</mgrwt>
</event>
<event>
12    2  0.3751044E-008  0.2740926E+04  0.7818608E-02  0.8321847E-01
         -1   -1    0    0    0  501 -0.00000000000E+00  0.00000000000E+00  0.10073832855E+04  0.10073832855E+04  0.00000000000E+00 0.  1.
          1   -1    0    0  501    0  0.00000000000E+00 -0.00000000000E+00 -0.18644039280E+04  0.18644039280E+04  0.00000000000E+00 0. -1.
         23    2    1    2    0    0 -0.12280227617E+03  0.43868439716E+03 -0.15573926850E+04  0.16251290078E+04  0.89710185929E+02 0.  0.
        254    2    1    2    0    0  0.12280227617E+03 -0.43868439716E+03  0.70037204242E+03  0.12466582057E+04  0.92526281923E+03 0.  0.
         23    2    4    4    0    0 -0.27777101694E+03  0.13353182670E+03  0.16657958006E+03  0.36293879143E+03  0.94806767865E+02 0.  0.
         23    2    4    4    0    0  0.40057329312E+03 -0.57221622386E+03  0.53379246236E+03  0.88371941426E+03  0.90195566677E+02 0.  0.
          2    1    3    3  502    0 -0.89319931547E+02  0.29534654893E+03 -0.11898355004E+04  0.12291932932E+04  0.00000000000E+00 0. -1.
         -2    1    3    3    0  502 -0.33482344628E+02  0.14333784823E+03 -0.36755718460E+03  0.39593571459E+03  0.00000000000E+00 0.  1.
         11    1    5    5    0    0 -0.43789630182E+02 -0.66382163126E+01  0.48623736292E+02  0.65771311059E+02  0.00000000000E+00 0. -1.
        -11    1    5    5    0    0 -0.23398138676E+03  0.14017004301E+03  0.11795584377E+03  0.29716748037E+03  0.00000000000E+00 0.  1.
          1    1    6    6  503    0  0.79203232690E+02 -0.10592621601E+03  0.14800431189E+03  0.19849128859E+03  0.00000000000E+00 0. -1.
         -1    1    6    6    0  503  0.32137006043E+03 -0.46629000786E+03  0.38578815047E+03  0.68522812567E+03  0.00000000000E+00 0.  1.
<mgrwt>
<rscale>  0 0.27409264E+04</rscale>
<asrwt>0</asrwt>
<pdfrwt beam="1">  1        1 0.28683137E+00 0.27409264E+04</pdfrwt>
<pdfrwt beam="2">  1       -1 0.15498205E+00 0.27409264E+04</pdfrwt>
<totfact> 0.10230933E+00</totfact>
</mgrwt>
</event>
<event>
12    2  0.3751044E-008  0.1789763E+04  0.7818608E-02  0.8711762E-01
         -2   -1    0    0    0  501 -0.00000000000E+00  0.00000000000E+00  0.59119559433E+03  0.59119559433E+03  0.00000000000E+00 0.  1.
          2   -1    0    0  501    0  0.00000000000E+00 -0.00000000000E+00 -0.13545654147E+04  0.13545654147E+04  0.00000000000E+00 0. -1.
         23    2    1    2    0    0 -0.17251902067E+03 -0.61887845196E+03 -0.15977736734E+03  0.66762934366E+03  0.86178782820E+02 0.  0.
        254    2    1    2    0    0  0.17251902067E+03  0.61887845196E+03 -0.60359245302E+03  0.12781316654E+04  0.92548546930E+03 0.  0.
         23    2    4    4    0    0 -0.66901882698E+02  0.50218960218E+03 -0.78840528359E+03  0.94139616532E+03  0.89294963172E+02 0.  0.
         23    2    4    4    0    0  0.23942090337E+03  0.11668884978E+03  0.18481283057E+03  0.33673550005E+03  0.91084345621E+02 0.  0.
          4    1    3    3  502    0 -0.85758597916E+02 -0.33546376406E+03 -0.42406621856E+02  0.34883921180E+03  0.00000000000E+00 0. -1.
         -4    1    3    3    0  502 -0.86760422752E+02 -0.28341468790E+03 -0.11737074549E+03  0.31879013186E+03  0.00000000000E+00 0.  1.
         11    1    5    5    0    0  0.26255986687E+01  0.30276115204E+03 -0.44468097302E+03  0.53797060953E+03  0.00000000000E+00 0. -1.
        -11    1    5    5    0    0 -0.69527481367E+02  0.19942845014E+03 -0.34372431057E+03  0.40342555579E+03  0.00000000000E+00 0.  1.
          4    1    6    6  503    0  0.21588450416E+03  0.12857552362E+03  0.14854683375E+03  0.29189715008E+03  0.00000000000E+00 0. -1.
         -4    1    6    6    0  503  0.23536399208E+02 -0.11886673832E+02  0.36265996816E+02  0.44838349964E+02  0.00000000000E+00 0.  1.
<mgrwt>
<rscale>  0 0.17897632E+04</rscale>
<asrwt>0</asrwt>
<pdfrwt beam="1">  1        2 0.20839468E+00 0.17897632E+04</pdfrwt>
<pdfrwt beam="2">  1       -2 0.90953168E-01 0.17897632E+04</pdfrwt>
<totfact> 0.14977716E+01</totfact>
</mgrwt>
</event>
<event>
12    2  0.3751044E-008  0.1102054E+04  0.7818608E-02  0.9203192E-01
         -2   -1    0    0    0  501 -0.00000000000E+00  0.00000000000E+00  0.40477756417E+03  0.40477756417E+03  0.00000000000E+00 0.  1.
          2   -1    0    0  501    0  0.00000000000E+00 -0.00000000000E+00 -0.75011735523E+03  0.75011735523E+03  0.00000000000E+00 0. -1.
         23    2    1    2    0    0  0.53642797485E+02  0.14169452396E+03 -0.11495542253E+03  0.21514449913E+03  0.10058587622E+03 0.  0.
        254    2    1    2    0    0 -0.53642797485E+02 -0.14169452396E+03 -0.23038436852E+03  0.93975042026E+03  0.89838689176E+03 0.  0.
         23    2    4    4    0    0  0.35990722029E+03  0.41600862399E+02  0.82225557938E+02  0.38236267445E+03  0.90423080394E+02 0.  0.
         23    2    4    4    0    0 -0.41355001777E+03 -0.18329538636E+03 -0.31260992646E+03  0.55738774581E+03  0.91297958363E+02 0.  0.
          2    1    3    3  502    0  0.72908645701E+02  0.56745676151E+02 -0.41848252800E+02  0.10142494093E+03  0.00000000000E+00 0.  1.
         -2    1    3    3    0  502 -0.19265848216E+02  0.84948847811E+02 -0.73107169735E+02  0.11371955821E+03  0.00000000000E+00 0. -1.
         11    1    5    5    0    0  0.11539559023E+03  0.50097473055E+02  0.53684798909E+01  0.12591552576E+03  0.00000000000E+00 0. -1.
        -11    1    5    5    0    0  0.24451163006E+03 -0.84966106559E+01  0.76857078048E+02  0.25644714869E+03  0.00000000000E+00 0.  1.
          1    1    6    6  503    0 -0.14283607585E+03 -0.66770734450E+02 -0.16330540026E+03  0.22700028480E+03  0.00000000000E+00 0. -1.
         -1    1    6    6    0  503 -0.27071394192E+03 -0.11652465191E+03 -0.14930452619E+03  0.33038746101E+03  0.00000000000E+00 0.  1.
<mgrwt>
<rscale>  0 0.11020539E+04</rscale>
<asrwt>0</asrwt>
<pdfrwt beam="1">  1        2 0.11540267E+00 0.11020539E+04</pdfrwt>
<pdfrwt beam="2">  1       -2 0.62273471E-01 0.11020539E+04</pdfrwt>
<totfact> 0.89112361E+01</totfact>
</mgrwt>
</event>
<event>
12    2  0.3751044E-008  0.2084470E+04  0.7818608E-02  0.8568115E-01
          2   -1    0    0  501    0  0.00000000000E+00  0.00000000000E+00  0.14988467782E+04  0.14988467782E+04  0.00000000000E+00 0. -1.
         -2   -1    0    0    0  501 -0.00000000000E+00 -0.00000000000E+00 -0.72472662490E+03  0.72472662490E+03  0.00000000000E+00 0.  1.
         23    2    1    2    0    0  0.83446732390E+03 -0.11605960547E+03  0.20644459444E+03  0.87220724689E+03  0.91217127082E+02 0.  0.
        254    2    1    2    0    0 -0.83446732390E+03  0.11605960547E+03  0.56767555887E+03  0.13513661562E+04  0.89113938381E+03 0.  0.
         23    2    4    4    0    0 -0.42527503826E+03  0.44463738310E+03  0.74306206195E+02  0.62639644286E+03  0.91048507626E+02 0.  0.
         23    2    4    4    0    0 -0.40919228564E+03 -0.32857777763E+03  0.49336935267E+03  0.72496971336E+03  0.82256212864E+02 0.  0.
          2    1    3    3  502    0  0.81169904530E+03 -0.11344096168E+03  0.18370849582E+03  0.83992440337E+03  0.00000000000E+00 0.  1.
         -2    1    3    3    0  502  0.22768278594E+02 -0.26186437950E+01  0.22736098616E+02  0.32282843520E+02  0.00000000000E+00 0. -1.
         11    1    5    5    0    0 -0.51316281860E+02  0.26919914558E+02 -0.11887673073E+02  0.59155383143E+02  0.00000000000E+00 0. -1.
        -11    1    5    5    0    0 -0.37395875640E+03  0.41771746854E+03  0.86193879269E+02  0.56724105972E+03  0.00000000000E+00 0.  1.
          2    1    6    6  503    0 -0.50698329138E+02 -0.28448962987E+02  0.25328637760E+02  0.63412963684E+02  0.00000000000E+00 0. -1.
         -2    1    6    6    0  503 -0.35849395650E+03 -0.30012881464E+03  0.46804071491E+03  0.66155674967E+03  0.00000000000E+00 0.  1.
<mgrwt>
<rscale>  0 0.20844704E+04</rscale>
<asrwt>0</asrwt>
<pdfrwt beam="1">  1        2 0.23059181E+00 0.20844704E+04</pdfrwt>
<pdfrwt beam="2">  1       -2 0.11149640E+00 0.20844704E+04</pdfrwt>
<totfact> 0.74595494E+00</totfact>
</mgrwt>
</event>
<event>
12    2  0.3751044E-008  0.2368089E+04  0.7818608E-02  0.8451548E-01
          2   -1    0    0  501    0  0.00000000000E+00  0.00000000000E+00  0.15583976297E+04  0.15583976297E+04  0.00000000000E+00 0. -1.
         -2   -1    0    0    0  501 -0.00000000000E+00 -0.00000000000E+00 -0.89961717765E+03  0.89961717765E+03  0.00000000000E+00 0.  1.
         23    2    1    2    0    0  0.74021226867E+02  0.10038090348E+04  0.29711016195E+03  0.10535945859E+04  0.93141734199E+02 0.  0.
        254    2    1    2    0    0 -0.74021226867E+02 -0.10038090348E+04  0.36167029005E+03  0.14044202214E+04  0.91020823943E+03 0.  0.
         23    2    4    4    0    0 -0.18262068778E+03 -0.72382789583E+03  0.63792060290E+03  0.98596046166E+03  0.88871806355E+02 0.  0.
         23    2    4    4    0    0  0.10859946091E+03 -0.27998113901E+03 -0.27625031285E+03  0.41845975974E+03  0.92795765355E+02 0.  0.
          3    1    3    3  502    0  0.73652327639E+02  0.47433896012E+03  0.16839776245E+03  0.50870415848E+03  0.00000000000E+00 0. -1.
         -3    1    3    3    0  502  0.36889922777E+00  0.52947007472E+03  0.12871239950E+03  0.54489042742E+03  0.00000000000E+00 0.  1.
         11    1    5    5    0    0 -0.16116118249E+03 -0.64746579087E+03  0.53043982232E+03  0.85237977580E+03  0.00000000000E+00 0. -1.
        -11    1    5    5    0    0 -0.21459505288E+02 -0.76362104962E+02  0.10748078057E+03  0.13358068586E+03  0.00000000000E+00 0.  1.
          4    1    6    6  503    0  0.11028238161E+03 -0.28678324921E+03 -0.26892711475E+03  0.40832417118E+03  0.00000000000E+00 0. -1.
         -4    1    6    6    0  503 -0.16829206934E+01  0.68021102021E+01 -0.73231980943E+01  0.10135588567E+02  0.00000000000E+00 0.  1.
<mgrwt>
<rscale>  0 0.23680889E+04</rscale>
<asrwt>0</asrwt>
<pdfrwt beam="1">  1        2 0.23975348E+00 0.23680889E+04</pdfrwt>
<pdfrwt beam="2">  1       -2 0.13840264E+00 0.23680889E+04</pdfrwt>
<totfact> 0.39264064E+00</totfact>
</mgrwt>
</event>
<event>
12    2  0.3751044E-008  0.1637942E+04  0.7818608E-02  0.8797572E-01
          2   -1    0    0  501    0  0.00000000000E+00  0.00000000000E+00  0.43671675694E+03  0.43671675694E+03  0.00000000000E+00 0. -1.
         -2   -1    0    0    0  501 -0.00000000000E+00 -0.00000000000E+00 -0.15358085316E+04  0.15358085316E+04  0.00000000000E+00 0.  1.
         23    2    1    2    0    0  0.17088814244E+03 -0.56115929647E+02 -0.10734641030E+04  0.10922123257E+04  0.90834074393E+02 0.  0.
        254    2    1    2    0    0 -0.17088814244E+03  0.56115929647E+02 -0.25627671672E+02  0.88031296291E+03  0.86136077246E+03 0.  0.
         23    2    4    4    0    0  0.22801031111E+03  0.25515200917E+03  0.15991688132E+03  0.38857573077E+03  0.91249327970E+02 0.  0.
         23    2    4    4    0    0 -0.39889845355E+03 -0.19903607952E+03 -0.18554455300E+03  0.49173723214E+03  0.92969818399E+02 0.  0.
          3    1    3    3  502    0  0.51185466178E+02  0.15749077499E+02 -0.17646043537E+03  0.18440789202E+03  0.00000000000E+00 0. -1.
         -3    1    3    3    0  502  0.11970267627E+03 -0.71865007146E+02 -0.89700366766E+03  0.90780443365E+03  0.00000000000E+00 0.  1.
         11    1    5    5    0    0  0.79619898139E+02  0.99876200065E+02  0.10882733591E+03  0.16780337470E+03  0.00000000000E+00 0.  1.
        -11    1    5    5    0    0  0.14839041297E+03  0.15527580910E+03  0.51089545415E+02  0.22077235607E+03  0.00000000000E+00 0. -1.
          2    1    6    6  503    0 -0.73640863256E+01  0.93074488543E+01 -0.51839563238E+01  0.12951130250E+02  0.00000000000E+00 0. -1.
         -2    1    6    6    0  503 -0.39153436723E+03 -0.20834352838E+03 -0.18036059667E+03  0.47878610189E+03  0.00000000000E+00 0.  1.
<mgrwt>
<rscale>  0 0.16379418E+04</rscale>
<asrwt>0</asrwt>
<pdfrwt beam="1">  1        2 0.67187194E-01 0.16379418E+04</pdfrwt>
<pdfrwt beam="2">  1       -2 0.23627823E+00 0.16379418E+04</pdfrwt>
<totfact> 0.53745906E+00</totfact>
</mgrwt>
</event>
<event>
12    2  0.3751044E-008  0.1091363E+04  0.7818608E-02  0.9213651E-01
          2   -1    0    0  501    0  0.00000000000E+00  0.00000000000E+00  0.14224129074E+04  0.14224129074E+04  0.00000000000E+00 0. -1.
         -2   -1    0    0    0  501 -0.00000000000E+00 -0.00000000000E+00 -0.20934024242E+03  0.20934024242E+03  0.00000000000E+00 0.  1.
         23    2    1    2    0    0  0.96054995767E+02 -0.81718508216E+02  0.33107261029E+03  0.36846362932E+03  0.10125164715E+03 0.  0.
        254    2    1    2    0    0 -0.96054995767E+02  0.81718508216E+02  0.88200005465E+03  0.12632895205E+04  0.89558463549E+03 0.  0.
         23    2    4    4    0    0  0.20757410927E+03 -0.24735985770E+03  0.68582249992E+03  0.76373402762E+03  0.93076600222E+02 0.  0.
         23    2    4    4    0    0 -0.30362910504E+03  0.32907836591E+03  0.19617755473E+03  0.49955549284E+03  0.10289243466E+03 0.  0.
          1    1    3    3  502    0  0.17849867962E+02 -0.46889716328E+02  0.23273678274E+03  0.23808333273E+03  0.00000000000E+00 0. -1.
         -1    1    3    3    0  502  0.78205127805E+02 -0.34828791888E+02  0.98335827557E+02  0.13038029660E+03  0.00000000000E+00 0.  1.
         11    1    5    5    0    0  0.18759887414E+03 -0.21203442021E+03  0.51022294065E+03  0.58350611144E+03  0.00000000000E+00 0. -1.
        -11    1    5    5    0    0  0.19975235135E+02 -0.35325437494E+02  0.17559955928E+03  0.18022791618E+03  0.00000000000E+00 0.  1.
          2    1    6    6  503    0 -0.59133700619E+02  0.13124427495E+03  0.76759493109E+02  0.16313759235E+03  0.00000000000E+00 0. -1.
         -2    1    6    6    0  503 -0.24449540442E+03  0.19783409097E+03  0.11941806162E+03  0.33641790049E+03  0.00000000000E+00 0.  1.
<mgrwt>
<rscale>  0 0.10913629E+04</rscale>
<asrwt>0</asrwt>
<pdfrwt beam="1">  1        2 0.21883275E+00 0.10913629E+04</pdfrwt>
<pdfrwt beam="2">  1       -2 0.32206192E-01 0.10913629E+04</pdfrwt>
<totfact> 0.12513684E+02</totfact>
</mgrwt>
</event>
<event>
12    2  0.3751044E-008  0.1659426E+04  0.7818608E-02  0.8784849E-01
         -2   -1    0    0    0  501 -0.00000000000E+00  0.00000000000E+00  0.12262902497E+04  0.12262902497E+04  0.00000000000E+00 0.  1.
          2   -1    0    0  501    0  0.00000000000E+00 -0.00000000000E+00 -0.56138748224E+03  0.56138748224E+03  0.00000000000E+00 0. -1.
         23    2    1    2    0    0 -0.21599267423E+03  0.44555244778E+03 -0.93506141393E+02  0.51232332198E+03  0.92530906806E+02 0.  0.
        254    2    1    2    0    0  0.21599267423E+03 -0.44555244778E+03  0.75840890885E+03  0.12753544100E+04  0.89787247365E+03 0.  0.
         23    2    4    4    0    0  0.36003004541E+02 -0.30111318096E+03 -0.13831950959E+03  0.34498442365E+03  0.88975287267E+02 0.  0.
         23    2    4    4    0    0  0.17998966969E+03 -0.14443926683E+03  0.89672841844E+03  0.93036998632E+03  0.90595099209E+02 0.  0.
          3    1    3    3  502    0 -0.53882008786E+02  0.19817854157E+03 -0.63907254109E+02  0.21508636019E+03  0.00000000000E+00 0. -1.
         -3    1    3    3    0  502 -0.16211066544E+03  0.24737390621E+03 -0.29598887285E+02  0.29723696179E+03  0.00000000000E+00 0.  1.
         11    1    5    5    0    0  0.53404684928E+02 -0.12007750020E+03 -0.35788579758E+02  0.13620385041E+03  0.00000000000E+00 0. -1.
        -11    1    5    5    0    0 -0.17401680387E+02 -0.18103568076E+03 -0.10253092983E+03  0.20878057324E+03  0.00000000000E+00 0.  1.
          3    1    6    6  503    0  0.85944842613E+02 -0.10463219993E+03  0.63812433187E+03  0.65233202908E+03  0.00000000000E+00 0. -1.
         -3    1    6    6    0  503  0.94044827076E+02 -0.39807066897E+02  0.25860408657E+03  0.27803795724E+03  0.00000000000E+00 0.  1.
<mgrwt>
<rscale>  0 0.16594264E+04</rscale>
<asrwt>0</asrwt>
<pdfrwt beam="1">  1        2 0.86367305E-01 0.16594264E+04</pdfrwt>
<pdfrwt beam="2">  1       -2 0.18866004E+00 0.16594264E+04</pdfrwt>
<totfact> 0.81079327E+00</totfact>
</mgrwt>
</event>
<event>
12    2  0.3751044E-008  0.1194815E+04  0.7818608E-02  0.9117407E-01
         -1   -1    0    0    0  501 -0.00000000000E+00  0.00000000000E+00  0.33753666477E+03  0.33753666477E+03  0.00000000000E+00 0.  1.
          1   -1    0    0  501    0  0.00000000000E+00 -0.00000000000E+00 -0.10573547481E+04  0.10573547481E+04  0.00000000000E+00 0. -1.
         23    2    1    2    0    0  0.32173224534E+02 -0.12372054856E+03 -0.40333161126E+03  0.43300255401E+03  0.92048534058E+02 0.  0.
        254    2    1    2    0    0 -0.32173224534E+02  0.12372054856E+03 -0.31648647202E+03  0.96188885882E+03  0.89929116489E+03 0.  0.
         23    2    4    4    0    0 -0.17696539624E+03 -0.15582112028E+03 -0.51900474963E+03  0.57728033022E+03  0.91047660765E+02 0.  0.
         23    2    4    4    0    0  0.14479217171E+03  0.27954166883E+03  0.20251827761E+03  0.38460852860E+03  0.88327514998E+02 0.  0.
          4    1    3    3  502    0 -0.11725145093E+02 -0.40675563534E+02 -0.24715203222E+03  0.25075108679E+03  0.00000000000E+00 0. -1.
         -4    1    3    3    0  502  0.43898369627E+02 -0.83044985022E+02 -0.15617957905E+03  0.18225146722E+03  0.00000000000E+00 0.  1.
         11    1    5    5    0    0 -0.16598159578E+02 -0.64498443985E+02 -0.16796181176E+03  0.18068402914E+03  0.00000000000E+00 0. -1.
        -11    1    5    5    0    0 -0.16036723666E+03 -0.91322676290E+02 -0.35104293787E+03  0.39659630108E+03  0.00000000000E+00 0.  1.
          1    1    6    6  503    0  0.10588432816E+02 -0.44892714921E+01  0.13577319312E+01  0.11580669412E+02  0.00000000000E+00 0. -1.
         -1    1    6    6    0  503  0.13420373889E+03  0.28403094032E+03  0.20116054568E+03  0.37302785919E+03  0.00000000000E+00 0.  1.
<mgrwt>
<rscale>  0 0.11948155E+04</rscale>
<asrwt>0</asrwt>
<pdfrwt beam="1">  1        1 0.16266996E+00 0.11948155E+04</pdfrwt>
<pdfrwt beam="2">  1       -1 0.51928719E-01 0.11948155E+04</pdfrwt>
<totfact> 0.50483355E+01</totfact>
</mgrwt>
</event>
<event>
12    2  0.3751044E-008  0.2269938E+04  0.7818608E-02  0.8489869E-01
          2   -1    0    0  501    0  0.00000000000E+00  0.00000000000E+00  0.27992144887E+04  0.27992144887E+04  0.00000000000E+00 0. -1.
         -2   -1    0    0    0  501 -0.00000000000E+00 -0.00000000000E+00 -0.46018443772E+03  0.46018443772E+03  0.00000000000E+00 0.  1.
         23    2    1    2    0    0 -0.20712784287E+02  0.24850497080E+03  0.23058655150E+04  0.23210612804E+04  0.90144075476E+02 0.  0.
        254    2    1    2    0    0  0.20712784287E+02 -0.24850497080E+03  0.33164535977E+02  0.93833764597E+03  0.90398778281E+03 0.  0.
         23    2    4    4    0    0 -0.29423072636E+03 -0.27535367810E+03 -0.26786594791E+03  0.49227756812E+03  0.90518891086E+02 0.  0.
         23    2    4    4    0    0  0.31494351065E+03  0.26848707300E+02  0.30103048389E+03  0.44606007786E+03  0.91869324827E+02 0.  0.
          4    1    3    3  502    0 -0.46563737930E+02  0.21254103002E+03  0.17591914123E+04  0.17725959202E+04  0.00000000000E+00 0. -1.
         -4    1    3    3    0  502  0.25850953642E+02  0.35963940779E+02  0.54667410266E+03  0.54846536022E+03  0.00000000000E+00 0.  1.
         11    1    5    5    0    0 -0.43120543486E+02 -0.80056584341E+02 -0.32527005388E+02  0.96573516278E+02  0.00000000000E+00 0.  1.
        -11    1    5    5    0    0 -0.25111018287E+03 -0.19529709376E+03 -0.23533894253E+03  0.39570405184E+03  0.00000000000E+00 0. -1.
          1    1    6    6  503    0  0.21142513791E+03  0.58694892597E+00  0.25083775914E+03  0.32805565817E+03  0.00000000000E+00 0. -1.
         -1    1    6    6    0  503  0.10351837274E+03  0.26261758374E+02  0.50192724753E+02  0.11800441969E+03  0.00000000000E+00 0.  1.
<mgrwt>
<rscale>  0 0.22699383E+04</rscale>
<asrwt>0</asrwt>
<pdfrwt beam="1">  1        2 0.43064837E+00 0.22699383E+04</pdfrwt>
<pdfrwt beam="2">  1       -2 0.70797608E-01 0.22699383E+04</pdfrwt>
<totfact> 0.38168640E+00</totfact>
</mgrwt>
</event>
<event>
12    2  0.3751044E-008  0.1463326E+04  0.7818608E-02  0.8909213E-01
          1   -1    0    0  501    0  0.00000000000E+00  0.00000000000E+00  0.64869403005E+03  0.64869403005E+03  0.00000000000E+00 0. -1.
         -1   -1    0    0    0  501 -0.00000000000E+00 -0.00000000000E+00 -0.82524422471E+03  0.82524422471E+03  0.00000000000E+00 0.  1.
         23    2    1    2    0    0 -0.30663795914E+03  0.26244633563E+03  0.13744471483E+03  0.43586023274E+03  0.90433266981E+02 0.  0.
        254    2    1    2    0    0  0.30663795914E+03 -0.26244633563E+03 -0.31399490949E+03  0.10380780220E+04  0.90338710393E+03 0.  0.
         23    2    4    4    0    0 -0.78733099597E+02 -0.99061937788E+02 -0.53301505405E+03  0.55542431585E+03  0.91536628221E+02 0.  0.
         23    2    4    4    0    0  0.38537105874E+03 -0.16338439784E+03  0.21902014456E+03  0.48265370617E+03  0.98891162334E+02 0.  0.
          1    1    3    3  502    0 -0.70339186157E+02  0.94724276381E+02  0.73167876936E+01  0.11821093447E+03  0.00000000000E+00 0.  1.
         -1    1    3    3    0  502 -0.23629877299E+03  0.16772205924E+03  0.13012792713E+03  0.31764929827E+03  0.00000000000E+00 0. -1.
         11    1    5    5    0    0 -0.59970931601E+02 -0.82654843249E+02 -0.51407681625E+03  0.52412146375E+03  0.00000000000E+00 0.  1.
        -11    1    5    5    0    0 -0.18762167996E+02 -0.16407094539E+02 -0.18938237793E+02  0.31302852104E+02  0.00000000000E+00 0. -1.
          2    1    6    6  503    0  0.18342433731E+03 -0.31617390880E+02  0.68155278643E+02  0.19821525907E+03  0.00000000000E+00 0. -1.
         -2    1    6    6    0  503  0.20194672143E+03 -0.13176700696E+03  0.15086486592E+03  0.28443844710E+03  0.00000000000E+00 0.  1.
<mgrwt>
<rscale>  0 0.14633264E+04</rscale>
<asrwt>0</asrwt>
<pdfrwt beam="1">  1        1 0.99799082E-01 0.14633264E+04</pdfrwt>
<pdfrwt beam="2">  1       -1 0.12696065E+00 0.14633264E+04</pdfrwt>
<totfact> 0.15957606E+01</totfact>
</mgrwt>
</event>
<event>
12    2  0.3751044E-008  0.1295055E+04  0.7818608E-02  0.9033496E-01
         -1   -1    0    0    0  501 -0.00000000000E+00  0.00000000000E+00  0.21699821094E+03  0.21699821094E+03  0.00000000000E+00 0. -1.
          1   -1    0    0  501    0  0.00000000000E+00 -0.00000000000E+00 -0.19322358962E+04  0.19322358962E+04  0.00000000000E+00 0.  1.
         23    2    1    2    0    0 -0.31608876126E+03  0.75554409681E+02 -0.42761559554E+03  0.54505121079E+03  0.92763953237E+02 0.  0.
        254    2    1    2    0    0  0.31608876126E+03 -0.75554409681E+02 -0.12876220898E+04  0.16041828964E+04  0.89989529682E+03 0.  0.
         23    2    4    4    0    0  0.34038473913E+03 -0.43561022175E+03 -0.94199900080E+03  0.10960032624E+04  0.90790956266E+02 0.  0.
         23    2    4    4    0    0 -0.24295977869E+02  0.36005581207E+03 -0.34562308896E+03  0.50817963401E+03  0.92524258720E+02 0.  0.
          4    1    3    3  502    0 -0.23450167041E+03  0.65426104550E+02 -0.37613287448E+03  0.44804859987E+03  0.00000000000E+00 0. -1.
         -4    1    3    3    0  502 -0.81587090847E+02  0.10128305131E+02 -0.51482721063E+02  0.97002610922E+02  0.00000000000E+00 0.  1.
         11    1    5    5    0    0  0.30120699813E+03 -0.35489432581E+03 -0.83840506204E+03  0.95895708260E+03  0.00000000000E+00 0.  1.
        -11    1    5    5    0    0  0.39177740993E+02 -0.80715895945E+02 -0.10359393876E+03  0.13704617979E+03  0.00000000000E+00 0. -1.
          1    1    6    6  503    0  0.11131001295E+02  0.17879186882E+03 -0.11566215050E+03  0.21323265370E+03  0.00000000000E+00 0. -1.
         -1    1    6    6    0  503 -0.35426979164E+02  0.18126394326E+03 -0.22996093846E+03  0.29494698031E+03  0.00000000000E+00 0.  1.
<mgrwt>
<rscale>  0 0.12950548E+04</rscale>
<asrwt>0</asrwt>
<pdfrwt beam="1">  1        1 0.29726705E+00 0.12950548E+04</pdfrwt>
<pdfrwt beam="2">  1       -1 0.33384341E-01 0.12950548E+04</pdfrwt>
<totfact> 0.27524848E+01</totfact>
</mgrwt>
</event>
<event>
12    2  0.3751044E-008  0.1240149E+04  0.7818608E-02  0.9078422E-01
         -2   -1    0    0    0  501 -0.00000000000E+00  0.00000000000E+00  0.28842377273E+03  0.28842377273E+03  0.00000000000E+00 0.  1.
          2   -1    0    0  501    0  0.00000000000E+00 -0.00000000000E+00 -0.13330810867E+04  0.13330810867E+04  0.00000000000E+00 0. -1.
         23    2    1    2    0    0 -0.24001849716E+03  0.10480698632E+03 -0.41506620392E+03  0.49899439645E+03  0.90122531536E+02 0.  0.
        254    2    1    2    0    0  0.24001849716E+03 -0.10480698632E+03 -0.62959111004E+03  0.11225104630E+04  0.89165654277E+03 0.  0.
         23    2    4    4    0    0  0.21658509855E+03  0.36737096802E+03 -0.38548473514E+03  0.58281280604E+03  0.95925767142E+02 0.  0.
         23    2    4    4    0    0  0.23433398613E+02 -0.47217795433E+03 -0.24410637490E+03  0.53969765693E+03  0.90468192721E+02 0.  0.
          4    1    3    3  502    0 -0.51433656317E+02  0.58163010073E+02 -0.78664029232E+02  0.11052776229E+03  0.00000000000E+00 0.  1.
         -4    1    3    3    0  502 -0.18858484084E+03  0.46643976243E+02 -0.33640217469E+03  0.38846663415E+03  0.00000000000E+00 0. -1.
         11    1    5    5    0    0  0.12245786891E+03  0.29146804222E+03 -0.27479259470E+03  0.41888007758E+03  0.00000000000E+00 0.  1.
        -11    1    5    5    0    0  0.94127229635E+02  0.75902925795E+02 -0.11069214044E+03  0.16393272845E+03  0.00000000000E+00 0. -1.
          4    1    6    6  503    0 -0.34188775274E+02 -0.20679105122E+03 -0.11342772687E+03  0.23832175823E+03  0.00000000000E+00 0. -1.
         -4    1    6    6    0  503  0.57622173888E+02 -0.26538690311E+03 -0.13067864803E+03  0.30137589870E+03  0.00000000000E+00 0.  1.
<mgrwt>
<rscale>  0 0.12401488E+04</rscale>
<asrwt>0</asrwt>
<pdfrwt beam="1">  1        2 0.20508940E+00 0.12401488E+04</pdfrwt>
<pdfrwt beam="2">  1       -2 0.44372887E-01 0.12401488E+04</pdfrwt>
<totfact> 0.74929369E+01</totfact>
</mgrwt>
</event>
<event>
12    2  0.3751044E-008  0.2107692E+04  0.7818608E-02  0.8557862E-01
          2   -1    0    0  501    0  0.00000000000E+00  0.00000000000E+00  0.18625744401E+04  0.18625744401E+04  0.00000000000E+00 0. -1.
         -2   -1    0    0    0  501 -0.00000000000E+00 -0.00000000000E+00 -0.59626709688E+03  0.59626709688E+03  0.00000000000E+00 0.  1.
         23    2    1    2    0    0 -0.71012536726E+03  0.22002495708E+03  0.26959345749E+02  0.74953652083E+03  0.91592416523E+02 0.  0.
        254    2    1    2    0    0  0.71012536726E+03 -0.22002495708E+03  0.12393479975E+04  0.17093050162E+04  0.91271636364E+03 0.  0.
         23    2    4    4    0    0  0.73867743200E+03 -0.40163633942E+03  0.12448737803E+04  0.15048031724E+04  0.88123555859E+02 0.  0.
         23    2    4    4    0    0 -0.28552064741E+02  0.18161138234E+03 -0.55257827726E+01  0.20450184380E+03  0.89401091963E+02 0.  0.
          3    1    3    3  502    0 -0.18701540552E+03  0.88165297688E+02 -0.21608916629E+02  0.20788176182E+03  0.00000000000E+00 0. -1.
         -3    1    3    3    0  502 -0.52310996174E+03  0.13185965939E+03  0.48568262377E+02  0.54165475901E+03  0.00000000000E+00 0.  1.
         11    1    5    5    0    0  0.23649258060E+03 -0.11269603904E+03  0.45817471554E+03  0.52778140158E+03  0.00000000000E+00 0. -1.
        -11    1    5    5    0    0  0.50218485140E+03 -0.28894030038E+03  0.78669906475E+03  0.97702177081E+03  0.00000000000E+00 0.  1.
          1    1    6    6  503    0  0.14376631058E+01  0.62357152754E+02 -0.43222816044E+02  0.75886054066E+02  0.00000000000E+00 0. -1.
         -1    1    6    6    0  503 -0.29989727846E+02  0.11925422959E+03  0.37697033272E+02  0.12861578973E+03  0.00000000000E+00 0.  1.
<mgrwt>
<rscale>  0 0.21076924E+04</rscale>
<asrwt>0</asrwt>
<pdfrwt beam="1">  1        2 0.28654991E+00 0.21076924E+04</pdfrwt>
<pdfrwt beam="2">  1       -2 0.91733400E-01 0.21076924E+04</pdfrwt>
<totfact> 0.74175492E+00</totfact>
</mgrwt>
</event>
<event>
12    2  0.3751044E-008  0.2602516E+04  0.7818608E-02  0.8367347E-01
         -2   -1    0    0    0  501 -0.00000000000E+00  0.00000000000E+00  0.12969792382E+04  0.12969792382E+04  0.00000000000E+00 0.  1.
          2   -1    0    0  501    0  0.00000000000E+00 -0.00000000000E+00 -0.13055513624E+04  0.13055513624E+04  0.00000000000E+00 0. -1.
         23    2    1    2    0    0 -0.18163959139E+03 -0.68963508641E+03 -0.89700404722E+03  0.11495340622E+04  0.90679687663E+02 0.  0.
        254    2    1    2    0    0  0.18163959139E+03  0.68963508641E+03  0.88843192310E+03  0.14529965385E+04  0.90183045259E+03 0.  0.
         23    2    4    4    0    0 -0.72452935882E+02 -0.17348820914E+03  0.37810928419E+02  0.21142811117E+03  0.89020184550E+02 0.  0.
         23    2    4    4    0    0  0.25409252727E+03  0.86312329555E+03  0.85062099468E+03  0.12415684273E+04  0.91603751509E+02 0.  0.
          1    1    3    3  502    0 -0.16735306614E+03 -0.68262083772E+03 -0.87356179424E+03  0.11211995653E+04  0.00000000000E+00 0. -1.
         -1    1    3    3    0  502 -0.14286525242E+02 -0.70142486958E+01 -0.23442252976E+02  0.28334496869E+02  0.00000000000E+00 0.  1.
         11    1    5    5    0    0 -0.34106409695E+02 -0.43359817045E+02 -0.26609695678E+02  0.61248647500E+02  0.00000000000E+00 0. -1.
        -11    1    5    5    0    0 -0.38346526187E+02 -0.13012839210E+03  0.64420624097E+02  0.15017946367E+03  0.00000000000E+00 0.  1.
          1    1    6    6  503    0  0.39953724240E+02  0.26134558598E+03  0.27949097850E+03  0.38472460599E+03  0.00000000000E+00 0. -1.
         -1    1    6    6    0  503  0.21413880303E+03  0.60177770957E+03  0.57113001618E+03  0.85684382129E+03  0.00000000000E+00 0.  1.
<mgrwt>
<rscale>  0 0.26025165E+04</rscale>
<asrwt>0</asrwt>
<pdfrwt beam="1">  1        2 0.20085406E+00 0.26025165E+04</pdfrwt>
<pdfrwt beam="2">  1       -2 0.19953527E+00 0.26025165E+04</pdfrwt>
<totfact> 0.19437195E+00</totfact>
</mgrwt>
</event>
<event>
12    2  0.3751044E-008  0.2407770E+04  0.7818608E-02  0.8436600E-01
          1   -1    0    0  501    0  0.00000000000E+00  0.00000000000E+00  0.11835928233E+04  0.11835928233E+04  0.00000000000E+00 0. -1.
         -1   -1    0    0    0  501 -0.00000000000E+00 -0.00000000000E+00 -0.12245250293E+04  0.12245250293E+04  0.00000000000E+00 0.  1.
         23    2    1    2    0    0 -0.98744247180E+03  0.23093626800E+03  0.18758920460E+03  0.10354277693E+04  0.92448693008E+02 0.  0.
        254    2    1    2    0    0  0.98744247180E+03 -0.23093626800E+03 -0.22852141060E+03  0.13726900833E+04  0.89648303648E+03 0.  0.
         23    2    4    4    0    0  0.24503701032E+03  0.78725533220E+02 -0.45565723549E+03  0.53146719382E+03  0.92698521255E+02 0.  0.
         23    2    4    4    0    0  0.74240546148E+03 -0.30966180122E+03  0.22713582489E+03  0.84122288948E+03  0.94915575465E+02 0.  0.
          3    1    3    3  502    0 -0.36289403146E+03  0.73144679487E+02  0.11240930737E+03  0.38688250748E+03  0.00000000000E+00 0. -1.
         -3    1    3    3    0  502 -0.62454844034E+03  0.15779158852E+03  0.75179897235E+02  0.64854526186E+03  0.00000000000E+00 0.  1.
         11    1    5    5    0    0  0.11297057228E+03  0.84687336106E+02 -0.24461571774E+03  0.28243785947E+03  0.00000000000E+00 0. -1.
        -11    1    5    5    0    0  0.13206643804E+03 -0.59618028860E+01 -0.21104151776E+03  0.24902933435E+03  0.00000000000E+00 0.  1.
          3    1    6    6  503    0  0.60632707686E+03 -0.21477116599E+03  0.19591001901E+03  0.67241349884E+03  0.00000000000E+00 0. -1.
         -3    1    6    6    0  503  0.13607838461E+03 -0.94890635229E+02  0.31225805884E+02  0.16880939063E+03  0.00000000000E+00 0.  1.
<mgrwt>
<rscale>  0 0.24077700E+04</rscale>
<asrwt>0</asrwt>
<pdfrwt beam="1">  1        1 0.18209120E+00 0.24077700E+04</pdfrwt>
<pdfrwt beam="2">  1       -1 0.18838847E+00 0.24077700E+04</pdfrwt>
<totfact> 0.17844736E+00</totfact>
</mgrwt>
</event>
<event>
12    2  0.3751044E-008  0.1455713E+04  0.7818608E-02  0.8914449E-01
          1   -1    0    0  501    0  0.00000000000E+00  0.00000000000E+00  0.11146487249E+04  0.11146487249E+04  0.00000000000E+00 0. -1.
         -1   -1    0    0    0  501 -0.00000000000E+00 -0.00000000000E+00 -0.47528459489E+03  0.47528459489E+03  0.00000000000E+00 0.  1.
         23    2    1    2    0    0  0.19165644757E+03  0.31313483741E+03  0.51415394801E+03  0.63834458675E+03  0.91344999242E+02 0.  0.
        254    2    1    2    0    0 -0.19165644757E+03 -0.31313483741E+03  0.12521018194E+03  0.95158873299E+03  0.86894068083E+03 0.  0.
         23    2    4    4    0    0 -0.21857170250E+03 -0.50097316347E+03 -0.17880916642E+03  0.58226078172E+03  0.91143843933E+02 0.  0.
         23    2    4    4    0    0  0.26915254926E+02  0.18783832606E+03  0.30401934836E+03  0.36932795127E+03  0.89261994860E+02 0.  0.
          3    1    3    3  502    0 -0.75884361440E+01  0.60929746124E+01  0.29103355034E+02  0.30687358586E+02  0.00000000000E+00 0.  1.
         -3    1    3    3    0  502  0.19924488372E+03  0.30704186279E+03  0.48505059298E+03  0.60765722817E+03  0.00000000000E+00 0. -1.
         11    1    5    5    0    0 -0.20327496027E+03 -0.37010600495E+03 -0.14125728693E+03  0.44525586518E+03  0.00000000000E+00 0. -1.
        -11    1    5    5    0    0 -0.15296742229E+02 -0.13086715852E+03 -0.37551879494E+02  0.13700491654E+03  0.00000000000E+00 0.  1.
          3    1    6    6  503    0  0.21089655956E+02  0.34651557237E+02  0.13583363508E+03  0.14176135025E+03  0.00000000000E+00 0. -1.
         -3    1    6    6    0  503  0.58255989704E+01  0.15318676882E+03  0.16818571329E+03  0.22756660102E+03  0.00000000000E+00 0.  1.
<mgrwt>
<rscale>  0 0.14557134E+04</rscale>
<asrwt>0</asrwt>
<pdfrwt beam="1">  1        1 0.17148442E+00 0.14557134E+04</pdfrwt>
<pdfrwt beam="2">  1       -1 0.73120707E-01 0.14557134E+04</pdfrwt>
<totfact> 0.22624947E+01</totfact>
</mgrwt>
</event>
<event>
12    2  0.3751044E-008  0.1350266E+04  0.7818608E-02  0.8990626E-01
          2   -1    0    0  501    0  0.00000000000E+00  0.00000000000E+00  0.10341628534E+04  0.10341628534E+04  0.00000000000E+00 0.  1.
         -2   -1    0    0    0  501 -0.00000000000E+00 -0.00000000000E+00 -0.44074765768E+03  0.44074765768E+03  0.00000000000E+00 0. -1.
         23    2    1    2    0    0  0.11749071128E+03  0.45808067650E+02 -0.21117762140E+03  0.26230403458E+03  0.91131621724E+02 0.  0.
        254    2    1    2    0    0 -0.11749071128E+03 -0.45808067650E+02  0.80459281713E+03  0.12126064765E+04  0.89841105247E+03 0.  0.
         23    2    4    4    0    0  0.35067034868E+03 -0.17447713980E+03  0.26675731191E+03  0.48221857873E+03  0.89237483480E+02 0.  0.
         23    2    4    4    0    0 -0.46816105996E+03  0.12866907215E+03  0.53783550522E+03  0.73038789778E+03  0.92026856721E+02 0.  0.
          1    1    3    3  502    0  0.50912011141E+02  0.16140518871E+02 -0.17084702056E+03  0.17900070856E+03  0.00000000000E+00 0. -1.
         -1    1    3    3    0  502  0.66578700140E+02  0.29667548779E+02 -0.40330600833E+02  0.83303326023E+02  0.00000000000E+00 0.  1.
         11    1    5    5    0    0  0.28557647644E+02  0.47694223924E+01  0.33378934332E+01  0.29144950874E+02  0.00000000000E+00 0. -1.
        -11    1    5    5    0    0  0.32211270104E+03 -0.17924656219E+03  0.26341941848E+03  0.45307362786E+03  0.00000000000E+00 0.  1.
          1    1    6    6  503    0 -0.40599798925E+01 -0.19985635765E+01 -0.33129150304E+01  0.56083062590E+01  0.00000000000E+00 0. -1.
         -1    1    6    6    0  503 -0.46410108007E+03  0.13066763573E+03  0.54114842025E+03  0.72477959153E+03  0.00000000000E+00 0.  1.
<mgrwt>
<rscale>  0 0.13502664E+04</rscale>
<asrwt>0</asrwt>
<pdfrwt beam="1">  1        2 0.15910198E+00 0.13502664E+04</pdfrwt>
<pdfrwt beam="2">  1       -2 0.67807332E-01 0.13502664E+04</pdfrwt>
<totfact> 0.46626279E+01</totfact>
</mgrwt>
</event>
<event>
12    2  0.3751044E-008  0.1528198E+04  0.7818608E-02  0.8865915E-01
         -1   -1    0    0    0  501 -0.00000000000E+00  0.00000000000E+00  0.23287093646E+04  0.23287093646E+04  0.00000000000E+00 0.  1.
          1   -1    0    0  501    0  0.00000000000E+00 -0.00000000000E+00 -0.25071721859E+03  0.25071721859E+03  0.00000000000E+00 0. -1.
         23    2    1    2    0    0  0.13648826084E+03  0.33853441981E+03  0.12488402236E+04  0.13043724092E+04  0.92470963546E+02 0.  0.
        254    2    1    2    0    0 -0.13648826084E+03 -0.33853441981E+03  0.82915192237E+03  0.12750541739E+04  0.89723778194E+03 0.  0.
         23    2    4    4    0    0 -0.92249929986E+02 -0.40324263654E+03  0.98900877096E+03  0.10759171119E+04  0.91348832596E+02 0.  0.
         23    2    4    4    0    0 -0.44238330854E+02  0.64708216729E+02 -0.15985684859E+03  0.19913706200E+03  0.89202994289E+02 0.  0.
          3    1    3    3  502    0  0.34799283347E+02  0.96468706099E+02  0.22276603208E+03  0.24523846849E+03  0.00000000000E+00 0. -1.
         -3    1    3    3    0  502  0.10168897749E+03  0.24206571372E+03  0.10260741915E+04  0.10591339407E+04  0.00000000000E+00 0.  1.
         11    1    5    5    0    0  0.12546503546E+02 -0.90891352819E+02  0.26603679154E+03  0.28141468906E+03  0.00000000000E+00 0. -1.
        -11    1    5    5    0    0 -0.10479643353E+03 -0.31235128372E+03  0.72297197942E+03  0.79450242287E+03  0.00000000000E+00 0.  1.
          2    1    6    6  503    0 -0.24361254455E+02 -0.15603735617E+02 -0.15674844781E+02  0.32903617472E+02  0.00000000000E+00 0.  1.
         -2    1    6    6    0  503 -0.19877076399E+02  0.80311952346E+02 -0.14418200381E+03  0.16623344452E+03  0.00000000000E+00 0. -1.
<mgrwt>
<rscale>  0 0.15281983E+04</rscale>
<asrwt>0</asrwt>
<pdfrwt beam="1">  1        1 0.38571881E-01 0.15281983E+04</pdfrwt>
<pdfrwt beam="2">  1       -1 0.35826297E+00 0.15281983E+04</pdfrwt>
<totfact> 0.14715418E+00</totfact>
</mgrwt>
</event>
<event>
12    2  0.3751044E-008  0.2531885E+04  0.7818608E-02  0.8391714E-01
          2   -1    0    0  501    0  0.00000000000E+00  0.00000000000E+00  0.34401375342E+04  0.34401375342E+04  0.00000000000E+00 0. -1.
         -2   -1    0    0    0  501 -0.00000000000E+00 -0.00000000000E+00 -0.46585659493E+03  0.46585659493E+03  0.00000000000E+00 0.  1.
         23    2    1    2    0    0 -0.24288138885E+03  0.47414176108E+03 -0.18975684783E+03  0.57367274448E+03  0.96389718380E+02 0.  0.
        254    2    1    2    0    0  0.24288138885E+03 -0.47414176108E+03  0.31640377872E+04  0.33323213847E+04  0.89968267391E+03 0.  0.
         23    2    4    4    0    0 -0.53991879628E+02  0.23822814446E+03  0.64592634872E+03  0.69690365299E+03  0.93734101090E+02 0.  0.
         23    2    4    4    0    0  0.29687326848E+03 -0.71236990554E+03  0.25181114384E+04  0.26354177317E+04  0.94534566924E+02 0.  0.
          1    1    3    3  502    0  0.54272390219E+01  0.46870553268E+02 -0.17648887615E+02  0.50376452049E+02  0.00000000000E+00 0. -1.
         -1    1    3    3    0  502 -0.24830862787E+03  0.42727120781E+03 -0.17210796022E+03  0.52329629243E+03  0.00000000000E+00 0.  1.
         11    1    5    5    0    0 -0.49736673185E+02  0.78286259936E+02  0.32980174124E+03  0.34259548111E+03  0.00000000000E+00 0. -1.
        -11    1    5    5    0    0 -0.42552064433E+01  0.15994188453E+03  0.31612460748E+03  0.35430817188E+03  0.00000000000E+00 0.  1.
          3    1    6    6  503    0  0.18148759280E+03 -0.37452939409E+03  0.12157922591E+04  0.12850528513E+04  0.00000000000E+00 0. -1.
         -3    1    6    6    0  503  0.11538567568E+03 -0.33784051145E+03  0.13023191794E+04  0.13503648804E+04  0.00000000000E+00 0.  1.
<mgrwt>
<rscale>  0 0.25318853E+04</rscale>
<asrwt>0</asrwt>
<pdfrwt beam="1">  1        2 0.52925191E+00 0.25318853E+04</pdfrwt>
<pdfrwt beam="2">  1       -2 0.71670248E-01 0.25318853E+04</pdfrwt>
<totfact> 0.14063467E+00</totfact>
</mgrwt>
</event>
<event>
12    2  0.3751044E-008  0.2681438E+04  0.7818608E-02  0.8341053E-01
          2   -1    0    0  501    0  0.00000000000E+00  0.00000000000E+00  0.18377014933E+04  0.18377014933E+04  0.00000000000E+00 0. -1.
         -2   -1    0    0    0  501 -0.00000000000E+00 -0.00000000000E+00 -0.97813917947E+03  0.97813917947E+03  0.00000000000E+00 0.  1.
         23    2    1    2    0    0 -0.39646617692E+03 -0.47479673172E+03 -0.68174148532E+03  0.92524228967E+03  0.93190535435E+02 0.  0.
        254    2    1    2    0    0  0.39646617692E+03  0.47479673172E+03  0.15413037992E+04  0.18905983831E+04  0.90339774134E+03 0.  0.
         23    2    4    4    0    0 -0.25806159960E+03  0.38359424965E+01  0.29868785629E+03  0.40654863383E+03  0.97246349668E+02 0.  0.
         23    2    4    4    0    0  0.65452777652E+03  0.47096078922E+03  0.12426159429E+04  0.14840497493E+04  0.89992231288E+02 0.  0.
          4    1    3    3  502    0 -0.22102851007E+03 -0.24229251682E+03 -0.42610445977E+03  0.53770277720E+03  0.00000000000E+00 0.  1.
         -4    1    3    3    0  502 -0.17543766684E+03 -0.23250421490E+03 -0.25563702556E+03  0.38753951247E+03  0.00000000000E+00 0. -1.
         11    1    5    5    0    0 -0.45893007564E+02 -0.75991231419E+00  0.79274677782E+01  0.46578861679E+02  0.00000000000E+00 0.  1.
        -11    1    5    5    0    0 -0.21216859204E+03  0.45958548107E+01  0.29076038852E+03  0.35996977215E+03  0.00000000000E+00 0. -1.
          2    1    6    6  503    0  0.59238202195E+03  0.39381141653E+03  0.11132476580E+04  0.13211072022E+04  0.00000000000E+00 0. -1.
         -2    1    6    6    0  503  0.62145754570E+02  0.77149372691E+02  0.12936828491E+03  0.16294254711E+03  0.00000000000E+00 0.  1.
<mgrwt>
<rscale>  0 0.26814383E+04</rscale>
<asrwt>0</asrwt>
<pdfrwt beam="1">  1        2 0.28272331E+00 0.26814383E+04</pdfrwt>
<pdfrwt beam="2">  1       -2 0.15048295E+00 0.26814383E+04</pdfrwt>
<totfact> 0.21465671E+00</totfact>
</mgrwt>
</event>
<event>
12    2  0.3751044E-008  0.5241821E+04  0.7818608E-02  0.7792250E-01
          2   -1    0    0  501    0  0.00000000000E+00  0.00000000000E+00  0.23524126602E+04  0.23524126602E+04  0.00000000000E+00 0. -1.
         -2   -1    0    0    0  501 -0.00000000000E+00 -0.00000000000E+00 -0.29200534533E+04  0.29200534533E+04  0.00000000000E+00 0.  1.
         23    2    1    2    0    0 -0.87519561802E+03  0.15240379727E+02  0.21319713006E+04  0.23064129664E+04  0.89663292054E+02 0.  0.
        254    2    1    2    0    0  0.87519561802E+03 -0.15240379727E+02 -0.26996120937E+04  0.29660531470E+04  0.86218685660E+03 0.  0.
         23    2    4    4    0    0  0.54302091963E+03 -0.33296924303E+03 -0.89953962664E+03  0.11057818201E+04  0.88553135610E+02 0.  0.
         23    2    4    4    0    0  0.33217469839E+03  0.31772886331E+03 -0.18000724671E+04  0.18602713269E+04  0.95167548789E+02 0.  0.
          3    1    3    3  502    0 -0.84099249834E+03  0.30601847431E+02  0.20183523136E+04  0.21867672298E+04  0.00000000000E+00 0. -1.
         -3    1    3    3    0  502 -0.34203119680E+02 -0.15361467704E+02  0.11361898695E+03  0.11964573658E+03  0.00000000000E+00 0.  1.
         11    1    5    5    0    0  0.16877252059E+03 -0.14329425529E+03 -0.26880856596E+03  0.34824625258E+03  0.00000000000E+00 0.  1.
        -11    1    5    5    0    0  0.37424839904E+03 -0.18967498775E+03 -0.63073106068E+03  0.75753556753E+03  0.00000000000E+00 0. -1.
          3    1    6    6  503    0  0.11989648351E+03  0.15245962088E+03 -0.90950357931E+03  0.92995476425E+03  0.00000000000E+00 0. -1.
         -3    1    6    6    0  503  0.21227821488E+03  0.16526924242E+03 -0.89056888774E+03  0.93031656269E+03  0.00000000000E+00 0.  1.
<mgrwt>
<rscale>  0 0.52418206E+04</rscale>
<asrwt>0</asrwt>
<pdfrwt beam="1">  1        2 0.36190964E+00 0.52418206E+04</pdfrwt>
<pdfrwt beam="2">  1       -2 0.44923899E+00 0.52418206E+04</pdfrwt>
<totfact> 0.10650259E-02</totfact>
</mgrwt>
</event>
<event>
12    2  0.3751044E-008  0.1410889E+04  0.7818608E-02  0.8945974E-01
         -2   -1    0    0    0  501 -0.00000000000E+00  0.00000000000E+00  0.12541163378E+04  0.12541163378E+04  0.00000000000E+00 0. -1.
          2   -1    0    0  501    0  0.00000000000E+00 -0.00000000000E+00 -0.39681501759E+03  0.39681501759E+03  0.00000000000E+00 0.  1.
         23    2    1    2    0    0  0.18506346632E+03  0.32825343810E+03  0.71832776730E+02  0.39432238137E+03  0.91276428743E+02 0.  0.
        254    2    1    2    0    0 -0.18506346632E+03 -0.32825343810E+03  0.78546854345E+03  0.12566089740E+04  0.90559730264E+03 0.  0.
         23    2    4    4    0    0 -0.50536231664E+03 -0.22191893149E+03  0.70048167158E+03  0.89606888850E+03  0.87325812321E+02 0.  0.
         23    2    4    4    0    0  0.32029885032E+03 -0.10633450662E+03  0.84986871873E+02  0.36054008548E+03  0.94170080362E+02 0.  0.
          4    1    3    3  502    0  0.66068901066E+02  0.16039869617E+03  0.73899156223E+02  0.18855748914E+03  0.00000000000E+00 0. -1.
         -4    1    3    3    0  502  0.11899456526E+03  0.16785474193E+03 -0.20663794931E+01  0.20576489223E+03  0.00000000000E+00 0.  1.
         11    1    5    5    0    0 -0.12785557674E+03 -0.20594876536E+02  0.13630519292E+03  0.18801676271E+03  0.00000000000E+00 0. -1.
        -11    1    5    5    0    0 -0.37750673990E+03 -0.20132405495E+03  0.56417647865E+03  0.70805212579E+03  0.00000000000E+00 0.  1.
          4    1    6    6  503    0  0.12349603768E+02 -0.58339665628E+01  0.28656547293E+02  0.31745008771E+02  0.00000000000E+00 0. -1.
         -4    1    6    6    0  503  0.30794924655E+03 -0.10050054005E+03  0.56330324580E+02  0.32879507671E+03  0.00000000000E+00 0.  1.
<mgrwt>
<rscale>  0 0.14108894E+04</rscale>
<asrwt>0</asrwt>
<pdfrwt beam="1">  1        2 0.61048465E-01 0.14108894E+04</pdfrwt>
<pdfrwt beam="2">  1       -2 0.19294097E+00 0.14108894E+04</pdfrwt>
<totfact> 0.11546968E+01</totfact>
</mgrwt>
</event>
<event>
12    2  0.3751044E-008  0.1496144E+04  0.7818608E-02  0.8887021E-01
         -1   -1    0    0    0  501 -0.00000000000E+00  0.00000000000E+00  0.55402283633E+03  0.55402283633E+03  0.00000000000E+00 0.  1.
          1   -1    0    0  501    0  0.00000000000E+00 -0.00000000000E+00 -0.10100874973E+04  0.10100874973E+04  0.00000000000E+00 0. -1.
         23    2    1    2    0    0  0.16574044917E+03 -0.20400742921E+03  0.26727659343E+03  0.38456488082E+03  0.85816330041E+02 0.  0.
        254    2    1    2    0    0 -0.16574044917E+03  0.20400742921E+03 -0.72334125436E+03  0.11795454528E+04  0.89387693629E+03 0.  0.
         23    2    4    4    0    0  0.31636834025E+03  0.28099184148E+03 -0.37908370220E+03  0.57522360113E+03  0.90179800047E+02 0.  0.
         23    2    4    4    0    0 -0.48210878942E+03 -0.76984412266E+02 -0.34425755216E+03  0.60432185164E+03  0.91302538772E+02 0.  0.
          2    1    3    3  502    0 -0.28934589620E+01 -0.43119071729E+02  0.36447516424E+02  0.56533599788E+02  0.00000000000E+00 0. -1.
         -2    1    3    3    0  502  0.16863390813E+03 -0.16088835748E+03  0.23082907701E+03  0.32803128104E+03  0.00000000000E+00 0.  1.
         11    1    5    5    0    0  0.21423785662E+03  0.13590439879E+03 -0.24642447758E+03  0.35368472963E+03  0.00000000000E+00 0.  1.
        -11    1    5    5    0    0  0.10213048363E+03  0.14508744268E+03 -0.13265922462E+03  0.22153887151E+03  0.00000000000E+00 0. -1.
          1    1    6    6  503    0 -0.44150177993E+03 -0.95510831018E+02 -0.31944382397E+03  0.55325445971E+03  0.00000000000E+00 0. -1.
         -1    1    6    6    0  503 -0.40607009493E+02  0.18526418753E+02 -0.24813728188E+02  0.51067391928E+02  0.00000000000E+00 0.  1.
<mgrwt>
<rscale>  0 0.14961438E+04</rscale>
<asrwt>0</asrwt>
<pdfrwt beam="1">  1        1 0.15539807E+00 0.14961438E+04</pdfrwt>
<pdfrwt beam="2">  1       -1 0.85234285E-01 0.14961438E+04</pdfrwt>
<totfact> 0.19572382E+01</totfact>
</mgrwt>
</event>
<event>
12    2  0.3751044E-008  0.1294002E+04  0.7818608E-02  0.9034335E-01
         -1   -1    0    0    0  501 -0.00000000000E+00  0.00000000000E+00  0.47566412931E+03  0.47566412931E+03  0.00000000000E+00 0.  1.
          1   -1    0    0  501    0  0.00000000000E+00 -0.00000000000E+00 -0.88005469938E+03  0.88005469938E+03  0.00000000000E+00 0. -1.
         23    2    1    2    0    0 -0.14123177256E+03 -0.30271792075E+03 -0.91134226078E+02  0.35804406386E+03  0.91134797852E+02 0.  0.
        254    2    1    2    0    0  0.14123177256E+03  0.30271792075E+03 -0.31325634399E+03  0.99767476483E+03  0.88636383399E+03 0.  0.
         23    2    4    4    0    0 -0.28272903102E+03  0.13219194329E+03  0.13386395131E+03  0.35178873876E+03  0.91789674822E+02 0.  0.
         23    2    4    4    0    0  0.42396080358E+03  0.17052597745E+03 -0.44712029529E+03  0.64588602607E+03  0.91816819005E+02 0.  0.
          2    1    3    3  502    0 -0.10865791082E+03 -0.23223118368E+03 -0.27906401372E+02  0.25790818424E+03  0.00000000000E+00 0.  1.
         -2    1    3    3    0  502 -0.32573861736E+02 -0.70486737067E+02 -0.63227824706E+02  0.10013587962E+03  0.00000000000E+00 0. -1.
         11    1    5    5    0    0 -0.20829512254E+03  0.83887263773E+02  0.13691665977E+03  0.26300209661E+03  0.00000000000E+00 0.  1.
        -11    1    5    5    0    0 -0.74433908481E+02  0.48304679522E+02 -0.30527084638E+01  0.88786642151E+02  0.00000000000E+00 0. -1.
          2    1    6    6  503    0  0.23053242505E+03  0.11375266604E+03 -0.19266361841E+03  0.32125400837E+03  0.00000000000E+00 0. -1.
         -2    1    6    6    0  503  0.19342837853E+03  0.56773311411E+02 -0.25445667689E+03  0.32463201771E+03  0.00000000000E+00 0.  1.
<mgrwt>
<rscale>  0 0.12940022E+04</rscale>
<asrwt>0</asrwt>
<pdfrwt beam="1">  1        1 0.13539303E+00 0.12940022E+04</pdfrwt>
<pdfrwt beam="2">  1       -1 0.73179097E-01 0.12940022E+04</pdfrwt>
<totfact> 0.34975078E+01</totfact>
</mgrwt>
</event>
<event>
12    2  0.3751044E-008  0.1919353E+04  0.7818608E-02  0.8645283E-01
          1   -1    0    0  501    0  0.00000000000E+00  0.00000000000E+00  0.19683125725E+04  0.19683125725E+04  0.00000000000E+00 0. -1.
         -1   -1    0    0    0  501 -0.00000000000E+00 -0.00000000000E+00 -0.46790260862E+03  0.46790260862E+03  0.00000000000E+00 0.  1.
         23    2    1    2    0    0  0.60094028091E+03  0.35382848399E+03  0.91533696299E+03  0.11542927902E+04  0.90698800809E+02 0.  0.
        254    2    1    2    0    0 -0.60094028091E+03 -0.35382848399E+03  0.58507300087E+03  0.12819223909E+04  0.90260222830E+03 0.  0.
         23    2    4    4    0    0 -0.60016324692E+03  0.13650232138E+03  0.44342811120E+03  0.76372689805E+03  0.88439121998E+02 0.  0.
         23    2    4    4    0    0 -0.77703398843E+00 -0.49033080537E+03  0.14164488966E+03  0.51819549281E+03  0.89657077368E+02 0.  0.
          3    1    3    3  502    0  0.44027804705E+03  0.21636148984E+03  0.60770861145E+03  0.78100371922E+03  0.00000000000E+00 0. -1.
         -3    1    3    3    0  502  0.16066223386E+03  0.13746699415E+03  0.30762835154E+03  0.37328907102E+03  0.00000000000E+00 0.  1.
         11    1    5    5    0    0 -0.22886577761E+03  0.33528032651E+02  0.21496706517E+03  0.31577604761E+03  0.00000000000E+00 0.  1.
        -11    1    5    5    0    0 -0.37129746931E+03  0.10297428873E+03  0.22846104603E+03  0.44795085044E+03  0.00000000000E+00 0. -1.
          2    1    6    6  503    0  0.43349485306E+01 -0.24770856383E+02  0.30490456738E+02  0.39522842215E+02  0.00000000000E+00 0. -1.
         -2    1    6    6    0  503 -0.51119825191E+01 -0.46555994899E+03  0.11115443292E+03  0.47867265059E+03  0.00000000000E+00 0.  1.
<mgrwt>
<rscale>  0 0.19193526E+04</rscale>
<asrwt>0</asrwt>
<pdfrwt beam="1">  1        1 0.30281731E+00 0.19193526E+04</pdfrwt>
<pdfrwt beam="2">  1       -1 0.71985018E-01 0.19193526E+04</pdfrwt>
<totfact> 0.56959530E+00</totfact>
</mgrwt>
</event>
<event>
12    2  0.3751044E-008  0.3151431E+04  0.7818608E-02  0.8201763E-01
          1   -1    0    0  501    0  0.00000000000E+00  0.00000000000E+00  0.19090456741E+04  0.19090456741E+04  0.00000000000E+00 0. -1.
         -1   -1    0    0    0  501 -0.00000000000E+00 -0.00000000000E+00 -0.13005869985E+04  0.13005869985E+04  0.00000000000E+00 0.  1.
         23    2    1    2    0    0 -0.51890250890E+03  0.21666568186E+03 -0.10732954082E+04  0.12152205266E+04  0.92704171757E+02 0.  0.
        254    2    1    2    0    0  0.51890250890E+03 -0.21666568186E+03  0.16817540839E+04  0.19944121460E+04  0.91278649088E+03 0.  0.
         23    2    4    4    0    0  0.65649972325E+03  0.50424782146E+02  0.14767460583E+04  0.16193614868E+04  0.89544174293E+02 0.  0.
         23    2    4    4    0    0 -0.13759721435E+03 -0.26709046401E+03  0.20500802563E+03  0.37505065916E+03  0.91457077367E+02 0.  0.
          1    1    3    3  502    0 -0.10306894728E+03  0.23424869633E+02 -0.14055133264E+03  0.17585963015E+03  0.00000000000E+00 0. -1.
         -1    1    3    3    0  502 -0.41583356162E+03  0.19324081223E+03 -0.93274407559E+03  0.10393608964E+04  0.00000000000E+00 0.  1.
         11    1    5    5    0    0  0.60162676134E+03  0.47734129005E+02  0.12809478839E+04  0.14160016908E+04  0.00000000000E+00 0. -1.
        -11    1    5    5    0    0  0.54872961903E+02  0.26906531409E+01  0.19579817439E+03  0.20335979607E+03  0.00000000000E+00 0.  1.
          2    1    6    6  503    0 -0.73599213180E+01 -0.10889275945E+03  0.69819472261E+02  0.12956295847E+03  0.00000000000E+00 0.  1.
         -2    1    6    6    0  503 -0.13023729303E+03 -0.15819770456E+03  0.13518855337E+03  0.24548770069E+03  0.00000000000E+00 0. -1.
<mgrwt>
<rscale>  0 0.31514314E+04</rscale>
<asrwt>0</asrwt>
<pdfrwt beam="1">  1        1 0.29369933E+00 0.31514314E+04</pdfrwt>
<pdfrwt beam="2">  1       -1 0.20009031E+00 0.31514314E+04</pdfrwt>
<totfact> 0.43375355E-01</totfact>
</mgrwt>
</event>
<event>
12    2  0.3751044E-008  0.3415778E+04  0.7818608E-02  0.8134045E-01
         -2   -1    0    0    0  501 -0.00000000000E+00  0.00000000000E+00  0.11694669830E+04  0.11694669830E+04  0.00000000000E+00 0. -1.
          2   -1    0    0  501    0  0.00000000000E+00 -0.00000000000E+00 -0.24941997556E+04  0.24941997556E+04  0.00000000000E+00 0.  1.
         23    2    1    2    0    0  0.24898320966E+03  0.15525568837E+04 -0.85058434869E+03  0.17900818991E+04  0.92054090220E+02 0.  0.
        254    2    1    2    0    0 -0.24898320966E+03 -0.15525568837E+04 -0.47414842398E+03  0.18735848394E+04  0.90170832688E+03 0.  0.
         23    2    4    4    0    0 -0.37213208455E+03 -0.36469134190E+03  0.11251431050E+03  0.53974999963E+03  0.84785192244E+02 0.  0.
         23    2    4    4    0    0  0.12314887489E+03 -0.11878655418E+04 -0.58666273448E+03  0.13338348398E+04  0.93552258508E+02 0.  0.
          4    1    3    3  502    0  0.14554483542E+02  0.17398702953E+03 -0.65999629537E+02  0.18665280747E+03  0.00000000000E+00 0. -1.
         -4    1    3    3    0  502  0.23442872611E+03  0.13785698542E+04 -0.78458471915E+03  0.16034290917E+04  0.00000000000E+00 0.  1.
         11    1    5    5    0    0 -0.21251675215E+03 -0.23564591041E+03  0.10541423950E+03  0.33437183932E+03  0.00000000000E+00 0.  1.
        -11    1    5    5    0    0 -0.15961533239E+03 -0.12904543150E+03  0.71000709934E+01  0.20537816031E+03  0.00000000000E+00 0. -1.
          1    1    6    6  503    0  0.90496019278E+02 -0.57871381071E+03 -0.24776534561E+03  0.63599282284E+03  0.00000000000E+00 0. -1.
         -1    1    6    6    0  503  0.32652855612E+02 -0.60915173110E+03 -0.33889738887E+03  0.69784201698E+03  0.00000000000E+00 0.  1.
<mgrwt>
<rscale>  0 0.34157777E+04</rscale>
<asrwt>0</asrwt>
<pdfrwt beam="1">  1        2 0.38372304E+00 0.34157777E+04</pdfrwt>
<pdfrwt beam="2">  1       -2 0.17991800E+00 0.34157777E+04</pdfrwt>
<totfact> 0.52693473E-01</totfact>
</mgrwt>
</event>
<event>
12    2  0.3751044E-008  0.1695557E+04  0.7818608E-02  0.8763902E-01
          1   -1    0    0  501    0  0.00000000000E+00  0.00000000000E+00  0.16880426670E+04  0.16880426670E+04  0.00000000000E+00 0. -1.
         -1   -1    0    0    0  501 -0.00000000000E+00 -0.00000000000E+00 -0.42577635886E+03  0.42577635886E+03  0.00000000000E+00 0.  1.
         23    2    1    2    0    0 -0.22353064981E+03 -0.79357696638E+02  0.11502198432E+04  0.11780312484E+04  0.92132182470E+02 0.  0.
        254    2    1    2    0    0  0.22353064981E+03  0.79357696638E+02  0.11204646496E+03  0.93578777750E+03  0.89826541667E+03 0.  0.
         23    2    4    4    0    0  0.27372641452E+03  0.21750562866E+03 -0.31175621772E+03  0.47812236371E+03  0.95782080224E+02 0.  0.
         23    2    4    4    0    0 -0.50195764704E+02 -0.13814793202E+03  0.42380268267E+03  0.45766541379E+03  0.90798960460E+02 0.  0.
          1    1    3    3  502    0 -0.13980691135E+03 -0.22947280307E+01  0.58597752563E+03  0.60242916495E+03  0.00000000000E+00 0. -1.
         -1    1    3    3    0  502 -0.83723738462E+02 -0.77062968607E+02  0.56424231755E+03  0.57560208341E+03  0.00000000000E+00 0.  1.
         11    1    5    5    0    0  0.49829842896E+01  0.39481338610E+02 -0.41068202541E+02  0.57185693061E+02  0.00000000000E+00 0. -1.
        -11    1    5    5    0    0  0.26874343023E+03  0.17802429005E+03 -0.27068801517E+03  0.42093667065E+03  0.00000000000E+00 0.  1.
          3    1    6    6  503    0  0.18967837347E+02 -0.55849147915E+01  0.86114903824E+02  0.88355796569E+02  0.00000000000E+00 0. -1.
         -3    1    6    6    0  503 -0.69163602051E+02 -0.13256301723E+03  0.33768777885E+03  0.36930961722E+03  0.00000000000E+00 0.  1.
<mgrwt>
<rscale>  0 0.16955573E+04</rscale>
<asrwt>0</asrwt>
<pdfrwt beam="1">  1        1 0.25969887E+00 0.16955573E+04</pdfrwt>
<pdfrwt beam="2">  1       -1 0.65504056E-01 0.16955573E+04</pdfrwt>
<totfact> 0.10922002E+01</totfact>
</mgrwt>
</event>
<event>
12    2  0.3751044E-008  0.1339115E+04  0.7818608E-02  0.8999109E-01
         -2   -1    0    0    0  501 -0.00000000000E+00  0.00000000000E+00  0.43204549808E+03  0.43204549808E+03  0.00000000000E+00 0.  1.
          2   -1    0    0  501    0  0.00000000000E+00 -0.00000000000E+00 -0.10376395552E+04  0.10376395552E+04  0.00000000000E+00 0. -1.
         23    2    1    2    0    0  0.30551134464E+03 -0.11460118827E+03 -0.36509554567E+03  0.49799398242E+03  0.90733869131E+02 0.  0.
        254    2    1    2    0    0 -0.30551134464E+03  0.11460118827E+03 -0.24049851142E+03  0.97169107082E+03  0.88310440439E+03 0.  0.
         23    2    4    4    0    0 -0.15932329729E+03  0.20266249167E+03  0.29452969282E+03  0.40280003150E+03  0.95100614279E+02 0.  0.
         23    2    4    4    0    0 -0.14618804735E+03 -0.88061303397E+02 -0.53502820424E+03  0.56889103932E+03  0.90863066996E+02 0.  0.
          1    1    3    3  502    0  0.24529905181E+03 -0.12525546028E+03 -0.31878296156E+03  0.42128746923E+03  0.00000000000E+00 0. -1.
         -1    1    3    3    0  502  0.60212292825E+02  0.10654272009E+02 -0.46312584106E+02  0.76706513190E+02  0.00000000000E+00 0.  1.
         11    1    5    5    0    0 -0.14663724952E+03  0.21149217409E+03  0.26459010794E+03  0.36910614715E+03  0.00000000000E+00 0. -1.
        -11    1    5    5    0    0 -0.12686047772E+02 -0.88296824201E+01  0.29939584875E+02  0.33693884345E+02  0.00000000000E+00 0.  1.
          1    1    6    6  503    0 -0.10791264556E+03 -0.84329423286E+02 -0.28821186406E+03  0.31909664568E+03  0.00000000000E+00 0. -1.
         -1    1    6    6    0  503 -0.38275401788E+02 -0.37318801108E+01 -0.24681634019E+03  0.24979439364E+03  0.00000000000E+00 0.  1.
<mgrwt>
<rscale>  0 0.13391154E+04</rscale>
<asrwt>0</asrwt>
<pdfrwt beam="1">  1        2 0.15963686E+00 0.13391154E+04</pdfrwt>
<pdfrwt beam="2">  1       -2 0.66468538E-01 0.13391154E+04</pdfrwt>
<totfact> 0.48476445E+01</totfact>
</mgrwt>
</event>
<event>
12    2  0.3751044E-008  0.1292356E+04  0.7818608E-02  0.9035649E-01
          4   -1    0    0  501    0  0.00000000000E+00  0.00000000000E+00  0.12010412324E+04  0.12010412324E+04  0.00000000000E+00 0. -1.
         -4   -1    0    0    0  501 -0.00000000000E+00 -0.00000000000E+00 -0.34765326489E+03  0.34765326489E+03  0.00000000000E+00 0.  1.
         23    2    1    2    0    0  0.85325683067E+02  0.25507085768E+03  0.18648274313E+02  0.29492361850E+03  0.11954316368E+03 0.  0.
        254    2    1    2    0    0 -0.85325683067E+02 -0.25507085768E+03  0.83473969320E+03  0.12537708788E+04  0.89599634290E+03 0.  0.
         23    2    4    4    0    0  0.26457200764E+03 -0.32666895320E+03  0.11788924052E+03  0.44774119163E+03  0.99314396942E+02 0.  0.
         23    2    4    4    0    0 -0.34989769071E+03  0.71598095522E+02  0.71685045268E+03  0.80602968717E+03  0.90854850374E+02 0.  0.
          1    1    3    3  502    0  0.72550664058E+02  0.15150417015E+03  0.65808256435E+02  0.18041019661E+03  0.00000000000E+00 0. -1.
         -1    1    3    3    0  502  0.12775019009E+02  0.10356668753E+03 -0.47159982122E+02  0.11451342188E+03  0.00000000000E+00 0.  1.
         11    1    5    5    0    0  0.66716583455E+02 -0.37433517829E+02  0.48276875016E+02  0.90460087477E+02  0.00000000000E+00 0.  1.
        -11    1    5    5    0    0  0.19785542419E+03 -0.28923543537E+03  0.69612365501E+02  0.35728110416E+03  0.00000000000E+00 0. -1.
          3    1    6    6  503    0 -0.33919640261E+03  0.77676625802E+02  0.71257462899E+03  0.79300092031E+03  0.00000000000E+00 0. -1.
         -3    1    6    6    0  503 -0.10701288104E+02 -0.60785302802E+01  0.42758236905E+01  0.13028766852E+02  0.00000000000E+00 0.  1.
<mgrwt>
<rscale>  0 0.12923558E+04</rscale>
<asrwt>0</asrwt>
<pdfrwt beam="1">  1        4 0.18477557E+00 0.12923558E+04</pdfrwt>
<pdfrwt beam="2">  1       -4 0.53485118E-01 0.12923558E+04</pdfrwt>
<totfact> 0.10934733E+00</totfact>
</mgrwt>
</event>
<event>
12    2  0.3751044E-008  0.1342480E+04  0.7818608E-02  0.8996540E-01
         -1   -1    0    0    0  501 -0.00000000000E+00  0.00000000000E+00  0.36094628186E+03  0.36094628186E+03  0.00000000000E+00 0.  1.
          1   -1    0    0  501    0  0.00000000000E+00 -0.00000000000E+00 -0.12482839633E+04  0.12482839633E+04  0.00000000000E+00 0. -1.
         23    2    1    2    0    0 -0.18242355989E+03  0.30124277232E+03 -0.20218296041E+03  0.41754132166E+03  0.97145472007E+02 0.  0.
        254    2    1    2    0    0  0.18242355989E+03 -0.30124277232E+03 -0.68515472100E+03  0.11916889235E+04  0.90920841152E+03 0.  0.
         23    2    4    4    0    0  0.23841706957E+03  0.12832721101E+03  0.89808112358E+02  0.29943417601E+03  0.91020638150E+02 0.  0.
         23    2    4    4    0    0 -0.55993509683E+02 -0.42956998333E+03 -0.77496283336E+03  0.89225474748E+03  0.88800324361E+02 0.  0.
          3    1    3    3  502    0 -0.98334223217E+02  0.13970887017E+03 -0.15192030773E+03  0.22862188819E+03  0.00000000000E+00 0. -1.
         -3    1    3    3    0  502 -0.84089336673E+02  0.16153390215E+03 -0.50262652684E+02  0.18891943347E+03  0.00000000000E+00 0.  1.
         11    1    5    5    0    0  0.23517360296E+03  0.11238248406E+03  0.63125022673E+02  0.26818130945E+03  0.00000000000E+00 0. -1.
        -11    1    5    5    0    0  0.32434666167E+01  0.15944726944E+02  0.26683089685E+02  0.31252866559E+02  0.00000000000E+00 0.  1.
          1    1    6    6  503    0 -0.41839957734E+02 -0.35227795154E+03 -0.69409349060E+03  0.77949734502E+03  0.00000000000E+00 0. -1.
         -1    1    6    6    0  503 -0.14153551949E+02 -0.77292031781E+02 -0.80869342763E+02  0.11275740246E+03  0.00000000000E+00 0.  1.
<mgrwt>
<rscale>  0 0.13424805E+04</rscale>
<asrwt>0</asrwt>
<pdfrwt beam="1">  1        1 0.19204369E+00 0.13424805E+04</pdfrwt>
<pdfrwt beam="2">  1       -1 0.55530197E-01 0.13424805E+04</pdfrwt>
<totfact> 0.31647640E+01</totfact>
</mgrwt>
</event>
<event>
12    2  0.3751044E-008  0.2260119E+04  0.7818608E-02  0.8493814E-01
          2   -1    0    0  501    0  0.00000000000E+00  0.00000000000E+00  0.70652879938E+03  0.70652879938E+03  0.00000000000E+00 0. -1.
         -2   -1    0    0    0  501 -0.00000000000E+00 -0.00000000000E+00 -0.18074763482E+04  0.18074763482E+04  0.00000000000E+00 0.  1.
         23    2    1    2    0    0  0.60975102012E+03  0.47344756754E+03 -0.10071075772E+04  0.12722122203E+04  0.91155666543E+02 0.  0.
        254    2    1    2    0    0 -0.60975102012E+03 -0.47344756754E+03 -0.93839971567E+02  0.12417929273E+04  0.96813988052E+03 0.  0.
         23    2    4    4    0    0  0.18669649574E+03  0.94213443513E+02 -0.12058378557E+03  0.25881587800E+03  0.93345888507E+02 0.  0.
         23    2    4    4    0    0 -0.79644751586E+03 -0.56766101106E+03  0.26743814002E+02  0.98297704929E+03  0.94662446930E+02 0.  0.
          2    1    3    3  502    0  0.30832728095E+03  0.27835491520E+03 -0.59468002051E+03  0.72539058292E+03  0.00000000000E+00 0. -1.
         -2    1    3    3    0  502  0.30142373917E+03  0.19509265234E+03 -0.41242755670E+03  0.54682163733E+03  0.00000000000E+00 0.  1.
         11    1    5    5    0    0 -0.34077204492E+01 -0.82757125897E+01  0.36459273847E+01  0.96639931716E+01  0.00000000000E+00 0.  1.
        -11    1    5    5    0    0  0.19010421619E+03  0.10248915610E+03 -0.12422971295E+03  0.24915188482E+03  0.00000000000E+00 0. -1.
          1    1    6    6  503    0 -0.68118726141E+03 -0.44625335988E+03  0.37660202271E+02  0.81521557710E+03  0.00000000000E+00 0. -1.
         -1    1    6    6    0  503 -0.11526025445E+03 -0.12140765117E+03 -0.10916388270E+02  0.16776147219E+03  0.00000000000E+00 0.  1.
<mgrwt>
<rscale>  0 0.22601187E+04</rscale>
<asrwt>0</asrwt>
<pdfrwt beam="1">  1        2 0.10869674E+00 0.22601187E+04</pdfrwt>
<pdfrwt beam="2">  1       -2 0.27807329E+00 0.22601187E+04</pdfrwt>
<totfact> 0.15937727E+00</totfact>
</mgrwt>
</event>
<event>
12    2  0.3751044E-008  0.1628521E+04  0.7818608E-02  0.8803215E-01
         -2   -1    0    0    0  501 -0.00000000000E+00  0.00000000000E+00  0.11868436058E+04  0.11868436058E+04  0.00000000000E+00 0.  1.
          2   -1    0    0  501    0  0.00000000000E+00 -0.00000000000E+00 -0.55864173025E+03  0.55864173025E+03  0.00000000000E+00 0. -1.
         23    2    1    2    0    0 -0.91308585149E+01 -0.49102408772E+03 -0.66464313492E+02  0.50377152693E+03  0.90444563548E+02 0.  0.
        254    2    1    2    0    0  0.91308585149E+01  0.49102408772E+03  0.69466618906E+03  0.12417138091E+04  0.90449104045E+03 0.  0.
         23    2    4    4    0    0 -0.28280405162E+03  0.19980373066E+03 -0.73480642432E+02  0.36496711157E+03  0.88892774275E+02 0.  0.
         23    2    4    4    0    0  0.29193491013E+03  0.29122035706E+03  0.76814683149E+03  0.87674669756E+03  0.92735801214E+02 0.  0.
          2    1    3    3  502    0  0.24978509071E+02 -0.19418529529E+03 -0.60500562801E+02  0.20491991831E+03  0.00000000000E+00 0. -1.
         -2    1    3    3    0  502 -0.34109367586E+02 -0.29683879243E+03 -0.59637506913E+01  0.29885160861E+03  0.00000000000E+00 0.  1.
         11    1    5    5    0    0 -0.21755845495E+03  0.10713213410E+03 -0.33614782405E+02  0.24482428203E+03  0.00000000000E+00 0.  1.
        -11    1    5    5    0    0 -0.65245596669E+02  0.92671596559E+02 -0.39865860027E+02  0.12014282954E+03  0.00000000000E+00 0. -1.
          1    1    6    6  503    0  0.18137966281E+03  0.16280360399E+03  0.54091910110E+03  0.59329340928E+03  0.00000000000E+00 0. -1.
         -1    1    6    6    0  503  0.11055524733E+03  0.12841675307E+03  0.22722773039E+03  0.28345328828E+03  0.00000000000E+00 0.  1.
<mgrwt>
<rscale>  0 0.16285213E+04</rscale>
<asrwt>0</asrwt>
<pdfrwt beam="1">  1        2 0.85944881E-01 0.16285213E+04</pdfrwt>
<pdfrwt beam="2">  1       -2 0.18259132E+00 0.16285213E+04</pdfrwt>
<totfact> 0.89896447E+00</totfact>
</mgrwt>
</event>
<event>
12    2  0.3751044E-008  0.1435850E+04  0.7818608E-02  0.8928270E-01
          2   -1    0    0  501    0  0.00000000000E+00  0.00000000000E+00  0.14527442244E+04  0.14527442244E+04  0.00000000000E+00 0.  1.
         -2   -1    0    0    0  501 -0.00000000000E+00 -0.00000000000E+00 -0.35478809024E+03  0.35478809024E+03  0.00000000000E+00 0. -1.
         23    2    1    2    0    0  0.14544863361E+03  0.28938966868E+02  0.82979533049E+03  0.84628379782E+03  0.75121282853E+02 0.  0.
        254    2    1    2    0    0 -0.14544863361E+03 -0.28938966868E+02  0.26816080372E+03  0.96124851686E+03  0.91109589270E+03 0.  0.
         23    2    4    4    0    0  0.25694111149E+03 -0.19412972893E+03  0.37684377490E+03  0.50380906089E+03  0.90040283916E+02 0.  0.
         23    2    4    4    0    0 -0.40238974509E+03  0.16519076206E+03 -0.10868297118E+03  0.45743945597E+03  0.90737934876E+02 0.  0.
          1    1    3    3  502    0 -0.82839798363E+01 -0.28645964104E+01  0.31390418421E+02  0.32591235067E+02  0.00000000000E+00 0. -1.
         -1    1    3    3    0  502  0.15373261344E+03  0.31803563278E+02  0.79840491207E+03  0.81369256276E+03  0.00000000000E+00 0.  1.
         11    1    5    5    0    0  0.24718585829E+03 -0.20357218350E+03  0.36684802606E+03  0.48694964489E+03  0.00000000000E+00 0.  1.
        -11    1    5    5    0    0  0.97552531951E+01  0.94424545643E+01  0.99957488448E+01  0.16859416006E+02  0.00000000000E+00 0. -1.
          2    1    6    6  503    0  0.46693416151E+01  0.16935761838E+01 -0.41920780858E+01  0.64995746081E+01  0.00000000000E+00 0. -1.
         -2    1    6    6    0  503 -0.40705908671E+03  0.16349718588E+03 -0.10449089310E+03  0.45093988136E+03  0.00000000000E+00 0.  1.
<mgrwt>
<rscale>  0 0.14358501E+04</rscale>
<asrwt>0</asrwt>
<pdfrwt beam="1">  1        2 0.22349911E+00 0.14358501E+04</pdfrwt>
<pdfrwt beam="2">  1       -2 0.54582784E-01 0.14358501E+04</pdfrwt>
<totfact> 0.41392747E+01</totfact>
</mgrwt>
</event>
<event>
12    2  0.3751044E-008  0.1591792E+04  0.7818608E-02  0.8825606E-01
          2   -1    0    0  501    0  0.00000000000E+00  0.00000000000E+00  0.10558827095E+04  0.10558827095E+04  0.00000000000E+00 0. -1.
         -2   -1    0    0    0  501 -0.00000000000E+00 -0.00000000000E+00 -0.59992516150E+03  0.59992516150E+03  0.00000000000E+00 0.  1.
         23    2    1    2    0    0 -0.37024159543E+03  0.14712947010E+03 -0.22178727788E+03  0.46490693748E+03  0.90680449548E+02 0.  0.
        254    2    1    2    0    0  0.37024159543E+03 -0.14712947010E+03  0.67774482588E+03  0.11909009335E+04  0.89452840340E+03 0.  0.
         23    2    4    4    0    0  0.13453623690E+02 -0.47638985121E+03  0.33687888620E+03  0.59071132366E+03  0.91237018864E+02 0.  0.
         23    2    4    4    0    0  0.35678797174E+03  0.32926038111E+03  0.34086593968E+03  0.60018960986E+03  0.91257457788E+02 0.  0.
          3    1    3    3  502    0 -0.22754908504E+01  0.11060314414E+02  0.43260654396E+01  0.12092280833E+02  0.00000000000E+00 0. -1.
         -3    1    3    3    0  502 -0.36796610458E+03  0.13606915569E+03 -0.22611334332E+03  0.45281465665E+03  0.00000000000E+00 0.  1.
         11    1    5    5    0    0  0.19561172619E+02 -0.24599923814E+02  0.98084800449E+01  0.32924185740E+02  0.00000000000E+00 0.  1.
        -11    1    5    5    0    0 -0.61075489293E+01 -0.45178992739E+03  0.32707040615E+03  0.55778713792E+03  0.00000000000E+00 0. -1.
          2    1    6    6  503    0  0.28805251941E+03  0.26533217650E+03  0.22716246174E+03  0.45274518424E+03  0.00000000000E+00 0. -1.
         -2    1    6    6    0  503  0.68735452325E+02  0.63928204602E+02  0.11370347793E+03  0.14744442561E+03  0.00000000000E+00 0.  1.
<mgrwt>
<rscale>  0 0.15917922E+04</rscale>
<asrwt>0</asrwt>
<pdfrwt beam="1">  1        2 0.16244349E+00 0.15917922E+04</pdfrwt>
<pdfrwt beam="2">  1       -2 0.92296179E-01 0.15917922E+04</pdfrwt>
<totfact> 0.22206105E+01</totfact>
</mgrwt>
</event>
<event>
12    2  0.3751044E-008  0.1616979E+04  0.7818608E-02  0.8810184E-01
         -2   -1    0    0    0  501 -0.00000000000E+00  0.00000000000E+00  0.80610724250E+03  0.80610724250E+03  0.00000000000E+00 0.  1.
          2   -1    0    0  501    0  0.00000000000E+00 -0.00000000000E+00 -0.81087918767E+03  0.81087918767E+03  0.00000000000E+00 0. -1.
         23    2    1    2    0    0  0.14847898708E+03 -0.17094428486E+03  0.50715823093E+03  0.56259554100E+03  0.89645487444E+02 0.  0.
        254    2    1    2    0    0 -0.14847898708E+03  0.17094428486E+03 -0.51193017610E+03  0.10543908892E+04  0.89353213922E+03 0.  0.
         23    2    4    4    0    0  0.67468101544E+02  0.32449397090E+03  0.11980920895E+03  0.36337923501E+03  0.88554728885E+02 0.  0.
         23    2    4    4    0    0 -0.21594708862E+03 -0.15354968604E+03 -0.63173938505E+03  0.69101165416E+03  0.90508587379E+02 0.  0.
          3    1    3    3  502    0  0.18000997116E+02  0.98561032777E+01  0.45546749855E+02  0.49956832279E+02  0.00000000000E+00 0. -1.
         -3    1    3    3    0  502  0.13047798996E+03 -0.18080038814E+03  0.46161148108E+03  0.51263870872E+03  0.00000000000E+00 0.  1.
         11    1    5    5    0    0  0.53597110279E+02  0.30656979300E+03  0.13151927763E+03  0.33786833027E+03  0.00000000000E+00 0.  1.
        -11    1    5    5    0    0  0.13870991265E+02  0.17924177901E+02 -0.11710068679E+02  0.25510904738E+02  0.00000000000E+00 0. -1.
          1    1    6    6  503    0 -0.10463277709E+03 -0.21475673937E+02 -0.22231443112E+03  0.24664332323E+03  0.00000000000E+00 0. -1.
         -1    1    6    6    0  503 -0.11131431153E+03 -0.13207401211E+03 -0.40942495394E+03  0.44436833093E+03  0.00000000000E+00 0.  1.
<mgrwt>
<rscale>  0 0.16169794E+04</rscale>
<asrwt>0</asrwt>
<pdfrwt beam="1">  1        2 0.12475064E+00 0.16169794E+04</pdfrwt>
<pdfrwt beam="2">  1       -2 0.12401650E+00 0.16169794E+04</pdfrwt>
<totfact> 0.15843781E+01</totfact>
</mgrwt>
</event>
<event>
12    2  0.3751044E-008  0.1417951E+04  0.7818608E-02  0.8940926E-01
         -2   -1    0    0    0  501 -0.00000000000E+00  0.00000000000E+00  0.39582805062E+03  0.39582805062E+03  0.00000000000E+00 0.  1.
          2   -1    0    0  501    0  0.00000000000E+00 -0.00000000000E+00 -0.12698595501E+04  0.12698595501E+04  0.00000000000E+00 0. -1.
         23    2    1    2    0    0 -0.32377640384E+03 -0.26630970868E+03 -0.34739509426E+03  0.55224943069E+03  0.92434093064E+02 0.  0.
        254    2    1    2    0    0  0.32377640384E+03  0.26630970868E+03 -0.52663640518E+03  0.11134381700E+04  0.88693102016E+03 0.  0.
         23    2    4    4    0    0  0.24165336466E+03  0.57566838342E+03 -0.23817510671E+03  0.67456758332E+03  0.92323381032E+02 0.  0.
         23    2    4    4    0    0  0.82123039175E+02 -0.30935867474E+03 -0.28846129846E+03  0.43887058667E+03  0.83369586376E+02 0.  0.
          2    1    3    3  502    0 -0.24575247350E+03 -0.17733126676E+03 -0.19945064469E+03  0.36279638376E+03  0.00000000000E+00 0. -1.
         -2    1    3    3    0  502 -0.78023930336E+02 -0.88978441919E+02 -0.14794444957E+03  0.18945304693E+03  0.00000000000E+00 0.  1.
         11    1    5    5    0    0  0.96267023885E+02  0.13151180330E+03 -0.46906167403E+02  0.16959623473E+03  0.00000000000E+00 0.  1.
        -11    1    5    5    0    0  0.14538634078E+03  0.44415658013E+03 -0.19126893931E+03  0.50497134859E+03  0.00000000000E+00 0. -1.
          1    1    6    6  503    0  0.99163097887E+02 -0.26837677244E+03 -0.24363490021E+03  0.37578900539E+03  0.00000000000E+00 0. -1.
         -1    1    6    6    0  503 -0.17040058712E+02 -0.40981902300E+02 -0.44826398252E+02  0.63081581284E+02  0.00000000000E+00 0.  1.
<mgrwt>
<rscale>  0 0.14179507E+04</rscale>
<asrwt>0</asrwt>
<pdfrwt beam="1">  1        2 0.19536301E+00 0.14179507E+04</pdfrwt>
<pdfrwt beam="2">  1       -2 0.60896622E-01 0.14179507E+04</pdfrwt>
<totfact> 0.42001960E+01</totfact>
</mgrwt>
</event>
<event>
12    2  0.3751044E-008  0.2894317E+04  0.7818608E-02  0.8274570E-01
         -2   -1    0    0    0  501 -0.00000000000E+00  0.00000000000E+00  0.17463199698E+04  0.17463199698E+04  0.00000000000E+00 0.  1.
          2   -1    0    0  501    0  0.00000000000E+00 -0.00000000000E+00 -0.11992464296E+04  0.11992464296E+04  0.00000000000E+00 0. -1.
         23    2    1    2    0    0  0.10267085467E+04 -0.75611130406E+03 -0.42101307083E+02  0.12790827524E+04  0.91898984638E+02 0.  0.
        254    2    1    2    0    0 -0.10267085467E+04  0.75611130406E+03  0.58917484730E+03  0.16664836470E+04  0.89677533479E+03 0.  0.
         23    2    4    4    0    0 -0.10552969781E+04  0.76129942825E+03  0.73164808034E+03  0.14957050066E+04  0.92714733998E+02 0.  0.
         23    2    4    4    0    0  0.28588431328E+02 -0.51881241888E+01 -0.14247323305E+03  0.17077864045E+03  0.89568447904E+02 0.  0.
          3    1    3    3  502    0  0.10195850682E+04 -0.74680947267E+03 -0.33031558114E+02  0.12642662630E+04  0.00000000000E+00 0. -1.
         -3    1    3    3    0  502  0.71234785133E+01 -0.93018313871E+01 -0.90697489689E+01  0.14816489451E+02  0.00000000000E+00 0.  1.
         11    1    5    5    0    0 -0.51497670199E+02  0.26908153198E+02  0.53980615446E+02  0.79309303290E+02  0.00000000000E+00 0. -1.
        -11    1    5    5    0    0 -0.10037993079E+04  0.73439127505E+03  0.67766746490E+03  0.14163957033E+04  0.00000000000E+00 0.  1.
          4    1    6    6  503    0 -0.45468952088E+01  0.31418498812E+02 -0.10233622166E+03  0.10714708857E+03  0.00000000000E+00 0. -1.
         -4    1    6    6    0  503  0.33135326537E+02 -0.36606623001E+02 -0.40137011384E+02  0.63631551883E+02  0.00000000000E+00 0.  1.
<mgrwt>
<rscale>  0 0.28943172E+04</rscale>
<asrwt>0</asrwt>
<pdfrwt beam="1">  1        2 0.18449945E+00 0.28943172E+04</pdfrwt>
<pdfrwt beam="2">  1       -2 0.26866461E+00 0.28943172E+04</pdfrwt>
<totfact> 0.80851742E-01</totfact>
</mgrwt>
</event>
<event>
12    2  0.3751044E-008  0.1860080E+04  0.7818608E-02  0.8674986E-01
         -1   -1    0    0    0  501 -0.00000000000E+00  0.00000000000E+00  0.51974161941E+03  0.51974161941E+03  0.00000000000E+00 0.  1.
          1   -1    0    0  501    0  0.00000000000E+00 -0.00000000000E+00 -0.16642400738E+04  0.16642400738E+04  0.00000000000E+00 0. -1.
         23    2    1    2    0    0 -0.62253252594E+03 -0.17426672473E+03 -0.10984025798E+03  0.66212639873E+03  0.91819651604E+02 0.  0.
        254    2    1    2    0    0  0.62253252594E+03  0.17426672473E+03 -0.10346581964E+04  0.15218552945E+04  0.90973090346E+03 0.  0.
         23    2    4    4    0    0  0.65848712822E+03 -0.63697473955E+02 -0.10709178866E+04  0.12620775111E+04  0.91169392051E+02 0.  0.
         23    2    4    4    0    0 -0.35954602283E+02  0.23796419868E+03  0.36259690202E+02  0.25977778333E+03  0.90829721434E+02 0.  0.
          3    1    3    3  502    0 -0.59038078305E+03 -0.14895532204E+03 -0.11848682505E+03  0.62030338115E+03  0.00000000000E+00 0. -1.
         -3    1    3    3    0  502 -0.32151742890E+02 -0.25311402689E+02  0.86465670772E+01  0.41823017576E+02  0.00000000000E+00 0.  1.
         11    1    5    5    0    0  0.24105235615E+03 -0.34183910235E+02 -0.31578356641E+03  0.39874056595E+03  0.00000000000E+00 0. -1.
        -11    1    5    5    0    0  0.41743477207E+03 -0.29513563721E+02 -0.75513432020E+03  0.86333694519E+03  0.00000000000E+00 0.  1.
          1    1    6    6  503    0 -0.69352355392E+01  0.86252995620E+02 -0.30165763725E+02  0.91638692955E+02  0.00000000000E+00 0. -1.
         -1    1    6    6    0  503 -0.29019366744E+02  0.15171120306E+03  0.66425453928E+02  0.16813909037E+03  0.00000000000E+00 0.  1.
<mgrwt>
<rscale>  0 0.18600805E+04</rscale>
<asrwt>0</asrwt>
<pdfrwt beam="1">  1        1 0.25603693E+00 0.18600805E+04</pdfrwt>
<pdfrwt beam="2">  1       -1 0.79960250E-01 0.18600805E+04</pdfrwt>
<totfact> 0.73906751E+00</totfact>
</mgrwt>
</event>
<event>
12    2  0.3751044E-008  0.1358565E+04  0.7818608E-02  0.8984369E-01
          2   -1    0    0  501    0  0.00000000000E+00  0.00000000000E+00  0.18822272805E+03  0.18822272805E+03  0.00000000000E+00 0. -1.
         -2   -1    0    0    0  501 -0.00000000000E+00 -0.00000000000E+00 -0.24514835680E+04  0.24514835680E+04  0.00000000000E+00 0.  1.
         23    2    1    2    0    0  0.13050015540E+02  0.25939758923E+03 -0.11540155602E+04  0.11861630446E+04  0.88167131323E+02 0.  0.
        254    2    1    2    0    0 -0.13050015540E+02 -0.25939758923E+03 -0.11092452798E+04  0.14535432514E+04  0.90272115346E+03 0.  0.
         23    2    4    4    0    0 -0.23934550394E+03 -0.46126911811E+03 -0.97915908600E+03  0.11123002133E+04  0.91672128978E+02 0.  0.
         23    2    4    4    0    0  0.22629548840E+03  0.20187152888E+03 -0.13008619375E+03  0.34124303813E+03  0.86963388980E+02 0.  0.
          1    1    3    3  502    0  0.38334121254E+02  0.55238199257E+02 -0.33738344893E+03  0.34401795756E+03  0.00000000000E+00 0. -1.
         -1    1    3    3    0  502 -0.25284105715E+02  0.20415938997E+03 -0.81663211129E+03  0.84214508709E+03  0.00000000000E+00 0.  1.
         11    1    5    5    0    0 -0.84764013804E+02 -0.14490535248E+03 -0.40988672540E+03  0.44293298237E+03  0.00000000000E+00 0.  1.
        -11    1    5    5    0    0 -0.15458149013E+03 -0.31636376563E+03 -0.56927236060E+03  0.66936723093E+03  0.00000000000E+00 0. -1.
          2    1    6    6  503    0  0.64491890075E+01 -0.74219399282E+01  0.22876172206E+01  0.10095069277E+02  0.00000000000E+00 0. -1.
         -2    1    6    6    0  503  0.21984629939E+03  0.20929346881E+03 -0.13237381097E+03  0.33114796885E+03  0.00000000000E+00 0.  1.
<mgrwt>
<rscale>  0 0.13585653E+04</rscale>
<asrwt>0</asrwt>
<pdfrwt beam="1">  1        2 0.28957344E-01 0.13585653E+04</pdfrwt>
<pdfrwt beam="2">  1       -2 0.37715130E+00 0.13585653E+04</pdfrwt>
<totfact> 0.19130436E+00</totfact>
</mgrwt>
</event>
<event>
12    2  0.3751044E-008  0.1388165E+04  0.7818608E-02  0.8962430E-01
          2   -1    0    0  501    0  0.00000000000E+00  0.00000000000E+00  0.12179516869E+04  0.12179516869E+04  0.00000000000E+00 0. -1.
         -2   -1    0    0    0  501 -0.00000000000E+00 -0.00000000000E+00 -0.39554160817E+03  0.39554160817E+03  0.00000000000E+00 0.  1.
         23    2    1    2    0    0  0.14214498683E+02  0.16412134295E+03  0.65737259362E+03  0.68351533431E+03  0.88975379843E+02 0.  0.
        254    2    1    2    0    0 -0.14214498683E+02 -0.16412134295E+03  0.16503748513E+03  0.92997796077E+03  0.90026872035E+03 0.  0.
         23    2    4    4    0    0 -0.35810370793E+02 -0.30139922077E+03 -0.29960524916E+03  0.43637582273E+03  0.92394157842E+02 0.  0.
         23    2    4    4    0    0  0.21595872110E+02  0.13727787782E+03  0.46464273429E+03  0.49360213803E+03  0.91861867536E+02 0.  0.
          4    1    3    3  502    0  0.29984965860E+02  0.16610638052E+03  0.56106007881E+03  0.58590002548E+03  0.00000000000E+00 0. -1.
         -4    1    3    3    0  502 -0.15770467177E+02 -0.19850375774E+01  0.96312514809E+02  0.97615308830E+02  0.00000000000E+00 0.  1.
         11    1    5    5    0    0 -0.36703456650E+02 -0.34508869509E+02 -0.47597251038E+02  0.69307316434E+02  0.00000000000E+00 0.  1.
        -11    1    5    5    0    0  0.89308585732E+00 -0.26689035126E+03 -0.25200799813E+03  0.36706850630E+03  0.00000000000E+00 0. -1.
          2    1    6    6  503    0  0.44171534126E+02  0.39837370190E+02  0.24723417616E+03  0.25428896624E+03  0.00000000000E+00 0. -1.
         -2    1    6    6    0  503 -0.22575662017E+02  0.97440507633E+02  0.21740855814E+03  0.23931317180E+03  0.00000000000E+00 0.  1.
<mgrwt>
<rscale>  0 0.13881651E+04</rscale>
<asrwt>0</asrwt>
<pdfrwt beam="1">  1        2 0.18737718E+00 0.13881651E+04</pdfrwt>
<pdfrwt beam="2">  1       -2 0.60852556E-01 0.13881651E+04</pdfrwt>
<totfact> 0.45247295E+01</totfact>
</mgrwt>
</event>
<event>
12    2  0.3751044E-008  0.1471469E+04  0.7818608E-02  0.8903651E-01
          1   -1    0    0  501    0  0.00000000000E+00  0.00000000000E+00  0.79661561211E+03  0.79661561211E+03  0.00000000000E+00 0. -1.
         -1   -1    0    0    0  501 -0.00000000000E+00 -0.00000000000E+00 -0.67950596186E+03  0.67950596186E+03  0.00000000000E+00 0.  1.
         23    2    1    2    0    0  0.27647217259E+03 -0.33411211058E+03 -0.10343036287E+03  0.45490534833E+03  0.90406146473E+02 0.  0.
        254    2    1    2    0    0 -0.27647217259E+03  0.33411211058E+03  0.22054001312E+03  0.10212162256E+04  0.89787355317E+03 0.  0.
         23    2    4    4    0    0 -0.38119186275E+03 -0.86313386740E+02 -0.16634164184E+03  0.43337925235E+03  0.85969748177E+02 0.  0.
         23    2    4    4    0    0  0.10471969016E+03  0.42042549732E+03  0.38688165496E+03  0.58783697329E+03  0.90283331339E+02 0.  0.
          3    1    3    3  502    0  0.15779450168E+03 -0.13543441177E+03 -0.77976656253E+02  0.22208544206E+03  0.00000000000E+00 0. -1.
         -3    1    3    3    0  502  0.11867767091E+03 -0.19867769880E+03 -0.25453706613E+02  0.23281990627E+03  0.00000000000E+00 0.  1.
         11    1    5    5    0    0 -0.16939345795E+03 -0.13260652159E+02 -0.34358579147E+02  0.17335080171E+03  0.00000000000E+00 0.  1.
        -11    1    5    5    0    0 -0.21179840480E+03 -0.73052734582E+02 -0.13198306270E+03  0.26002845064E+03  0.00000000000E+00 0. -1.
          2    1    6    6  503    0  0.86322177103E+02  0.41228309108E+03  0.37754150337E+03  0.56565577184E+03  0.00000000000E+00 0. -1.
         -2    1    6    6    0  503  0.18397513054E+02  0.81424062345E+01  0.93401515986E+01  0.22181201450E+02  0.00000000000E+00 0.  1.
<mgrwt>
<rscale>  0 0.14714687E+04</rscale>
<asrwt>0</asrwt>
<pdfrwt beam="1">  1        1 0.12255625E+00 0.14714687E+04</pdfrwt>
<pdfrwt beam="2">  1       -1 0.10453938E+00 0.14714687E+04</pdfrwt>
<totfact> 0.18571437E+01</totfact>
</mgrwt>
</event>
<event>
12    2  0.3751044E-008  0.1808440E+04  0.7818608E-02  0.8701824E-01
          1   -1    0    0  501    0  0.00000000000E+00  0.00000000000E+00  0.99937025723E+03  0.99937025723E+03  0.00000000000E+00 0. -1.
         -1   -1    0    0    0  501 -0.00000000000E+00 -0.00000000000E+00 -0.81812887994E+03  0.81812887994E+03  0.00000000000E+00 0.  1.
         23    2    1    2    0    0 -0.40666060261E+03  0.27802559333E+03 -0.38612942875E+03  0.63238197656E+03  0.90221684048E+02 0.  0.
        254    2    1    2    0    0  0.40666060261E+03 -0.27802559333E+03  0.56737080604E+03  0.11851171606E+04  0.91647257274E+03 0.  0.
         23    2    4    4    0    0  0.18226134631E+03  0.24402982686E+03 -0.69341550379E+02  0.32686586351E+03  0.96245973232E+02 0.  0.
         23    2    4    4    0    0  0.22439925630E+03 -0.52205542019E+03  0.63671235641E+03  0.85825129711E+03  0.91081151715E+02 0.  0.
          2    1    3    3  502    0 -0.11197929923E+03  0.11550392910E+03 -0.91319364824E+02  0.18498580347E+03  0.00000000000E+00 0. -1.
         -2    1    3    3    0  502 -0.29468130338E+03  0.16252166423E+03 -0.29481006392E+03  0.44739617309E+03  0.00000000000E+00 0.  1.
         11    1    5    5    0    0  0.10831095366E+03  0.20773679869E+03 -0.69916772664E+02  0.24448761792E+03  0.00000000000E+00 0.  1.
        -11    1    5    5    0    0  0.73950392648E+02  0.36293028162E+02  0.57522228562E+00  0.82378245591E+02  0.00000000000E+00 0. -1.
          2    1    6    6  503    0  0.42986200075E+02 -0.59424132206E+02  0.47113087980E+02  0.87170430447E+02  0.00000000000E+00 0. -1.
         -2    1    6    6    0  503  0.18141305622E+03 -0.46263128798E+03  0.58959926843E+03  0.77108086666E+03  0.00000000000E+00 0.  1.
<mgrwt>
<rscale>  0 0.18084398E+04</rscale>
<asrwt>0</asrwt>
<pdfrwt beam="1">  1        1 0.15374927E+00 0.18084398E+04</pdfrwt>
<pdfrwt beam="2">  1       -1 0.12586598E+00 0.18084398E+04</pdfrwt>
<totfact> 0.78582905E+00</totfact>
</mgrwt>
</event>
<event>
12    2  0.3751044E-008  0.2116474E+04  0.7818608E-02  0.8554021E-01
          1   -1    0    0  501    0  0.00000000000E+00  0.00000000000E+00  0.23500021852E+04  0.23500021852E+04  0.00000000000E+00 0. -1.
         -1   -1    0    0    0  501 -0.00000000000E+00 -0.00000000000E+00 -0.47653799957E+03  0.47653799957E+03  0.00000000000E+00 0.  1.
         23    2    1    2    0    0  0.32531404580E+03 -0.68250886786E+03  0.11910604316E+04  0.14137989973E+04  0.92493621631E+02 0.  0.
        254    2    1    2    0    0 -0.32531404580E+03  0.68250886786E+03  0.68240375405E+03  0.14127411875E+04  0.97903789309E+03 0.  0.
         23    2    4    4    0    0 -0.29972604412E+03  0.92482878159E+03  0.51760168843E+03  0.11051864407E+04  0.91550991107E+02 0.  0.
         23    2    4    4    0    0 -0.25588001687E+02 -0.24231991373E+03  0.16480206563E+03  0.30755474680E+03  0.89758091689E+02 0.  0.
          1    1    3    3  502    0  0.18610887792E+03 -0.47827339949E+03  0.76391550688E+03  0.92029824554E+03  0.00000000000E+00 0. -1.
         -1    1    3    3    0  502  0.13920516788E+03 -0.20423546837E+03  0.42714492470E+03  0.49350075177E+03  0.00000000000E+00 0.  1.
         11    1    5    5    0    0 -0.21989640833E+03  0.75446626724E+03  0.38563232243E+03  0.87537767101E+03  0.00000000000E+00 0.  1.
        -11    1    5    5    0    0 -0.79829635792E+02  0.17036251435E+03  0.13196936600E+03  0.22980876965E+03  0.00000000000E+00 0. -1.
          4    1    6    6  503    0  0.20442400667E+02 -0.65031605631E+02  0.12423078671E+02  0.69291661544E+02  0.00000000000E+00 0. -1.
         -4    1    6    6    0  503 -0.46030402354E+02 -0.17728830810E+03  0.15237898696E+03  0.23826308526E+03  0.00000000000E+00 0.  1.
<mgrwt>
<rscale>  0 0.21164738E+04</rscale>
<asrwt>0</asrwt>
<pdfrwt beam="1">  1        1 0.36153879E+00 0.21164738E+04</pdfrwt>
<pdfrwt beam="2">  1       -1 0.73313540E-01 0.21164738E+04</pdfrwt>
<totfact> 0.29611924E+00</totfact>
</mgrwt>
</event>
<event>
12    2  0.3751044E-008  0.2273709E+04  0.7818608E-02  0.8488360E-01
          1   -1    0    0  501    0  0.00000000000E+00  0.00000000000E+00  0.33057759086E+04  0.33057759086E+04  0.00000000000E+00 0. -1.
         -1   -1    0    0    0  501 -0.00000000000E+00 -0.00000000000E+00 -0.39096362525E+03  0.39096362525E+03  0.00000000000E+00 0.  1.
         23    2    1    2    0    0  0.22649113889E+03  0.92607769765E+03  0.11988021185E+04  0.15346157528E+04  0.94872816393E+02 0.  0.
        254    2    1    2    0    0 -0.22649113889E+03 -0.92607769765E+03  0.17160101649E+04  0.21621237811E+04  0.90618442975E+03 0.  0.
         23    2    4    4    0    0 -0.43581220343E+03 -0.75776684797E+03  0.16529586931E+04  0.18720713321E+04  0.90751081260E+02 0.  0.
         23    2    4    4    0    0  0.20932106454E+03 -0.16831084969E+03  0.63051471793E+02  0.29005244903E+03  0.89504664188E+02 0.  0.
          3    1    3    3  502    0  0.51202576183E+02  0.31592509438E+03  0.46231200801E+03  0.56228352441E+03  0.00000000000E+00 0. -1.
         -3    1    3    3    0  502  0.17528856271E+03  0.61015260327E+03  0.73649011046E+03  0.97233222835E+03  0.00000000000E+00 0.  1.
         11    1    5    5    0    0 -0.41631508010E+03 -0.73996814243E+03  0.16260849046E+04  0.18343999604E+04  0.00000000000E+00 0.  1.
        -11    1    5    5    0    0 -0.19497123328E+02 -0.17798705534E+02  0.26873788570E+02  0.37671371741E+02  0.00000000000E+00 0. -1.
          1    1    6    6  503    0  0.58769430665E+02 -0.10167398331E+03  0.38532445816E+02  0.12359690224E+03  0.00000000000E+00 0. -1.
         -1    1    6    6    0  503  0.15055163387E+03 -0.66636866377E+02  0.24519025977E+02  0.16645554679E+03  0.00000000000E+00 0.  1.
<mgrwt>
<rscale>  0 0.22737090E+04</rscale>
<asrwt>0</asrwt>
<pdfrwt beam="1">  1        1 0.50858089E+00 0.22737090E+04</pdfrwt>
<pdfrwt beam="2">  1       -1 0.60148252E-01 0.22737090E+04</pdfrwt>
<totfact> 0.89897932E-01</totfact>
</mgrwt>
</event>
<event>
12    2  0.3751044E-008  0.1164766E+04  0.7818608E-02  0.9144268E-01
         -1   -1    0    0    0  501 -0.00000000000E+00  0.00000000000E+00  0.29898792212E+03  0.29898792212E+03  0.00000000000E+00 0.  1.
          1   -1    0    0  501    0  0.00000000000E+00 -0.00000000000E+00 -0.11343942150E+04  0.11343942150E+04  0.00000000000E+00 0. -1.
         23    2    1    2    0    0 -0.11768543713E+03 -0.17781522813E+03 -0.21910357548E+03  0.31885599132E+03  0.90524300307E+02 0.  0.
        254    2    1    2    0    0  0.11768543713E+03  0.17781522813E+03 -0.61630271737E+03  0.11145261458E+04  0.90380936745E+03 0.  0.
         23    2    4    4    0    0  0.46434290190E+03  0.28294973230E+03 -0.31844315961E+03  0.63674741188E+03  0.91467694219E+02 0.  0.
         23    2    4    4    0    0 -0.34665746477E+03 -0.10513450417E+03 -0.29785955776E+03  0.47777873388E+03  0.91255359056E+02 0.  0.
          3    1    3    3  502    0 -0.29434998220E+02 -0.74450099546E+02 -0.14088318837E+03  0.16204107260E+03  0.00000000000E+00 0. -1.
         -3    1    3    3    0  502 -0.88250438906E+02 -0.10336512859E+03 -0.78220387105E+02  0.15681491872E+03  0.00000000000E+00 0.  1.
         11    1    5    5    0    0  0.14683951139E+03  0.12391300910E+03 -0.14978979929E+03  0.24362524479E+03  0.00000000000E+00 0.  1.
        -11    1    5    5    0    0  0.31750339051E+03  0.15903672320E+03 -0.16865336033E+03  0.39312216709E+03  0.00000000000E+00 0. -1.
          1    1    6    6  503    0 -0.15521986194E+03 -0.22640366712E+01 -0.14150440657E+03  0.21005196615E+03  0.00000000000E+00 0. -1.
         -1    1    6    6    0  503 -0.19143760283E+03 -0.10287046750E+03 -0.15635515118E+03  0.26772676774E+03  0.00000000000E+00 0.  1.
<mgrwt>
<rscale>  0 0.11647664E+04</rscale>
<asrwt>0</asrwt>
<pdfrwt beam="1">  1        1 0.17452218E+00 0.11647664E+04</pdfrwt>
<pdfrwt beam="2">  1       -1 0.45998142E-01 0.11647664E+04</pdfrwt>
<totfact> 0.55691188E+01</totfact>
</mgrwt>
</event>
<event>
12    2  0.3751044E-008  0.1320773E+04  0.7818608E-02  0.9013252E-01
         -1   -1    0    0    0  501 -0.00000000000E+00  0.00000000000E+00  0.43474497210E+03  0.43474497210E+03  0.00000000000E+00 0.  1.
          1   -1    0    0  501    0  0.00000000000E+00 -0.00000000000E+00 -0.10031402645E+04  0.10031402645E+04  0.00000000000E+00 0. -1.
         23    2    1    2    0    0  0.23350867170E+02 -0.24470456715E+03 -0.50372124327E+03  0.56551527454E+03  0.75145503136E+02 0.  0.
        254    2    1    2    0    0 -0.23350867170E+02  0.24470456715E+03 -0.64674049099E+02  0.87236996203E+03  0.83451844188E+03 0.  0.
         23    2    4    4    0    0  0.12109782233E+03 -0.27873045398E+03  0.35620143019E+01  0.31738738092E+03  0.91469738566E+02 0.  0.
         23    2    4    4    0    0 -0.14444868950E+03  0.52343502113E+03 -0.68236063401E+02  0.55498258111E+03  0.92194683934E+02 0.  0.
          3    1    3    3  502    0  0.29260778560E+02 -0.14274691565E+03 -0.21914598951E+03  0.26316884277E+03  0.00000000000E+00 0. -1.
         -3    1    3    3    0  502 -0.59099113899E+01 -0.10195765150E+03 -0.28457525376E+03  0.30234643177E+03  0.00000000000E+00 0.  1.
         11    1    5    5    0    0  0.51033865374E+02 -0.32297532237E+02 -0.80249944164E+01  0.60926074377E+02  0.00000000000E+00 0. -1.
        -11    1    5    5    0    0  0.70063956951E+02 -0.24643292174E+03  0.11587008718E+02  0.25646130654E+03  0.00000000000E+00 0.  1.
          3    1    6    6  503    0 -0.14437877858E+03  0.36855423468E+03 -0.45181738119E+02  0.39839533765E+03  0.00000000000E+00 0. -1.
         -3    1    6    6    0  503 -0.69910912190E-01  0.15488078645E+03 -0.23054325282E+02  0.15658724346E+03  0.00000000000E+00 0.  1.
<mgrwt>
<rscale>  0 0.13207728E+04</rscale>
<asrwt>0</asrwt>
<pdfrwt beam="1">  1        1 0.15432927E+00 0.13207728E+04</pdfrwt>
<pdfrwt beam="2">  1       -1 0.66883842E-01 0.13207728E+04</pdfrwt>
<totfact> 0.33430259E+01</totfact>
</mgrwt>
</event>
<event>
12    2  0.3751044E-008  0.1980642E+04  0.7818608E-02  0.8615725E-01
         -1   -1    0    0    0  501 -0.00000000000E+00  0.00000000000E+00  0.34425125903E+03  0.34425125903E+03  0.00000000000E+00 0.  1.
          1   -1    0    0  501    0  0.00000000000E+00 -0.00000000000E+00 -0.28488960588E+04  0.28488960588E+04  0.00000000000E+00 0. -1.
         23    2    1    2    0    0 -0.13029382206E+03  0.28407599531E+03  0.15777477120E+03  0.36192514042E+03  0.91767519648E+02 0.  0.
        254    2    1    2    0    0  0.13029382206E+03 -0.28407599531E+03 -0.26624195710E+04  0.28312221775E+04  0.91085970096E+03 0.  0.
         23    2    4    4    0    0 -0.27583721116E+03 -0.34224910916E+03 -0.19757089594E+04  0.20262947863E+04  0.96041911476E+02 0.  0.
         23    2    4    4    0    0  0.40613103322E+03  0.58173113850E+02 -0.68671061157E+03  0.80492739117E+03  0.89499238457E+02 0.  0.
          2    1    3    3  502    0 -0.11415229259E+03  0.23308554402E+03  0.16560430161E+03  0.30787075445E+03  0.00000000000E+00 0. -1.
         -2    1    3    3    0  502 -0.16141529471E+02  0.50990451286E+02 -0.78295304054E+01  0.54054385968E+02  0.00000000000E+00 0.  1.
         11    1    5    5    0    0 -0.14363670629E+03 -0.23811127384E+03 -0.11034978315E+04  0.11379964615E+04  0.00000000000E+00 0. -1.
        -11    1    5    5    0    0 -0.13220050487E+03 -0.10413783532E+03 -0.87221112793E+03  0.88829832484E+03  0.00000000000E+00 0.  1.
          3    1    6    6  503    0  0.21013151832E+03  0.65616942716E+02 -0.41563672316E+03  0.47033469338E+03  0.00000000000E+00 0. -1.
         -3    1    6    6    0  503  0.19599951490E+03 -0.74438288669E+01 -0.27107388842E+03  0.33459269779E+03  0.00000000000E+00 0.  1.
<mgrwt>
<rscale>  0 0.19806424E+04</rscale>
<asrwt>0</asrwt>
<pdfrwt beam="1">  1        1 0.43829172E+00 0.19806424E+04</pdfrwt>
<pdfrwt beam="2">  1       -1 0.52961730E-01 0.19806424E+04</pdfrwt>
<totfact> 0.25718351E+00</totfact>
</mgrwt>
</event>
<event>
12    2  0.3751044E-008  0.1492349E+04  0.7818608E-02  0.8889557E-01
          1   -1    0    0  501    0  0.00000000000E+00  0.00000000000E+00  0.47247503429E+03  0.47247503429E+03  0.00000000000E+00 0. -1.
         -1   -1    0    0    0  501 -0.00000000000E+00 -0.00000000000E+00 -0.11784245635E+04  0.11784245635E+04  0.00000000000E+00 0.  1.
         23    2    1    2    0    0 -0.25702378487E+02  0.17796001217E+03 -0.70586737059E+03  0.73426914691E+03  0.92585404092E+02 0.  0.
        254    2    1    2    0    0  0.25702378487E+02 -0.17796001217E+03 -0.82158598114E-01  0.91663045086E+03  0.89882200601E+03 0.  0.
         23    2    4    4    0    0  0.11884929156E+03  0.51156896444E+02 -0.40458645317E+03  0.43417768667E+03  0.89877045766E+02 0.  0.
         23    2    4    4    0    0 -0.93146913071E+02 -0.22911690861E+03  0.40450429457E+03  0.48245276418E+03  0.89252675657E+02 0.  0.
          3    1    3    3  502    0 -0.11153998451E+01  0.61426846214E+02 -0.10450204747E+03  0.12122367540E+03  0.00000000000E+00 0. -1.
         -3    1    3    3    0  502 -0.24586978642E+02  0.11653316596E+03 -0.60136532312E+03  0.61304547151E+03  0.00000000000E+00 0.  1.
         11    1    5    5    0    0  0.20407104466E+02 -0.25273031847E+02 -0.97319216919E+02  0.10259730032E+03  0.00000000000E+00 0.  1.
        -11    1    5    5    0    0  0.98442187093E+02  0.76429928290E+02 -0.30726723625E+03  0.33158038635E+03  0.00000000000E+00 0. -1.
          1    1    6    6  503    0 -0.55118187248E+02 -0.21519699433E+03  0.35013408414E+03  0.41465845923E+03  0.00000000000E+00 0. -1.
         -1    1    6    6    0  503 -0.38028725823E+02 -0.13919914281E+02  0.54370210435E+02  0.67794304953E+02  0.00000000000E+00 0.  1.
<mgrwt>
<rscale>  0 0.14923487E+04</rscale>
<asrwt>0</asrwt>
<pdfrwt beam="1">  1        1 0.72688467E-01 0.14923487E+04</pdfrwt>
<pdfrwt beam="2">  1       -1 0.18129609E+00 0.14923487E+04</pdfrwt>
<totfact> 0.94457456E+00</totfact>
</mgrwt>
</event>
<event>
12    2  0.3751044E-008  0.1479339E+04  0.7818608E-02  0.8898310E-01
         -1   -1    0    0    0  501 -0.00000000000E+00  0.00000000000E+00  0.31900576996E+03  0.31900576996E+03  0.00000000000E+00 0.  1.
          1   -1    0    0  501    0  0.00000000000E+00 -0.00000000000E+00 -0.17150501253E+04  0.17150501253E+04  0.00000000000E+00 0. -1.
         23    2    1    2    0    0  0.15863351703E+03 -0.79043812586E+02 -0.10212500943E+04  0.10404836690E+04  0.90785423687E+02 0.  0.
        254    2    1    2    0    0 -0.15863351703E+03  0.79043812586E+02 -0.37479426104E+03  0.99357222633E+03  0.90294103562E+03 0.  0.
         23    2    4    4    0    0 -0.16273652617E+03  0.21038605686E+03 -0.63179494259E+03  0.69080387294E+03  0.85438115122E+02 0.  0.
         23    2    4    4    0    0  0.41030091472E+01 -0.13134224427E+03  0.25700068155E+03  0.30276835340E+03  0.91387667055E+02 0.  0.
          3    1    3    3  502    0  0.11921298255E+03 -0.84290863825E+02 -0.92323238503E+03  0.93470568721E+03  0.00000000000E+00 0. -1.
         -3    1    3    3    0  502  0.39420534479E+02  0.52470512392E+01 -0.98017709308E+02  0.10577798175E+03  0.00000000000E+00 0.  1.
         11    1    5    5    0    0 -0.74910243442E+01  0.64572227808E+02 -0.17841821752E+03  0.18989141211E+03  0.00000000000E+00 0.  1.
        -11    1    5    5    0    0 -0.15524550183E+03  0.14581382905E+03 -0.45337672507E+03  0.50091246083E+03  0.00000000000E+00 0. -1.
          4    1    6    6  503    0  0.46588467293E+02 -0.62609241059E+02  0.14491860704E+03  0.16459588396E+03  0.00000000000E+00 0. -1.
         -4    1    6    6    0  503 -0.42485458146E+02 -0.68733003212E+02  0.11208207451E+03  0.13817246944E+03  0.00000000000E+00 0.  1.
<mgrwt>
<rscale>  0 0.14793389E+04</rscale>
<asrwt>0</asrwt>
<pdfrwt beam="1">  1        1 0.26385387E+00 0.14793389E+04</pdfrwt>
<pdfrwt beam="2">  1       -1 0.49077811E-01 0.14793389E+04</pdfrwt>
<totfact> 0.18757921E+01</totfact>
</mgrwt>
</event>
<event>
12    2  0.3751044E-008  0.3378117E+04  0.7818608E-02  0.8143298E-01
          2   -1    0    0  501    0  0.00000000000E+00  0.00000000000E+00  0.17110642311E+04  0.17110642311E+04  0.00000000000E+00 0.  1.
         -2   -1    0    0    0  501 -0.00000000000E+00 -0.00000000000E+00 -0.16673357270E+04  0.16673357270E+04  0.00000000000E+00 0. -1.
         23    2    1    2    0    0  0.71042551235E+03 -0.89833163176E+03 -0.10441801834E+04  0.15523996520E+04  0.89040972033E+02 0.  0.
        254    2    1    2    0    0 -0.71042551235E+03  0.89833163176E+03  0.10879086875E+04  0.18260003061E+04  0.91598453932E+03 0.  0.
         23    2    4    4    0    0 -0.87464571993E+03  0.52033751957E+03  0.61622690159E+03  0.11933622597E+04  0.92852673940E+02 0.  0.
         23    2    4    4    0    0  0.16422020758E+03  0.37799411219E+03  0.47168178594E+03  0.63263804637E+03  0.88878372532E+02 0.  0.
          4    1    3    3  502    0  0.69421891578E+03 -0.85901702685E+03 -0.10203677207E+04  0.15036623427E+04  0.00000000000E+00 0. -1.
         -4    1    3    3    0  502  0.16206596570E+02 -0.39314604908E+02 -0.23812462770E+02  0.48737309268E+02  0.00000000000E+00 0.  1.
         11    1    5    5    0    0 -0.30215667759E+03  0.22271439353E+03  0.25642893747E+03  0.45459449939E+03  0.00000000000E+00 0.  1.
        -11    1    5    5    0    0 -0.57248904233E+03  0.29762312603E+03  0.35979796412E+03  0.73876776034E+03  0.00000000000E+00 0. -1.
          1    1    6    6  503    0  0.10476069828E+03  0.31658394229E+03  0.34502719633E+03  0.47983743354E+03  0.00000000000E+00 0. -1.
         -1    1    6    6    0  503  0.59459509293E+02  0.61410169906E+02  0.12665458961E+03  0.15280061284E+03  0.00000000000E+00 0.  1.
<mgrwt>
<rscale>  0 0.33781169E+04</rscale>
<asrwt>0</asrwt>
<pdfrwt beam="1">  1        2 0.26324065E+00 0.33781169E+04</pdfrwt>
<pdfrwt beam="2">  1       -2 0.25651319E+00 0.33781169E+04</pdfrwt>
<totfact> 0.47028522E-01</totfact>
</mgrwt>
</event>
<event>
12    2  0.3751044E-008  0.1249270E+04  0.7818608E-02  0.9070791E-01
         -2   -1    0    0    0  501 -0.00000000000E+00  0.00000000000E+00  0.17364994550E+03  0.17364994550E+03  0.00000000000E+00 0.  1.
          2   -1    0    0  501    0  0.00000000000E+00 -0.00000000000E+00 -0.22468697523E+04  0.22468697523E+04  0.00000000000E+00 0. -1.
         23    2    1    2    0    0 -0.19115810018E+03  0.75605642580E+02 -0.10548744007E+03  0.24835675561E+03  0.91081532650E+02 0.  0.
        254    2    1    2    0    0  0.19115810018E+03 -0.75605642580E+02 -0.19677323667E+04  0.21721629422E+04  0.89669590603E+03 0.  0.
         23    2    4    4    0    0 -0.93509719813E+02  0.15502686361E+03 -0.16932434030E+04  0.17053710781E+04  0.91868908036E+02 0.  0.
         23    2    4    4    0    0  0.28466781999E+03 -0.23063250619E+03 -0.27448896376E+03  0.46679186406E+03  0.91232299528E+02 0.  0.
          3    1    3    3  502    0 -0.63454694147E+01  0.33910056922E+02 -0.24509792464E+02  0.42318871312E+02  0.00000000000E+00 0. -1.
         -3    1    3    3    0  502 -0.18481263076E+03  0.41695585658E+02 -0.80977647601E+02  0.20603788429E+03  0.00000000000E+00 0.  1.
         11    1    5    5    0    0 -0.10165924040E+03  0.15840800280E+03 -0.14765933981E+04  0.14885414874E+04  0.00000000000E+00 0. -1.
        -11    1    5    5    0    0  0.81495205852E+01 -0.33811391833E+01 -0.21665000487E+03  0.21682959069E+03  0.00000000000E+00 0.  1.
          1    1    6    6  503    0  0.12721682842E+03 -0.15230407195E+03 -0.17590880583E+03  0.26518778202E+03  0.00000000000E+00 0. -1.
         -1    1    6    6    0  503  0.15745099157E+03 -0.78328434244E+02 -0.98580157931E+02  0.20160408204E+03  0.00000000000E+00 0.  1.
<mgrwt>
<rscale>  0 0.12492699E+04</rscale>
<asrwt>0</asrwt>
<pdfrwt beam="1">  1        2 0.34567228E+00 0.12492699E+04</pdfrwt>
<pdfrwt beam="2">  1       -2 0.26715376E-01 0.12492699E+04</pdfrwt>
<totfact> 0.60915869E+01</totfact>
</mgrwt>
</event>
<event>
12    2  0.3751044E-008  0.1685955E+04  0.7818608E-02  0.8769416E-01
          2   -1    0    0  501    0  0.00000000000E+00  0.00000000000E+00  0.36443202611E+04  0.36443202611E+04  0.00000000000E+00 0. -1.
         -2   -1    0    0    0  501 -0.00000000000E+00 -0.00000000000E+00 -0.19499138916E+03  0.19499138916E+03  0.00000000000E+00 0.  1.
         23    2    1    2    0    0  0.19397264508E+03  0.25772640021E+03  0.88863724978E+02  0.34686776451E+03  0.91499726959E+02 0.  0.
        254    2    1    2    0    0 -0.19397264508E+03 -0.25772640021E+03  0.33604651470E+04  0.34924438858E+04  0.89464518487E+03 0.  0.
         23    2    4    4    0    0 -0.41811654487E+03 -0.44571022677E+03  0.18251884230E+04  0.19269012244E+04  0.90313330274E+02 0.  0.
         23    2    4    4    0    0  0.22414389979E+03  0.18798382656E+03  0.15352767240E+04  0.15655426614E+04  0.90943931429E+02 0.  0.
          1    1    3    3  502    0 -0.61024274584E+01  0.15873637883E+02  0.18625959622E+02  0.25221783687E+02  0.00000000000E+00 0. -1.
         -1    1    3    3    0  502  0.20007507254E+03  0.24185276233E+03  0.70237765356E+02  0.32164598082E+03  0.00000000000E+00 0.  1.
         11    1    5    5    0    0 -0.21294709664E+03 -0.28870290324E+03  0.11050782514E+04  0.11618492906E+04  0.00000000000E+00 0.  1.
        -11    1    5    5    0    0 -0.20516944823E+03 -0.15700732353E+03  0.72011017161E+03  0.76505193379E+03  0.00000000000E+00 0. -1.
          2    1    6    6  503    0  0.18733922281E+03  0.11214771892E+03  0.12086856208E+04  0.12282483564E+04  0.00000000000E+00 0. -1.
         -2    1    6    6    0  503  0.36804676984E+02  0.75836107639E+02  0.32659110324E+03  0.33729430500E+03  0.00000000000E+00 0.  1.
<mgrwt>
<rscale>  0 0.16859550E+04</rscale>
<asrwt>0</asrwt>
<pdfrwt beam="1">  1        2 0.56066461E+00 0.16859550E+04</pdfrwt>
<pdfrwt beam="2">  1       -2 0.29998678E-01 0.16859550E+04</pdfrwt>
<totfact> 0.63409014E+00</totfact>
</mgrwt>
</event>
<event>
12    2  0.3751044E-008  0.2155547E+04  0.7818608E-02  0.8537162E-01
         -1   -1    0    0    0  501 -0.00000000000E+00  0.00000000000E+00  0.84876957543E+03  0.84876957543E+03  0.00000000000E+00 0.  1.
          1   -1    0    0  501    0  0.00000000000E+00 -0.00000000000E+00 -0.13685636993E+04  0.13685636993E+04  0.00000000000E+00 0. -1.
         23    2    1    2    0    0 -0.22722155736E+03 -0.35972159513E+03  0.58757660236E+03  0.73141456778E+03  0.93229524194E+02 0.  0.
        254    2    1    2    0    0  0.22722155736E+03  0.35972159513E+03 -0.11073707262E+04  0.14859187070E+04  0.89479339306E+03 0.  0.
         23    2    4    4    0    0  0.46583992854E+03  0.50760501170E+03 -0.73667520666E+03  0.10127950508E+04  0.91617508989E+02 0.  0.
         23    2    4    4    0    0 -0.23861837119E+03 -0.14788341656E+03 -0.37069551956E+03  0.47312365613E+03  0.87307467055E+02 0.  0.
          3    1    3    3  502    0 -0.66940970834E+01 -0.54565582162E+01 -0.22242786660E+01  0.89180927845E+01  0.00000000000E+00 0. -1.
         -3    1    3    3    0  502 -0.22052746027E+03 -0.35426503692E+03  0.58980088103E+03  0.72249647499E+03  0.00000000000E+00 0.  1.
         11    1    5    5    0    0  0.11868499456E+02  0.40762233071E+02 -0.30907952848E+02  0.52514021684E+02  0.00000000000E+00 0.  1.
        -11    1    5    5    0    0  0.45397142909E+03  0.46684277863E+03 -0.70576725382E+03  0.96028102915E+03  0.00000000000E+00 0. -1.
          4    1    6    6  503    0 -0.18425240273E+03 -0.15259888021E+03 -0.30817631302E+03  0.39013844474E+03  0.00000000000E+00 0. -1.
         -4    1    6    6    0  503 -0.54365968459E+02  0.47154636453E+01 -0.62519206539E+02  0.82985211394E+02  0.00000000000E+00 0.  1.
<mgrwt>
<rscale>  0 0.21555465E+04</rscale>
<asrwt>0</asrwt>
<pdfrwt beam="1">  1        1 0.21054826E+00 0.21555465E+04</pdfrwt>
<pdfrwt beam="2">  1       -1 0.13057993E+00 0.21555465E+04</pdfrwt>
<totfact> 0.37109536E+00</totfact>
</mgrwt>
</event>
<event>
12    2  0.3751044E-008  0.2793127E+04  0.7818608E-02  0.8305405E-01
          1   -1    0    0  501    0  0.00000000000E+00  0.00000000000E+00  0.12527163256E+04  0.12527163256E+04  0.00000000000E+00 0. -1.
         -1   -1    0    0    0  501 -0.00000000000E+00 -0.00000000000E+00 -0.15569281550E+04  0.15569281550E+04  0.00000000000E+00 0.  1.
         23    2    1    2    0    0 -0.10341874754E+04  0.42668924741E+03 -0.64463948477E+03  0.12942797397E+04  0.89400957772E+02 0.  0.
        254    2    1    2    0    0  0.10341874754E+04 -0.42668924741E+03  0.34042765534E+03  0.15153647409E+04  0.96375923418E+03 0.  0.
         23    2    4    4    0    0  0.55932807339E+03 -0.69627587203E+03  0.34637351455E+03  0.96164563134E+03  0.84496893616E+02 0.  0.
         23    2    4    4    0    0  0.47485940198E+03  0.26958662463E+03 -0.59458592071E+01  0.55371910959E+03  0.91657510647E+02 0.  0.
          2    1    3    3  502    0 -0.69187356280E+02  0.47930965496E+02 -0.66712902867E+02  0.10740055461E+03  0.00000000000E+00 0. -1.
         -2    1    3    3    0  502 -0.96500011908E+03  0.37875828191E+03 -0.57792658190E+03  0.11868791851E+04  0.00000000000E+00 0.  1.
         11    1    5    5    0    0  0.50751308566E+00 -0.10345809368E+02  0.11919894099E+02  0.15791681872E+02  0.00000000000E+00 0.  1.
        -11    1    5    5    0    0  0.55882056030E+03 -0.68593006267E+03  0.33445362045E+03  0.94585394947E+03  0.00000000000E+00 0. -1.
          1    1    6    6  503    0  0.29404546505E+03  0.16215786968E+03 -0.48082425384E+02  0.33921944202E+03  0.00000000000E+00 0. -1.
         -1    1    6    6    0  503  0.18081393693E+03  0.10742875495E+03  0.42136566177E+02  0.21449966757E+03  0.00000000000E+00 0.  1.
<mgrwt>
<rscale>  0 0.27931268E+04</rscale>
<asrwt>0</asrwt>
<pdfrwt beam="1">  1        1 0.19272559E+00 0.27931268E+04</pdfrwt>
<pdfrwt beam="2">  1       -1 0.23952741E+00 0.27931268E+04</pdfrwt>
<totfact> 0.69193628E-01</totfact>
</mgrwt>
</event>
<event>
12    2  0.3751044E-008  0.1918130E+04  0.7818608E-02  0.8645884E-01
         -2   -1    0    0    0  501 -0.00000000000E+00  0.00000000000E+00  0.50850799915E+03  0.50850799915E+03  0.00000000000E+00 0.  1.
          2   -1    0    0  501    0  0.00000000000E+00 -0.00000000000E+00 -0.18088323799E+04  0.18088323799E+04  0.00000000000E+00 0. -1.
         23    2    1    2    0    0  0.55001311778E+03 -0.41530660725E+03 -0.16512540612E+03  0.71382265111E+03  0.85336801700E+02 0.  0.
        254    2    1    2    0    0 -0.55001311778E+03  0.41530660725E+03 -0.11351989747E+04  0.16035177280E+04  0.89866477848E+03 0.  0.
         23    2    4    4    0    0  0.99585424764E+02  0.18987580938E+02 -0.71774039669E+03  0.73088759826E+03  0.93635565862E+02 0.  0.
         23    2    4    4    0    0 -0.64959854255E+03  0.39631902631E+03 -0.41745857799E+03  0.87263012972E+03  0.90358407812E+02 0.  0.
          1    1    3    3  502    0  0.11128978117E+03 -0.46050913877E+02 -0.17653705982E+02  0.12172820297E+03  0.00000000000E+00 0. -1.
         -1    1    3    3    0  502  0.43872333661E+03 -0.36925569338E+03 -0.14747170014E+03  0.59209444814E+03  0.00000000000E+00 0.  1.
         11    1    5    5    0    0  0.48053939351E+02  0.49779652288E+02 -0.25315095833E+03  0.26243590183E+03  0.00000000000E+00 0. -1.
        -11    1    5    5    0    0  0.51531485413E+02 -0.30792071350E+02 -0.46458943836E+03  0.46845169643E+03  0.00000000000E+00 0.  1.
          2    1    6    6  503    0 -0.24606764436E+03  0.10340989187E+03 -0.12724603136E+03  0.29569315825E+03  0.00000000000E+00 0. -1.
         -2    1    6    6    0  503 -0.40353089819E+03  0.29290913444E+03 -0.29021254663E+03  0.57693697147E+03  0.00000000000E+00 0.  1.
<mgrwt>
<rscale>  0 0.19181301E+04</rscale>
<asrwt>0</asrwt>
<pdfrwt beam="1">  1        2 0.27828190E+00 0.19181301E+04</pdfrwt>
<pdfrwt beam="2">  1       -2 0.78232002E-01 0.19181301E+04</pdfrwt>
<totfact> 0.11596106E+01</totfact>
</mgrwt>
</event>
<event>
12    2  0.3751044E-008  0.1870923E+04  0.7818608E-02  0.8669467E-01
          3   -1    0    0  501    0  0.00000000000E+00  0.00000000000E+00  0.36348336564E+03  0.36348336564E+03  0.00000000000E+00 0. -1.
         -3   -1    0    0    0  501 -0.00000000000E+00 -0.00000000000E+00 -0.24075047157E+04  0.24075047157E+04  0.00000000000E+00 0.  1.
         23    2    1    2    0    0 -0.56728377002E+03 -0.42906793382E+03 -0.66972778338E+03  0.98172820141E+03  0.96668454255E+02 0.  0.
        254    2    1    2    0    0  0.56728377002E+03  0.42906793382E+03 -0.13742935667E+04  0.17892598800E+04  0.89825271666E+03 0.  0.
         23    2    4    4    0    0  0.58210869630E+03  0.39123708644E+03 -0.40772989903E+03  0.81739289180E+03  0.99852275368E+02 0.  0.
         23    2    4    4    0    0 -0.14824926282E+02  0.37830847385E+02 -0.96656366767E+03  0.97186698815E+03  0.92893312732E+02 0.  0.
          1    1    3    3  502    0 -0.27251503884E+03 -0.23235351638E+03 -0.27700883069E+03  0.45275434316E+03  0.00000000000E+00 0. -1.
         -1    1    3    3    0  502 -0.29476873118E+03 -0.19671441744E+03 -0.39271895268E+03  0.52897385825E+03  0.00000000000E+00 0.  1.
         11    1    5    5    0    0  0.42323436589E+03  0.23821525648E+03 -0.25014054113E+03  0.54630040015E+03  0.00000000000E+00 0. -1.
        -11    1    5    5    0    0  0.15887433041E+03  0.15302182996E+03 -0.15758935790E+03  0.27109249165E+03  0.00000000000E+00 0.  1.
          1    1    6    6  503    0  0.12557776436E+02  0.15512732733E+02 -0.84597901375E+03  0.84621441393E+03  0.00000000000E+00 0. -1.
         -1    1    6    6    0  503 -0.27382702718E+02  0.22318114652E+02 -0.12058465392E+03  0.12565257423E+03  0.00000000000E+00 0.  1.
<mgrwt>
<rscale>  0 0.18709227E+04</rscale>
<asrwt>0</asrwt>
<pdfrwt beam="1">  1        3 0.55920518E-01 0.18709227E+04</pdfrwt>
<pdfrwt beam="2">  1       -3 0.37038534E+00 0.18709227E+04</pdfrwt>
<totfact> 0.11966610E-01</totfact>
</mgrwt>
</event>
<event>
12    2  0.3751044E-008  0.3258778E+04  0.7818608E-02  0.8173464E-01
         -2   -1    0    0    0  501 -0.00000000000E+00  0.00000000000E+00  0.15782476909E+04  0.15782476909E+04  0.00000000000E+00 0.  1.
          2   -1    0    0  501    0  0.00000000000E+00 -0.00000000000E+00 -0.16821873866E+04  0.16821873866E+04  0.00000000000E+00 0. -1.
         23    2    1    2    0    0 -0.12067451262E+04  0.60447502128E+03  0.48261213485E+03  0.14362928964E+04  0.91645842894E+02 0.  0.
        254    2    1    2    0    0  0.12067451262E+04 -0.60447502128E+03 -0.58655183048E+03  0.18241421811E+04  0.10778811604E+04 0.  0.
         23    2    4    4    0    0  0.70198406186E+03 -0.83680305871E+03 -0.14092566659E+03  0.11057871923E+04  0.99419761203E+02 0.  0.
         23    2    4    4    0    0  0.50476106437E+03  0.23232803743E+03 -0.44562616389E+03  0.71835498883E+03  0.93226406881E+02 0.  0.
          3    1    3    3  502    0 -0.56644639629E+03  0.31929971714E+03  0.26726288516E+03  0.70302438011E+03  0.00000000000E+00 0. -1.
         -3    1    3    3    0  502 -0.64029872994E+03  0.28517530414E+03  0.21534924969E+03  0.73326851630E+03  0.00000000000E+00 0.  1.
         11    1    5    5    0    0  0.31270062016E+03 -0.30685420966E+03 -0.80609192208E+02  0.44546495451E+03  0.00000000000E+00 0. -1.
        -11    1    5    5    0    0  0.38928344170E+03 -0.52994884905E+03 -0.60316474379E+02  0.66032223776E+03  0.00000000000E+00 0.  1.
          1    1    6    6  503    0  0.13453262493E+03  0.10615690370E+03 -0.11716354646E+03  0.20759482650E+03  0.00000000000E+00 0. -1.
         -1    1    6    6    0  503  0.37022843945E+03  0.12617113373E+03 -0.32846261743E+03  0.51076016232E+03  0.00000000000E+00 0.  1.
<mgrwt>
<rscale>  0 0.32587779E+04</rscale>
<asrwt>0</asrwt>
<pdfrwt beam="1">  1        2 0.25879806E+00 0.32587779E+04</pdfrwt>
<pdfrwt beam="2">  1       -2 0.24280734E+00 0.32587779E+04</pdfrwt>
<totfact> 0.59845219E-01</totfact>
</mgrwt>
</event>
<event>
12    2  0.3751044E-008  0.2941698E+04  0.7818608E-02  0.8260578E-01
         -2   -1    0    0    0  501 -0.00000000000E+00  0.00000000000E+00  0.56419061159E+03  0.56419061159E+03  0.00000000000E+00 0.  1.
          2   -1    0    0  501    0  0.00000000000E+00 -0.00000000000E+00 -0.38345145777E+04  0.38345145777E+04  0.00000000000E+00 0. -1.
         23    2    1    2    0    0 -0.11095667894E+03  0.65987622859E+03  0.23701232086E+03  0.71571906079E+03  0.91273830189E+02 0.  0.
        254    2    1    2    0    0  0.11095667894E+03 -0.65987622859E+03 -0.35073362870E+04  0.36829861285E+04  0.90290141829E+03 0.  0.
         23    2    4    4    0    0  0.17615567512E+03 -0.80151322264E+03 -0.33262022875E+04  0.34271423314E+04  0.90711817865E+02 0.  0.
         23    2    4    4    0    0 -0.65198996175E+02  0.14163699406E+03 -0.18113399949E+03  0.25584379718E+03  0.91293896826E+02 0.  0.
          1    1    3    3  502    0 -0.87889227293E+02  0.56367486316E+03  0.23437951599E+03  0.61675572567E+03  0.00000000000E+00 0.  1.
         -1    1    3    3    0  502 -0.23067451651E+02  0.96201365427E+02  0.26328048703E+01  0.98963335115E+02  0.00000000000E+00 0. -1.
         11    1    5    5    0    0  0.10592433003E+03 -0.64241064984E+03 -0.26786682002E+04  0.27566600685E+04  0.00000000000E+00 0.  1.
        -11    1    5    5    0    0  0.70231345091E+02 -0.15910257280E+03 -0.64753408734E+03  0.67048226283E+03  0.00000000000E+00 0. -1.
          1    1    6    6  503    0 -0.26194425391E+02  0.14014531939E+02 -0.88608368327E+02  0.93455861051E+02  0.00000000000E+00 0. -1.
         -1    1    6    6    0  503 -0.39004570784E+02  0.12762246212E+03 -0.92525631164E+02  0.16238793613E+03  0.00000000000E+00 0.  1.
<mgrwt>
<rscale>  0 0.29416982E+04</rscale>
<asrwt>0</asrwt>
<pdfrwt beam="1">  1        2 0.58992529E+00 0.29416982E+04</pdfrwt>
<pdfrwt beam="2">  1       -2 0.86798560E-01 0.29416982E+04</pdfrwt>
<totfact> 0.45639449E-01</totfact>
</mgrwt>
</event>
<event>
12    2  0.3751044E-008  0.1616534E+04  0.7818608E-02  0.8810454E-01
         -2   -1    0    0    0  501 -0.00000000000E+00  0.00000000000E+00  0.41115406340E+03  0.41115406340E+03  0.00000000000E+00 0.  1.
          2   -1    0    0  501    0  0.00000000000E+00 -0.00000000000E+00 -0.15889317052E+04  0.15889317052E+04  0.00000000000E+00 0. -1.
         23    2    1    2    0    0 -0.46617905357E+03  0.21694031106E+03 -0.69448633075E+03  0.86897313222E+03  0.91744386006E+02 0.  0.
        254    2    1    2    0    0  0.46617905357E+03 -0.21694031106E+03 -0.48329131106E+03  0.11311126364E+04  0.88400186444E+03 0.  0.
         23    2    4    4    0    0  0.46495338217E+03 -0.17033628319E+03 -0.71738052398E+03  0.87668555542E+03  0.93523526112E+02 0.  0.
         23    2    4    4    0    0  0.12256713993E+01 -0.46604027877E+02  0.23408921293E+03  0.25442708098E+03  0.88101885568E+02 0.  0.
          3    1    3    3  502    0 -0.35701722511E+03  0.12632443876E+03 -0.53564029361E+03  0.65599518824E+03  0.00000000000E+00 0. -1.
         -3    1    3    3    0  502 -0.10916182846E+03  0.90615872303E+02 -0.15884603714E+03  0.21297794398E+03  0.00000000000E+00 0.  1.
         11    1    5    5    0    0  0.10916431785E+03 -0.84141604683E+02 -0.19293911479E+03  0.23711212527E+03  0.00000000000E+00 0. -1.
        -11    1    5    5    0    0  0.35578906432E+03 -0.86194678502E+02 -0.52444140919E+03  0.63957343016E+03  0.00000000000E+00 0.  1.
          1    1    6    6  503    0  0.12962476677E+02  0.17281011254E+02  0.16032325804E+02  0.26901572858E+02  0.00000000000E+00 0. -1.
         -1    1    6    6    0  503 -0.11736805277E+02 -0.63885039131E+02  0.21805688712E+03  0.22752550812E+03  0.00000000000E+00 0.  1.
<mgrwt>
<rscale>  0 0.16165342E+04</rscale>
<asrwt>0</asrwt>
<pdfrwt beam="1">  1        2 0.24445103E+00 0.16165342E+04</pdfrwt>
<pdfrwt beam="2">  1       -2 0.63254472E-01 0.16165342E+04</pdfrwt>
<totfact> 0.25072371E+01</totfact>
</mgrwt>
</event>
<event>
12    2  0.3751044E-008  0.1602018E+04  0.7818608E-02  0.8819309E-01
         -2   -1    0    0    0  501 -0.00000000000E+00  0.00000000000E+00  0.43404393337E+03  0.43404393337E+03  0.00000000000E+00 0.  1.
          2   -1    0    0  501    0  0.00000000000E+00 -0.00000000000E+00 -0.14782263184E+04  0.14782263184E+04  0.00000000000E+00 0. -1.
         23    2    1    2    0    0 -0.24573191872E+03  0.45255547085E+03 -0.17329944342E+03  0.55115116676E+03  0.92435282525E+02 0.  0.
        254    2    1    2    0    0  0.24573191872E+03 -0.45255547085E+03 -0.87088294166E+03  0.13611190851E+04  0.91050394595E+03 0.  0.
         23    2    4    4    0    0 -0.13469535227E+03 -0.55624810199E+03 -0.72720983394E+03  0.93030528291E+03  0.95283723361E+02 0.  0.
         23    2    4    4    0    0  0.38042727100E+03  0.10369263114E+03 -0.14367310772E+03  0.43081380216E+03  0.97372994086E+02 0.  0.
          4    1    3    3  502    0 -0.14780012306E+03  0.29236790464E+03 -0.15526822026E+03  0.36253563723E+03  0.00000000000E+00 0. -1.
         -4    1    3    3    0  502 -0.97931795661E+02  0.16018756621E+03 -0.18031223154E+02  0.18861552952E+03  0.00000000000E+00 0.  1.
         11    1    5    5    0    0 -0.83082248928E+01 -0.23121281433E+03 -0.29836442277E+03  0.37755757294E+03  0.00000000000E+00 0. -1.
        -11    1    5    5    0    0 -0.12638712738E+03 -0.32503528766E+03 -0.42884541117E+03  0.55274770997E+03  0.00000000000E+00 0.  1.
          4    1    6    6  503    0  0.80388463857E+02  0.59389941852E+02 -0.13841219871E+02  0.10090118771E+03  0.00000000000E+00 0. -1.
         -4    1    6    6    0  503  0.30003880714E+03  0.44302689293E+02 -0.12983188785E+03  0.32991261444E+03  0.00000000000E+00 0.  1.
<mgrwt>
<rscale>  0 0.16020177E+04</rscale>
<asrwt>0</asrwt>
<pdfrwt beam="1">  1        2 0.22741943E+00 0.16020177E+04</pdfrwt>
<pdfrwt beam="2">  1       -2 0.66775989E-01 0.16020177E+04</pdfrwt>
<totfact> 0.25787863E+01</totfact>
</mgrwt>
</event>
<event>
12    2  0.3751044E-008  0.1453115E+04  0.7818608E-02  0.8916244E-01
         -2   -1    0    0    0  501 -0.00000000000E+00  0.00000000000E+00  0.67987811328E+03  0.67987811328E+03  0.00000000000E+00 0.  1.
          2   -1    0    0  501    0  0.00000000000E+00 -0.00000000000E+00 -0.77644213427E+03  0.77644213427E+03  0.00000000000E+00 0. -1.
         23    2    1    2    0    0  0.71177339420E+01 -0.30428007933E+02  0.40760010214E+03  0.41968724940E+03  0.94989569125E+02 0.  0.
        254    2    1    2    0    0 -0.71177339420E+01  0.30428007933E+02 -0.50416412313E+03  0.10366329981E+04  0.90523476733E+03 0.  0.
         23    2    4    4    0    0  0.40440393737E+03  0.16374312464E+02 -0.44901568571E+03  0.61137989376E+03  0.91430989286E+02 0.  0.
         23    2    4    4    0    0 -0.41152167131E+03  0.14053695469E+02 -0.55148437415E+02  0.42525310439E+03  0.90836448224E+02 0.  0.
          4    1    3    3  502    0  0.19219679871E+02  0.29701822190E+02  0.10112466770E+03  0.10713446109E+03  0.00000000000E+00 0. -1.
         -4    1    3    3    0  502 -0.12101945929E+02 -0.60129830123E+02  0.30647543444E+03  0.31255278831E+03  0.00000000000E+00 0.  1.
         11    1    5    5    0    0  0.72289467508E+02  0.25201768569E+02 -0.46934181353E+02  0.89798182782E+02  0.00000000000E+00 0. -1.
        -11    1    5    5    0    0  0.33211446986E+03 -0.88274561045E+01 -0.40208150436E+03  0.52158171097E+03  0.00000000000E+00 0.  1.
          3    1    6    6  503    0 -0.20037159601E+03  0.28856281452E+01 -0.72483507208E+02  0.21309847994E+03  0.00000000000E+00 0. -1.
         -3    1    6    6    0  503 -0.21115007530E+03  0.11168067324E+02  0.17335069793E+02  0.21215462445E+03  0.00000000000E+00 0.  1.
<mgrwt>
<rscale>  0 0.14531153E+04</rscale>
<asrwt>0</asrwt>
<pdfrwt beam="1">  1        2 0.11945264E+00 0.14531153E+04</pdfrwt>
<pdfrwt beam="2">  1       -2 0.10459663E+00 0.14531153E+04</pdfrwt>
<totfact> 0.25783321E+01</totfact>
</mgrwt>
</event>
<event>
12    2  0.3751044E-008  0.1509044E+04  0.7818608E-02  0.8878461E-01
         -2   -1    0    0    0  501 -0.00000000000E+00  0.00000000000E+00  0.27473411084E+03  0.27473411084E+03  0.00000000000E+00 0.  1.
          2   -1    0    0  501    0  0.00000000000E+00 -0.00000000000E+00 -0.20721988782E+04  0.20721988782E+04  0.00000000000E+00 0. -1.
         23    2    1    2    0    0  0.27930432146E+03  0.80845998814E+02 -0.11663663019E+04  0.12056519436E+04  0.92947724667E+02 0.  0.
        254    2    1    2    0    0 -0.27930432146E+03 -0.80845998814E+02 -0.63109846555E+03  0.11412810455E+04  0.90536742379E+03 0.  0.
         23    2    4    4    0    0  0.23080152093E+03 -0.29694148777E+03 -0.29367176577E+03  0.48626585543E+03  0.93636461473E+02 0.  0.
         23    2    4    4    0    0 -0.51010584239E+03  0.21609548896E+03 -0.33742669978E+03  0.65501519005E+03  0.91010387811E+02 0.  0.
          4    1    3    3  502    0  0.25842120473E+03  0.66218705042E+02 -0.11311073364E+04  0.11621403712E+04  0.00000000000E+00 0. -1.
         -4    1    3    3    0  502  0.20883116730E+02  0.14627293772E+02 -0.35258965458E+02  0.43511572399E+02  0.00000000000E+00 0.  1.
         11    1    5    5    0    0  0.14622648466E+03 -0.25021117987E+03 -0.20366747324E+03  0.35421498981E+03  0.00000000000E+00 0. -1.
        -11    1    5    5    0    0  0.84575036272E+02 -0.46730307905E+02 -0.90004292530E+02  0.13205086562E+03  0.00000000000E+00 0.  1.
          3    1    6    6  503    0 -0.32549421393E+03  0.14598409460E+03 -0.26611825172E+03  0.44505815696E+03  0.00000000000E+00 0. -1.
         -3    1    6    6    0  503 -0.18461162846E+03  0.70111394363E+02 -0.71308448060E+02  0.20995703310E+03  0.00000000000E+00 0.  1.
<mgrwt>
<rscale>  0 0.15090444E+04</rscale>
<asrwt>0</asrwt>
<pdfrwt beam="1">  1        2 0.31879984E+00 0.15090444E+04</pdfrwt>
<pdfrwt beam="2">  1       -2 0.42266785E-01 0.15090444E+04</pdfrwt>
<totfact> 0.31214726E+01</totfact>
</mgrwt>
</event>
<event>
12    2  0.3751044E-008  0.2357481E+04  0.7818608E-02  0.8455596E-01
         -1   -1    0    0    0  501 -0.00000000000E+00  0.00000000000E+00  0.66833477789E+03  0.66833477789E+03  0.00000000000E+00 0.  1.
          1   -1    0    0  501    0  0.00000000000E+00 -0.00000000000E+00 -0.20789416166E+04  0.20789416166E+04  0.00000000000E+00 0. -1.
         23    2    1    2    0    0  0.21011066292E+03 -0.29546738787E+03  0.48838044540E+03  0.61535210018E+03  0.93248484025E+02 0.  0.
        254    2    1    2    0    0 -0.21011066292E+03  0.29546738787E+03 -0.18989872841E+04  0.21319242943E+04  0.89861060726E+03 0.  0.
         23    2    4    4    0    0 -0.38931127776E+03  0.52437627859E+03 -0.11989773846E+04  0.13683461264E+04  0.91052734196E+02 0.  0.
         23    2    4    4    0    0  0.17920061483E+03 -0.22890889072E+03 -0.70000989947E+03  0.76357816785E+03  0.92334275557E+02 0.  0.
          2    1    3    3  502    0  0.94891857988E+02 -0.66937790077E+02  0.18513837977E+03  0.21854370756E+03  0.00000000000E+00 0. -1.
         -2    1    3    3    0  502  0.11521880493E+03 -0.22852959780E+03  0.30324206564E+03  0.39680839262E+03  0.00000000000E+00 0.  1.
         11    1    5    5    0    0 -0.37143154372E+03  0.49142222965E+03 -0.11646012852E+04  0.13174799251E+04  0.00000000000E+00 0. -1.
        -11    1    5    5    0    0 -0.17879734031E+02  0.32954048937E+02 -0.34376099362E+02  0.50866201330E+02  0.00000000000E+00 0.  1.
          2    1    6    6  503    0  0.17103310038E+02 -0.43013837029E+01 -0.10532273404E+02  0.20541516475E+02  0.00000000000E+00 0. -1.
         -2    1    6    6    0  503  0.16209730479E+03 -0.22460750701E+03 -0.68947762607E+03  0.74303665137E+03  0.00000000000E+00 0.  1.
<mgrwt>
<rscale>  0 0.23574808E+04</rscale>
<asrwt>0</asrwt>
<pdfrwt beam="1">  1        1 0.31983717E+00 0.23574808E+04</pdfrwt>
<pdfrwt beam="2">  1       -1 0.10282074E+00 0.23574808E+04</pdfrwt>
<totfact> 0.21171579E+00</totfact>
</mgrwt>
</event>
<event>
12    2  0.3751044E-008  0.3948017E+04  0.7818608E-02  0.8015116E-01
         -2   -1    0    0    0  501 -0.00000000000E+00  0.00000000000E+00  0.18294063705E+04  0.18294063705E+04  0.00000000000E+00 0.  1.
          2   -1    0    0  501    0  0.00000000000E+00 -0.00000000000E+00 -0.21300409100E+04  0.21300409100E+04  0.00000000000E+00 0. -1.
         23    2    1    2    0    0  0.11058758687E+04  0.14734722594E+04  0.19419234170E+03  0.18544268830E+04  0.84299837500E+02 0.  0.
        254    2    1    2    0    0 -0.11058758687E+04 -0.14734722594E+04 -0.49482688119E+03  0.21050203975E+04  0.89004229957E+03 0.  0.
         23    2    4    4    0    0 -0.12163202589E+03  0.78961961179E+02  0.62116379876E+02  0.18217213082E+03  0.91098296151E+02 0.  0.
         23    2    4    4    0    0 -0.98424384282E+03 -0.15524342206E+04 -0.55694326107E+03  0.19228482666E+04  0.91497043672E+02 0.  0.
          3    1    3    3  502    0  0.24327069092E+03  0.37541602359E+03  0.28123763957E+02  0.44822847515E+03  0.00000000000E+00 0. -1.
         -3    1    3    3    0  502  0.86260517779E+03  0.10980562358E+04  0.16606857774E+03  0.14061984079E+04  0.00000000000E+00 0.  1.
         11    1    5    5    0    0 -0.13592682309E+03  0.68539879921E+02  0.62289992685E+02  0.16448057503E+03  0.00000000000E+00 0.  1.
        -11    1    5    5    0    0  0.14294797196E+02  0.10422081258E+02 -0.17361280938E+00  0.17691555783E+02  0.00000000000E+00 0. -1.
          4    1    6    6  503    0 -0.52320481200E+03 -0.77161836459E+03 -0.24512382053E+03  0.96396258396E+03  0.00000000000E+00 0. -1.
         -4    1    6    6    0  503 -0.46103903082E+03 -0.78081585602E+03 -0.31181944054E+03  0.95888568268E+03  0.00000000000E+00 0.  1.
<mgrwt>
<rscale>  0 0.39480174E+04</rscale>
<asrwt>0</asrwt>
<pdfrwt beam="1">  1        2 0.32769860E+00 0.39480174E+04</pdfrwt>
<pdfrwt beam="2">  1       -2 0.28144713E+00 0.39480174E+04</pdfrwt>
<totfact> 0.18479959E-01</totfact>
</mgrwt>
</event>
<event>
12    2  0.3751044E-008  0.2186076E+04  0.7818608E-02  0.8524246E-01
         -1   -1    0    0    0  501 -0.00000000000E+00  0.00000000000E+00  0.47505901161E+03  0.47505901161E+03  0.00000000000E+00 0.  1.
          1   -1    0    0  501    0  0.00000000000E+00 -0.00000000000E+00 -0.25149137026E+04  0.25149137026E+04  0.00000000000E+00 0. -1.
         23    2    1    2    0    0  0.24912520086E+03 -0.16779397896E+03 -0.20120640300E+04  0.20364486788E+04  0.92213750855E+02 0.  0.
        254    2    1    2    0    0 -0.24912520086E+03  0.16779397896E+03 -0.27790661072E+02  0.95352403540E+03  0.90455380170E+03 0.  0.
         23    2    4    4    0    0 -0.54336978129E+03  0.19689464419E+03 -0.17435257587E+03  0.61064748639E+03  0.92050593661E+02 0.  0.
         23    2    4    4    0    0  0.29424458043E+03 -0.29100665234E+02  0.14656191479E+03  0.34287654901E+03  0.93044135578E+02 0.  0.
          2    1    3    3  502    0  0.14417507020E+03 -0.81104073615E+02 -0.81124659106E+03  0.82794042849E+03  0.00000000000E+00 0. -1.
         -2    1    3    3    0  502  0.10495013065E+03 -0.86689905344E+02 -0.12008174389E+04  0.12085082504E+04  0.00000000000E+00 0.  1.
         11    1    5    5    0    0 -0.52774539115E+03  0.17458739995E+03 -0.15450190858E+03  0.57694609614E+03  0.00000000000E+00 0. -1.
        -11    1    5    5    0    0 -0.15624390140E+02  0.22307244238E+02 -0.19850667287E+02  0.33701390245E+02  0.00000000000E+00 0.  1.
          1    1    6    6  503    0  0.27811951656E+03 -0.23624011715E+02  0.10544814374E+03  0.29837538511E+03  0.00000000000E+00 0. -1.
         -1    1    6    6    0  503  0.16125063875E+02 -0.54766535185E+01  0.41113771057E+02  0.44501163909E+02  0.00000000000E+00 0.  1.
<mgrwt>
<rscale>  0 0.21860763E+04</rscale>
<asrwt>0</asrwt>
<pdfrwt beam="1">  1        1 0.38690981E+00 0.21860763E+04</pdfrwt>
<pdfrwt beam="2">  1       -1 0.73086001E-01 0.21860763E+04</pdfrwt>
<totfact> 0.22787735E+00</totfact>
</mgrwt>
</event>
<event>
12    2  0.3751044E-008  0.2151125E+04  0.7818608E-02  0.8539051E-01
          2   -1    0    0  501    0  0.00000000000E+00  0.00000000000E+00  0.14999445892E+04  0.14999445892E+04  0.00000000000E+00 0. -1.
         -2   -1    0    0    0  501 -0.00000000000E+00 -0.00000000000E+00 -0.77125157847E+03  0.77125157847E+03  0.00000000000E+00 0.  1.
         23    2    1    2    0    0 -0.82957853609E+03 -0.23264685228E+03  0.84887854868E+02  0.87037354438E+03  0.89549167752E+02 0.  0.
        254    2    1    2    0    0  0.82957853609E+03  0.23264685228E+03  0.64380515583E+03  0.14008226233E+04  0.89749308506E+03 0.  0.
         23    2    4    4    0    0  0.68895514782E+03  0.23746625853E+03  0.85830889381E+03  0.11294833754E+04  0.89381868263E+02 0.  0.
         23    2    4    4    0    0  0.14062338826E+03 -0.48194062498E+01 -0.21450373798E+03  0.27133924789E+03  0.88402318036E+02 0.  0.
          2    1    3    3  502    0 -0.36008643530E+03 -0.13755806656E+03  0.65220415751E+02  0.39094522020E+03  0.00000000000E+00 0. -1.
         -2    1    3    3    0  502 -0.46949210079E+03 -0.95088785716E+02  0.19667439117E+02  0.47942832419E+03  0.00000000000E+00 0.  1.
         11    1    5    5    0    0  0.54718326738E+03  0.17575378754E+03  0.61991177785E+03  0.84533397794E+03  0.00000000000E+00 0. -1.
        -11    1    5    5    0    0  0.14177188044E+03  0.61712470995E+02  0.23839711596E+03  0.28414939743E+03  0.00000000000E+00 0.  1.
          4    1    6    6  503    0  0.93313254794E+02  0.11542317279E+02 -0.66677498482E+02  0.11526698318E+03  0.00000000000E+00 0.  1.
         -4    1    6    6    0  503  0.47310133468E+02 -0.16361723529E+02 -0.14782623950E+03  0.15607226471E+03  0.00000000000E+00 0. -1.
<mgrwt>
<rscale>  0 0.21511249E+04</rscale>
<asrwt>0</asrwt>
<pdfrwt beam="1">  1        2 0.23076070E+00 0.21511249E+04</pdfrwt>
<pdfrwt beam="2">  1       -2 0.11865409E+00 0.21511249E+04</pdfrwt>
<totfact> 0.63630697E+00</totfact>
</mgrwt>
</event>
<event>
12    2  0.3751044E-008  0.1168798E+04  0.7818608E-02  0.9140615E-01
         -2   -1    0    0    0  501 -0.00000000000E+00  0.00000000000E+00  0.72374957133E+03  0.72374957133E+03  0.00000000000E+00 0. -1.
          2   -1    0    0  501    0  0.00000000000E+00 -0.00000000000E+00 -0.47187885477E+03  0.47187885477E+03  0.00000000000E+00 0.  1.
         23    2    1    2    0    0 -0.15327373223E+03  0.98902051607E+02  0.16264705912E+03  0.26066237755E+03  0.90644119644E+02 0.  0.
        254    2    1    2    0    0  0.15327373223E+03 -0.98902051607E+02  0.89223657432E+02  0.93496604855E+03  0.91264790477E+03 0.  0.
         23    2    4    4    0    0  0.44734762692E+03 -0.28099808487E+03  0.17884795045E+03  0.56519975645E+03  0.91566108909E+02 0.  0.
         23    2    4    4    0    0 -0.29407389469E+03  0.18209603327E+03 -0.89624293014E+02  0.36976629209E+03  0.95163942752E+02 0.  0.
          3    1    3    3  502    0 -0.15922052809E+03  0.89855960094E+02  0.16825943672E+03  0.24846832429E+03  0.00000000000E+00 0. -1.
         -3    1    3    3    0  502  0.59467958587E+01  0.90460915135E+01 -0.56123775994E+01  0.12194053263E+02  0.00000000000E+00 0.  1.
         11    1    5    5    0    0  0.22630820588E+02  0.51569487767E+01  0.14432820214E+02  0.27332297022E+02  0.00000000000E+00 0. -1.
        -11    1    5    5    0    0  0.42471680634E+03 -0.28615503365E+03  0.16441513023E+03  0.53786745943E+03  0.00000000000E+00 0.  1.
          1    1    6    6  503    0 -0.12867268439E+03  0.39133306365E+02 -0.27636481800E+01  0.13452030749E+03  0.00000000000E+00 0. -1.
         -1    1    6    6    0  503 -0.16540121030E+03  0.14296272690E+03 -0.86860644834E+02  0.23524598460E+03  0.00000000000E+00 0.  1.
<mgrwt>
<rscale>  0 0.11687979E+04</rscale>
<asrwt>0</asrwt>
<pdfrwt beam="1">  1        2 0.72596747E-01 0.11687979E+04</pdfrwt>
<pdfrwt beam="2">  1       -2 0.11134609E+00 0.11687979E+04</pdfrwt>
<totfact> 0.41531548E+01</totfact>
</mgrwt>
</event>
<event>
12    2  0.3751044E-008  0.2409404E+04  0.7818608E-02  0.8435991E-01
         -2   -1    0    0    0  501 -0.00000000000E+00  0.00000000000E+00  0.17646178417E+04  0.17646178417E+04  0.00000000000E+00 0.  1.
          2   -1    0    0  501    0  0.00000000000E+00 -0.00000000000E+00 -0.82244841634E+03  0.82244841634E+03  0.00000000000E+00 0. -1.
         23    2    1    2    0    0  0.43441378707E+03 -0.46592584148E+03  0.12791168730E+04  0.14317518376E+04  0.89281137188E+02 0.  0.
        254    2    1    2    0    0 -0.43441378707E+03  0.46592584148E+03 -0.33694744763E+03  0.11553144205E+04  0.90300365422E+03 0.  0.
         23    2    4    4    0    0 -0.37125787482E+03  0.43027247897E+03  0.19651511697E+03  0.60843479498E+03  0.92778730163E+02 0.  0.
         23    2    4    4    0    0 -0.63155912243E+02  0.35653362513E+02 -0.53346256461E+03  0.54687962549E+03  0.96099872169E+02 0.  0.
          4    1    3    3  502    0  0.11663859078E+03 -0.16042670131E+03  0.47476081833E+03  0.51452805752E+03  0.00000000000E+00 0. -1.
         -4    1    3    3    0  502  0.31777519629E+03 -0.30549914017E+03  0.80435605470E+03  0.91722378008E+03  0.00000000000E+00 0.  1.
         11    1    5    5    0    0 -0.24263724675E+03  0.23100728661E+03  0.14848766915E+03  0.36645025292E+03  0.00000000000E+00 0.  1.
        -11    1    5    5    0    0 -0.12862062807E+03  0.19926519236E+03  0.48027447823E+02  0.24198454206E+03  0.00000000000E+00 0. -1.
          3    1    6    6  503    0 -0.83841627111E+01 -0.16418725539E+02 -0.17523883938E+02  0.25435314839E+02  0.00000000000E+00 0. -1.
         -3    1    6    6    0  503 -0.54771749532E+02  0.52072088053E+02 -0.51593868067E+03  0.52144431065E+03  0.00000000000E+00 0.  1.
<mgrwt>
<rscale>  0 0.24094042E+04</rscale>
<asrwt>0</asrwt>
<pdfrwt beam="1">  1        2 0.12653053E+00 0.24094042E+04</pdfrwt>
<pdfrwt beam="2">  1       -2 0.27147967E+00 0.24094042E+04</pdfrwt>
<totfact> 0.14156810E+00</totfact>
</mgrwt>
</event>
<event>
12    2  0.3751044E-008  0.1827658E+04  0.7818608E-02  0.8691728E-01
          2   -1    0    0  501    0  0.00000000000E+00  0.00000000000E+00  0.15661897769E+04  0.15661897769E+04  0.00000000000E+00 0. -1.
         -2   -1    0    0    0  501 -0.00000000000E+00 -0.00000000000E+00 -0.53319433167E+03  0.53319433167E+03  0.00000000000E+00 0.  1.
         23    2    1    2    0    0  0.34492839438E+03 -0.72702865192E+02 -0.28440723201E+03  0.46187320572E+03  0.90432741208E+02 0.  0.
        254    2    1    2    0    0 -0.34492839438E+03  0.72702865192E+02  0.13174026773E+04  0.16375109029E+04  0.90643854680E+03 0.  0.
         23    2    4    4    0    0 -0.56366483843E+03  0.44699711444E+02  0.12695476992E+04  0.13927163201E+04  0.90505654754E+02 0.  0.
         23    2    4    4    0    0  0.21873644405E+03  0.28003153748E+02  0.47854978058E+02  0.24479458273E+03  0.94891939780E+02 0.  0.
          4    1    3    3  502    0  0.23100416240E+03 -0.58957630859E+02 -0.24152539313E+03  0.33937212733E+03  0.00000000000E+00 0.  1.
         -4    1    3    3    0  502  0.11392423199E+03 -0.13745234333E+02 -0.42881838874E+02  0.12250107838E+03  0.00000000000E+00 0. -1.
         11    1    5    5    0    0 -0.48759253814E+03  0.60473799468E+02  0.10363961590E+04  0.11469614475E+04  0.00000000000E+00 0. -1.
        -11    1    5    5    0    0 -0.76072300294E+02 -0.15774088024E+02  0.23315154020E+03  0.24575487264E+03  0.00000000000E+00 0.  1.
          1    1    6    6  503    0  0.19849553603E+03  0.11991285235E+01  0.62566441898E+02  0.20812610453E+03  0.00000000000E+00 0. -1.
         -1    1    6    6    0  503  0.20240908019E+02  0.26804025224E+02 -0.14711463841E+02  0.36668478206E+02  0.00000000000E+00 0.  1.
<mgrwt>
<rscale>  0 0.18276581E+04</rscale>
<asrwt>0</asrwt>
<pdfrwt beam="1">  1        2 0.24095227E+00 0.18276581E+04</pdfrwt>
<pdfrwt beam="2">  1       -2 0.82029898E-01 0.18276581E+04</pdfrwt>
<totfact> 0.14334372E+01</totfact>
</mgrwt>
</event>
<event>
12    2  0.3751044E-008  0.1691303E+04  0.7818608E-02  0.8766340E-01
          1   -1    0    0  501    0  0.00000000000E+00  0.00000000000E+00  0.62455896205E+03  0.62455896205E+03  0.00000000000E+00 0. -1.
         -1   -1    0    0    0  501 -0.00000000000E+00 -0.00000000000E+00 -0.11450103164E+04  0.11450103164E+04  0.00000000000E+00 0.  1.
         23    2    1    2    0    0 -0.37751614149E+03 -0.46041154820E+03 -0.24822615814E+03  0.65136462792E+03  0.90346123975E+02 0.  0.
        254    2    1    2    0    0  0.37751614149E+03  0.46041154820E+03 -0.27222519618E+03  0.11182046505E+04  0.90651963695E+03 0.  0.
         23    2    4    4    0    0 -0.11500488058E+02  0.46358890847E+03  0.18870361715E+03  0.50856943264E+03  0.89369320285E+02 0.  0.
         23    2    4    4    0    0  0.38901662954E+03 -0.31773602648E+01 -0.46092881333E+03  0.60963521787E+03  0.88632354284E+02 0.  0.
          3    1    3    3  502    0 -0.14147492306E+03 -0.14212615065E+03 -0.12535609065E+03  0.23649343758E+03  0.00000000000E+00 0. -1.
         -3    1    3    3    0  502 -0.23604121842E+03 -0.31828539755E+03 -0.12287006749E+03  0.41487119034E+03  0.00000000000E+00 0.  1.
         11    1    5    5    0    0 -0.96431347551E+01  0.46102629015E+03  0.19566514922E+03  0.50092223036E+03  0.00000000000E+00 0. -1.
        -11    1    5    5    0    0 -0.18573533025E+01  0.25626183199E+01 -0.69615320641E+01  0.76472022742E+01  0.00000000000E+00 0.  1.
          4    1    6    6  503    0  0.35615661092E+03  0.21990185543E+02 -0.40070192130E+03  0.53655673465E+03  0.00000000000E+00 0. -1.
         -4    1    6    6    0  503  0.32860018620E+02 -0.25167545807E+02 -0.60226892029E+02  0.73078483216E+02  0.00000000000E+00 0.  1.
<mgrwt>
<rscale>  0 0.16913030E+04</rscale>
<asrwt>0</asrwt>
<pdfrwt beam="1">  1        1 0.96085994E-01 0.16913030E+04</pdfrwt>
<pdfrwt beam="2">  1       -1 0.17615543E+00 0.16913030E+04</pdfrwt>
<totfact> 0.68242833E+00</totfact>
</mgrwt>
</event>
<event>
12    2  0.3751044E-008  0.3017870E+04  0.7818608E-02  0.8238646E-01
          2   -1    0    0  501    0  0.00000000000E+00  0.00000000000E+00  0.35145596477E+04  0.35145596477E+04  0.00000000000E+00 0. -1.
         -2   -1    0    0    0  501 -0.00000000000E+00 -0.00000000000E+00 -0.64784366846E+03  0.64784366846E+03  0.00000000000E+00 0.  1.
         23    2    1    2    0    0 -0.35433964337E+03  0.99698267411E+03  0.89515141079E+02  0.10663893066E+04  0.98194487998E+02 0.  0.
        254    2    1    2    0    0  0.35433964337E+03 -0.99698267411E+03  0.27772008382E+04  0.30960140096E+04  0.86771378714E+03 0.  0.
         23    2    4    4    0    0  0.58294188251E+03 -0.53195581544E+03  0.12559376912E+04  0.14864003384E+04  0.95959647827E+02 0.  0.
         23    2    4    4    0    0 -0.22860223914E+03 -0.46502685866E+03  0.15212631470E+04  0.16096136711E+04  0.90031354388E+02 0.  0.
          2    1    3    3  502    0 -0.37456712780E+01  0.25456511017E+02  0.17324663100E+02  0.31019477075E+02  0.00000000000E+00 0. -1.
         -2    1    3    3    0  502 -0.35059397209E+03  0.97152616309E+03  0.72190477979E+02  0.10353698296E+04  0.00000000000E+00 0.  1.
         11    1    5    5    0    0  0.33377484348E+03 -0.36629178969E+03  0.79992841495E+03  0.94098926156E+03  0.00000000000E+00 0. -1.
        -11    1    5    5    0    0  0.24916703903E+03 -0.16566402575E+03  0.45600927621E+03  0.54541107686E+03  0.00000000000E+00 0.  1.
          3    1    6    6  503    0 -0.14626716615E+03 -0.20061014826E+03  0.67685991767E+03  0.72095621478E+03  0.00000000000E+00 0. -1.
         -3    1    6    6    0  503 -0.82335072991E+02 -0.26441671040E+03  0.84440322937E+03  0.88865745636E+03  0.00000000000E+00 0.  1.
<mgrwt>
<rscale>  0 0.30178703E+04</rscale>
<asrwt>0</asrwt>
<pdfrwt beam="1">  1        2 0.54070147E+00 0.30178703E+04</pdfrwt>
<pdfrwt beam="2">  1       -2 0.99668259E-01 0.30178703E+04</pdfrwt>
<totfact> 0.56460369E-01</totfact>
</mgrwt>
</event>
<event>
12    2  0.3751044E-008  0.1657160E+04  0.7818608E-02  0.8786182E-01
         -2   -1    0    0    0  501 -0.00000000000E+00  0.00000000000E+00  0.44250533654E+03  0.44250533654E+03  0.00000000000E+00 0. -1.
          2   -1    0    0  501    0  0.00000000000E+00 -0.00000000000E+00 -0.15514953078E+04  0.15514953078E+04  0.00000000000E+00 0.  1.
         23    2    1    2    0    0 -0.49570640825E+02 -0.32499017025E+03 -0.96201963325E+03  0.10206219967E+04  0.90064566606E+02 0.  0.
        254    2    1    2    0    0  0.49570640825E+02  0.32499017025E+03 -0.14697033802E+03  0.97337864767E+03  0.90431734048E+03 0.  0.
         23    2    4    4    0    0 -0.12232767426E+01 -0.10397684179E+03 -0.42801746872E+03  0.44996811757E+03  0.91976482148E+02 0.  0.
         23    2    4    4    0    0  0.50793917568E+02  0.42896701204E+03  0.28104713070E+03  0.52341053010E+03  0.91533457633E+02 0.  0.
          2    1    3    3  502    0  0.26249626513E+02 -0.75478522328E+02 -0.21213890540E+03  0.22669134392E+03  0.00000000000E+00 0. -1.
         -2    1    3    3    0  502 -0.75820267338E+02 -0.24951164792E+03 -0.74988072785E+03  0.79393065276E+03  0.00000000000E+00 0.  1.
         11    1    5    5    0    0  0.22652262322E+02 -0.10077332202E+03 -0.25255456528E+03  0.27285929682E+03  0.00000000000E+00 0. -1.
        -11    1    5    5    0    0 -0.23875539064E+02 -0.32035197774E+01 -0.17546290344E+03  0.17710882075E+03  0.00000000000E+00 0.  1.
          4    1    6    6  503    0  0.14864975963E+02  0.35557464195E+03  0.25439192735E+03  0.43745805081E+03  0.00000000000E+00 0.  1.
         -4    1    6    6    0  503  0.35928941605E+02  0.73392370087E+02  0.26655203342E+02  0.85952479296E+02  0.00000000000E+00 0. -1.
<mgrwt>
<rscale>  0 0.16571602E+04</rscale>
<asrwt>0</asrwt>
<pdfrwt beam="1">  1        2 0.23869158E+00 0.16571602E+04</pdfrwt>
<pdfrwt beam="2">  1       -2 0.68077744E-01 0.16571602E+04</pdfrwt>
<totfact> 0.22388683E+01</totfact>
</mgrwt>
</event>
<event>
12    2  0.3751044E-008  0.2404305E+04  0.7818608E-02  0.8437894E-01
         -2   -1    0    0    0  501 -0.00000000000E+00  0.00000000000E+00  0.92922513634E+03  0.92922513634E+03  0.00000000000E+00 0.  1.
          2   -1    0    0  501    0  0.00000000000E+00 -0.00000000000E+00 -0.15552423732E+04  0.15552423732E+04  0.00000000000E+00 0. -1.
         23    2    1    2    0    0 -0.77684573266E+03 -0.23730342670E+03  0.38618185866E+03  0.90409009137E+03  0.91870869612E+02 0.  0.
        254    2    1    2    0    0  0.77684573266E+03  0.23730342670E+03 -0.10121990955E+04  0.15803774182E+04  0.90180018089E+03 0.  0.
         23    2    4    4    0    0  0.68549703053E+03  0.39571503400E+03 -0.11005869057E+04  0.13586870511E+04  0.90787658464E+02 0.  0.
         23    2    4    4    0    0  0.91348702125E+02 -0.15841160731E+03  0.88387810163E+02  0.22169036705E+03  0.88856013580E+02 0.  0.
          1    1    3    3  502    0 -0.15152144149E+03 -0.83182341176E+02  0.95678055889E+02  0.19756603831E+03  0.00000000000E+00 0. -1.
         -1    1    3    3    0  502 -0.62532429117E+03 -0.15412108552E+03  0.29050380277E+03  0.70652405306E+03  0.00000000000E+00 0.  1.
         11    1    5    5    0    0  0.48746630415E+03  0.23265208455E+03 -0.73984650344E+03  0.91603670166E+03  0.00000000000E+00 0. -1.
        -11    1    5    5    0    0  0.19803072638E+03  0.16306294945E+03 -0.36074040225E+03  0.44265034947E+03  0.00000000000E+00 0.  1.
          3    1    6    6  503    0  0.42477217754E+02 -0.10154172515E+03  0.96353933599E+02  0.14628436859E+03  0.00000000000E+00 0. -1.
         -3    1    6    6    0  503  0.48871484371E+02 -0.56869882161E+02 -0.79661234365E+01  0.75405998463E+02  0.00000000000E+00 0.  1.
<mgrwt>
<rscale>  0 0.24043047E+04</rscale>
<asrwt>0</asrwt>
<pdfrwt beam="1">  1        2 0.23926806E+00 0.24043047E+04</pdfrwt>
<pdfrwt beam="2">  1       -2 0.14295771E+00 0.24043047E+04</pdfrwt>
<totfact> 0.36128548E+00</totfact>
</mgrwt>
</event>
<event>
12    2  0.3751044E-008  0.2283286E+04  0.7818608E-02  0.8484541E-01
         -1   -1    0    0    0  501 -0.00000000000E+00  0.00000000000E+00  0.97236134480E+03  0.97236134480E+03  0.00000000000E+00 0.  1.
          1   -1    0    0  501    0  0.00000000000E+00 -0.00000000000E+00 -0.13403952975E+04  0.13403952975E+04  0.00000000000E+00 0. -1.
         23    2    1    2    0    0 -0.17678561050E+03  0.23276235126E+03  0.77087474810E+03  0.82968018143E+03  0.93219429075E+02 0.  0.
        254    2    1    2    0    0  0.17678561050E+03 -0.23276235126E+03 -0.11389087008E+04  0.14830764608E+04  0.90386464460E+03 0.  0.
         23    2    4    4    0    0  0.34386380766E+03 -0.50418143676E+03 -0.71396627436E+03  0.94354448766E+03  0.89928415398E+02 0.  0.
         23    2    4    4    0    0 -0.16707819716E+03  0.27141908550E+03 -0.42494242640E+03  0.53953197317E+03  0.94526400401E+02 0.  0.
          2    1    3    3  502    0 -0.75603667792E+02  0.43594969549E+02  0.16034356598E+03  0.18255545761E+03  0.00000000000E+00 0. -1.
         -2    1    3    3    0  502 -0.10118194271E+03  0.18916738171E+03  0.61053118212E+03  0.64712472382E+03  0.00000000000E+00 0.  1.
         11    1    5    5    0    0  0.34419797250E+03 -0.46936999100E+03 -0.67253649281E+03  0.88943002360E+03  0.00000000000E+00 0. -1.
        -11    1    5    5    0    0 -0.33416483844E+00 -0.34811445759E+02 -0.41429781548E+02  0.54114464066E+02  0.00000000000E+00 0.  1.
          1    1    6    6  503    0 -0.74363447684E+02  0.70983330556E+02 -0.81388867354E+02  0.13112094912E+03  0.00000000000E+00 0. -1.
         -1    1    6    6    0  503 -0.92714749475E+02  0.20043575494E+03 -0.34355355905E+03  0.40841102405E+03  0.00000000000E+00 0.  1.
<mgrwt>
<rscale>  0 0.22832859E+04</rscale>
<asrwt>0</asrwt>
<pdfrwt beam="1">  1        1 0.20621466E+00 0.22832859E+04</pdfrwt>
<pdfrwt beam="2">  1       -1 0.14959405E+00 0.22832859E+04</pdfrwt>
<totfact> 0.26933112E+00</totfact>
</mgrwt>
</event>
<event>
12    2  0.3751044E-008  0.1609658E+04  0.7818608E-02  0.8814637E-01
         -3   -1    0    0    0  501 -0.00000000000E+00  0.00000000000E+00  0.61965290388E+03  0.61965290388E+03  0.00000000000E+00 0.  1.
          3   -1    0    0  501    0  0.00000000000E+00 -0.00000000000E+00 -0.10453425777E+04  0.10453425777E+04  0.00000000000E+00 0. -1.
         23    2    1    2    0    0  0.81208533114E+02  0.53477515272E+03 -0.19545950491E+03  0.58159258865E+03  0.86407356689E+02 0.  0.
        254    2    1    2    0    0 -0.81208533114E+02 -0.53477515272E+03 -0.23023016890E+03  0.10834028929E+04  0.91004209129E+03 0.  0.
         23    2    4    4    0    0  0.35831979978E+03 -0.74978783654E+02  0.56628288990E+02  0.37959770528E+03  0.82902097841E+02 0.  0.
         23    2    4    4    0    0 -0.43952833290E+03 -0.45979636907E+03 -0.28685845789E+03  0.70380518765E+03  0.91957114332E+02 0.  0.
          2    1    3    3  502    0  0.39205568812E+02  0.24540295493E+03 -0.13567594157E+03  0.28313892003E+03  0.00000000000E+00 0. -1.
         -2    1    3    3    0  502  0.42002964302E+02  0.28937219779E+03 -0.59783563336E+02  0.29845366861E+03  0.00000000000E+00 0.  1.
         11    1    5    5    0    0  0.68658134237E+02 -0.25041573494E+02  0.44182314792E+02  0.85399629626E+02  0.00000000000E+00 0. -1.
        -11    1    5    5    0    0  0.28966166555E+03 -0.49937210160E+02  0.12445974197E+02  0.29419807565E+03  0.00000000000E+00 0.  1.
          3    1    6    6  503    0 -0.40403491391E+03 -0.42491766368E+03 -0.28960880337E+03  0.65396673582E+03  0.00000000000E+00 0. -1.
         -3    1    6    6    0  503 -0.35493418989E+02 -0.34878705387E+02  0.27503454836E+01  0.49838451835E+02  0.00000000000E+00 0.  1.
<mgrwt>
<rscale>  0 0.16096578E+04</rscale>
<asrwt>0</asrwt>
<pdfrwt beam="1">  1        3 0.16082193E+00 0.16096578E+04</pdfrwt>
<pdfrwt beam="2">  1       -3 0.95331217E-01 0.16096578E+04</pdfrwt>
<totfact> 0.66035175E-01</totfact>
</mgrwt>
</event>
<event>
12    2  0.3751044E-008  0.2027118E+04  0.7818608E-02  0.8594046E-01
          1   -1    0    0  501    0  0.00000000000E+00  0.00000000000E+00  0.24343929928E+04  0.24343929928E+04  0.00000000000E+00 0.  1.
         -1   -1    0    0    0  501 -0.00000000000E+00 -0.00000000000E+00 -0.42199497433E+03  0.42199497433E+03  0.00000000000E+00 0. -1.
         23    2    1    2    0    0 -0.40736891312E+03  0.93685692120E+02  0.17898069502E+04  0.18401963739E+04  0.90483896427E+02 0.  0.
        254    2    1    2    0    0  0.40736891312E+03 -0.93685692120E+02  0.22259106834E+03  0.10161915932E+04  0.89909517303E+03 0.  0.
         23    2    4    4    0    0  0.63847536150E+03  0.95805619770E+02  0.37509264152E+02  0.65308274796E+03  0.90997949222E+02 0.  0.
         23    2    4    4    0    0 -0.23110644838E+03 -0.18949131189E+03  0.18508180419E+03  0.36310884528E+03  0.90970388111E+02 0.  0.
          4    1    3    3  502    0  0.40610424853E+01  0.44384962185E+01  0.15486137745E+02  0.16613632264E+02  0.00000000000E+00 0. -1.
         -4    1    3    3    0  502 -0.41142995561E+03  0.89247195902E+02  0.17743208124E+04  0.18235827417E+04  0.00000000000E+00 0.  1.
         11    1    5    5    0    0  0.73801264008E+02  0.12598288862E+02 -0.24919639139E+02  0.78907109098E+02  0.00000000000E+00 0.  1.
        -11    1    5    5    0    0  0.56467409749E+03  0.83207330908E+02  0.62428903291E+02  0.57417563886E+03  0.00000000000E+00 0. -1.
          3    1    6    6  503    0 -0.21665526828E+03 -0.13609223223E+03  0.13939110564E+03  0.29135971115E+03  0.00000000000E+00 0. -1.
         -3    1    6    6    0  503 -0.14451180094E+02 -0.53399079660E+02  0.45690698543E+02  0.71749134127E+02  0.00000000000E+00 0.  1.
<mgrwt>
<rscale>  0 0.20271178E+04</rscale>
<asrwt>0</asrwt>
<pdfrwt beam="1">  1        1 0.37452199E+00 0.20271178E+04</pdfrwt>
<pdfrwt beam="2">  1       -1 0.64922305E-01 0.20271178E+04</pdfrwt>
<totfact> 0.33497121E+00</totfact>
</mgrwt>
</event>
<event>
12    2  0.3751044E-008  0.1503276E+04  0.7818608E-02  0.8882277E-01
         -4   -1    0    0    0  501 -0.00000000000E+00  0.00000000000E+00  0.15006099686E+04  0.15006099686E+04  0.00000000000E+00 0.  1.
          4   -1    0    0  501    0  0.00000000000E+00 -0.00000000000E+00 -0.37648678469E+03  0.37648678469E+03  0.00000000000E+00 0. -1.
         23    2    1    2    0    0 -0.26800057740E+03  0.42385024456E+03  0.46427054417E+03  0.68941280952E+03  0.90937035577E+02 0.  0.
        254    2    1    2    0    0  0.26800057740E+03 -0.42385024456E+03  0.65985263973E+03  0.11876839438E+04  0.85071399706E+03 0.  0.
         23    2    4    4    0    0 -0.17924543847E+03 -0.19951987135E+03 -0.74387054847E+02  0.29425549308E+03  0.95476463085E+02 0.  0.
         23    2    4    4    0    0  0.44724601587E+03 -0.22433037321E+03  0.73423969458E+03  0.89342845068E+03  0.93559351935E+02 0.  0.
          4    1    3    3  502    0 -0.20789082498E+02  0.12408707929E+02  0.49228020104E+02  0.54859456313E+02  0.00000000000E+00 0. -1.
         -4    1    3    3    0  502 -0.24721149490E+03  0.41144153664E+03  0.41504252406E+03  0.63455335320E+03  0.00000000000E+00 0.  1.
         11    1    5    5    0    0 -0.17515024656E+03 -0.13937922763E+03 -0.66189682178E+02  0.23342076170E+03  0.00000000000E+00 0.  1.
        -11    1    5    5    0    0 -0.40951919113E+01 -0.60140643721E+02 -0.81973726696E+01  0.60834731385E+02  0.00000000000E+00 0. -1.
          2    1    6    6  503    0  0.31008512589E+03 -0.11592643006E+03  0.52632762442E+03  0.62178170664E+03  0.00000000000E+00 0. -1.
         -2    1    6    6    0  503  0.13716088998E+03 -0.10840394315E+03  0.20791207016E+03  0.27164674404E+03  0.00000000000E+00 0.  1.
<mgrwt>
<rscale>  0 0.15032762E+04</rscale>
<asrwt>0</asrwt>
<pdfrwt beam="1">  1        4 0.57921045E-01 0.15032762E+04</pdfrwt>
<pdfrwt beam="2">  1       -4 0.23086307E+00 0.15032762E+04</pdfrwt>
<totfact> 0.45530520E-01</totfact>
</mgrwt>
</event>
<event>
12    2  0.3751044E-008  0.1377363E+04  0.7818608E-02  0.8970369E-01
          1   -1    0    0  501    0  0.00000000000E+00  0.00000000000E+00  0.15884371286E+04  0.15884371286E+04  0.00000000000E+00 0. -1.
         -1   -1    0    0    0  501 -0.00000000000E+00 -0.00000000000E+00 -0.29858417801E+03  0.29858417801E+03  0.00000000000E+00 0.  1.
         23    2    1    2    0    0 -0.29285050004E+03  0.88365945697E+02  0.52946706437E+02  0.32355955457E+03  0.91200196817E+02 0.  0.
        254    2    1    2    0    0  0.29285050004E+03 -0.88365945697E+02  0.12369062442E+04  0.15634617521E+04  0.90603843049E+03 0.  0.
         23    2    4    4    0    0  0.32888611330E+00 -0.25214213020E+03  0.11806131518E+04  0.12110022739E+04  0.95411378788E+02 0.  0.
         23    2    4    4    0    0  0.29252161393E+03  0.16377618450E+03  0.56293092331E+02  0.35245947811E+03  0.93098003412E+02 0.  0.
          1    1    3    3  502    0 -0.41890275592E+02 -0.11696267640E+02  0.29113518999E+02  0.52337317990E+02  0.00000000000E+00 0. -1.
         -1    1    3    3    0  502 -0.25096022445E+03  0.10006221334E+03  0.23833187439E+02  0.27122223658E+03  0.00000000000E+00 0.  1.
         11    1    5    5    0    0 -0.46744259226E+02 -0.10743220494E+03  0.53986447259E+03  0.55243131084E+03  0.00000000000E+00 0. -1.
        -11    1    5    5    0    0  0.47073145339E+02 -0.14470992526E+03  0.64074867925E+03  0.65857096310E+03  0.00000000000E+00 0.  1.
          4    1    6    6  503    0  0.28440930157E+03  0.17337143803E+03  0.46061814841E+02  0.33625585070E+03  0.00000000000E+00 0.  1.
         -4    1    6    6    0  503  0.81123123582E+01 -0.95952535292E+01  0.10231277490E+02  0.16203627407E+02  0.00000000000E+00 0. -1.
<mgrwt>
<rscale>  0 0.13773630E+04</rscale>
<asrwt>0</asrwt>
<pdfrwt beam="1">  1        1 0.24437494E+00 0.13773630E+04</pdfrwt>
<pdfrwt beam="2">  1       -1 0.45936028E-01 0.13773630E+04</pdfrwt>
<totfact> 0.26157573E+01</totfact>
</mgrwt>
</event>
<event>
12    2  0.3751044E-008  0.1533994E+04  0.7818608E-02  0.8862157E-01
          2   -1    0    0  501    0  0.00000000000E+00  0.00000000000E+00  0.27414267964E+04  0.27414267964E+04  0.00000000000E+00 0. -1.
         -2   -1    0    0    0  501 -0.00000000000E+00 -0.00000000000E+00 -0.21459066037E+03  0.21459066037E+03  0.00000000000E+00 0.  1.
         23    2    1    2    0    0  0.13345361023E+03 -0.40344459286E+03  0.13403807067E+04  0.14088574623E+04  0.87644191677E+02 0.  0.
        254    2    1    2    0    0 -0.13345361023E+03  0.40344459286E+03  0.11864554293E+04  0.15471599946E+04  0.89746875009E+03 0.  0.
         23    2    4    4    0    0 -0.17638490907E+03  0.32080848329E+03  0.24546070883E+02  0.37791156066E+03  0.90470542086E+02 0.  0.
         23    2    4    4    0    0  0.42931298839E+02  0.82636109572E+02  0.11619093584E+04  0.11692484339E+04  0.91851618996E+02 0.  0.
          4    1    3    3  502    0  0.35924018054E+02 -0.11362210167E+03  0.51621091253E+03  0.52978696028E+03  0.00000000000E+00 0. -1.
         -4    1    3    3    0  502  0.97529592173E+02 -0.28982249120E+03  0.82416979421E+03  0.87907050198E+03  0.00000000000E+00 0.  1.
         11    1    5    5    0    0 -0.26769082752E+02  0.29991161664E+02  0.31057696302E+02  0.50799941623E+02  0.00000000000E+00 0.  1.
        -11    1    5    5    0    0 -0.14961582632E+03  0.29081732163E+03 -0.65116254189E+01  0.32711161904E+03  0.00000000000E+00 0. -1.
          1    1    6    6  503    0  0.42932625151E+02  0.95258302760E+02  0.76089936887E+03  0.76803984539E+03  0.00000000000E+00 0. -1.
         -1    1    6    6    0  503 -0.13263117115E-02 -0.12622193188E+02  0.40100998956E+03  0.40120858851E+03  0.00000000000E+00 0.  1.
<mgrwt>
<rscale>  0 0.15339942E+04</rscale>
<asrwt>0</asrwt>
<pdfrwt beam="1">  1        2 0.42175794E+00 0.15339942E+04</pdfrwt>
<pdfrwt beam="2">  1       -2 0.33013950E-01 0.15339942E+04</pdfrwt>
<totfact> 0.20790134E+01</totfact>
</mgrwt>
</event>
<event>
12    2  0.3751044E-008  0.2120162E+04  0.7818608E-02  0.8552413E-01
          1   -1    0    0  501    0  0.00000000000E+00  0.00000000000E+00  0.63929636108E+03  0.63929636108E+03  0.00000000000E+00 0. -1.
         -1   -1    0    0    0  501 -0.00000000000E+00 -0.00000000000E+00 -0.17578259577E+04  0.17578259577E+04  0.00000000000E+00 0.  1.
         23    2    1    2    0    0 -0.66709984703E+03 -0.35920936094E+03 -0.95464957661E+03  0.12220471288E+04  0.89385681572E+02 0.  0.
        254    2    1    2    0    0  0.66709984703E+03  0.35920936094E+03 -0.16388001998E+03  0.11750751899E+04  0.88311464156E+03 0.  0.
         23    2    4    4    0    0  0.38614701506E+03  0.89777695202E+02  0.34130066753E+03  0.53068336758E+03  0.89270035131E+02 0.  0.
         23    2    4    4    0    0  0.28095283197E+03  0.26943166574E+03 -0.50518068751E+03  0.64439182235E+03  0.92224602904E+02 0.  0.
          1    1    3    3  502    0 -0.51835529012E+03 -0.29436266355E+03 -0.80193479767E+03  0.99922019806E+03  0.00000000000E+00 0. -1.
         -1    1    3    3    0  502 -0.14874455691E+03 -0.64846697388E+02 -0.15271477894E+03  0.22282693077E+03  0.00000000000E+00 0.  1.
         11    1    5    5    0    0  0.88719639104E+02  0.17346449372E+02  0.13147624221E+03  0.15955587088E+03  0.00000000000E+00 0.  1.
        -11    1    5    5    0    0  0.29742737596E+03  0.72431245830E+02  0.20982442532E+03  0.37112749669E+03  0.00000000000E+00 0. -1.
          1    1    6    6  503    0  0.18537018389E+03  0.11415755195E+03 -0.27335639811E+03  0.34945353358E+03  0.00000000000E+00 0. -1.
         -1    1    6    6    0  503  0.95582648084E+02  0.15527411379E+03 -0.23182428940E+03  0.29493828877E+03  0.00000000000E+00 0.  1.
<mgrwt>
<rscale>  0 0.21201620E+04</rscale>
<asrwt>0</asrwt>
<pdfrwt beam="1">  1        1 0.98353285E-01 0.21201620E+04</pdfrwt>
<pdfrwt beam="2">  1       -1 0.27043477E+00 0.21201620E+04</pdfrwt>
<totfact> 0.14712840E+00</totfact>
</mgrwt>
</event>
<event>
12    2  0.3751044E-008  0.1927199E+04  0.7818608E-02  0.8641435E-01
         -1   -1    0    0    0  501 -0.00000000000E+00  0.00000000000E+00  0.95295359220E+03  0.95295359220E+03  0.00000000000E+00 0.  1.
          1   -1    0    0  501    0  0.00000000000E+00 -0.00000000000E+00 -0.97436482302E+03  0.97436482302E+03  0.00000000000E+00 0. -1.
         23    2    1    2    0    0 -0.17746976032E+03 -0.67016867703E+03 -0.26828739183E+03  0.74909586095E+03  0.92438697412E+02 0.  0.
        254    2    1    2    0    0  0.17746976032E+03  0.67016867703E+03  0.24687616101E+03  0.11782225543E+04  0.92012986966E+03 0.  0.
         23    2    4    4    0    0  0.35627736206E+01  0.73865919795E+03  0.46491692858E+03  0.87765508262E+03  0.92198641577E+02 0.  0.
         23    2    4    4    0    0  0.17390698670E+03 -0.68490520919E+02 -0.21804076757E+03  0.30056747165E+03  0.88681662237E+02 0.  0.
          2    1    3    3  502    0 -0.14844726690E+03 -0.42028015709E+03 -0.14334273853E+03  0.46820843882E+03  0.00000000000E+00 0. -1.
         -2    1    3    3    0  502 -0.29022493414E+02 -0.24988851994E+03 -0.12494465330E+03  0.28088742213E+03  0.00000000000E+00 0.  1.
         11    1    5    5    0    0 -0.31290156287E+02  0.34767263923E+03  0.25679585695E+03  0.43335833913E+03  0.00000000000E+00 0.  1.
        -11    1    5    5    0    0  0.34852929908E+02  0.39098655872E+03  0.20812107163E+03  0.44429674350E+03  0.00000000000E+00 0. -1.
          4    1    6    6  503    0  0.75800378641E+01  0.15896035847E+02 -0.35328219199E+02  0.39474346118E+02  0.00000000000E+00 0. -1.
         -4    1    6    6    0  503  0.16632694883E+03 -0.84386556766E+02 -0.18271254837E+03  0.26109312554E+03  0.00000000000E+00 0.  1.
<mgrwt>
<rscale>  0 0.19271995E+04</rscale>
<asrwt>0</asrwt>
<pdfrwt beam="1">  1        1 0.14990228E+00 0.19271995E+04</pdfrwt>
<pdfrwt beam="2">  1       -1 0.14660825E+00 0.19271995E+04</pdfrwt>
<totfact> 0.54898933E+00</totfact>
</mgrwt>
</event>
<event>
12    2  0.3751044E-008  0.1318672E+04  0.7818608E-02  0.9014888E-01
         -1   -1    0    0    0  501 -0.00000000000E+00  0.00000000000E+00  0.23653473143E+03  0.23653473143E+03  0.00000000000E+00 0.  1.
          1   -1    0    0  501    0  0.00000000000E+00 -0.00000000000E+00 -0.18378856765E+04  0.18378856765E+04  0.00000000000E+00 0. -1.
         23    2    1    2    0    0  0.94820060034E+02 -0.11192239165E+03 -0.91300363008E+03  0.92955462108E+03  0.94755999733E+02 0.  0.
        254    2    1    2    0    0 -0.94820060034E+02  0.11192239165E+03 -0.68834731496E+03  0.11448657868E+04  0.90298293354E+03 0.  0.
         23    2    4    4    0    0 -0.17360141189E+03 -0.15204295594E+03 -0.79689598009E+03  0.83478100193E+03  0.92528954554E+02 0.  0.
         23    2    4    4    0    0  0.78781351854E+02  0.26396534759E+03  0.10854866513E+03  0.31008478489E+03  0.92117072194E+02 0.  0.
          3    1    3    3  502    0  0.72969807038E+02 -0.54461169460E+02 -0.74708776376E+03  0.75261593026E+03  0.00000000000E+00 0. -1.
         -3    1    3    3    0  502  0.21850252996E+02 -0.57461222188E+02 -0.16591586632E+03  0.17693869082E+03  0.00000000000E+00 0.  1.
         11    1    5    5    0    0 -0.16783332760E+02 -0.65893425634E+02 -0.26560569510E+03  0.27417149573E+03  0.00000000000E+00 0. -1.
        -11    1    5    5    0    0 -0.15681807913E+03 -0.86149530306E+02 -0.53129028499E+03  0.56060950620E+03  0.00000000000E+00 0.  1.
          1    1    6    6  503    0 -0.19549968205E+02  0.29309896922E+02  0.21012753884E+02  0.41022032375E+02  0.00000000000E+00 0. -1.
         -1    1    6    6    0  503  0.98331320058E+02  0.23465545067E+03  0.87535911249E+02  0.26906275251E+03  0.00000000000E+00 0.  1.
<mgrwt>
<rscale>  0 0.13186717E+04</rscale>
<asrwt>0</asrwt>
<pdfrwt beam="1">  1        1 0.28275163E+00 0.13186717E+04</pdfrwt>
<pdfrwt beam="2">  1       -1 0.36389960E-01 0.13186717E+04</pdfrwt>
<totfact> 0.27268235E+01</totfact>
</mgrwt>
</event>
<event>
12    2  0.3751044E-008  0.3646132E+04  0.7818608E-02  0.8080006E-01
         -1   -1    0    0    0  501 -0.00000000000E+00  0.00000000000E+00  0.12494294365E+04  0.12494294365E+04  0.00000000000E+00 0.  1.
          1   -1    0    0  501    0  0.00000000000E+00 -0.00000000000E+00 -0.26600701801E+04  0.26600701801E+04  0.00000000000E+00 0. -1.
         23    2    1    2    0    0 -0.15520815457E+04 -0.64838011548E+03 -0.10008415371E+04  0.19594156587E+04  0.90950768650E+02 0.  0.
        254    2    1    2    0    0  0.15520815457E+04  0.64838011548E+03 -0.40979920651E+03  0.19500839579E+04  0.89751777389E+03 0.  0.
         23    2    4    4    0    0  0.93700435585E+03  0.36504514473E+03  0.20510394353E+03  0.10303344637E+04  0.91029439170E+02 0.  0.
         23    2    4    4    0    0  0.61507718986E+03  0.28333497074E+03 -0.61490315004E+03  0.91974949421E+03  0.96096789960E+02 0.  0.
          1    1    3    3  502    0 -0.13563978112E+04 -0.57270922874E+03 -0.90935868831E+03  0.17305328968E+04  0.00000000000E+00 0. -1.
         -1    1    3    3    0  502 -0.19568373454E+03 -0.75670886736E+02 -0.91482848829E+02  0.22888276190E+03  0.00000000000E+00 0.  1.
         11    1    5    5    0    0  0.53062573376E+03  0.16704234828E+03  0.86473714119E+02  0.56297825773E+03  0.00000000000E+00 0. -1.
        -11    1    5    5    0    0  0.40637862209E+03  0.19800279646E+03  0.11863022941E+03  0.46735620594E+03  0.00000000000E+00 0.  1.
          1    1    6    6  503    0  0.17661175625E+02  0.27138788330E+02 -0.43836712913E+02  0.54498517003E+02  0.00000000000E+00 0. -1.
         -1    1    6    6    0  503  0.59741601424E+03  0.25619618241E+03 -0.57106643713E+03  0.86525097721E+03  0.00000000000E+00 0.  1.
<mgrwt>
<rscale>  0 0.36461322E+04</rscale>
<asrwt>0</asrwt>
<pdfrwt beam="1">  1        1 0.40924156E+00 0.36461322E+04</pdfrwt>
<pdfrwt beam="2">  1       -1 0.19221992E+00 0.36461322E+04</pdfrwt>
<totfact> 0.14383167E-01</totfact>
</mgrwt>
</event>
<event>
12    2  0.3751044E-008  0.3257406E+04  0.7818608E-02  0.8173819E-01
         -2   -1    0    0    0  501 -0.00000000000E+00  0.00000000000E+00  0.14135783199E+04  0.14135783199E+04  0.00000000000E+00 0.  1.
          2   -1    0    0  501    0  0.00000000000E+00 -0.00000000000E+00 -0.18765662865E+04  0.18765662865E+04  0.00000000000E+00 0. -1.
         23    2    1    2    0    0  0.26102960892E+03 -0.36934064580E+03  0.12309602367E+04  0.13145738407E+04  0.91062116619E+02 0.  0.
        254    2    1    2    0    0 -0.26102960892E+03  0.36934064580E+03 -0.16939482033E+04  0.19755707657E+04  0.91042317940E+03 0.  0.
         23    2    4    4    0    0  0.88277084794E+02 -0.59746068396E+02 -0.12544563425E+04  0.12628299457E+04  0.98571395325E+02 0.  0.
         23    2    4    4    0    0 -0.34930669372E+03  0.42908671419E+03 -0.43949186075E+03  0.71274082005E+03  0.93358482887E+02 0.  0.
          1    1    3    3  502    0 -0.56159718014E+01 -0.25983324280E+02  0.67544016132E+02  0.72586957472E+02  0.00000000000E+00 0. -1.
         -1    1    3    3    0  502  0.26664558073E+03 -0.34335732152E+03  0.11634162205E+04  0.12419868832E+04  0.00000000000E+00 0.  1.
         11    1    5    5    0    0  0.70045092318E+02 -0.81563536270E+02 -0.11330191806E+04  0.11381086894E+04  0.00000000000E+00 0. -1.
        -11    1    5    5    0    0  0.18231992476E+02  0.21817467873E+02 -0.12143716196E+03  0.12472125624E+03  0.00000000000E+00 0.  1.
          4    1    6    6  503    0 -0.20819647477E+03  0.31689856862E+03 -0.27173157951E+03  0.46648529045E+03  0.00000000000E+00 0. -1.
         -4    1    6    6    0  503 -0.14111021895E+03  0.11218814557E+03 -0.16776028124E+03  0.24625552960E+03  0.00000000000E+00 0.  1.
<mgrwt>
<rscale>  0 0.32574060E+04</rscale>
<asrwt>0</asrwt>
<pdfrwt beam="1">  1        2 0.28870250E+00 0.32574060E+04</pdfrwt>
<pdfrwt beam="2">  1       -2 0.21747359E+00 0.32574060E+04</pdfrwt>
<totfact> 0.67258284E-01</totfact>
</mgrwt>
</event>
<event>
12    2  0.3751044E-008  0.1625262E+04  0.7818608E-02  0.8805177E-01
         -2   -1    0    0    0  501 -0.00000000000E+00  0.00000000000E+00  0.20702032360E+03  0.20702032360E+03  0.00000000000E+00 0.  1.
          2   -1    0    0  501    0  0.00000000000E+00 -0.00000000000E+00 -0.31898752097E+04  0.31898752097E+04  0.00000000000E+00 0. -1.
         23    2    1    2    0    0  0.32664677131E+03  0.13752864232E+03 -0.13354229186E+03  0.38923424796E+03  0.89763664188E+02 0.  0.
        254    2    1    2    0    0 -0.32664677131E+03 -0.13752864232E+03 -0.28493125942E+04  0.30076612853E+04  0.89545067255E+03 0.  0.
         23    2    4    4    0    0 -0.60828139386E+03 -0.21957101993E+03 -0.20493765269E+04  0.21508510615E+04  0.89434070326E+02 0.  0.
         23    2    4    4    0    0  0.28163462255E+03  0.82042377610E+02 -0.79993606736E+03  0.85681022384E+03  0.90426962024E+02 0.  0.
          3    1    3    3  502    0  0.23865752654E+02 -0.10218057859E+01 -0.34273220584E+02  0.41776451333E+02  0.00000000000E+00 0. -1.
         -3    1    3    3    0  502  0.30278101865E+03  0.13855044811E+03 -0.99269071278E+02  0.34745779663E+03  0.00000000000E+00 0.  1.
         11    1    5    5    0    0 -0.74726483327E+02 -0.32278033640E+02 -0.17442630267E+03  0.19248494442E+03  0.00000000000E+00 0.  1.
        -11    1    5    5    0    0 -0.53355491053E+03 -0.18729298629E+03 -0.18749502242E+04  0.19583661171E+04  0.00000000000E+00 0. -1.
          4    1    6    6  503    0  0.27713413639E+03  0.69794628079E+02 -0.79086805912E+03  0.84092027362E+03  0.00000000000E+00 0. -1.
         -4    1    6    6    0  503  0.45004861620E+01  0.12247749531E+02 -0.90680082493E+01  0.15889950216E+02  0.00000000000E+00 0.  1.
<mgrwt>
<rscale>  0 0.16252618E+04</rscale>
<asrwt>0</asrwt>
<pdfrwt beam="1">  1        2 0.49074993E+00 0.16252618E+04</pdfrwt>
<pdfrwt beam="2">  1       -2 0.31849287E-01 0.16252618E+04</pdfrwt>
<totfact> 0.11637399E+01</totfact>
</mgrwt>
</event>
<event>
12    2  0.3751044E-008  0.1797083E+04  0.7818608E-02  0.8707852E-01
         -2   -1    0    0    0  501 -0.00000000000E+00  0.00000000000E+00  0.36582792936E+03  0.36582792936E+03  0.00000000000E+00 0.  1.
          2   -1    0    0  501    0  0.00000000000E+00 -0.00000000000E+00 -0.22069847715E+04  0.22069847715E+04  0.00000000000E+00 0. -1.
         23    2    1    2    0    0  0.93559546177E+02 -0.59384147727E+03 -0.27283770128E+03  0.66653119381E+03  0.91773265592E+02 0.  0.
        254    2    1    2    0    0 -0.93559546177E+02  0.59384147727E+03 -0.15683191408E+04  0.19062815070E+04  0.90160033701E+03 0.  0.
         23    2    4    4    0    0  0.10854570747E+03 -0.19882924454E+03 -0.23154376921E+03  0.33653919410E+03  0.91273616163E+02 0.  0.
         23    2    4    4    0    0 -0.20210525365E+03  0.79267072181E+03 -0.13367753716E+04  0.15697423129E+04  0.89157882610E+02 0.  0.
          1    1    3    3  502    0 -0.14153456347E+02 -0.42750315382E+02 -0.33532204539E+02  0.56145512136E+02  0.00000000000E+00 0. -1.
         -1    1    3    3    0  502  0.10771300252E+03 -0.55109116189E+03 -0.23930549674E+03  0.61038568167E+03  0.00000000000E+00 0.  1.
         11    1    5    5    0    0  0.38394229812E+02 -0.90186776001E+02 -0.16292904686E+03  0.19014112064E+03  0.00000000000E+00 0. -1.
        -11    1    5    5    0    0  0.70151477660E+02 -0.10864246854E+03 -0.68614722354E+02  0.14639807346E+03  0.00000000000E+00 0.  1.
          3    1    6    6  503    0 -0.11841425653E+03  0.43830568769E+03 -0.65736430588E+03  0.79891278789E+03  0.00000000000E+00 0. -1.
         -3    1    6    6    0  503 -0.83690997115E+02  0.35436503412E+03 -0.67941106573E+03  0.77082952502E+03  0.00000000000E+00 0.  1.
<mgrwt>
<rscale>  0 0.17970828E+04</rscale>
<asrwt>0</asrwt>
<pdfrwt beam="1">  1        2 0.33953612E+00 0.17970828E+04</pdfrwt>
<pdfrwt beam="2">  1       -2 0.56281220E-01 0.17970828E+04</pdfrwt>
<totfact> 0.14322862E+01</totfact>
</mgrwt>
</event>
<event>
12    2  0.3751044E-008  0.1312332E+04  0.7818608E-02  0.9019842E-01
         -2   -1    0    0    0  501 -0.00000000000E+00  0.00000000000E+00  0.25118603225E+03  0.25118603225E+03  0.00000000000E+00 0. -1.
          2   -1    0    0  501    0  0.00000000000E+00 -0.00000000000E+00 -0.17140845516E+04  0.17140845516E+04  0.00000000000E+00 0.  1.
         23    2    1    2    0    0 -0.24743990352E+03 -0.70725367197E+02 -0.62618121735E+02  0.27967030258E+03  0.89810164009E+02 0.  0.
        254    2    1    2    0    0  0.24743990352E+03  0.70725367197E+02 -0.14002803976E+04  0.16856002813E+04  0.90234945165E+03 0.  0.
         23    2    4    4    0    0 -0.21667478967E+03 -0.13369941213E+03 -0.10216309388E+03  0.28893666011E+03  0.90684058798E+02 0.  0.
         23    2    4    4    0    0  0.46411469319E+03  0.20442477933E+03 -0.12981173038E+04  0.13966636212E+04  0.91481132440E+02 0.  0.
          1    1    3    3  502    0 -0.19508018739E+03 -0.22660271356E+02 -0.21519415646E+02  0.19756733702E+03  0.00000000000E+00 0. -1.
         -1    1    3    3    0  502 -0.52359716131E+02 -0.48065095841E+02 -0.41098706089E+02  0.82102965560E+02  0.00000000000E+00 0.  1.
         11    1    5    5    0    0 -0.14895657536E+03 -0.82428661747E+02 -0.11147087076E+03  0.20349029620E+03  0.00000000000E+00 0. -1.
        -11    1    5    5    0    0 -0.67718214315E+02 -0.51270750386E+02  0.93077768778E+01  0.85446363911E+02  0.00000000000E+00 0.  1.
          1    1    6    6  503    0  0.46239090843E+03  0.19418745878E+03 -0.12878896094E+04  0.13820903615E+04  0.00000000000E+00 0. -1.
         -1    1    6    6    0  503  0.17237847590E+01  0.10237320554E+02 -0.10227694348E+02  0.14573259679E+02  0.00000000000E+00 0.  1.
<mgrwt>
<rscale>  0 0.13123324E+04</rscale>
<asrwt>0</asrwt>
<pdfrwt beam="1">  1        2 0.26370532E+00 0.13123324E+04</pdfrwt>
<pdfrwt beam="2">  1       -2 0.38644004E-01 0.13123324E+04</pdfrwt>
<totfact> 0.59668977E+01</totfact>
</mgrwt>
</event>
<event>
12    2  0.3751044E-008  0.1372273E+04  0.7818608E-02  0.8974137E-01
          2   -1    0    0  501    0  0.00000000000E+00  0.00000000000E+00  0.93722815931E+03  0.93722815931E+03  0.00000000000E+00 0. -1.
         -2   -1    0    0    0  501 -0.00000000000E+00 -0.00000000000E+00 -0.50231441522E+03  0.50231441522E+03  0.00000000000E+00 0.  1.
         23    2    1    2    0    0 -0.26889612428E+03 -0.14806509670E+03  0.37358949049E+03  0.49245160034E+03  0.93333127902E+02 0.  0.
        254    2    1    2    0    0  0.26889612428E+03  0.14806509670E+03  0.61324253604E+02  0.94709097418E+03  0.89386366454E+03 0.  0.
         23    2    4    4    0    0  0.37487066686E+03  0.62903691564E+02 -0.33723529234E+03  0.51636236407E+03  0.91747247090E+02 0.  0.
         23    2    4    4    0    0 -0.10597454257E+03  0.85161405136E+02  0.39855954595E+03  0.43072861011E+03  0.90522678375E+02 0.  0.
          3    1    3    3  502    0 -0.10611690490E+03 -0.56858659081E+02  0.21997224987E+03  0.25076182990E+03  0.00000000000E+00 0. -1.
         -3    1    3    3    0  502 -0.16277921938E+03 -0.91206437618E+02  0.15361724061E+03  0.24168977045E+03  0.00000000000E+00 0.  1.
         11    1    5    5    0    0  0.15431188410E+03  0.50407530323E+02 -0.19452377979E+03  0.25336254180E+03  0.00000000000E+00 0.  1.
        -11    1    5    5    0    0  0.22055878276E+03  0.12496161241E+02 -0.14271151256E+03  0.26299982227E+03  0.00000000000E+00 0. -1.
          1    1    6    6  503    0 -0.80229006427E+02  0.23464396221E+02  0.13467612548E+03  0.15850845447E+03  0.00000000000E+00 0. -1.
         -1    1    6    6    0  503 -0.25745536146E+02  0.61697008915E+02  0.26388342047E+03  0.27222015564E+03  0.00000000000E+00 0.  1.
<mgrwt>
<rscale>  0 0.13722729E+04</rscale>
<asrwt>0</asrwt>
<pdfrwt beam="1">  1        2 0.14418895E+00 0.13722729E+04</pdfrwt>
<pdfrwt beam="2">  1       -2 0.77279141E-01 0.13722729E+04</pdfrwt>
<totfact> 0.40342815E+01</totfact>
</mgrwt>
</event>
<event>
12    2  0.3751044E-008  0.2053344E+04  0.7818608E-02  0.8582079E-01
          1   -1    0    0  501    0  0.00000000000E+00  0.00000000000E+00  0.59816564961E+03  0.59816564961E+03  0.00000000000E+00 0. -1.
         -1   -1    0    0    0  501 -0.00000000000E+00 -0.00000000000E+00 -0.17621471050E+04  0.17621471050E+04  0.00000000000E+00 0.  1.
         23    2    1    2    0    0  0.26370258096E+02  0.48374171682E+03 -0.12722429848E+04  0.13643996285E+04  0.91009311092E+02 0.  0.
        254    2    1    2    0    0 -0.26370258096E+02 -0.48374171682E+03  0.10826152944E+03  0.99591312611E+03  0.86337764443E+03 0.  0.
         23    2    4    4    0    0 -0.38057718983E+03 -0.34288457228E+03 -0.13069256026E+03  0.53606444437E+03  0.88745230191E+02 0.  0.
         23    2    4    4    0    0  0.35420693174E+03 -0.14085714454E+03  0.23895408969E+03  0.45984868174E+03  0.95175981520E+02 0.  0.
          2    1    3    3  502    0 -0.21370016828E+02  0.34734032642E+02 -0.87887341073E+02  0.96888159048E+02  0.00000000000E+00 0. -1.
         -2    1    3    3    0  502  0.47740274924E+02  0.44900768418E+03 -0.11843556438E+04  0.12675114695E+04  0.00000000000E+00 0.  1.
         11    1    5    5    0    0 -0.15241437238E+03 -0.19698529959E+03 -0.63242639933E+02  0.25696883210E+03  0.00000000000E+00 0.  1.
        -11    1    5    5    0    0 -0.22816281745E+03 -0.14589927269E+03 -0.67449920323E+02  0.27909561227E+03  0.00000000000E+00 0. -1.
          1    1    6    6  503    0  0.35787018997E+03 -0.13389943126E+03  0.24096210464E+03  0.45173318058E+03  0.00000000000E+00 0. -1.
         -1    1    6    6    0  503 -0.36632582380E+01 -0.69577132804E+01 -0.20080149498E+01  0.81155011582E+01  0.00000000000E+00 0.  1.
<mgrwt>
<rscale>  0 0.20533445E+04</rscale>
<asrwt>0</asrwt>
<pdfrwt beam="1">  1        1 0.92025484E-01 0.20533445E+04</pdfrwt>
<pdfrwt beam="2">  1       -1 0.27109956E+00 0.20533445E+04</pdfrwt>
<totfact> 0.16148403E+00</totfact>
</mgrwt>
</event>
<event>
12    2  0.3751044E-008  0.2251024E+04  0.7818608E-02  0.8497486E-01
          1   -1    0    0  501    0  0.00000000000E+00  0.00000000000E+00  0.15024782011E+04  0.15024782011E+04  0.00000000000E+00 0. -1.
         -1   -1    0    0    0  501 -0.00000000000E+00 -0.00000000000E+00 -0.84312542091E+03  0.84312542091E+03  0.00000000000E+00 0.  1.
         23    2    1    2    0    0  0.25055692656E+03 -0.74714151598E+02 -0.66316693202E+03  0.71843206552E+03  0.89405118088E+02 0.  0.
        254    2    1    2    0    0 -0.25055692656E+03  0.74714151598E+02  0.13225197122E+04  0.16271715565E+04  0.91119037920E+03 0.  0.
         23    2    4    4    0    0  0.84960480688E+02  0.40501438043E+03  0.87072609205E+03  0.96835622299E+03  0.91076427264E+02 0.  0.
         23    2    4    4    0    0 -0.33551740725E+03 -0.33030022883E+03  0.45179362015E+03  0.65881533348E+03  0.90829492364E+02 0.  0.
          4    1    3    3  502    0  0.13260590609E+02 -0.23064357553E+02 -0.12807691054E+03  0.13081094322E+03  0.00000000000E+00 0. -1.
         -4    1    3    3    0  502  0.23729633595E+03 -0.51649794044E+02 -0.53509002148E+03  0.58762112230E+03  0.00000000000E+00 0.  1.
         11    1    5    5    0    0  0.79479508076E+02  0.36838554879E+03  0.83836267354E+03  0.91917184310E+03  0.00000000000E+00 0.  1.
        -11    1    5    5    0    0  0.54809726126E+01  0.36628831641E+02  0.32363418511E+02  0.49184379897E+02  0.00000000000E+00 0. -1.
          4    1    6    6  503    0 -0.63030343996E+02 -0.69127596326E+02  0.14432463861E+03  0.17199142464E+03  0.00000000000E+00 0. -1.
         -4    1    6    6    0  503 -0.27248706326E+03 -0.26117263251E+03  0.30746898154E+03  0.48682390884E+03  0.00000000000E+00 0.  1.
<mgrwt>
<rscale>  0 0.22510243E+04</rscale>
<asrwt>0</asrwt>
<pdfrwt beam="1">  1        1 0.23115049E+00 0.22510243E+04</pdfrwt>
<pdfrwt beam="2">  1       -1 0.12971160E+00 0.22510243E+04</pdfrwt>
<totfact> 0.30163974E+00</totfact>
</mgrwt>
</event>
<event>
12    2  0.3751044E-008  0.4743948E+04  0.7818608E-02  0.7869267E-01
         -1   -1    0    0    0  501 -0.00000000000E+00  0.00000000000E+00  0.32393250509E+04  0.32393250509E+04  0.00000000000E+00 0.  1.
          1   -1    0    0  501    0  0.00000000000E+00 -0.00000000000E+00 -0.17368621224E+04  0.17368621224E+04  0.00000000000E+00 0. -1.
         23    2    1    2    0    0  0.89189439641E+03  0.12222588672E+04 -0.10751521736E+04  0.18579422757E+04  0.81270847541E+02 0.  0.
        254    2    1    2    0    0 -0.89189439641E+03 -0.12222588672E+04  0.25776151021E+04  0.31182448976E+04  0.88879653146E+03 0.  0.
         23    2    4    4    0    0 -0.10409216326E+03 -0.95605181892E+02  0.10405815449E+04  0.10540660347E+04  0.90938026131E+02 0.  0.
         23    2    4    4    0    0 -0.78780223315E+03 -0.11266536853E+04  0.15370335572E+04  0.20641788630E+04  0.91549643653E+02 0.  0.
          2    1    3    3  502    0  0.32958654151E+03  0.47979792222E+03 -0.45782455626E+03  0.74056509425E+03  0.00000000000E+00 0. -1.
         -2    1    3    3    0  502  0.56230785490E+03  0.74246094496E+03 -0.61732761737E+03  0.11173771815E+04  0.00000000000E+00 0.  1.
         11    1    5    5    0    0  0.18084699073E+01 -0.48426744031E+01  0.32378729233E+03  0.32382855454E+03  0.00000000000E+00 0. -1.
        -11    1    5    5    0    0 -0.10590063317E+03 -0.90762507489E+02  0.71679425258E+03  0.73023748014E+03  0.00000000000E+00 0.  1.
          2    1    6    6  503    0 -0.14270724794E+03 -0.15810568336E+03  0.26862716012E+03  0.34281673950E+03  0.00000000000E+00 0. -1.
         -2    1    6    6    0  503 -0.64509498521E+03 -0.96854800192E+03  0.12684063971E+04  0.17213621235E+04  0.00000000000E+00 0.  1.
<mgrwt>
<rscale>  0 0.47439481E+04</rscale>
<asrwt>0</asrwt>
<pdfrwt beam="1">  1        1 0.26720956E+00 0.47439481E+04</pdfrwt>
<pdfrwt beam="2">  1       -1 0.49835770E+00 0.47439481E+04</pdfrwt>
<totfact> 0.50832460E-03</totfact>
</mgrwt>
</event>
<event>
12    2  0.3751044E-008  0.2046116E+04  0.7818608E-02  0.8585358E-01
         -2   -1    0    0    0  501 -0.00000000000E+00  0.00000000000E+00  0.84480088782E+03  0.84480088782E+03  0.00000000000E+00 0.  1.
          2   -1    0    0  501    0  0.00000000000E+00 -0.00000000000E+00 -0.12389284155E+04  0.12389284155E+04  0.00000000000E+00 0. -1.
         23    2    1    2    0    0  0.34141814712E+03 -0.50297155832E+03  0.40330352797E+03  0.73524546477E+03  0.91571928670E+02 0.  0.
        254    2    1    2    0    0 -0.34141814712E+03  0.50297155832E+03 -0.79743105567E+03  0.13484838386E+04  0.90164606952E+03 0.  0.
         23    2    4    4    0    0 -0.52634074327E+03 -0.65923549207E+01 -0.44103346518E+03  0.69277461560E+03  0.91368011063E+02 0.  0.
         23    2    4    4    0    0  0.18492259615E+03  0.50956391324E+03 -0.35639759049E+03  0.65570922297E+03  0.95307892308E+02 0.  0.
          3    1    3    3  502    0 -0.40871841067E+01 -0.12977227438E+02  0.19326988982E+01  0.13742228019E+02  0.00000000000E+00 0. -1.
         -3    1    3    3    0  502  0.34550533123E+03 -0.48999433088E+03  0.40137082907E+03  0.72150323675E+03  0.00000000000E+00 0.  1.
         11    1    5    5    0    0 -0.51119632972E+03 -0.96315630191E+01 -0.44386002490E+03  0.67707176594E+03  0.00000000000E+00 0.  1.
        -11    1    5    5    0    0 -0.15144413553E+02  0.30392080984E+01  0.28265597239E+01  0.15702849665E+02  0.00000000000E+00 0. -1.
          2    1    6    6  503    0  0.16159504994E+03  0.34916115409E+03 -0.28388183421E+03  0.47813739394E+03  0.00000000000E+00 0. -1.
         -2    1    6    6    0  503  0.23327546203E+02  0.16040275915E+03 -0.72515756282E+02  0.17757182903E+03  0.00000000000E+00 0.  1.
<mgrwt>
<rscale>  0 0.20461162E+04</rscale>
<asrwt>0</asrwt>
<pdfrwt beam="1">  1        2 0.19060437E+00 0.20461162E+04</pdfrwt>
<pdfrwt beam="2">  1       -2 0.12996937E+00 0.20461162E+04</pdfrwt>
<totfact> 0.72237014E+00</totfact>
</mgrwt>
</event>
<event>
12    2  0.3751044E-008  0.2116652E+04  0.7818608E-02  0.8553943E-01
          2   -1    0    0  501    0  0.00000000000E+00  0.00000000000E+00  0.16462909293E+04  0.16462909293E+04  0.00000000000E+00 0. -1.
         -2   -1    0    0    0  501 -0.00000000000E+00 -0.00000000000E+00 -0.68034967709E+03  0.68034967709E+03  0.00000000000E+00 0.  1.
         23    2    1    2    0    0  0.81751409768E+03 -0.50370866295E+02  0.11983835182E+03  0.83279081083E+03  0.91174447896E+02 0.  0.
        254    2    1    2    0    0 -0.81751409768E+03  0.50370866295E+02  0.84610290037E+03  0.14938497955E+04  0.91914665290E+03 0.  0.
         23    2    4    4    0    0  0.36365164721E+02  0.21534055491E+03 -0.50230686333E+02  0.24166357123E+03  0.90466457964E+02 0.  0.
         23    2    4    4    0    0 -0.85387926240E+03 -0.16496968861E+03  0.89633358670E+03  0.12521862243E+04  0.90728434204E+02 0.  0.
          3    1    3    3  502    0  0.67834839985E+03 -0.20723063283E+02  0.71067077308E+02  0.68237564905E+03  0.00000000000E+00 0. -1.
         -3    1    3    3    0  502  0.13916569783E+03 -0.29647803013E+02  0.48771274510E+02  0.15041516178E+03  0.00000000000E+00 0.  1.
         11    1    5    5    0    0  0.14541646783E+02  0.19337539671E+02 -0.36736409794E+02  0.43988222699E+02  0.00000000000E+00 0. -1.
        -11    1    5    5    0    0  0.21823517938E+02  0.19600301524E+03 -0.13494276539E+02  0.19767534853E+03  0.00000000000E+00 0.  1.
          1    1    6    6  503    0 -0.30923447368E+03 -0.15723235096E+02  0.32254111452E+03  0.44710843247E+03  0.00000000000E+00 0. -1.
         -1    1    6    6    0  503 -0.54464478873E+03 -0.14924645352E+03  0.57379247218E+03  0.80507779183E+03  0.00000000000E+00 0.  1.
<mgrwt>
<rscale>  0 0.21166516E+04</rscale>
<asrwt>0</asrwt>
<pdfrwt beam="1">  1        2 0.25327553E+00 0.21166516E+04</pdfrwt>
<pdfrwt beam="2">  1       -2 0.10466918E+00 0.21166516E+04</pdfrwt>
<totfact> 0.71624672E+00</totfact>
</mgrwt>
</event>
<event>
12    2  0.3751044E-008  0.1872212E+04  0.7818608E-02  0.8668813E-01
          1   -1    0    0  501    0  0.00000000000E+00  0.00000000000E+00  0.81491007390E+03  0.81491007390E+03  0.00000000000E+00 0. -1.
         -1   -1    0    0    0  501 -0.00000000000E+00 -0.00000000000E+00 -0.10753267065E+04  0.10753267065E+04  0.00000000000E+00 0.  1.
         23    2    1    2    0    0 -0.24838844216E+03  0.36323653817E+03 -0.67210786365E+03  0.80812107161E+03  0.87710233938E+02 0.  0.
        254    2    1    2    0    0  0.24838844216E+03 -0.36323653817E+03  0.41169123108E+03  0.10821157088E+04  0.89880316895E+03 0.  0.
         23    2    4    4    0    0  0.40028591748E+03  0.16330402653E+03  0.14358260706E+03  0.46496969457E+03  0.93187075331E+02 0.  0.
         23    2    4    4    0    0 -0.15189747532E+03 -0.52654056470E+03  0.26810862403E+03  0.61714601418E+03  0.93108320015E+02 0.  0.
          1    1    3    3  502    0 -0.63739448899E+02  0.36648946507E+02 -0.10938501633E+03  0.13179887869E+03  0.00000000000E+00 0. -1.
         -1    1    3    3    0  502 -0.18464899326E+03  0.32658759166E+03 -0.56272284732E+03  0.67632219292E+03  0.00000000000E+00 0.  1.
         11    1    5    5    0    0  0.10611589749E+03  0.52573971141E+02 -0.22950826315E+01  0.11844776716E+03  0.00000000000E+00 0. -1.
        -11    1    5    5    0    0  0.29417001999E+03  0.11073005539E+03  0.14587768969E+03  0.34652192741E+03  0.00000000000E+00 0.  1.
          2    1    6    6  503    0 -0.56860842596E+02 -0.34557985833E+03  0.18903004586E+03  0.39798360788E+03  0.00000000000E+00 0. -1.
         -2    1    6    6    0  503 -0.95036632722E+02 -0.18096070638E+03  0.79078578164E+02  0.21916240630E+03  0.00000000000E+00 0.  1.
<mgrwt>
<rscale>  0 0.18722121E+04</rscale>
<asrwt>0</asrwt>
<pdfrwt beam="1">  1        1 0.12537078E+00 0.18722121E+04</pdfrwt>
<pdfrwt beam="2">  1       -1 0.16543488E+00 0.18722121E+04</pdfrwt>
<totfact> 0.53532120E+00</totfact>
</mgrwt>
</event>
<event>
12    2  0.3751044E-008  0.1401295E+04  0.7818608E-02  0.8952882E-01
          2   -1    0    0  501    0  0.00000000000E+00  0.00000000000E+00  0.66889891080E+03  0.66889891080E+03  0.00000000000E+00 0. -1.
         -2   -1    0    0    0  501 -0.00000000000E+00 -0.00000000000E+00 -0.73390262112E+03  0.73390262112E+03  0.00000000000E+00 0.  1.
         23    2    1    2    0    0 -0.13178777203E+03 -0.30949351942E+03 -0.24760235920E+03  0.42777223670E+03  0.92346644691E+02 0.  0.
        254    2    1    2    0    0  0.13178777203E+03  0.30949351942E+03  0.18259864888E+03  0.97502929522E+03  0.89676396255E+03 0.  0.
         23    2    4    4    0    0  0.43444886471E+02  0.60636927116E+03  0.18045147263E+02  0.61499859308E+03  0.91249608124E+02 0.  0.
         23    2    4    4    0    0  0.88342885560E+02 -0.29687575174E+03  0.16455350162E+03  0.36003070213E+03  0.81268531309E+02 0.  0.
          3    1    3    3  502    0 -0.81638545320E+02 -0.13325023342E+03 -0.65521925177E+02  0.16945087627E+03  0.00000000000E+00 0. -1.
         -3    1    3    3    0  502 -0.50149226711E+02 -0.17624328600E+03 -0.18208043402E+03  0.25832136043E+03  0.00000000000E+00 0.  1.
         11    1    5    5    0    0  0.69605770751E+02  0.50884229285E+03  0.20562238310E+02  0.51399245905E+03  0.00000000000E+00 0. -1.
        -11    1    5    5    0    0 -0.26160884280E+02  0.97526978318E+02 -0.25170910466E+01  0.10100613404E+03  0.00000000000E+00 0.  1.
          3    1    6    6  503    0  0.58192657471E+01 -0.72004482432E+02  0.75457210665E+02  0.10446195473E+03  0.00000000000E+00 0.  1.
         -3    1    6    6    0  503  0.82523619813E+02 -0.22487126931E+03  0.89096290954E+02  0.25556874740E+03  0.00000000000E+00 0. -1.
<mgrwt>
<rscale>  0 0.14012946E+04</rscale>
<asrwt>0</asrwt>
<pdfrwt beam="1">  1        2 0.10290752E+00 0.14012946E+04</pdfrwt>
<pdfrwt beam="2">  1       -2 0.11290810E+00 0.14012946E+04</pdfrwt>
<totfact> 0.26037838E+01</totfact>
</mgrwt>
</event>
<event>
12    2  0.3751044E-008  0.2266481E+04  0.7818608E-02  0.8491256E-01
         -2   -1    0    0    0  501 -0.00000000000E+00  0.00000000000E+00  0.31815112999E+03  0.31815112999E+03  0.00000000000E+00 0.  1.
          2   -1    0    0  501    0  0.00000000000E+00 -0.00000000000E+00 -0.40365538430E+04  0.40365538430E+04  0.00000000000E+00 0. -1.
         23    2    1    2    0    0  0.95567620814E+03  0.31311313454E+02 -0.16196024929E+04  0.18830339972E+04  0.91691801957E+02 0.  0.
        254    2    1    2    0    0 -0.95567620814E+03 -0.31311313454E+02 -0.20988002201E+04  0.24716709758E+04  0.88876185523E+03 0.  0.
         23    2    4    4    0    0 -0.18549467167E+03  0.11292039630E+03 -0.58845684765E+01  0.23507405951E+03  0.89810334521E+02 0.  0.
         23    2    4    4    0    0 -0.77018153646E+03 -0.14423170976E+03 -0.20929156517E+04  0.22365969163E+04  0.89930282378E+02 0.  0.
          1    1    3    3  502    0  0.38687378017E+03  0.12882577134E+02 -0.74530185618E+03  0.83982863692E+03  0.00000000000E+00 0. -1.
         -1    1    3    3    0  502  0.56880242797E+03  0.18428736321E+02 -0.87430063668E+03  0.10432053603E+04  0.00000000000E+00 0.  1.
         11    1    5    5    0    0 -0.11830944960E+03  0.35865818095E+02  0.29131118903E+02  0.12701222327E+03  0.00000000000E+00 0. -1.
        -11    1    5    5    0    0 -0.67185222078E+02  0.77054578210E+02 -0.35015687380E+02  0.10806183624E+03  0.00000000000E+00 0.  1.
          4    1    6    6  503    0 -0.66013125356E+03 -0.96824336483E+02 -0.18238618652E+04  0.19420659946E+04  0.00000000000E+00 0. -1.
         -4    1    6    6    0  503 -0.11005028290E+03 -0.47407373276E+02 -0.26905378642E+03  0.29453092162E+03  0.00000000000E+00 0.  1.
<mgrwt>
<rscale>  0 0.22664811E+04</rscale>
<asrwt>0</asrwt>
<pdfrwt beam="1">  1        2 0.62100828E+00 0.22664811E+04</pdfrwt>
<pdfrwt beam="2">  1       -2 0.48946328E-01 0.22664811E+04</pdfrwt>
<totfact> 0.11552120E+00</totfact>
</mgrwt>
</event>
<event>
12    2  0.3751044E-008  0.1152942E+04  0.7818608E-02  0.9155074E-01
         -2   -1    0    0    0  501 -0.00000000000E+00  0.00000000000E+00  0.23823495515E+03  0.23823495515E+03  0.00000000000E+00 0.  1.
          2   -1    0    0  501    0  0.00000000000E+00 -0.00000000000E+00 -0.13949195721E+04  0.13949195721E+04  0.00000000000E+00 0. -1.
         23    2    1    2    0    0  0.12794032927E+03 -0.15455237778E+03 -0.14895632845E+03  0.26498604149E+03  0.88172836342E+02 0.  0.
        254    2    1    2    0    0 -0.12794032927E+03  0.15455237778E+03 -0.10077282885E+04  0.13681684858E+04  0.90339002466E+03 0.  0.
         23    2    4    4    0    0 -0.38959808615E+03  0.39146435085E+03 -0.64010932933E+03  0.85042202755E+03  0.91905738210E+02 0.  0.
         23    2    4    4    0    0  0.26165775688E+03 -0.23691197307E+03 -0.36761895920E+03  0.51774645824E+03  0.91244896491E+02 0.  0.
          2    1    3    3  502    0  0.59496404238E+02 -0.66297415325E+02 -0.12028716343E+03  0.14968022943E+03  0.00000000000E+00 0. -1.
         -2    1    3    3    0  502  0.68443925034E+02 -0.88254962457E+02 -0.28669165017E+02  0.11530581206E+03  0.00000000000E+00 0.  1.
         11    1    5    5    0    0 -0.24493706642E+03  0.19578064117E+03 -0.31655437920E+03  0.44556806546E+03  0.00000000000E+00 0.  1.
        -11    1    5    5    0    0 -0.14466101973E+03  0.19568370968E+03 -0.32355495013E+03  0.40485396209E+03  0.00000000000E+00 0. -1.
          3    1    6    6  503    0  0.14550541459E+03 -0.74583156286E+02 -0.18877190233E+03  0.24973847117E+03  0.00000000000E+00 0. -1.
         -3    1    6    6    0  503  0.11615234229E+03 -0.16232881679E+03 -0.17884705688E+03  0.26800798707E+03  0.00000000000E+00 0.  1.
<mgrwt>
<rscale>  0 0.11529416E+04</rscale>
<asrwt>0</asrwt>
<pdfrwt beam="1">  1        2 0.21460301E+00 0.11529416E+04</pdfrwt>
<pdfrwt beam="2">  1       -2 0.36651531E-01 0.11529416E+04</pdfrwt>
<totfact> 0.10100356E+02</totfact>
</mgrwt>
</event>
<event>
12    2  0.3751044E-008  0.2064326E+04  0.7818608E-02  0.8577123E-01
          2   -1    0    0  501    0  0.00000000000E+00  0.00000000000E+00  0.12986822439E+04  0.12986822439E+04  0.00000000000E+00 0.  1.
         -2   -1    0    0    0  501 -0.00000000000E+00 -0.00000000000E+00 -0.82033976203E+03  0.82033976203E+03  0.00000000000E+00 0. -1.
         23    2    1    2    0    0 -0.43122174621E+03 -0.65557365156E+03  0.47410782931E+03  0.92151079372E+03  0.93139154523E+02 0.  0.
        254    2    1    2    0    0  0.43122174621E+03  0.65557365156E+03  0.42346525178E+01  0.11975112122E+04  0.90459171118E+03 0.  0.
         23    2    4    4    0    0  0.36918921254E+03  0.50434722937E+03 -0.40310226058E+03  0.74924929739E+03  0.90643668929E+02 0.  0.
         23    2    4    4    0    0  0.62032533669E+02  0.15122642219E+03  0.40733691310E+03  0.44826191477E+03  0.91092905635E+02 0.  0.
          4    1    3    3  502    0 -0.50076604205E+02 -0.13409826690E+03  0.10546400222E+03  0.17779951417E+03  0.00000000000E+00 0. -1.
         -4    1    3    3    0  502 -0.38114514201E+03 -0.52147538466E+03  0.36864382709E+03  0.74371127955E+03  0.00000000000E+00 0.  1.
         11    1    5    5    0    0  0.21158466348E+03  0.35199722268E+03 -0.28847990740E+03  0.50188721000E+03  0.00000000000E+00 0. -1.
        -11    1    5    5    0    0  0.15760454907E+03  0.15235000670E+03 -0.11462235318E+03  0.24736208739E+03  0.00000000000E+00 0.  1.
          2    1    6    6  503    0  0.52204732006E+02  0.51914894427E+02  0.26063133011E+03  0.27083053842E+03  0.00000000000E+00 0. -1.
         -2    1    6    6    0  503  0.98278016625E+01  0.99311527762E+02  0.14670558299E+03  0.17743137635E+03  0.00000000000E+00 0.  1.
<mgrwt>
<rscale>  0 0.20643262E+04</rscale>
<asrwt>0</asrwt>
<pdfrwt beam="1">  1        2 0.19979727E+00 0.20643262E+04</pdfrwt>
<pdfrwt beam="2">  1       -2 0.12620612E+00 0.20643262E+04</pdfrwt>
<totfact> 0.71650392E+00</totfact>
</mgrwt>
</event>
<event>
12    2  0.3751044E-008  0.1788509E+04  0.7818608E-02  0.8712434E-01
         -2   -1    0    0    0  501 -0.00000000000E+00  0.00000000000E+00  0.42649067100E+03  0.42649067100E+03  0.00000000000E+00 0.  1.
          2   -1    0    0  501    0  0.00000000000E+00 -0.00000000000E+00 -0.18750491377E+04  0.18750491377E+04  0.00000000000E+00 0. -1.
         23    2    1    2    0    0  0.29768855483E+03 -0.20781196302E+03  0.17246374181E+03  0.41197416911E+03  0.90413970860E+02 0.  0.
        254    2    1    2    0    0 -0.29768855483E+03  0.20781196302E+03 -0.16210222085E+04  0.18895656396E+04  0.90052263614E+03 0.  0.
         23    2    4    4    0    0 -0.24691241816E+03 -0.20875553347E+03 -0.17002146938E+03  0.37654675253E+03  0.91299188361E+02 0.  0.
         23    2    4    4    0    0 -0.50776136668E+02  0.41656749650E+03 -0.14510007392E+04  0.15130188871E+04  0.87842543461E+02 0.  0.
          3    1    3    3  502    0  0.47640055591E+02 -0.25045126925E+02  0.64425885054E+02  0.83949555951E+02  0.00000000000E+00 0. -1.
         -3    1    3    3    0  502  0.25004849924E+03 -0.18276683610E+03  0.10803785676E+03  0.32802461316E+03  0.00000000000E+00 0.  1.
         11    1    5    5    0    0 -0.20661246913E+03 -0.13132478709E+03 -0.14957749234E+03  0.28689429816E+03  0.00000000000E+00 0.  1.
        -11    1    5    5    0    0 -0.40299949030E+02 -0.77430746381E+02 -0.20443977040E+02  0.89652454368E+02  0.00000000000E+00 0. -1.
          4    1    6    6  503    0 -0.18260682159E+02  0.98833237664E+01 -0.70562007900E+02  0.73553582921E+02  0.00000000000E+00 0. -1.
         -4    1    6    6    0  503 -0.32515454509E+02  0.40668417273E+03 -0.13804387313E+04  0.14394653042E+04  0.00000000000E+00 0.  1.
<mgrwt>
<rscale>  0 0.17885088E+04</rscale>
<asrwt>0</asrwt>
<pdfrwt beam="1">  1        2 0.28846910E+00 0.17885088E+04</pdfrwt>
<pdfrwt beam="2">  1       -2 0.65613950E-01 0.17885088E+04</pdfrwt>
<totfact> 0.15846822E+01</totfact>
</mgrwt>
</event>
<event>
12    2  0.3751044E-008  0.2237062E+04  0.7818608E-02  0.8503159E-01
          2   -1    0    0  501    0  0.00000000000E+00  0.00000000000E+00  0.85843029132E+03  0.85843029132E+03  0.00000000000E+00 0.  1.
         -2   -1    0    0    0  501 -0.00000000000E+00 -0.00000000000E+00 -0.14574407558E+04  0.14574407558E+04  0.00000000000E+00 0. -1.
         23    2    1    2    0    0 -0.18717864437E+03  0.69085152639E+00 -0.12008904782E+04  0.12191081017E+04  0.95133068876E+02 0.  0.
        254    2    1    2    0    0  0.18717864437E+03 -0.69085152639E+00  0.60188001369E+03  0.10967629455E+04  0.89754837499E+03 0.  0.
         23    2    4    4    0    0  0.30281749337E+03 -0.11544163274E+03  0.77343657363E+03  0.84340476746E+03  0.90012574039E+02 0.  0.
         23    2    4    4    0    0 -0.11563884899E+03  0.11475078122E+03 -0.17155655994E+03  0.25335817799E+03  0.90656648450E+02 0.  0.
          3    1    3    3  502    0 -0.19623230152E+03  0.65147411604E+01 -0.10769718059E+04  0.10947227177E+04  0.00000000000E+00 0. -1.
         -3    1    3    3    0  502  0.90536571512E+01 -0.58238896340E+01 -0.12391867231E+03  0.12438538397E+03  0.00000000000E+00 0.  1.
         11    1    5    5    0    0  0.29504087909E+03 -0.11403442801E+03  0.77331022129E+03  0.83550084947E+03  0.00000000000E+00 0. -1.
        -11    1    5    5    0    0  0.77766142736E+01 -0.14072047346E+01  0.12635234003E+00  0.79039179930E+01  0.00000000000E+00 0.  1.
          2    1    6    6  503    0 -0.11878629896E+03  0.11211505874E+03 -0.12260570329E+03  0.20423547610E+03  0.00000000000E+00 0. -1.
         -2    1    6    6    0  503  0.31474499679E+01  0.26357224757E+01 -0.48950856649E+02  0.49122701890E+02  0.00000000000E+00 0.  1.
<mgrwt>
<rscale>  0 0.22370617E+04</rscale>
<asrwt>0</asrwt>
<pdfrwt beam="1">  1        2 0.13206620E+00 0.22370617E+04</pdfrwt>
<pdfrwt beam="2">  1       -2 0.22422165E+00 0.22370617E+04</pdfrwt>
<totfact> 0.26512771E+00</totfact>
</mgrwt>
</event>
<event>
12    2  0.3751044E-008  0.1567605E+04  0.7818608E-02  0.8840701E-01
         -2   -1    0    0    0  501 -0.00000000000E+00  0.00000000000E+00  0.46209379957E+03  0.46209379957E+03  0.00000000000E+00 0. -1.
          2   -1    0    0  501    0  0.00000000000E+00 -0.00000000000E+00 -0.13294835082E+04  0.13294835082E+04  0.00000000000E+00 0.  1.
         23    2    1    2    0    0  0.60198806047E+02 -0.46840453625E+03 -0.43584973029E+02  0.48434869766E+03  0.98322455331E+02 0.  0.
        254    2    1    2    0    0 -0.60198806047E+02  0.46840453625E+03 -0.82380473565E+03  0.13072286101E+04  0.89842400395E+03 0.  0.
         23    2    4    4    0    0 -0.89586419740E+02  0.48118318589E+03 -0.20269170461E+02  0.49795630237E+03  0.89368086097E+02 0.  0.
         23    2    4    4    0    0  0.29387613693E+02 -0.12778649634E+02 -0.80353556518E+03  0.80927230778E+03  0.90693648590E+02 0.  0.
          1    1    3    3  502    0  0.78858173914E+02 -0.30009680151E+03 -0.33838951683E+01  0.31030332357E+03  0.00000000000E+00 0. -1.
         -1    1    3    3    0  502 -0.18659367867E+02 -0.16830773474E+03 -0.40201077861E+02  0.17404537410E+03  0.00000000000E+00 0.  1.
         11    1    5    5    0    0 -0.31407786603E+02  0.14120808791E+03 -0.46746627050E+02  0.15202440689E+03  0.00000000000E+00 0. -1.
        -11    1    5    5    0    0 -0.58178633137E+02  0.33997509798E+03  0.26477456589E+02  0.34593189548E+03  0.00000000000E+00 0.  1.
          4    1    6    6  503    0  0.28431608514E+02 -0.21052770294E+02 -0.10719617275E+03  0.11288310304E+03  0.00000000000E+00 0. -1.
         -4    1    6    6    0  503  0.95600517909E+00  0.82741206599E+01 -0.69633939244E+03  0.69638920474E+03  0.00000000000E+00 0.  1.
<mgrwt>
<rscale>  0 0.15676047E+04</rscale>
<asrwt>0</asrwt>
<pdfrwt beam="1">  1        2 0.20453593E+00 0.15676047E+04</pdfrwt>
<pdfrwt beam="2">  1       -2 0.71091353E-01 0.15676047E+04</pdfrwt>
<totfact> 0.27450797E+01</totfact>
</mgrwt>
</event>
<event>
12    2  0.3751044E-008  0.2214965E+04  0.7818608E-02  0.8512225E-01
         -3   -1    0    0    0  501 -0.00000000000E+00  0.00000000000E+00  0.13738215217E+04  0.13738215217E+04  0.00000000000E+00 0.  1.
          3   -1    0    0  501    0  0.00000000000E+00 -0.00000000000E+00 -0.89277754504E+03  0.89277754504E+03  0.00000000000E+00 0. -1.
         23    2    1    2    0    0  0.96363940567E+02  0.54174270149E+03 -0.55519715627E+03  0.78850006027E+03  0.10352438873E+03 0.  0.
        254    2    1    2    0    0 -0.96363940567E+02 -0.54174270149E+03  0.10362411330E+04  0.14780990065E+04  0.89900490748E+03 0.  0.
         23    2    4    4    0    0  0.69144456150E+02 -0.75668151545E+03  0.70913856211E+03  0.10434151086E+04  0.92139660037E+02 0.  0.
         23    2    4    4    0    0 -0.16550839672E+03  0.21493881396E+03  0.32710257084E+03  0.43468389787E+03  0.91445481509E+02 0.  0.
          4    1    3    3  502    0  0.84251348489E+02  0.53833656704E+03 -0.55174467007E+03  0.77545259693E+03  0.00000000000E+00 0. -1.
         -4    1    3    3    0  502  0.12112592078E+02  0.34061344500E+01 -0.34524862002E+01  0.13047463343E+02  0.00000000000E+00 0.  1.
         11    1    5    5    0    0 -0.10422136033E+02 -0.46483567314E+02  0.69929341434E+02  0.84613567134E+02  0.00000000000E+00 0. -1.
        -11    1    5    5    0    0  0.79566592184E+02 -0.71019794813E+03  0.63920922068E+03  0.95880154147E+03  0.00000000000E+00 0.  1.
          2    1    6    6  503    0 -0.69625631576E+02  0.57446546195E+02  0.54060919008E+02  0.10521605014E+03  0.00000000000E+00 0. -1.
         -2    1    6    6    0  503 -0.95882765141E+02  0.15749226777E+03  0.27304165183E+03  0.32946784774E+03  0.00000000000E+00 0.  1.
<mgrwt>
<rscale>  0 0.22149646E+04</rscale>
<asrwt>0</asrwt>
<pdfrwt beam="1">  1        3 0.13735039E+00 0.22149646E+04</pdfrwt>
<pdfrwt beam="2">  1       -3 0.21135716E+00 0.22149646E+04</pdfrwt>
<totfact> 0.12008135E-01</totfact>
</mgrwt>
</event>
<event>
12    2  0.3751044E-008  0.1738136E+04  0.7818608E-02  0.8739908E-01
          2   -1    0    0  501    0  0.00000000000E+00  0.00000000000E+00  0.21086132044E+04  0.21086132044E+04  0.00000000000E+00 0. -1.
         -2   -1    0    0    0  501 -0.00000000000E+00 -0.00000000000E+00 -0.35818766188E+03  0.35818766188E+03  0.00000000000E+00 0.  1.
         23    2    1    2    0    0  0.15237048415E+03 -0.32389703777E+03  0.13773700124E+04  0.14258476973E+04  0.88133133934E+02 0.  0.
        254    2    1    2    0    0 -0.15237048415E+03  0.32389703777E+03  0.37305553008E+03  0.10409531690E+04  0.90348603527E+03 0.  0.
         23    2    4    4    0    0  0.18709497604E+03  0.33657991183E+03  0.52442120811E+03  0.65692704243E+03  0.90801808657E+02 0.  0.
         23    2    4    4    0    0 -0.33946546019E+03 -0.12682874060E+02 -0.15136567804E+03  0.38402612652E+03  0.95743633756E+02 0.  0.
          4    1    3    3  502    0  0.39241091747E+02 -0.32779359704E+02  0.12353530751E+03  0.13369862342E+03  0.00000000000E+00 0.  1.
         -4    1    3    3    0  502  0.11312939241E+03 -0.29111767806E+03  0.12538347049E+04  0.12921490739E+04  0.00000000000E+00 0. -1.
         11    1    5    5    0    0  0.16808218703E+03  0.31195555706E+03  0.51361437092E+03  0.62399327976E+03  0.00000000000E+00 0.  1.
        -11    1    5    5    0    0  0.19012789004E+02  0.24624354763E+02  0.10806837198E+02  0.32933762667E+02  0.00000000000E+00 0. -1.
          4    1    6    6  503    0 -0.10103856437E+03  0.90387219238E+01 -0.12654244076E+01  0.10144994472E+03  0.00000000000E+00 0. -1.
         -4    1    6    6    0  503 -0.23842689582E+03 -0.21721595983E+02 -0.15010025363E+03  0.28257618181E+03  0.00000000000E+00 0.  1.
<mgrwt>
<rscale>  0 0.17381361E+04</rscale>
<asrwt>0</asrwt>
<pdfrwt beam="1">  1        2 0.32440202E+00 0.17381361E+04</pdfrwt>
<pdfrwt beam="2">  1       -2 0.55105795E-01 0.17381361E+04</pdfrwt>
<totfact> 0.17075223E+01</totfact>
</mgrwt>
</event>
<event>
12    2  0.3751044E-008  0.1704701E+04  0.7818608E-02  0.8758688E-01
         -2   -1    0    0    0  501 -0.00000000000E+00  0.00000000000E+00  0.26149667064E+03  0.26149667064E+03  0.00000000000E+00 0.  1.
          2   -1    0    0  501    0  0.00000000000E+00 -0.00000000000E+00 -0.27782429017E+04  0.27782429017E+04  0.00000000000E+00 0. -1.
         23    2    1    2    0    0  0.30990889007E+03 -0.39534233909E+03 -0.28153877050E+03  0.58313635300E+03  0.91895819737E+02 0.  0.
        254    2    1    2    0    0 -0.30990889007E+03  0.39534233909E+03 -0.22352074605E+04  0.24566032193E+04  0.88679642546E+03 0.  0.
         23    2    4    4    0    0 -0.43509109651E+03 -0.13644740934E+03 -0.10173231772E+04  0.11186369196E+04  0.92086660987E+02 0.  0.
         23    2    4    4    0    0  0.12518220644E+03  0.53178974843E+03 -0.12178842833E+04  0.13379662997E+04  0.91873665055E+02 0.  0.
          4    1    3    3  502    0  0.65065852532E+02 -0.14243223537E+03 -0.62895062358E+02  0.16874920950E+03  0.00000000000E+00 0. -1.
         -4    1    3    3    0  502  0.24484303754E+03 -0.25291010371E+03 -0.21864370814E+03  0.41438714350E+03  0.00000000000E+00 0.  1.
         11    1    5    5    0    0 -0.85100618880E+02 -0.67092230283E+02 -0.23194545574E+03  0.25601206443E+03  0.00000000000E+00 0.  1.
        -11    1    5    5    0    0 -0.34999047763E+03 -0.69355179057E+02 -0.78537772150E+03  0.86262485515E+03  0.00000000000E+00 0. -1.
          3    1    6    6  503    0  0.13652929681E+03  0.51897148427E+03 -0.11866624920E+04  0.13023592132E+04  0.00000000000E+00 0. -1.
         -3    1    6    6    0  503 -0.11347090371E+02  0.12818264159E+02 -0.31221791257E+02  0.35607086447E+02  0.00000000000E+00 0.  1.
<mgrwt>
<rscale>  0 0.17047009E+04</rscale>
<asrwt>0</asrwt>
<pdfrwt beam="1">  1        2 0.42742199E+00 0.17047009E+04</pdfrwt>
<pdfrwt beam="2">  1       -2 0.40230257E-01 0.17047009E+04</pdfrwt>
<totfact> 0.13300806E+01</totfact>
</mgrwt>
</event>
<event>
12    2  0.3751044E-008  0.1424307E+04  0.7818608E-02  0.8936410E-01
         -1   -1    0    0    0  501 -0.00000000000E+00  0.00000000000E+00  0.15746887949E+03  0.15746887949E+03  0.00000000000E+00 0.  1.
          1   -1    0    0  501    0  0.00000000000E+00 -0.00000000000E+00 -0.32207159506E+04  0.32207159506E+04  0.00000000000E+00 0. -1.
         23    2    1    2    0    0 -0.23341286725E+03 -0.19257457952E+03 -0.22588955227E+03  0.38504257727E+03  0.75267265223E+02 0.  0.
        254    2    1    2    0    0  0.23341286725E+03  0.19257457952E+03 -0.28373575189E+04  0.29931422528E+04  0.90373465164E+03 0.  0.
         23    2    4    4    0    0  0.15030809710E+03  0.49722594627E+03 -0.23273479659E+04  0.23863676269E+04  0.91519018169E+02 0.  0.
         23    2    4    4    0    0  0.83104770151E+02 -0.30465136675E+03 -0.51000955298E+03  0.60677462594E+03  0.91361066491E+02 0.  0.
          2    1    3    3  502    0 -0.27043080975E+01  0.48758557497E+01  0.13846651253E+01  0.57449585801E+01  0.00000000000E+00 0. -1.
         -2    1    3    3    0  502 -0.23070855915E+03 -0.19745043527E+03 -0.22727421740E+03  0.37929761869E+03  0.00000000000E+00 0.  1.
         11    1    5    5    0    0  0.34511551514E+02  0.36421869683E+02 -0.16629881889E+03  0.17370347418E+03  0.00000000000E+00 0. -1.
        -11    1    5    5    0    0  0.11579654558E+03  0.46080407659E+03 -0.21610491470E+04  0.22126641527E+04  0.00000000000E+00 0.  1.
          1    1    6    6  503    0  0.26910933992E+02 -0.63036220087E+02 -0.18928473970E+03  0.20131188761E+03  0.00000000000E+00 0. -1.
         -1    1    6    6    0  503  0.56193836159E+02 -0.24161514666E+03 -0.32072481329E+03  0.40546273833E+03  0.00000000000E+00 0.  1.
<mgrwt>
<rscale>  0 0.14243069E+04</rscale>
<asrwt>0</asrwt>
<pdfrwt beam="1">  1        1 0.49549471E+00 0.14243069E+04</pdfrwt>
<pdfrwt beam="2">  1       -1 0.24225984E-01 0.14243069E+04</pdfrwt>
<totfact> 0.59594063E+00</totfact>
</mgrwt>
</event>
<event>
12    2  0.3751044E-008  0.1648019E+04  0.7818608E-02  0.8791579E-01
         -1   -1    0    0    0  501 -0.00000000000E+00  0.00000000000E+00  0.47191330317E+03  0.47191330317E+03  0.00000000000E+00 0.  1.
          1   -1    0    0  501    0  0.00000000000E+00 -0.00000000000E+00 -0.14388066093E+04  0.14388066093E+04  0.00000000000E+00 0. -1.
         23    2    1    2    0    0 -0.27814959170E+02 -0.53100152862E+03 -0.98697927664E+02  0.54876125700E+03  0.93066325351E+02 0.  0.
        254    2    1    2    0    0  0.27814959170E+02  0.53100152862E+03 -0.86819537849E+03  0.13619586555E+04  0.90467224380E+03 0.  0.
         23    2    4    4    0    0 -0.15042736671E+03  0.10392156494E+03  0.14067880517E+03  0.24841193564E+03  0.92140540623E+02 0.  0.
         23    2    4    4    0    0  0.17824232588E+03  0.42707996367E+03 -0.10088741837E+04  0.11135467199E+04  0.89395507431E+02 0.  0.
          3    1    3    3  502    0 -0.29590871530E+01 -0.13216968147E+03  0.15627478235E+02  0.13312324730E+03  0.00000000000E+00 0. -1.
         -3    1    3    3    0  502 -0.24855872017E+02 -0.39883184715E+03 -0.11432540590E+03  0.41563800970E+03  0.00000000000E+00 0.  1.
         11    1    5    5    0    0 -0.90231005839E+02  0.51225832466E+02  0.23267232424E+02  0.10633477527E+03  0.00000000000E+00 0. -1.
        -11    1    5    5    0    0 -0.60196360874E+02  0.52695732479E+02  0.11741157275E+03  0.14207716037E+03  0.00000000000E+00 0.  1.
          3    1    6    6  503    0  0.10056951464E+02  0.72961874686E+02 -0.10437079329E+03  0.12774130077E+03  0.00000000000E+00 0. -1.
         -3    1    6    6    0  503  0.16818537442E+03  0.35411808899E+03 -0.90450339037E+03  0.98580541909E+03  0.00000000000E+00 0.  1.
<mgrwt>
<rscale>  0 0.16480194E+04</rscale>
<asrwt>0</asrwt>
<pdfrwt beam="1">  1        1 0.22135486E+00 0.16480194E+04</pdfrwt>
<pdfrwt beam="2">  1       -1 0.72602048E-01 0.16480194E+04</pdfrwt>
<totfact> 0.13195383E+01</totfact>
</mgrwt>
</event>
<event>
12    2  0.3751044E-008  0.2867451E+04  0.7818608E-02  0.8282628E-01
          2   -1    0    0  501    0  0.00000000000E+00  0.00000000000E+00  0.19327537317E+04  0.19327537317E+04  0.00000000000E+00 0. -1.
         -2   -1    0    0    0  501 -0.00000000000E+00 -0.00000000000E+00 -0.10635442700E+04  0.10635442700E+04  0.00000000000E+00 0.  1.
         23    2    1    2    0    0 -0.38229671091E+03 -0.88311534611E+03  0.12133790859E+04  0.15513023562E+04  0.90590863908E+02 0.  0.
        254    2    1    2    0    0  0.38229671091E+03  0.88311534611E+03 -0.34416962425E+03  0.14449956455E+04  0.10215264047E+04 0.  0.
         23    2    4    4    0    0 -0.21755966366E+03 -0.14609573991E+02  0.11835746916E+03  0.26698733584E+03  0.98631131429E+02 0.  0.
         23    2    4    4    0    0  0.59985637457E+03  0.89772492010E+03 -0.46252709342E+03  0.11780083096E+04  0.89635724784E+02 0.  0.
          3    1    3    3  502    0 -0.25204655867E+03 -0.60050798414E+03  0.75219427226E+03  0.99495403410E+03  0.00000000000E+00 0. -1.
         -3    1    3    3    0  502 -0.13025015224E+03 -0.28260736196E+03  0.46118481364E+03  0.55634832212E+03  0.00000000000E+00 0.  1.
         11    1    5    5    0    0 -0.21834768571E+03  0.62573497270E+01  0.10813111071E+03  0.24373592961E+03  0.00000000000E+00 0.  1.
        -11    1    5    5    0    0  0.78802205090E+00 -0.20866923718E+02  0.10226358452E+02  0.23251406224E+02  0.00000000000E+00 0. -1.
          2    1    6    6  503    0  0.50149580680E+03  0.79781854926E+03 -0.41815540122E+03  0.10309541315E+04  0.00000000000E+00 0. -1.
         -2    1    6    6    0  503  0.98360567775E+02  0.99906370838E+02 -0.44371692193E+02  0.14705417809E+03  0.00000000000E+00 0.  1.
<mgrwt>
<rscale>  0 0.28674512E+04</rscale>
<asrwt>0</asrwt>
<pdfrwt beam="1">  1        2 0.29734673E+00 0.28674512E+04</pdfrwt>
<pdfrwt beam="2">  1       -2 0.16362220E+00 0.28674512E+04</pdfrwt>
<totfact> 0.14931401E+00</totfact>
</mgrwt>
</event>
<event>
12    2  0.3751044E-008  0.3673324E+04  0.7818608E-02  0.8073899E-01
          1   -1    0    0  501    0  0.00000000000E+00  0.00000000000E+00  0.95169587808E+03  0.95169587808E+03  0.00000000000E+00 0. -1.
         -1   -1    0    0    0  501 -0.00000000000E+00 -0.00000000000E+00 -0.35445429544E+04  0.35445429544E+04  0.00000000000E+00 0.  1.
         23    2    1    2    0    0  0.11346647690E+04  0.24950120704E+03  0.33869802573E+03  0.12136271908E+04  0.91976166577E+02 0.  0.
        254    2    1    2    0    0 -0.11346647690E+04 -0.24950120704E+03 -0.29315451020E+04  0.32826116417E+04  0.91206771380E+03 0.  0.
         23    2    4    4    0    0  0.13558568981E+03 -0.74050337360E+02 -0.51685293278E+03  0.54705597000E+03  0.90919461306E+02 0.  0.
         23    2    4    4    0    0 -0.12702504588E+04 -0.17545086968E+03 -0.24146921692E+04  0.27355556717E+04  0.90594287221E+02 0.  0.
          3    1    3    3  502    0  0.97480998474E+03  0.23925132934E+03  0.27065355790E+03  0.10395908105E+04  0.00000000000E+00 0. -1.
         -3    1    3    3    0  502  0.15985478426E+03  0.10249877699E+02  0.68044467832E+02  0.17403638023E+03  0.00000000000E+00 0.  1.
         11    1    5    5    0    0  0.22096547593E+02 -0.26850419316E+02 -0.25992760893E+03  0.26224333036E+03  0.00000000000E+00 0.  1.
        -11    1    5    5    0    0  0.11348914221E+03 -0.47199918044E+02 -0.25692532385E+03  0.28481263964E+03  0.00000000000E+00 0. -1.
          1    1    6    6  503    0 -0.74856535472E+03 -0.61480874119E+02 -0.14460909862E+04  0.16295119295E+04  0.00000000000E+00 0. -1.
         -1    1    6    6    0  503 -0.52168510408E+03 -0.11396999556E+03 -0.96860118305E+03  0.11060437421E+04  0.00000000000E+00 0.  1.
<mgrwt>
<rscale>  0 0.36733238E+04</rscale>
<asrwt>0</asrwt>
<pdfrwt beam="1">  1        1 0.14641475E+00 0.36733238E+04</pdfrwt>
<pdfrwt beam="2">  1       -1 0.54531431E+00 0.36733238E+04</pdfrwt>
<totfact> 0.10563621E-02</totfact>
</mgrwt>
</event>
<event>
12    2  0.3751044E-008  0.1991684E+04  0.7818608E-02  0.8610519E-01
          1   -1    0    0  501    0  0.00000000000E+00  0.00000000000E+00  0.13407556621E+04  0.13407556621E+04  0.00000000000E+00 0. -1.
         -1   -1    0    0    0  501 -0.00000000000E+00 -0.00000000000E+00 -0.73965832494E+03  0.73965832494E+03  0.00000000000E+00 0.  1.
         23    2    1    2    0    0 -0.38376781515E+03 -0.67466497066E+02 -0.47472291425E+03  0.62006289115E+03  0.85362049472E+02 0.  0.
        254    2    1    2    0    0  0.38376781515E+03  0.67466497066E+02  0.10758202514E+04  0.14603510959E+04  0.90741756968E+03 0.  0.
         23    2    4    4    0    0  0.46800430183E+03  0.40055161260E+03  0.76876295859E+03  0.98952267581E+03  0.93214905260E+02 0.  0.
         23    2    4    4    0    0 -0.84236486676E+02 -0.33308511554E+03  0.30705729277E+03  0.47082842004E+03  0.96714736181E+02 0.  0.
          2    1    3    3  502    0 -0.69459317762E+02  0.17973536036E+02 -0.10702207706E+03  0.12884630302E+03  0.00000000000E+00 0. -1.
         -2    1    3    3    0  502 -0.31430849739E+03 -0.85440033102E+02 -0.36770083718E+03  0.49121658813E+03  0.00000000000E+00 0.  1.
         11    1    5    5    0    0  0.97917938625E+02  0.39635727388E+02  0.11667494458E+03  0.15739109340E+03  0.00000000000E+00 0.  1.
        -11    1    5    5    0    0  0.37008636320E+03  0.36091588522E+03  0.65208801401E+03  0.83213158241E+03  0.00000000000E+00 0. -1.
          2    1    6    6  503    0 -0.61357516886E+02 -0.31728533762E+03  0.25440851018E+03  0.41128873118E+03  0.00000000000E+00 0. -1.
         -2    1    6    6    0  503 -0.22878969790E+02 -0.15799777918E+02  0.52648782592E+02  0.59539688858E+02  0.00000000000E+00 0.  1.
<mgrwt>
<rscale>  0 0.19916838E+04</rscale>
<asrwt>0</asrwt>
<pdfrwt beam="1">  1        1 0.20627010E+00 0.19916838E+04</pdfrwt>
<pdfrwt beam="2">  1       -1 0.11379359E+00 0.19916838E+04</pdfrwt>
<totfact> 0.55291914E+00</totfact>
</mgrwt>
</event>
<event>
12    2  0.3751044E-008  0.1722665E+04  0.7818608E-02  0.8748542E-01
         -1   -1    0    0    0  501 -0.00000000000E+00  0.00000000000E+00  0.37084831196E+03  0.37084831196E+03  0.00000000000E+00 0.  1.
          1   -1    0    0  501    0  0.00000000000E+00 -0.00000000000E+00 -0.20005324865E+04  0.20005324865E+04  0.00000000000E+00 0. -1.
         23    2    1    2    0    0  0.34252601475E+03  0.35158845690E+03 -0.69239063635E+02  0.50302179975E+03  0.85430493884E+02 0.  0.
        254    2    1    2    0    0 -0.34252601475E+03 -0.35158845690E+03 -0.15604451109E+04  0.18683589987E+04  0.90268371545E+03 0.  0.
         23    2    4    4    0    0 -0.38569834598E+03  0.20626427834E+03 -0.53748994252E+03  0.69883804132E+03  0.90393600850E+02 0.  0.
         23    2    4    4    0    0  0.43172331231E+02 -0.55785273524E+03 -0.10229551684E+04  0.11695209574E+04  0.90986091592E+02 0.  0.
          4    1    3    3  502    0  0.18064214865E+03  0.23278298102E+03 -0.67166323061E+02  0.30220988911E+03  0.00000000000E+00 0.  1.
         -4    1    3    3    0  502  0.16188386610E+03  0.11880547588E+03 -0.20727405735E+01  0.20081191064E+03  0.00000000000E+00 0. -1.
         11    1    5    5    0    0 -0.38742855042E+03  0.20581194216E+03 -0.54000770546E+03  0.69574978201E+03  0.00000000000E+00 0.  1.
        -11    1    5    5    0    0  0.17302044348E+01  0.45233618307E+00  0.25177629332E+01  0.30882593149E+01  0.00000000000E+00 0. -1.
          1    1    6    6  503    0  0.13556124607E+02 -0.25774875894E+02 -0.25829173169E+02  0.38926326930E+02  0.00000000000E+00 0. -1.
         -1    1    6    6    0  503  0.29616206624E+02 -0.53207785935E+03 -0.99712599521E+03  0.11305946305E+04  0.00000000000E+00 0.  1.
<mgrwt>
<rscale>  0 0.17226655E+04</rscale>
<asrwt>0</asrwt>
<pdfrwt beam="1">  1        1 0.30777423E+00 0.17226655E+04</pdfrwt>
<pdfrwt beam="2">  1       -1 0.57053587E-01 0.17226655E+04</pdfrwt>
<totfact> 0.87986097E+00</totfact>
</mgrwt>
</event>
<event>
12    2  0.3751044E-008  0.1548382E+04  0.7818608E-02  0.8852902E-01
         -1   -1    0    0    0  501 -0.00000000000E+00  0.00000000000E+00  0.14566509865E+04  0.14566509865E+04  0.00000000000E+00 0.  1.
          1   -1    0    0  501    0  0.00000000000E+00 -0.00000000000E+00 -0.41147260526E+03  0.41147260526E+03  0.00000000000E+00 0. -1.
         23    2    1    2    0    0 -0.17767796556E+03 -0.47267289569E+03  0.28147681871E+03  0.58553362084E+03  0.92904767872E+02 0.  0.
        254    2    1    2    0    0  0.17767796556E+03  0.47267289569E+03  0.76370156253E+03  0.12825899709E+04  0.89822482217E+03 0.  0.
         23    2    4    4    0    0  0.11940571427E+03 -0.12938542256E+03 -0.10149184884E+03  0.22288836372E+03  0.91544061118E+02 0.  0.
         23    2    4    4    0    0  0.58272251282E+02  0.60205831826E+03  0.86519341137E+03  0.10597016072E+04  0.92401208930E+02 0.  0.
          4    1    3    3  502    0 -0.49503781443E+02 -0.20268570695E+03  0.72620055250E+02  0.22092033090E+03  0.00000000000E+00 0. -1.
         -4    1    3    3    0  502 -0.12817418411E+03 -0.26998718874E+03  0.20885676346E+03  0.36461328994E+03  0.00000000000E+00 0.  1.
         11    1    5    5    0    0  0.32314036567E+02 -0.10215647544E+03 -0.52416159881E+02  0.11927948797E+03  0.00000000000E+00 0. -1.
        -11    1    5    5    0    0  0.87091677706E+02 -0.27228947127E+02 -0.49075688957E+02  0.10360887575E+03  0.00000000000E+00 0.  1.
          1    1    6    6  503    0  0.43961495572E+02  0.10176014712E+03  0.17445278663E+03  0.20669183680E+03  0.00000000000E+00 0. -1.
         -1    1    6    6    0  503  0.14310755710E+02  0.50029817113E+03  0.69074062473E+03  0.85300977042E+03  0.00000000000E+00 0.  1.
<mgrwt>
<rscale>  0 0.15483824E+04</rscale>
<asrwt>0</asrwt>
<pdfrwt beam="1">  1        1 0.63303478E-01 0.15483824E+04</pdfrwt>
<pdfrwt beam="2">  1       -1 0.22410015E+00 0.15483824E+04</pdfrwt>
<totfact> 0.57512724E+00</totfact>
</mgrwt>
</event>
<event>
12    2  0.3751044E-008  0.1358456E+04  0.7818608E-02  0.8984451E-01
          2   -1    0    0  501    0  0.00000000000E+00  0.00000000000E+00  0.89625021891E+03  0.89625021891E+03  0.00000000000E+00 0. -1.
         -2   -1    0    0    0  501 -0.00000000000E+00 -0.00000000000E+00 -0.51475691164E+03  0.51475691164E+03  0.00000000000E+00 0.  1.
         23    2    1    2    0    0  0.73114747999E+02 -0.36083634007E+03  0.15602084182E+03  0.40995925400E+03  0.90418229159E+02 0.  0.
        254    2    1    2    0    0 -0.73114747999E+02  0.36083634007E+03  0.22547246545E+03  0.10010478766E+04  0.90316686597E+03 0.  0.
         23    2    4    4    0    0 -0.25534196379E+03  0.52228514654E+02  0.47888629083E+03  0.55265395065E+03  0.90371308570E+02 0.  0.
         23    2    4    4    0    0  0.18222721579E+03  0.30860782542E+03 -0.25341382538E+03  0.44839392591E+03  0.91613305878E+02 0.  0.
          4    1    3    3  502    0  0.22827071882E+02 -0.14300603865E+03  0.14891644370E+02  0.14558009264E+03  0.00000000000E+00 0.  1.
         -4    1    3    3    0  502  0.50287676117E+02 -0.21783030142E+03  0.14112919745E+03  0.26437916135E+03  0.00000000000E+00 0. -1.
         11    1    5    5    0    0 -0.24510438446E+03  0.64510943973E+02  0.47091281738E+03  0.53478659552E+03  0.00000000000E+00 0.  1.
        -11    1    5    5    0    0 -0.10237579332E+02 -0.12282429318E+02  0.79734734409E+01  0.17867355127E+02  0.00000000000E+00 0. -1.
          1    1    6    6  503    0 -0.70255980709E+00 -0.41095913682E+00 -0.20177907220E+02  0.20194316464E+02  0.00000000000E+00 0. -1.
         -1    1    6    6    0  503  0.18292977560E+03  0.30901878455E+03 -0.23323591816E+03  0.42819960944E+03  0.00000000000E+00 0.  1.
<mgrwt>
<rscale>  0 0.13584565E+04</rscale>
<asrwt>0</asrwt>
<pdfrwt beam="1">  1        2 0.13788465E+00 0.13584565E+04</pdfrwt>
<pdfrwt beam="2">  1       -2 0.79193371E-01 0.13584565E+04</pdfrwt>
<totfact> 0.40729843E+01</totfact>
</mgrwt>
</event>
<event>
12    2  0.3952055E-008  0.2799372E+04  0.7818608E-02  0.8303463E-01
         -1   -1    0    0    0  501 -0.00000000000E+00  0.00000000000E+00  0.16545289596E+04  0.16545289596E+04  0.00000000000E+00 0.  1.
          1   -1    0    0  501    0  0.00000000000E+00 -0.00000000000E+00 -0.11840958487E+04  0.11840958487E+04  0.00000000000E+00 0. -1.
         23    2    1    2    0    0 -0.15256122643E+03  0.71716152110E+03 -0.82536338108E+03  0.11097517270E+04  0.11282113976E+03 0.  0.
        254    2    1    2    0    0  0.15256122643E+03 -0.71716152110E+03  0.12957964920E+04  0.17288730812E+04  0.87881625338E+03 0.  0.
         23    2    4    4    0    0 -0.22484321315E+03 -0.64380792556E+03  0.53422349888E+03  0.87135019131E+03  0.93879143789E+02 0.  0.
         23    2    4    4    0    0  0.37740443958E+03 -0.73353595539E+02  0.76157299313E+03  0.85752288993E+03  0.86817175113E+02 0.  0.
          1    1    3    3  502    0 -0.77384454196E+02  0.58225594677E+03 -0.64983952396E+03  0.87595761781E+03  0.00000000000E+00 0. -1.
         -1    1    3    3    0  502 -0.75176772237E+02  0.13490557433E+03 -0.17552385712E+03  0.23379410918E+03  0.00000000000E+00 0.  1.
         11    1    5    5    0    0 -0.19968115159E+03 -0.62108573281E+03  0.52121871954E+03  0.83503832451E+03  0.00000000000E+00 0. -1.
        -11    1    5    5    0    0 -0.25162061559E+02 -0.22722192750E+02  0.13004779336E+02  0.36311866805E+02  0.00000000000E+00 0.  1.
          2    1    6    6  503    0  0.31987960035E+03 -0.29653947604E+02  0.60180189230E+03  0.68217873970E+03  0.00000000000E+00 0. -1.
         -2    1    6    6    0  503  0.57524839237E+02 -0.43699647935E+02  0.15977110083E+03  0.17534415023E+03  0.00000000000E+00 0.  1.
<mgrwt>
<rscale>  0 0.27993720E+04</rscale>
<asrwt>0</asrwt>
<pdfrwt beam="1">  1        1 0.18216859E+00 0.27993720E+04</pdfrwt>
<pdfrwt beam="2">  1       -1 0.25454292E+00 0.27993720E+04</pdfrwt>
<totfact> 0.61879970E-01</totfact>
</mgrwt>
</event>
<event>
12    2  0.3751044E-008  0.1900543E+04  0.7818608E-02  0.8654586E-01
          1   -1    0    0  501    0  0.00000000000E+00  0.00000000000E+00  0.11376056857E+04  0.11376056857E+04  0.00000000000E+00 0. -1.
         -1   -1    0    0    0  501 -0.00000000000E+00 -0.00000000000E+00 -0.79378616135E+03  0.79378616135E+03  0.00000000000E+00 0.  1.
         23    2    1    2    0    0 -0.13037279728E+03 -0.18963098750E+03  0.83951916648E+03  0.87646715817E+03  0.10220210745E+03 0.  0.
        254    2    1    2    0    0  0.13037279728E+03  0.18963098750E+03 -0.49569964215E+03  0.10549246889E+04  0.90232532174E+03 0.  0.
         23    2    4    4    0    0  0.34759638796E+03 -0.16765957405E+03  0.49455937323E+01  0.39630870770E+03  0.90017505004E+02 0.  0.
         23    2    4    4    0    0 -0.21722359068E+03  0.35729056155E+03 -0.50064523588E+03  0.65861598117E+03  0.91031449041E+02 0.  0.
          1    1    3    3  502    0 -0.88593014217E+02 -0.17625605431E+03  0.56460720109E+03  0.59807709400E+03  0.00000000000E+00 0. -1.
         -1    1    3    3    0  502 -0.41779783061E+02 -0.13374933195E+02  0.27491196540E+03  0.27839006417E+03  0.00000000000E+00 0.  1.
         11    1    5    5    0    0  0.32971542283E+03 -0.17351266963E+03  0.18621131411E+02  0.37304912961E+03  0.00000000000E+00 0. -1.
        -11    1    5    5    0    0  0.17880965127E+02  0.58530955745E+01 -0.13675537679E+02  0.23259578080E+02  0.00000000000E+00 0.  1.
          3    1    6    6  503    0 -0.12140704554E+03  0.25648534759E+03 -0.28629299846E+03  0.40309810865E+03  0.00000000000E+00 0. -1.
         -3    1    6    6    0  503 -0.95816545139E+02  0.10080521397E+03 -0.21435223743E+03  0.25551787251E+03  0.00000000000E+00 0.  1.
<mgrwt>
<rscale>  0 0.19005427E+04</rscale>
<asrwt>0</asrwt>
<pdfrwt beam="1">  1        1 0.17501626E+00 0.19005427E+04</pdfrwt>
<pdfrwt beam="2">  1       -1 0.12212095E+00 0.19005427E+04</pdfrwt>
<totfact> 0.65921708E+00</totfact>
</mgrwt>
</event>
<event>
12    2  0.3751044E-008  0.1583050E+04  0.7818608E-02  0.8831029E-01
         -1   -1    0    0    0  501 -0.00000000000E+00  0.00000000000E+00  0.11840519375E+04  0.11840519375E+04  0.00000000000E+00 0.  1.
          1   -1    0    0  501    0  0.00000000000E+00 -0.00000000000E+00 -0.52912506056E+03  0.52912506056E+03  0.00000000000E+00 0. -1.
         23    2    1    2    0    0 -0.47420678817E+03 -0.69187401238E+01  0.45609141806E+03  0.66456913082E+03  0.93342386406E+02 0.  0.
        254    2    1    2    0    0  0.47420678817E+03  0.69187401238E+01  0.19883545886E+03  0.10486078672E+04  0.91385062926E+03 0.  0.
         23    2    4    4    0    0  0.57654451721E+03  0.33556251688E+03  0.11219271276E+03  0.68268322916E+03  0.91996758239E+02 0.  0.
         23    2    4    4    0    0 -0.10233772904E+03 -0.32864377676E+03  0.86642746098E+02  0.36592463806E+03  0.88961410182E+02 0.  0.
          2    1    3    3  502    0 -0.40458021095E+02  0.29693275092E+01  0.89642347386E+01  0.41545467637E+02  0.00000000000E+00 0. -1.
         -2    1    3    3    0  502 -0.43374876707E+03 -0.98880676330E+01  0.44712718332E+03  0.62302366318E+03  0.00000000000E+00 0.  1.
         11    1    5    5    0    0  0.57872978051E+03  0.33793376457E+03  0.11144065100E+03  0.67937206800E+03  0.00000000000E+00 0.  1.
        -11    1    5    5    0    0 -0.21852633075E+01 -0.23712476879E+01  0.75206176107E+00  0.33111611578E+01  0.00000000000E+00 0. -1.
          3    1    6    6  503    0 -0.11845057169E+02 -0.16707639208E+02 -0.15233948173E+02  0.25524963549E+02  0.00000000000E+00 0. -1.
         -3    1    6    6    0  503 -0.90492671870E+02 -0.31193613755E+03  0.10187669427E+03  0.34039967451E+03  0.00000000000E+00 0.  1.
<mgrwt>
<rscale>  0 0.15830497E+04</rscale>
<asrwt>0</asrwt>
<pdfrwt beam="1">  1        1 0.81403856E-01 0.15830497E+04</pdfrwt>
<pdfrwt beam="2">  1       -1 0.18216184E+00 0.15830497E+04</pdfrwt>
<totfact> 0.79027336E+00</totfact>
</mgrwt>
</event>
<event>
12    2  0.3751044E-008  0.2429944E+04  0.7818608E-02  0.8428377E-01
         -2   -1    0    0    0  501 -0.00000000000E+00  0.00000000000E+00  0.59504739478E+03  0.59504739478E+03  0.00000000000E+00 0.  1.
          2   -1    0    0  501    0  0.00000000000E+00 -0.00000000000E+00 -0.24807384682E+04  0.24807384682E+04  0.00000000000E+00 0. -1.
         23    2    1    2    0    0  0.40257627964E+02  0.32136834784E+02  0.50820620434E+03  0.51878760733E+03  0.90628817901E+02 0.  0.
        254    2    1    2    0    0 -0.40257627964E+02 -0.32136834784E+02 -0.23938972777E+04  0.25569982556E+04  0.89713011885E+03 0.  0.
         23    2    4    4    0    0  0.19096543089E+02  0.30010649244E+03 -0.30583631516E+03  0.43991418196E+03  0.97775513615E+02 0.  0.
         23    2    4    4    0    0 -0.59354171053E+02 -0.33224332722E+03 -0.20880609626E+04  0.21170840737E+04  0.90210007158E+02 0.  0.
          3    1    3    3  502    0 -0.14282325122E+02 -0.15959238736E+02  0.44171114973E+02  0.49089403234E+02  0.00000000000E+00 0. -1.
         -3    1    3    3    0  502  0.54539953087E+02  0.48096073520E+02  0.46403508936E+03  0.46969820410E+03  0.00000000000E+00 0.  1.
         11    1    5    5    0    0 -0.31376294153E+00  0.11974904788E+03 -0.19031309702E+03  0.22485330287E+03  0.00000000000E+00 0.  1.
        -11    1    5    5    0    0  0.19410306030E+02  0.18035744455E+03 -0.11552321814E+03  0.21506087909E+03  0.00000000000E+00 0. -1.
          3    1    6    6  503    0 -0.44959818428E+02 -0.10924889348E+03 -0.94774048970E+03  0.95507525453E+03  0.00000000000E+00 0. -1.
         -3    1    6    6    0  503 -0.14394352625E+02 -0.22299443374E+03 -0.11403204729E+04  0.11620088191E+04  0.00000000000E+00 0.  1.
<mgrwt>
<rscale>  0 0.24299440E+04</rscale>
<asrwt>0</asrwt>
<pdfrwt beam="1">  1        2 0.38165207E+00 0.24299440E+04</pdfrwt>
<pdfrwt beam="2">  1       -2 0.91545754E-01 0.24299440E+04</pdfrwt>
<totfact> 0.32546693E+00</totfact>
</mgrwt>
</event>
<event>
12    2  0.3751044E-008  0.1458009E+04  0.7818608E-02  0.8912867E-01
          1   -1    0    0  501    0  0.00000000000E+00  0.00000000000E+00  0.91888394181E+03  0.91888394181E+03  0.00000000000E+00 0. -1.
         -1   -1    0    0    0  501 -0.00000000000E+00 -0.00000000000E+00 -0.57836168536E+03  0.57836168536E+03  0.00000000000E+00 0.  1.
         23    2    1    2    0    0 -0.34883025617E+03 -0.26164871478E+03  0.41986434604E+02  0.44707450813E+03  0.89275738965E+02 0.  0.
        254    2    1    2    0    0  0.34883025617E+03  0.26164871478E+03  0.29853582184E+03  0.10501711190E+04  0.90752032746E+03 0.  0.
         23    2    4    4    0    0  0.52967381972E+03  0.46547114456E+03  0.28238702267E+03  0.76484155879E+03  0.89568062154E+02 0.  0.
         23    2    4    4    0    0 -0.18084356355E+03 -0.20382242978E+03  0.16148799170E+02  0.28532956024E+03  0.83091496984E+02 0.  0.
          2    1    3    3  502    0 -0.97118140772E+01 -0.35507386562E+02 -0.33150711903E+01  0.36960567232E+02  0.00000000000E+00 0. -1.
         -2    1    3    3    0  502 -0.33911844209E+03 -0.22614132822E+03  0.45301505794E+02  0.41011394090E+03  0.00000000000E+00 0.  1.
         11    1    5    5    0    0  0.14626276902E+03  0.14175499591E+03  0.12483692662E+03  0.23889649373E+03  0.00000000000E+00 0.  1.
        -11    1    5    5    0    0  0.38341105070E+03  0.32371614865E+03  0.15755009606E+03  0.52594506506E+03  0.00000000000E+00 0. -1.
          3    1    6    6  503    0 -0.53449768745E+02 -0.62303787510E+02  0.43599296616E+02  0.92949117169E+02  0.00000000000E+00 0. -1.
         -3    1    6    6    0  503 -0.12739379481E+03 -0.14151864227E+03 -0.27450497446E+02  0.19238044307E+03  0.00000000000E+00 0.  1.
<mgrwt>
<rscale>  0 0.14580086E+04</rscale>
<asrwt>0</asrwt>
<pdfrwt beam="1">  1        1 0.14136676E+00 0.14580086E+04</pdfrwt>
<pdfrwt beam="2">  1       -1 0.88978721E-01 0.14580086E+04</pdfrwt>
<totfact> 0.21121330E+01</totfact>
</mgrwt>
</event>
<event>
12    2  0.3751044E-008  0.1760302E+04  0.7818608E-02  0.8727700E-01
          2   -1    0    0  501    0  0.00000000000E+00  0.00000000000E+00  0.22154270825E+04  0.22154270825E+04  0.00000000000E+00 0. -1.
         -2   -1    0    0    0  501 -0.00000000000E+00 -0.00000000000E+00 -0.34966880365E+03  0.34966880365E+03  0.00000000000E+00 0.  1.
         23    2    1    2    0    0  0.53374260604E+03 -0.25754141743E+03  0.93676421477E+03  0.11122224382E+04  0.91119738170E+02 0.  0.
        254    2    1    2    0    0 -0.53374260604E+03  0.25754141743E+03  0.92899406404E+03  0.14528734479E+04  0.94689098291E+03 0.  0.
         23    2    4    4    0    0 -0.51093014792E+03 -0.11927666942E+03  0.10602911469E+03  0.54273696343E+03  0.89692242619E+02 0.  0.
         23    2    4    4    0    0 -0.22812458119E+02  0.37681808685E+03  0.82296494936E+03  0.91013648452E+03  0.92546387048E+02 0.  0.
          4    1    3    3  502    0  0.15214453473E+03 -0.69986694105E+02  0.19328781454E+03  0.25574650740E+03  0.00000000000E+00 0. -1.
         -4    1    3    3    0  502  0.38159807131E+03 -0.18755472332E+03  0.74347640023E+03  0.85647593076E+03  0.00000000000E+00 0.  1.
         11    1    5    5    0    0 -0.10099504423E+02 -0.18842330911E+02  0.63373743359E+01  0.22297886385E+02  0.00000000000E+00 0.  1.
        -11    1    5    5    0    0 -0.50083064350E+03 -0.10043433851E+03  0.99691740350E+02  0.52043907704E+03  0.00000000000E+00 0. -1.
          2    1    6    6  503    0  0.33667792958E+02  0.85680370109E+02  0.20197701079E+03  0.22196702231E+03  0.00000000000E+00 0.  1.
         -2    1    6    6    0  503 -0.56480251077E+02  0.29113771674E+03  0.62098793857E+03  0.68816946221E+03  0.00000000000E+00 0. -1.
<mgrwt>
<rscale>  0 0.17603019E+04</rscale>
<asrwt>0</asrwt>
<pdfrwt beam="1">  1        2 0.34083493E+00 0.17603019E+04</pdfrwt>
<pdfrwt beam="2">  1       -2 0.53795202E-01 0.17603019E+04</pdfrwt>
<totfact> 0.15610987E+01</totfact>
</mgrwt>
</event>
<event>
12    2  0.3751044E-008  0.2145698E+04  0.7818608E-02  0.8541376E-01
         -2   -1    0    0    0  501 -0.00000000000E+00  0.00000000000E+00  0.91738581332E+03  0.91738581332E+03  0.00000000000E+00 0.  1.
          2   -1    0    0  501    0  0.00000000000E+00 -0.00000000000E+00 -0.12546569987E+04  0.12546569987E+04  0.00000000000E+00 0. -1.
         23    2    1    2    0    0  0.33542838481E+03 -0.74123910605E+03  0.19732551900E+03  0.84227644127E+03  0.92437164584E+02 0.  0.
        254    2    1    2    0    0 -0.33542838481E+03  0.74123910605E+03 -0.53459670435E+03  0.13297663707E+04  0.90583516751E+03 0.  0.
         23    2    4    4    0    0 -0.13987826423E+03 -0.15324257138E+03  0.59794882552E+02  0.23433226537E+03  0.91032786019E+02 0.  0.
         23    2    4    4    0    0 -0.19555012058E+03  0.89448167743E+03 -0.59439158690E+03  0.10954341053E+04  0.91308267115E+02 0.  0.
          4    1    3    3  502    0  0.15346818381E+02 -0.10979024578E+03  0.29486349529E+02  0.11471210796E+03  0.00000000000E+00 0. -1.
         -4    1    3    3    0  502  0.32008156643E+03 -0.63144886027E+03  0.16783916947E+03  0.72756433332E+03  0.00000000000E+00 0.  1.
         11    1    5    5    0    0 -0.14829007699E+03 -0.11576617758E+03  0.51283489726E+02  0.19499166937E+03  0.00000000000E+00 0.  1.
        -11    1    5    5    0    0  0.84118127658E+01 -0.37476393793E+02  0.85113928263E+01  0.39340595999E+02  0.00000000000E+00 0. -1.
          2    1    6    6  503    0 -0.18214039288E+03  0.65664793645E+03 -0.42450423578E+03  0.80284835515E+03  0.00000000000E+00 0. -1.
         -2    1    6    6    0  503 -0.13409727697E+02  0.23783374098E+03 -0.16988735112E+03  0.29258575019E+03  0.00000000000E+00 0.  1.
<mgrwt>
<rscale>  0 0.21456976E+04</rscale>
<asrwt>0</asrwt>
<pdfrwt beam="1">  1        2 0.19302415E+00 0.21456976E+04</pdfrwt>
<pdfrwt beam="2">  1       -2 0.14113628E+00 0.21456976E+04</pdfrwt>
<totfact> 0.56757775E+00</totfact>
</mgrwt>
</event>
<event>
12    2  0.5652456E-008  0.3168659E+04  0.7818608E-02  0.8197144E-01
         -3   -1    0    0    0  501 -0.00000000000E+00  0.00000000000E+00  0.14096822649E+04  0.14096822649E+04  0.00000000000E+00 0.  1.
          3   -1    0    0  501    0  0.00000000000E+00 -0.00000000000E+00 -0.17806138741E+04  0.17806138741E+04  0.00000000000E+00 0. -1.
         23    2    1    2    0    0 -0.12712865214E+04 -0.26441632795E+03  0.47602310114E+03  0.13853853085E+04  0.81296040037E+02 0.  0.
        254    2    1    2    0    0  0.12712865214E+04  0.26441632795E+03 -0.84695471029E+03  0.18049108305E+04  0.92427561401E+03 0.  0.
         23    2    4    4    0    0  0.56736011513E+03  0.33161713230E+02  0.11491746516E+03  0.58745432188E+03  0.94336403583E+02 0.  0.
         23    2    4    4    0    0  0.70392640631E+03  0.23125461472E+03 -0.96187217545E+03  0.12174565086E+04  0.89505229500E+02 0.  0.
          4    1    3    3  502    0 -0.38877638440E+02 -0.19620703942E+02  0.26119245410E+02  0.50780486160E+02  0.00000000000E+00 0. -1.
         -4    1    3    3    0  502 -0.12324088830E+04 -0.24479562401E+03  0.44990385573E+03  0.13346048223E+04  0.00000000000E+00 0.  1.
         11    1    5    5    0    0  0.38306493977E+02 -0.16257437801E+02 -0.72344822334E+01  0.42237773353E+02  0.00000000000E+00 0. -1.
        -11    1    5    5    0    0  0.52905362115E+03  0.49419151031E+02  0.12215194739E+03  0.54521654853E+03  0.00000000000E+00 0.  1.
          1    1    6    6  503    0  0.18631175533E+03  0.49747070723E+02 -0.19160001989E+03  0.27184077847E+03  0.00000000000E+00 0. -1.
         -1    1    6    6    0  503  0.51761465098E+03  0.18150754400E+03 -0.77027215556E+03  0.94561573013E+03  0.00000000000E+00 0.  1.
<mgrwt>
<rscale>  0 0.31686589E+04</rscale>
<asrwt>0</asrwt>
<pdfrwt beam="1">  1        3 0.27394059E+00 0.31686589E+04</pdfrwt>
<pdfrwt beam="2">  1       -3 0.21687420E+00 0.31686589E+04</pdfrwt>
<totfact> 0.13584251E-02</totfact>
</mgrwt>
</event>
<event>
12    2  0.3751044E-008  0.1930972E+04  0.7818608E-02  0.8639591E-01
          1   -1    0    0  501    0  0.00000000000E+00  0.00000000000E+00  0.32507116796E+04  0.32507116796E+04  0.00000000000E+00 0. -1.
         -1   -1    0    0    0  501 -0.00000000000E+00 -0.00000000000E+00 -0.28675670956E+03  0.28675670956E+03  0.00000000000E+00 0.  1.
         23    2    1    2    0    0  0.48282166471E+03 -0.55619313714E+03  0.81271861679E+03  0.11005428961E+04  0.90639672714E+02 0.  0.
        254    2    1    2    0    0 -0.48282166471E+03  0.55619313714E+03  0.21512363532E+04  0.24369254931E+04  0.87653890138E+03 0.  0.
         23    2    4    4    0    0 -0.52285277514E+03  0.62107157287E+03  0.21695908495E+04  0.23182142303E+04  0.88813514691E+02 0.  0.
         23    2    4    4    0    0  0.40031110429E+02 -0.64878435723E+02 -0.18354496264E+02  0.11871126275E+03  0.89127858422E+02 0.  0.
          1    1    3    3  502    0  0.43351975390E+02 -0.24495666381E+02  0.79801252393E+02  0.94062061030E+02  0.00000000000E+00 0. -1.
         -1    1    3    3    0  502  0.43946968932E+03 -0.53169747076E+03  0.73291736440E+03  0.10064808350E+04  0.00000000000E+00 0.  1.
         11    1    5    5    0    0 -0.19215083536E+03  0.25096207346E+03  0.96233565193E+03  0.10129135268E+04  0.00000000000E+00 0. -1.
        -11    1    5    5    0    0 -0.33070193977E+03  0.37010949941E+03  0.12072551975E+04  0.13053007035E+04  0.00000000000E+00 0.  1.
          3    1    6    6  503    0 -0.16750087481E+02  0.12474219726E+02 -0.72856223474E+01  0.22119038889E+02  0.00000000000E+00 0. -1.
         -3    1    6    6    0  503  0.56781197910E+02 -0.77352655449E+02 -0.11068873917E+02  0.96592223863E+02  0.00000000000E+00 0.  1.
<mgrwt>
<rscale>  0 0.19309722E+04</rscale>
<asrwt>0</asrwt>
<pdfrwt beam="1">  1        1 0.50010946E+00 0.19309722E+04</pdfrwt>
<pdfrwt beam="2">  1       -1 0.44116419E-01 0.19309722E+04</pdfrwt>
<totfact> 0.18526068E+00</totfact>
</mgrwt>
</event>
<event>
12    2  0.3751044E-008  0.1565655E+04  0.7818608E-02  0.8841930E-01
         -1   -1    0    0    0  501 -0.00000000000E+00  0.00000000000E+00  0.81965841744E+03  0.81965841744E+03  0.00000000000E+00 0.  1.
          1   -1    0    0  501    0  0.00000000000E+00 -0.00000000000E+00 -0.74765157789E+03  0.74765157789E+03  0.00000000000E+00 0. -1.
         23    2    1    2    0    0 -0.33046448650E+03  0.32223796875E+03  0.26109883844E+03  0.53802606623E+03  0.90859007052E+02 0.  0.
        254    2    1    2    0    0  0.33046448650E+03 -0.32223796875E+03 -0.18909199889E+03  0.10292839291E+04  0.90034745367E+03 0.  0.
         23    2    4    4    0    0  0.28392199644E+03  0.11334832462E+03  0.24738908311E+03  0.40420833151E+03  0.93399539943E+02 0.  0.
         23    2    4    4    0    0  0.46542490057E+02 -0.43558629337E+03 -0.43648108200E+03  0.62507559759E+03  0.91116109487E+02 0.  0.
          4    1    3    3  502    0 -0.72177289105E+02  0.10369454742E+03  0.10984910905E+03  0.16741847863E+03  0.00000000000E+00 0. -1.
         -4    1    3    3    0  502 -0.25828719739E+03  0.21854342133E+03  0.15124972939E+03  0.37060758760E+03  0.00000000000E+00 0.  1.
         11    1    5    5    0    0  0.25610774539E+03  0.12678753594E+03  0.20473533268E+03  0.35154347237E+03  0.00000000000E+00 0. -1.
        -11    1    5    5    0    0  0.27814251058E+02 -0.13439211321E+02  0.42653750428E+02  0.52664859141E+02  0.00000000000E+00 0.  1.
          3    1    6    6  503    0  0.65497879320E+02 -0.32831198298E+03 -0.36221567017E+03  0.49323313157E+03  0.00000000000E+00 0. -1.
         -3    1    6    6    0  503 -0.18955389263E+02 -0.10727431039E+03 -0.74265411829E+02  0.13184246602E+03  0.00000000000E+00 0.  1.
<mgrwt>
<rscale>  0 0.15656550E+04</rscale>
<asrwt>0</asrwt>
<pdfrwt beam="1">  1        1 0.11502332E+00 0.15656550E+04</pdfrwt>
<pdfrwt beam="2">  1       -1 0.12610130E+00 0.15656550E+04</pdfrwt>
<totfact> 0.12969974E+01</totfact>
</mgrwt>
</event>
<event>
12    2  0.3751044E-008  0.2454865E+04  0.7818608E-02  0.8419244E-01
         -2   -1    0    0    0  501 -0.00000000000E+00  0.00000000000E+00  0.14471071571E+04  0.14471071571E+04  0.00000000000E+00 0.  1.
          2   -1    0    0  501    0  0.00000000000E+00 -0.00000000000E+00 -0.10411054497E+04  0.10411054497E+04  0.00000000000E+00 0. -1.
         23    2    1    2    0    0 -0.36099265394E+03 -0.76592818462E+03 -0.48521193338E+03  0.98018072401E+03  0.91443705316E+02 0.  0.
        254    2    1    2    0    0  0.36099265394E+03  0.76592818462E+03  0.89121364077E+03  0.15080318828E+04  0.87346249254E+03 0.  0.
         23    2    4    4    0    0  0.35133036846E+03  0.23465123041E+03  0.86576937384E+03  0.96833080776E+03  0.98049563122E+02 0.  0.
         23    2    4    4    0    0  0.96622854741E+01  0.53127695421E+03  0.25444266929E+02  0.53970107505E+03  0.91001526671E+02 0.  0.
          3    1    3    3  502    0 -0.33645653012E+03 -0.67062208802E+03 -0.40141055266E+03  0.85092150836E+03  0.00000000000E+00 0. -1.
         -3    1    3    3    0  502 -0.24536123816E+02 -0.95306096597E+02 -0.83801380719E+02  0.12925921565E+03  0.00000000000E+00 0.  1.
         11    1    5    5    0    0  0.26553715283E+03  0.18742455038E+03  0.74523169194E+03  0.81302411790E+03  0.00000000000E+00 0. -1.
        -11    1    5    5    0    0  0.85793215630E+02  0.47226680036E+02  0.12053768191E+03  0.15530668986E+03  0.00000000000E+00 0.  1.
          3    1    6    6  503    0  0.27765224643E+02  0.32831838957E+03  0.54197688837E+02  0.33391804699E+03  0.00000000000E+00 0. -1.
         -3    1    6    6    0  503 -0.18102939169E+02  0.20295856463E+03 -0.28753421907E+02  0.20578302806E+03  0.00000000000E+00 0.  1.
<mgrwt>
<rscale>  0 0.24548655E+04</rscale>
<asrwt>0</asrwt>
<pdfrwt beam="1">  1        2 0.16017007E+00 0.24548655E+04</pdfrwt>
<pdfrwt beam="2">  1       -2 0.22263187E+00 0.24548655E+04</pdfrwt>
<totfact> 0.20188006E+00</totfact>
</mgrwt>
</event>
<event>
12    2  0.3751044E-008  0.1557201E+04  0.7818608E-02  0.8847281E-01
          1   -1    0    0  501    0  0.00000000000E+00  0.00000000000E+00  0.50124044524E+03  0.50124044524E+03  0.00000000000E+00 0. -1.
         -1   -1    0    0    0  501 -0.00000000000E+00 -0.00000000000E+00 -0.12094370470E+04  0.12094370470E+04  0.00000000000E+00 0.  1.
         23    2    1    2    0    0  0.31335394841E+03 -0.15493302281E+03 -0.64416484464E+03  0.73845191860E+03  0.90376714190E+02 0.  0.
        254    2    1    2    0    0 -0.31335394841E+03  0.15493302281E+03 -0.64031757097E+02  0.97222557363E+03  0.90494616501E+03 0.  0.
         23    2    4    4    0    0  0.42567210975E+02  0.44505505847E+03  0.11465431464E+03  0.47128460478E+03  0.95276410098E+02 0.  0.
         23    2    4    4    0    0 -0.35592115938E+03 -0.29012203565E+03 -0.17868607173E+03  0.50094096885E+03  0.90346415381E+02 0.  0.
          3    1    3    3  502    0  0.13890118243E+03 -0.54460625938E+02 -0.18929137592E+03  0.24102017188E+03  0.00000000000E+00 0. -1.
         -3    1    3    3    0  502  0.17445276598E+03 -0.10047239687E+03 -0.45487346872E+03  0.49743174672E+03  0.00000000000E+00 0.  1.
         11    1    5    5    0    0  0.36019428735E+02  0.25841417646E+03  0.11348715865E+03  0.28452525551E+03  0.00000000000E+00 0. -1.
        -11    1    5    5    0    0  0.65477822398E+01  0.18664088201E+03  0.11671559868E+01  0.18675934927E+03  0.00000000000E+00 0.  1.
          4    1    6    6  503    0 -0.12445625774E+03 -0.96280638634E+02 -0.10804794147E+03  0.19087608316E+03  0.00000000000E+00 0. -1.
         -4    1    6    6    0  503 -0.23146490164E+03 -0.19384139702E+03 -0.70638130265E+02  0.31006488569E+03  0.00000000000E+00 0.  1.
<mgrwt>
<rscale>  0 0.15572010E+04</rscale>
<asrwt>0</asrwt>
<pdfrwt beam="1">  1        1 0.77113915E-01 0.15572010E+04</pdfrwt>
<pdfrwt beam="2">  1       -1 0.18606724E+00 0.15572010E+04</pdfrwt>
<totfact> 0.80097677E+00</totfact>
</mgrwt>
</event>
<event>
12    2  0.3751044E-008  0.1273491E+04  0.7818608E-02  0.9050856E-01
          1   -1    0    0  501    0  0.00000000000E+00  0.00000000000E+00  0.10792580113E+04  0.10792580113E+04  0.00000000000E+00 0. -1.
         -1   -1    0    0    0  501 -0.00000000000E+00 -0.00000000000E+00 -0.37566978569E+03  0.37566978569E+03  0.00000000000E+00 0.  1.
         23    2    1    2    0    0  0.27023432298E+03 -0.71433725199E+02  0.32658322807E+03  0.43959194576E+03  0.91951658530E+02 0.  0.
        254    2    1    2    0    0 -0.27023432298E+03  0.71433725199E+02  0.37700499752E+03  0.10153358512E+04  0.90035812663E+03 0.  0.
         23    2    4    4    0    0 -0.55106635840E+03  0.23583088531E+01  0.43474863863E+03  0.70747018638E+03  0.88475945067E+02 0.  0.
         23    2    4    4    0    0  0.28083203542E+03  0.69075416345E+02 -0.57743641111E+02  0.30786566483E+03  0.88367947982E+02 0.  0.
          4    1    3    3  502    0  0.16400204461E+02 -0.26669059321E+02  0.66100726368E+02  0.73140354510E+02  0.00000000000E+00 0.  1.
         -4    1    3    3    0  502  0.25383411852E+03 -0.44764665878E+02  0.26048250170E+03  0.36645159125E+03  0.00000000000E+00 0. -1.
         11    1    5    5    0    0 -0.41171979001E+03  0.16243724824E+02  0.27679880064E+03  0.49638152677E+03  0.00000000000E+00 0. -1.
        -11    1    5    5    0    0 -0.13934656839E+03 -0.13885415971E+02  0.15794983798E+03  0.21108865961E+03  0.00000000000E+00 0.  1.
          1    1    6    6  503    0  0.25296129776E+03  0.36000408311E+02 -0.31933275098E+02  0.25749792547E+03  0.00000000000E+00 0. -1.
         -1    1    6    6    0  503  0.27870737655E+02  0.33075008034E+02 -0.25810366013E+02  0.50367739354E+02  0.00000000000E+00 0.  1.
<mgrwt>
<rscale>  0 0.12734907E+04</rscale>
<asrwt>0</asrwt>
<pdfrwt beam="1">  1        1 0.16603969E+00 0.12734907E+04</pdfrwt>
<pdfrwt beam="2">  1       -1 0.57795352E-01 0.12734907E+04</pdfrwt>
<totfact> 0.39242283E+01</totfact>
</mgrwt>
</event>
<event>
12    2  0.3751044E-008  0.2278767E+04  0.7818608E-02  0.8486340E-01
          2   -1    0    0  501    0  0.00000000000E+00  0.00000000000E+00  0.17841430889E+04  0.17841430889E+04  0.00000000000E+00 0. -1.
         -2   -1    0    0    0  501 -0.00000000000E+00 -0.00000000000E+00 -0.72762909609E+03  0.72762909609E+03  0.00000000000E+00 0.  1.
         23    2    1    2    0    0 -0.33252272219E+03 -0.89925386525E+03  0.51721041127E+03  0.10932090023E+04  0.91490099605E+02 0.  0.
        254    2    1    2    0    0  0.33252272219E+03  0.89925386525E+03  0.53930358154E+03  0.14185631827E+04  0.89568090030E+03 0.  0.
         23    2    4    4    0    0 -0.26684280750E+03  0.45561525282E+03  0.92482010502E+02  0.54448756093E+03  0.95516696081E+02 0.  0.
         23    2    4    4    0    0  0.59936552969E+03  0.44363861243E+03  0.44682157104E+03  0.87407562172E+03  0.91128587765E+02 0.  0.
          4    1    3    3  502    0 -0.22156337339E+03 -0.53178549752E+03  0.26664307281E+03  0.63481073721E+03  0.00000000000E+00 0. -1.
         -4    1    3    3    0  502 -0.11095934880E+03 -0.36746836773E+03  0.25056733846E+03  0.45839826513E+03  0.00000000000E+00 0.  1.
         11    1    5    5    0    0  0.68966756689E+01  0.49427612511E+01 -0.21877196528E+01  0.87624848842E+01  0.00000000000E+00 0.  1.
        -11    1    5    5    0    0 -0.27373948317E+03  0.45067249157E+03  0.94669730155E+02  0.53572507605E+03  0.00000000000E+00 0. -1.
          3    1    6    6  503    0  0.44529020208E+03  0.36646811478E+03  0.37159447946E+03  0.68605007134E+03  0.00000000000E+00 0. -1.
         -3    1    6    6    0  503  0.15407532761E+03  0.77170497647E+02  0.75227091578E+02  0.18802555037E+03  0.00000000000E+00 0.  1.
<mgrwt>
<rscale>  0 0.22787667E+04</rscale>
<asrwt>0</asrwt>
<pdfrwt beam="1">  1        2 0.27448355E+00 0.22787667E+04</pdfrwt>
<pdfrwt beam="2">  1       -2 0.11194294E+00 0.22787667E+04</pdfrwt>
<totfact> 0.50358249E+00</totfact>
</mgrwt>
</event>
<event>
12    2  0.3751044E-008  0.1430247E+04  0.7818608E-02  0.8932210E-01
         -1   -1    0    0    0  501 -0.00000000000E+00  0.00000000000E+00  0.29225903648E+03  0.29225903648E+03  0.00000000000E+00 0.  1.
          1   -1    0    0  501    0  0.00000000000E+00 -0.00000000000E+00 -0.17498236309E+04  0.17498236309E+04  0.00000000000E+00 0. -1.
         23    2    1    2    0    0 -0.39743299225E+03 -0.68534876356E+02 -0.65881327823E+03  0.77794609557E+03  0.92277729902E+02 0.  0.
        254    2    1    2    0    0  0.39743299225E+03  0.68534876356E+02 -0.79875131623E+03  0.12641365718E+04  0.89296561776E+03 0.  0.
         23    2    4    4    0    0  0.35906110158E+03 -0.19391543984E+03 -0.87878871050E+03  0.97344386590E+03  0.93783206793E+02 0.  0.
         23    2    4    4    0    0  0.38371890663E+02  0.26245031619E+03  0.80037394269E+02  0.29069270595E+03  0.87998263319E+02 0.  0.
          2    1    3    3  502    0 -0.32694983212E+03 -0.21675196681E+02 -0.54825783698E+03  0.63871172112E+03  0.00000000000E+00 0. -1.
         -2    1    3    3    0  502 -0.70483160123E+02 -0.46859679675E+02 -0.11055544124E+03  0.13923437445E+03  0.00000000000E+00 0.  1.
         11    1    5    5    0    0  0.71511626588E+02 -0.32702437016E+02 -0.96149755858E+02  0.12421005465E+03  0.00000000000E+00 0. -1.
        -11    1    5    5    0    0  0.28754947499E+03 -0.16121300282E+03 -0.78263895464E+03  0.84923381125E+03  0.00000000000E+00 0.  1.
          1    1    6    6  503    0 -0.17620688049E+02  0.54082255685E+02 -0.84265522042E+01  0.57501180939E+02  0.00000000000E+00 0. -1.
         -1    1    6    6    0  503  0.55992578711E+02  0.20836806051E+03  0.88463946473E+02  0.23319152501E+03  0.00000000000E+00 0.  1.
<mgrwt>
<rscale>  0 0.14302472E+04</rscale>
<asrwt>0</asrwt>
<pdfrwt beam="1">  1        1 0.26920364E+00 0.14302472E+04</pdfrwt>
<pdfrwt beam="2">  1       -1 0.44962929E-01 0.14302472E+04</pdfrwt>
<totfact> 0.21032914E+01</totfact>
</mgrwt>
</event>
<event>
12    2  0.3751044E-008  0.2130223E+04  0.7818608E-02  0.8548046E-01
          2   -1    0    0  501    0  0.00000000000E+00  0.00000000000E+00  0.25562089927E+04  0.25562089927E+04  0.00000000000E+00 0. -1.
         -2   -1    0    0    0  501 -0.00000000000E+00 -0.00000000000E+00 -0.44380656827E+03  0.44380656827E+03  0.00000000000E+00 0.  1.
         23    2    1    2    0    0 -0.33418618592E+03  0.19941713705E+03  0.19936115182E+04  0.20334390197E+04  0.94550304017E+02 0.  0.
        254    2    1    2    0    0  0.33418618592E+03 -0.19941713705E+03  0.11879090623E+03  0.96657654125E+03  0.87676184296E+03 0.  0.
         23    2    4    4    0    0  0.12565395097E+03  0.65009008509E+02 -0.34674410557E+03  0.38505622309E+03  0.89564131270E+02 0.  0.
         23    2    4    4    0    0  0.20853223495E+03 -0.26442614556E+03  0.46553501180E+03  0.58152031816E+03  0.89644596878E+02 0.  0.
          4    1    3    3  502    0 -0.31133916234E+03  0.16148512584E+03  0.16412512759E+04  0.16783072634E+04  0.00000000000E+00 0. -1.
         -4    1    3    3    0  502 -0.22847023586E+02  0.37932011211E+02  0.35236024232E+03  0.35513175630E+03  0.00000000000E+00 0.  1.
         11    1    5    5    0    0  0.12707110384E+03  0.77333981979E+02 -0.33957553355E+03  0.37072786945E+03  0.00000000000E+00 0.  1.
        -11    1    5    5    0    0 -0.14171528653E+01 -0.12324973470E+02 -0.71685720207E+01  0.14328353643E+02  0.00000000000E+00 0. -1.
          3    1    6    6  503    0  0.31796569754E+02 -0.65799873619E+02  0.51246088085E+02  0.89256970375E+02  0.00000000000E+00 0. -1.
         -3    1    6    6    0  503  0.17673566520E+03 -0.19862627194E+03  0.41428892371E+03  0.49226334778E+03  0.00000000000E+00 0.  1.
<mgrwt>
<rscale>  0 0.21302228E+04</rscale>
<asrwt>0</asrwt>
<pdfrwt beam="1">  1        2 0.39326291E+00 0.21302228E+04</pdfrwt>
<pdfrwt beam="2">  1       -2 0.68277935E-01 0.21302228E+04</pdfrwt>
<totfact> 0.58269524E+00</totfact>
</mgrwt>
</event>
<event>
12    2  0.3751044E-008  0.1393201E+04  0.7818608E-02  0.8958755E-01
          2   -1    0    0  501    0  0.00000000000E+00  0.00000000000E+00  0.11316116919E+04  0.11316116919E+04  0.00000000000E+00 0. -1.
         -2   -1    0    0    0  501 -0.00000000000E+00 -0.00000000000E+00 -0.42881506859E+03  0.42881506859E+03  0.00000000000E+00 0.  1.
         23    2    1    2    0    0 -0.15391821213E+03 -0.11095481312E+03  0.60099399477E+03  0.63718054355E+03  0.93826844506E+02 0.  0.
        254    2    1    2    0    0  0.15391821213E+03  0.11095481312E+03  0.10180262849E+03  0.92324621689E+03  0.89778506072E+03 0.  0.
         23    2    4    4    0    0  0.21849862246E+03  0.20064086966E+03 -0.33990510512E+03  0.45896658419E+03  0.84358984833E+02 0.  0.
         23    2    4    4    0    0 -0.64580410330E+02 -0.89686056539E+02  0.44170773362E+03  0.46427963270E+03  0.90750411945E+02 0.  0.
          3    1    3    3  502    0 -0.16158811800E+03 -0.87401689574E+02  0.55912951329E+03  0.58853681945E+03  0.00000000000E+00 0. -1.
         -3    1    3    3    0  502  0.76699058634E+01 -0.23553123545E+02  0.41864481478E+02  0.48643724098E+02  0.00000000000E+00 0.  1.
         11    1    5    5    0    0  0.12629940610E+03  0.11917728546E+03 -0.13496652264E+03  0.21993346172E+03  0.00000000000E+00 0.  1.
        -11    1    5    5    0    0  0.92199216366E+02  0.81463584195E+02 -0.20493858249E+03  0.23903312248E+03  0.00000000000E+00 0. -1.
          3    1    6    6  503    0 -0.42911369174E+02 -0.80863818323E+02  0.42686879418E+03  0.43657451846E+03  0.00000000000E+00 0. -1.
         -3    1    6    6    0  503 -0.21669041156E+02 -0.88222382159E+01  0.14838939433E+02  0.27705114243E+02  0.00000000000E+00 0.  1.
<mgrwt>
<rscale>  0 0.13932008E+04</rscale>
<asrwt>0</asrwt>
<pdfrwt beam="1">  1        2 0.17409410E+00 0.13932008E+04</pdfrwt>
<pdfrwt beam="2">  1       -2 0.65971550E-01 0.13932008E+04</pdfrwt>
<totfact> 0.42899546E+01</totfact>
</mgrwt>
</event>
<event>
12    2  0.3751044E-008  0.1682668E+04  0.7818608E-02  0.8771312E-01
         -2   -1    0    0    0  501 -0.00000000000E+00  0.00000000000E+00  0.30115057453E+03  0.30115057453E+03  0.00000000000E+00 0. -1.
          2   -1    0    0  501    0  0.00000000000E+00 -0.00000000000E+00 -0.23504617013E+04  0.23504617013E+04  0.00000000000E+00 0.  1.
         23    2    1    2    0    0 -0.47693371758E+03 -0.21470833839E+03 -0.12100830449E+04  0.13214672216E+04  0.91701692809E+02 0.  0.
        254    2    1    2    0    0  0.47693371758E+03  0.21470833839E+03 -0.83922808187E+03  0.13301450543E+04  0.88961601299E+03 0.  0.
         23    2    4    4    0    0  0.46254804325E+03 -0.23097265820E+03 -0.23741880464E+03  0.57552168143E+03  0.86939380350E+02 0.  0.
         23    2    4    4    0    0  0.14385674331E+02  0.44568099659E+03 -0.60180927723E+03  0.75462337287E+03  0.91888684743E+02 0.  0.
          4    1    3    3  502    0 -0.44644054323E+03 -0.18339674385E+03 -0.11499541918E+04  0.12471319768E+04  0.00000000000E+00 0. -1.
         -4    1    3    3    0  502 -0.30493174358E+02 -0.31311594537E+02 -0.60128853119E+02  0.74335244751E+02  0.00000000000E+00 0.  1.
         11    1    5    5    0    0  0.52330893866E+02 -0.81312022372E+01 -0.48819883224E+02  0.72027910567E+02  0.00000000000E+00 0. -1.
        -11    1    5    5    0    0  0.41021714939E+03 -0.22284145596E+03 -0.18859892141E+03  0.50349377087E+03  0.00000000000E+00 0.  1.
          3    1    6    6  503    0  0.41762619345E+02  0.15274189615E+03 -0.17234937792E+03  0.23404809609E+03  0.00000000000E+00 0. -1.
         -3    1    6    6    0  503 -0.27376945014E+02  0.29293910043E+03 -0.42945989931E+03  0.52057527679E+03  0.00000000000E+00 0.  1.
<mgrwt>
<rscale>  0 0.16826680E+04</rscale>
<asrwt>0</asrwt>
<pdfrwt beam="1">  1        2 0.36160948E+00 0.16826680E+04</pdfrwt>
<pdfrwt beam="2">  1       -2 0.46330859E-01 0.16826680E+04</pdfrwt>
<totfact> 0.17878283E+01</totfact>
</mgrwt>
</event>
<event>
12    2  0.3751044E-008  0.1508918E+04  0.7818608E-02  0.8878544E-01
         -3   -1    0    0    0  501 -0.00000000000E+00  0.00000000000E+00  0.60096004023E+03  0.60096004023E+03  0.00000000000E+00 0.  1.
          3   -1    0    0  501    0  0.00000000000E+00 -0.00000000000E+00 -0.94716524176E+03  0.94716524176E+03  0.00000000000E+00 0. -1.
         23    2    1    2    0    0  0.37349019742E+02 -0.36045497055E+03  0.21695278564E+03  0.43204901522E+03  0.90967605663E+02 0.  0.
        254    2    1    2    0    0 -0.37349019742E+02  0.36045497055E+03 -0.56315798718E+03  0.11160762668E+04  0.89283625579E+03 0.  0.
         23    2    4    4    0    0  0.18447089367E+03  0.58809037606E+03 -0.29134560121E+03  0.68779791467E+03  0.91125797968E+02 0.  0.
         23    2    4    4    0    0 -0.22181991341E+03 -0.22763540551E+03 -0.27181238597E+03  0.42827835210E+03  0.92295297193E+02 0.  0.
          3    1    3    3  502    0  0.52697862278E+02 -0.11967756679E+03  0.95583181480E+02  0.16197508840E+03  0.00000000000E+00 0. -1.
         -3    1    3    3    0  502 -0.15348842536E+02 -0.24077740376E+03  0.12136960416E+03  0.27007392681E+03  0.00000000000E+00 0.  1.
         11    1    5    5    0    0  0.14030971609E+03  0.29542642505E+03 -0.15524113385E+03  0.36202679277E+03  0.00000000000E+00 0. -1.
        -11    1    5    5    0    0  0.44161177576E+02  0.29266395101E+03 -0.13610446737E+03  0.32577112190E+03  0.00000000000E+00 0.  1.
          3    1    6    6  503    0 -0.66347041882E+02 -0.23230296944E+02 -0.87143158408E+02  0.11196207715E+03  0.00000000000E+00 0. -1.
         -3    1    6    6    0  503 -0.15547287153E+03 -0.20440510857E+03 -0.18466922756E+03  0.31631627495E+03  0.00000000000E+00 0.  1.
<mgrwt>
<rscale>  0 0.15089181E+04</rscale>
<asrwt>0</asrwt>
<pdfrwt beam="1">  1        3 0.14571773E+00 0.15089181E+04</pdfrwt>
<pdfrwt beam="2">  1       -3 0.92455391E-01 0.15089181E+04</pdfrwt>
<totfact> 0.92410800E-01</totfact>
</mgrwt>
</event>
<event>
12    2  0.3751044E-008  0.2264715E+04  0.7818608E-02  0.8491965E-01
          1   -1    0    0  501    0  0.00000000000E+00  0.00000000000E+00  0.18342027199E+04  0.18342027199E+04  0.00000000000E+00 0. -1.
         -1   -1    0    0    0  501 -0.00000000000E+00 -0.00000000000E+00 -0.69906864663E+03  0.69906864663E+03  0.00000000000E+00 0.  1.
         23    2    1    2    0    0 -0.52660181180E+03 -0.23783051513E+03  0.13227088267E+04  0.14462182234E+04  0.90087108680E+02 0.  0.
        254    2    1    2    0    0  0.52660181180E+03  0.23783051513E+03 -0.18757475342E+03  0.10870531432E+04  0.90145849928E+03 0.  0.
         23    2    4    4    0    0 -0.13932822138E+03 -0.11398622360E+03 -0.25507113180E+03  0.32533646565E+03  0.91527707067E+02 0.  0.
         23    2    4    4    0    0  0.66593003318E+03  0.35181673873E+03  0.67496378386E+02  0.76171667756E+03  0.91753523290E+02 0.  0.
          4    1    3    3  502    0 -0.41765822491E+03 -0.15039666907E+03  0.96522400837E+03  0.10624099666E+04  0.00000000000E+00 0. -1.
         -4    1    3    3    0  502 -0.10894358689E+03 -0.87433846062E+02  0.35748481836E+03  0.38380825671E+03  0.00000000000E+00 0.  1.
         11    1    5    5    0    0 -0.77885056764E+02 -0.11663017342E+03 -0.18390998956E+03  0.23128243270E+03  0.00000000000E+00 0.  1.
        -11    1    5    5    0    0 -0.61443164613E+02  0.26439498151E+01 -0.71161142249E+02  0.94054032952E+02  0.00000000000E+00 0. -1.
          1    1    6    6  503    0  0.41454001563E+03  0.16944085324E+03  0.50582516800E+02  0.45067972920E+03  0.00000000000E+00 0. -1.
         -1    1    6    6    0  503  0.25139001755E+03  0.18237588549E+03  0.16913861586E+02  0.31103694836E+03  0.00000000000E+00 0.  1.
<mgrwt>
<rscale>  0 0.22647151E+04</rscale>
<asrwt>0</asrwt>
<pdfrwt beam="1">  1        1 0.28218503E+00 0.22647151E+04</pdfrwt>
<pdfrwt beam="2">  1       -1 0.10754902E+00 0.22647151E+04</pdfrwt>
<totfact> 0.28174966E+00</totfact>
</mgrwt>
</event>
<event>
12    2  0.3751044E-008  0.1519869E+04  0.7818608E-02  0.8871347E-01
          4   -1    0    0  501    0  0.00000000000E+00  0.00000000000E+00  0.13164596961E+04  0.13164596961E+04  0.00000000000E+00 0. -1.
         -4   -1    0    0    0  501 -0.00000000000E+00 -0.00000000000E+00 -0.43867672243E+03  0.43867672243E+03  0.00000000000E+00 0.  1.
         23    2    1    2    0    0  0.98202744427E+02  0.32873224906E+03 -0.11452161785E+03  0.37301912121E+03  0.91210708005E+02 0.  0.
        254    2    1    2    0    0 -0.98202744427E+02 -0.32873224906E+03  0.99230459150E+03  0.13821172973E+04  0.89881652779E+03 0.  0.
         23    2    4    4    0    0  0.22445310929E+03  0.12349756971E+03  0.34022106125E+02  0.27076373093E+03  0.80775282655E+02 0.  0.
         23    2    4    4    0    0 -0.32265585372E+03 -0.45222981877E+03  0.95828248537E+03  0.11113535664E+04  0.90458934325E+02 0.  0.
          3    1    3    3  502    0  0.48120576830E+02  0.18319624319E+03 -0.15585225892E+02  0.19005092133E+03  0.00000000000E+00 0. -1.
         -3    1    3    3    0  502  0.50082167597E+02  0.14553600586E+03 -0.98936391955E+02  0.18296819988E+03  0.00000000000E+00 0.  1.
         11    1    5    5    0    0  0.19908832806E+03  0.13517389808E+03  0.28831511794E+02  0.24236212815E+03  0.00000000000E+00 0. -1.
        -11    1    5    5    0    0  0.25364781229E+02 -0.11676328363E+02  0.51905943315E+01  0.28401602778E+02  0.00000000000E+00 0.  1.
          3    1    6    6  503    0 -0.24819811663E+03 -0.35642853672E+03  0.66862202537E+03  0.79730735585E+03  0.00000000000E+00 0. -1.
         -3    1    6    6    0  503 -0.74457737089E+02 -0.95801282051E+02  0.28966046000E+03  0.31404621052E+03  0.00000000000E+00 0.  1.
<mgrwt>
<rscale>  0 0.15198687E+04</rscale>
<asrwt>0</asrwt>
<pdfrwt beam="1">  1        4 0.20253226E+00 0.15198687E+04</pdfrwt>
<pdfrwt beam="2">  1       -4 0.67488727E-01 0.15198687E+04</pdfrwt>
<totfact> 0.49594180E-01</totfact>
</mgrwt>
</event>
<event>
12    2  0.3751044E-008  0.2329941E+04  0.7818608E-02  0.8466209E-01
          1   -1    0    0  501    0  0.00000000000E+00  0.00000000000E+00  0.15848580899E+04  0.15848580899E+04  0.00000000000E+00 0. -1.
         -1   -1    0    0    0  501 -0.00000000000E+00 -0.00000000000E+00 -0.85632655646E+03  0.85632655646E+03  0.00000000000E+00 0.  1.
         23    2    1    2    0    0  0.32651298475E+03 -0.49062070577E+03 -0.52815264667E+03  0.79722278942E+03  0.96434182955E+02 0.  0.
        254    2    1    2    0    0 -0.32651298475E+03  0.49062070577E+03  0.12566841801E+04  0.16439618569E+04  0.88092908474E+03 0.  0.
         23    2    4    4    0    0  0.10858867035E+03  0.53500049201E+03  0.95985312724E+03  0.11081271598E+04  0.92794130603E+02 0.  0.
         23    2    4    4    0    0 -0.43510165510E+03 -0.44379786239E+02  0.29683105282E+03  0.53583469707E+03  0.87904112367E+02 0.  0.
          2    1    3    3  502    0  0.42627054336E+02 -0.40751917272E+02 -0.92227224326E+02  0.10946983799E+03  0.00000000000E+00 0. -1.
         -2    1    3    3    0  502  0.28388593041E+03 -0.44986878850E+03 -0.43592542235E+03  0.68775295143E+03  0.00000000000E+00 0.  1.
         11    1    5    5    0    0  0.40915966213E+02  0.12709993291E+03  0.16588491396E+03  0.21294673963E+03  0.00000000000E+00 0.  1.
        -11    1    5    5    0    0  0.67672704136E+02  0.40790055910E+03  0.79396821328E+03  0.89518042019E+03  0.00000000000E+00 0. -1.
          1    1    6    6  503    0 -0.33156798447E+03 -0.27178562932E+02  0.26742615030E+03  0.42684042507E+03  0.00000000000E+00 0. -1.
         -1    1    6    6    0  503 -0.10353367063E+03 -0.17201223308E+02  0.29404902519E+02  0.10899427200E+03  0.00000000000E+00 0.  1.
<mgrwt>
<rscale>  0 0.23299408E+04</rscale>
<asrwt>0</asrwt>
<pdfrwt beam="1">  1        1 0.24382432E+00 0.23299408E+04</pdfrwt>
<pdfrwt beam="2">  1       -1 0.13174255E+00 0.23299408E+04</pdfrwt>
<totfact> 0.25264538E+00</totfact>
</mgrwt>
</event>
<event>
12    2  0.3751044E-008  0.1442962E+04  0.7818608E-02  0.8923294E-01
          2   -1    0    0  501    0  0.00000000000E+00  0.00000000000E+00  0.12800805019E+04  0.12800805019E+04  0.00000000000E+00 0. -1.
         -2   -1    0    0    0  501 -0.00000000000E+00 -0.00000000000E+00 -0.40664237110E+03  0.40664237110E+03  0.00000000000E+00 0.  1.
         23    2    1    2    0    0  0.34886866929E+03  0.23986144814E+03  0.23470858938E+03  0.49253876420E+03  0.90903518076E+02 0.  0.
        254    2    1    2    0    0 -0.34886866929E+03 -0.23986144814E+03  0.63872954147E+03  0.11941841088E+04  0.91589158527E+03 0.  0.
         23    2    4    4    0    0  0.60958811504E+02 -0.17070811360E+03  0.73136842183E+03  0.75870018413E+03  0.88707182363E+02 0.  0.
         23    2    4    4    0    0 -0.40982748080E+03 -0.69153334533E+02 -0.92638880358E+02  0.43548392472E+03  0.91233430501E+02 0.  0.
          1    1    3    3  502    0  0.21057939761E+03  0.14755358120E+03  0.19191331677E+03  0.32085271259E+03  0.00000000000E+00 0. -1.
         -1    1    3    3    0  502  0.13828927168E+03  0.92307866934E+02  0.42795272605E+02  0.17168605161E+03  0.00000000000E+00 0.  1.
         11    1    5    5    0    0  0.12393983641E+02 -0.13472134680E+03  0.58299630758E+03  0.59848821774E+03  0.00000000000E+00 0. -1.
        -11    1    5    5    0    0  0.48564827863E+02 -0.35986766800E+02  0.14837211424E+03  0.16021196639E+03  0.00000000000E+00 0.  1.
          1    1    6    6  503    0 -0.40271716518E+03 -0.81748574575E+02 -0.87568789694E+02  0.42015739611E+03  0.00000000000E+00 0. -1.
         -1    1    6    6    0  503 -0.71103156146E+01  0.12595240042E+02 -0.50700906638E+01  0.15326528609E+02  0.00000000000E+00 0.  1.
<mgrwt>
<rscale>  0 0.14429622E+04</rscale>
<asrwt>0</asrwt>
<pdfrwt beam="1">  1        2 0.19693546E+00 0.14429622E+04</pdfrwt>
<pdfrwt beam="2">  1       -2 0.62560366E-01 0.14429622E+04</pdfrwt>
<totfact> 0.39044049E+01</totfact>
</mgrwt>
</event>
<event>
12    2  0.3751044E-008  0.2908087E+04  0.7818608E-02  0.8270475E-01
         -2   -1    0    0    0  501 -0.00000000000E+00  0.00000000000E+00  0.22744956305E+04  0.22744956305E+04  0.00000000000E+00 0.  1.
          2   -1    0    0  501    0  0.00000000000E+00 -0.00000000000E+00 -0.92954374514E+03  0.92954374514E+03  0.00000000000E+00 0. -1.
         23    2    1    2    0    0  0.98516121316E+02 -0.33006779141E+03  0.20046468317E+04  0.20360164331E+04  0.90021235464E+02 0.  0.
        254    2    1    2    0    0 -0.98516121316E+02  0.33006779141E+03 -0.65969494635E+03  0.11680229426E+04  0.90023885664E+03 0.  0.
         23    2    4    4    0    0 -0.41385146280E+03 -0.86948109386E+02 -0.30538774338E+03  0.52956754214E+03  0.91362469813E+02 0.  0.
         23    2    4    4    0    0  0.31533534148E+03  0.41701590079E+03 -0.35430720297E+03  0.63845540042E+03  0.93557817132E+02 0.  0.
          3    1    3    3  502    0  0.33770319624E+02 -0.12247556063E+03  0.10045295243E+04  0.10125316107E+04  0.00000000000E+00 0. -1.
         -3    1    3    3    0  502  0.64745801692E+02 -0.20759223077E+03  0.10001173074E+04  0.10234848224E+04  0.00000000000E+00 0.  1.
         11    1    5    5    0    0 -0.19647622493E+03 -0.36251250028E+02 -0.20012108812E+03  0.28278173562E+03  0.00000000000E+00 0. -1.
        -11    1    5    5    0    0 -0.21737523787E+03 -0.50696859358E+02 -0.10526665527E+03  0.24678580652E+03  0.00000000000E+00 0.  1.
          4    1    6    6  503    0  0.12225558035E+03  0.14438774362E+03 -0.76920357574E+02  0.20423268310E+03  0.00000000000E+00 0. -1.
         -4    1    6    6    0  503  0.19307976113E+03  0.27262815717E+03 -0.27738684539E+03  0.43422271732E+03  0.00000000000E+00 0.  1.
<mgrwt>
<rscale>  0 0.29080875E+04</rscale>
<asrwt>0</asrwt>
<pdfrwt beam="1">  1        2 0.14300673E+00 0.29080875E+04</pdfrwt>
<pdfrwt beam="2">  1       -2 0.34992240E+00 0.29080875E+04</pdfrwt>
<totfact> 0.37623550E-01</totfact>
</mgrwt>
</event>
<event>
12    2  0.3751044E-008  0.2241449E+04  0.7818608E-02  0.8501371E-01
          1   -1    0    0  501    0  0.00000000000E+00  0.00000000000E+00  0.51153243991E+03  0.51153243991E+03  0.00000000000E+00 0. -1.
         -1   -1    0    0    0  501 -0.00000000000E+00 -0.00000000000E+00 -0.24554134738E+04  0.24554134738E+04  0.00000000000E+00 0.  1.
         23    2    1    2    0    0 -0.79116706588E+03 -0.23615096309E+03 -0.14896116750E+04  0.17055751025E+04  0.91273678914E+02 0.  0.
        254    2    1    2    0    0  0.79116706588E+03  0.23615096309E+03 -0.45426935884E+03  0.12613708112E+04  0.83844085623E+03 0.  0.
         23    2    4    4    0    0  0.74725300853E+03  0.19657469719E+03 -0.66596993936E+03  0.10240646519E+04  0.90353643309E+02 0.  0.
         23    2    4    4    0    0  0.43914057350E+02  0.39576265902E+02  0.21170058052E+03  0.23730615924E+03  0.89455867137E+02 0.  0.
          1    1    3    3  502    0 -0.66843047168E+02 -0.47984004041E+02 -0.15258415819E+03  0.17335623129E+03  0.00000000000E+00 0. -1.
         -1    1    3    3    0  502 -0.72432401872E+03 -0.18816695905E+03 -0.13370275169E+04  0.15322188713E+04  0.00000000000E+00 0.  1.
         11    1    5    5    0    0  0.28417860532E+03  0.80126173483E+02 -0.19809437124E+03  0.35555458557E+03  0.00000000000E+00 0.  1.
        -11    1    5    5    0    0  0.46307440321E+03  0.11644852371E+03 -0.46787556813E+03  0.66851006637E+03  0.00000000000E+00 0. -1.
          4    1    6    6  503    0  0.65741622427E+02  0.49860390550E+02  0.17354933218E+03  0.19216500765E+03  0.00000000000E+00 0. -1.
         -4    1    6    6    0  503 -0.21827565077E+02 -0.10284124648E+02  0.38151248341E+02  0.45141151591E+02  0.00000000000E+00 0.  1.
<mgrwt>
<rscale>  0 0.22414492E+04</rscale>
<asrwt>0</asrwt>
<pdfrwt beam="1">  1        1 0.78697300E-01 0.22414492E+04</pdfrwt>
<pdfrwt beam="2">  1       -1 0.37775591E+00 0.22414492E+04</pdfrwt>
<totfact> 0.39559645E-01</totfact>
</mgrwt>
</event>
<event>
12    2  0.3751044E-008  0.2073444E+04  0.7818608E-02  0.8573033E-01
         -2   -1    0    0    0  501 -0.00000000000E+00  0.00000000000E+00  0.94439051435E+03  0.94439051435E+03  0.00000000000E+00 0.  1.
          2   -1    0    0  501    0  0.00000000000E+00 -0.00000000000E+00 -0.11380806344E+04  0.11380806344E+04  0.00000000000E+00 0. -1.
         23    2    1    2    0    0  0.19502485641E+03 -0.12820203657E+03  0.72932874112E+03  0.77049964096E+03  0.85316043670E+02 0.  0.
        254    2    1    2    0    0 -0.19502485641E+03  0.12820203657E+03 -0.92301886111E+03  0.13119715077E+04  0.90268209374E+03 0.  0.
         23    2    4    4    0    0 -0.48653473413E+03  0.27452584591E+03 -0.41815900332E+03  0.70388595752E+03  0.92293020051E+02 0.  0.
         23    2    4    4    0    0  0.29150987772E+03 -0.14632380935E+03 -0.50485985779E+03  0.60808555022E+03  0.92173176097E+02 0.  0.
          2    1    3    3  502    0  0.55611916449E+02 -0.84028324318E+02  0.25696678781E+03  0.27601698240E+03  0.00000000000E+00 0.  1.
         -2    1    3    3    0  502  0.13941293996E+03 -0.44173712251E+02  0.47236195331E+03  0.49448265856E+03  0.00000000000E+00 0. -1.
         11    1    5    5    0    0 -0.30744083344E+01 -0.56824790250E+01 -0.96437542302E+00  0.65324248509E+01  0.00000000000E+00 0.  1.
        -11    1    5    5    0    0 -0.48346032579E+03  0.28020832494E+03 -0.41719462790E+03  0.69735353267E+03  0.00000000000E+00 0. -1.
          3    1    6    6  503    0  0.53442259818E+02 -0.63581974182E+02 -0.16763150074E+03  0.18708036406E+03  0.00000000000E+00 0. -1.
         -3    1    6    6    0  503  0.23806761790E+03 -0.82741835163E+02 -0.33722835705E+03  0.42100518617E+03  0.00000000000E+00 0.  1.
<mgrwt>
<rscale>  0 0.20734440E+04</rscale>
<asrwt>0</asrwt>
<pdfrwt beam="1">  1        2 0.17508933E+00 0.20734440E+04</pdfrwt>
<pdfrwt beam="2">  1       -2 0.14529085E+00 0.20734440E+04</pdfrwt>
<totfact> 0.62150123E+00</totfact>
</mgrwt>
</event>
<event>
12    2  0.3751044E-008  0.2451873E+04  0.7818608E-02  0.8420335E-01
         -1   -1    0    0    0  501 -0.00000000000E+00  0.00000000000E+00  0.45956605625E+03  0.45956605625E+03  0.00000000000E+00 0.  1.
          1   -1    0    0  501    0  0.00000000000E+00 -0.00000000000E+00 -0.32703024187E+04  0.32703024187E+04  0.00000000000E+00 0. -1.
         23    2    1    2    0    0 -0.27705464282E+03 -0.10057260828E+03 -0.27766750539E+04  0.27938507880E+04  0.93828279879E+02 0.  0.
        254    2    1    2    0    0  0.27705464282E+03  0.10057260828E+03 -0.34061308530E+02  0.93601768691E+03  0.88774704326E+03 0.  0.
         23    2    4    4    0    0 -0.13522998575E+03  0.35543389604E+03  0.13498026685E+03  0.41474205624E+03  0.95764801853E+02 0.  0.
         23    2    4    4    0    0  0.41228462857E+03 -0.25486128775E+03 -0.16904157538E+03  0.52127563067E+03  0.90666079534E+02 0.  0.
          1    1    3    3  502    0 -0.19571989233E+03 -0.30501189706E+02 -0.20013041533E+04  0.20110830199E+04  0.00000000000E+00 0. -1.
         -1    1    3    3    0  502 -0.81334750487E+02 -0.70071418578E+02 -0.77537090060E+03  0.78276776814E+03  0.00000000000E+00 0.  1.
         11    1    5    5    0    0 -0.51769869933E+02  0.67984380128E+02 -0.22076945369E+01  0.85480227476E+02  0.00000000000E+00 0.  1.
        -11    1    5    5    0    0 -0.83460115819E+02  0.28744951591E+03  0.13718796139E+03  0.32926182876E+03  0.00000000000E+00 0. -1.
          1    1    6    6  503    0  0.32179006380E+03 -0.17638089050E+03 -0.90231537138E+02  0.37788992311E+03  0.00000000000E+00 0. -1.
         -1    1    6    6    0  503  0.90494564767E+02 -0.78480397250E+02 -0.78810038242E+02  0.14338570756E+03  0.00000000000E+00 0.  1.
<mgrwt>
<rscale>  0 0.24518727E+04</rscale>
<asrwt>0</asrwt>
<pdfrwt beam="1">  1        1 0.50312347E+00 0.24518727E+04</pdfrwt>
<pdfrwt beam="2">  1       -1 0.70702468E-01 0.24518727E+04</pdfrwt>
<totfact> 0.67873575E-01</totfact>
</mgrwt>
</event>
<event>
12    2  0.3751044E-008  0.2430090E+04  0.7818608E-02  0.8428323E-01
          1   -1    0    0  501    0  0.00000000000E+00  0.00000000000E+00  0.85809411179E+03  0.85809411179E+03  0.00000000000E+00 0. -1.
         -1   -1    0    0    0  501 -0.00000000000E+00 -0.00000000000E+00 -0.17204806451E+04  0.17204806451E+04  0.00000000000E+00 0.  1.
         23    2    1    2    0    0  0.50558161658E+03  0.26090991107E+03  0.55683760904E+03  0.80304868692E+03  0.10550980049E+03 0.  0.
        254    2    1    2    0    0 -0.50558161658E+03 -0.26090991107E+03 -0.14192241423E+04  0.17755260699E+04  0.90255687145E+03 0.  0.
         23    2    4    4    0    0 -0.31454529871E+03  0.30025257734E+03 -0.78895731293E+03  0.90556228337E+03  0.92190304809E+02 0.  0.
         23    2    4    4    0    0 -0.19103631787E+03 -0.56116248841E+03 -0.63026682937E+03  0.86996378656E+03  0.90567657439E+02 0.  0.
          2    1    3    3  502    0  0.40939745953E+03  0.24443788687E+03  0.49617071291E+03  0.68814354371E+03  0.00000000000E+00 0. -1.
         -2    1    3    3    0  502  0.96184157048E+02  0.16472024207E+02  0.60666896131E+02  0.11490514320E+03  0.00000000000E+00 0.  1.
         11    1    5    5    0    0 -0.64181147206E+02  0.27113568710E+02 -0.83755953649E+02  0.10894689090E+03  0.00000000000E+00 0. -1.
        -11    1    5    5    0    0 -0.25036415150E+03  0.27313900863E+03 -0.70520135928E+03  0.79661539248E+03  0.00000000000E+00 0.  1.
          3    1    6    6  503    0 -0.11256509957E+03 -0.19580950207E+03 -0.22892172576E+03  0.32158578835E+03  0.00000000000E+00 0. -1.
         -3    1    6    6    0  503 -0.78471218297E+02 -0.36535298634E+03 -0.40134510361E+03  0.54837799821E+03  0.00000000000E+00 0.  1.
<mgrwt>
<rscale>  0 0.24300900E+04</rscale>
<asrwt>0</asrwt>
<pdfrwt beam="1">  1        1 0.13201448E+00 0.24300900E+04</pdfrwt>
<pdfrwt beam="2">  1       -1 0.26468933E+00 0.24300900E+04</pdfrwt>
<totfact> 0.98569290E-01</totfact>
</mgrwt>
</event>
<event>
12    2  0.3751044E-008  0.1761470E+04  0.7818608E-02  0.8727062E-01
          2   -1    0    0  501    0  0.00000000000E+00  0.00000000000E+00  0.66705407023E+03  0.66705407023E+03  0.00000000000E+00 0.  1.
         -2   -1    0    0    0  501 -0.00000000000E+00 -0.00000000000E+00 -0.11628653884E+04  0.11628653884E+04  0.00000000000E+00 0. -1.
         23    2    1    2    0    0 -0.59598335605E+03  0.19255719914E+03 -0.33912266299E+03  0.71824863801E+03  0.92749608198E+02 0.  0.
        254    2    1    2    0    0  0.59598335605E+03 -0.19255719914E+03 -0.15668865514E+03  0.11116708206E+04  0.90497858706E+03 0.  0.
         23    2    4    4    0    0  0.16735221047E+03 -0.51572187496E+03 -0.24112062409E+02  0.55109150110E+03  0.95627592086E+02 0.  0.
         23    2    4    4    0    0  0.42863114558E+03  0.32316467581E+03 -0.13257659273E+03  0.56057931948E+03  0.92263502154E+02 0.  0.
          1    1    3    3  502    0 -0.33767537160E+03  0.68472113550E+02 -0.21368613795E+03  0.40543168656E+03  0.00000000000E+00 0. -1.
         -1    1    3    3    0  502 -0.25830798446E+03  0.12408508559E+03 -0.12543652503E+03  0.31281695145E+03  0.00000000000E+00 0.  1.
         11    1    5    5    0    0  0.14977671925E+02 -0.16673113011E+03  0.16070991122E+02  0.16817216523E+03  0.00000000000E+00 0.  1.
        -11    1    5    5    0    0  0.15237453854E+03 -0.34899074485E+03 -0.40183053531E+02  0.38291933587E+03  0.00000000000E+00 0. -1.
          1    1    6    6  503    0  0.25035023896E+03  0.24406896486E+03 -0.84333528363E+02  0.35966240527E+03  0.00000000000E+00 0. -1.
         -1    1    6    6    0  503  0.17828090662E+03  0.79095710953E+02 -0.48243064364E+02  0.20091691421E+03  0.00000000000E+00 0.  1.
<mgrwt>
<rscale>  0 0.17614699E+04</rscale>
<asrwt>0</asrwt>
<pdfrwt beam="1">  1        2 0.10262370E+00 0.17614699E+04</pdfrwt>
<pdfrwt beam="2">  1       -2 0.17890236E+00 0.17614699E+04</pdfrwt>
<totfact> 0.76017387E+00</totfact>
</mgrwt>
</event>
<event>
12    2  0.3751044E-008  0.1765569E+04  0.7818608E-02  0.8724827E-01
          2   -1    0    0  501    0  0.00000000000E+00  0.00000000000E+00  0.87547620106E+03  0.87547620106E+03  0.00000000000E+00 0. -1.
         -2   -1    0    0    0  501 -0.00000000000E+00 -0.00000000000E+00 -0.89015363359E+03  0.89015363359E+03  0.00000000000E+00 0.  1.
         23    2    1    2    0    0  0.26692427896E+03  0.78884605958E+02  0.57893525305E+03  0.64867683565E+03  0.90245543532E+02 0.  0.
        254    2    1    2    0    0 -0.26692427896E+03 -0.78884605958E+02 -0.59361268558E+03  0.11169529990E+04  0.90428791308E+03 0.  0.
         23    2    4    4    0    0 -0.25587720450E+03 -0.83558068242E+02  0.18089812553E+03  0.33701757074E+03  0.91660332845E+02 0.  0.
         23    2    4    4    0    0 -0.11047074459E+02  0.46734622839E+01 -0.77451081111E+03  0.77993542826E+03  0.91040631711E+02 0.  0.
          3    1    3    3  502    0  0.14548967612E+03  0.62488161415E+02  0.41367522234E+03  0.44294379525E+03  0.00000000000E+00 0. -1.
         -3    1    3    3    0  502  0.12143460284E+03  0.16396444543E+02  0.16526003071E+03  0.20573304040E+03  0.00000000000E+00 0.  1.
         11    1    5    5    0    0 -0.24816257581E+02 -0.41121411338E+02  0.18713400620E+02  0.51546178069E+02  0.00000000000E+00 0. -1.
        -11    1    5    5    0    0 -0.23106094692E+03 -0.42436656904E+02  0.16218472491E+03  0.28547139268E+03  0.00000000000E+00 0.  1.
          4    1    6    6  503    0 -0.48391402607E+02 -0.13464106687E+02 -0.44036690664E+03  0.44322231722E+03  0.00000000000E+00 0. -1.
         -4    1    6    6    0  503  0.37344328148E+02  0.18137568971E+02 -0.33414390447E+03  0.33671311104E+03  0.00000000000E+00 0.  1.
<mgrwt>
<rscale>  0 0.17655688E+04</rscale>
<asrwt>0</asrwt>
<pdfrwt beam="1">  1        2 0.13468865E+00 0.17655688E+04</pdfrwt>
<pdfrwt beam="2">  1       -2 0.13694671E+00 0.17655688E+04</pdfrwt>
<totfact> 0.10968823E+01</totfact>
</mgrwt>
</event>
<event>
12    2  0.3751044E-008  0.2234435E+04  0.7818608E-02  0.8504231E-01
          2   -1    0    0  501    0  0.00000000000E+00  0.00000000000E+00  0.22859251731E+04  0.22859251731E+04  0.00000000000E+00 0.  1.
         -2   -1    0    0    0  501 -0.00000000000E+00 -0.00000000000E+00 -0.54602630625E+03  0.54602630625E+03  0.00000000000E+00 0. -1.
         23    2    1    2    0    0  0.68176802788E+03  0.58031985624E+03  0.40885217170E+03  0.98832589684E+03  0.89717337715E+02 0.  0.
        254    2    1    2    0    0 -0.68176802788E+03 -0.58031985624E+03  0.13310466952E+04  0.18436255825E+04  0.90867552210E+03 0.  0.
         23    2    4    4    0    0 -0.84797681362E+03 -0.30676466537E+03  0.11575653821E+04  0.14702512001E+04  0.92259097707E+02 0.  0.
         23    2    4    4    0    0  0.16620878574E+03 -0.27355519086E+03  0.17348131305E+03  0.37337438245E+03  0.82794085450E+02 0.  0.
          3    1    3    3  502    0  0.16501736387E+03  0.11106593979E+03  0.58628911223E+02  0.20737338930E+03  0.00000000000E+00 0. -1.
         -3    1    3    3    0  502  0.51675066401E+03  0.46925391644E+03  0.35022326048E+03  0.78095250754E+03  0.00000000000E+00 0.  1.
         11    1    5    5    0    0 -0.59674855935E+03 -0.23613025582E+03  0.76047558518E+03  0.99508263800E+03  0.00000000000E+00 0. -1.
        -11    1    5    5    0    0 -0.25122825427E+03 -0.70634409548E+02  0.39708979695E+03  0.47516856209E+03  0.00000000000E+00 0.  1.
          1    1    6    6  503    0  0.12372684230E+03 -0.14189611244E+03  0.70991400394E+02  0.20120292533E+03  0.00000000000E+00 0. -1.
         -1    1    6    6    0  503  0.42481943436E+02 -0.13165907842E+03  0.10248991266E+03  0.17217145712E+03  0.00000000000E+00 0.  1.
<mgrwt>
<rscale>  0 0.22344353E+04</rscale>
<asrwt>0</asrwt>
<pdfrwt beam="1">  1        2 0.35168079E+00 0.22344353E+04</pdfrwt>
<pdfrwt beam="2">  1       -2 0.84004049E-01 0.22344353E+04</pdfrwt>
<totfact> 0.52087131E+00</totfact>
</mgrwt>
</event>
<event>
12    2  0.3751044E-008  0.1969199E+04  0.7818608E-02  0.8621158E-01
          2   -1    0    0  501    0  0.00000000000E+00  0.00000000000E+00  0.10988505088E+04  0.10988505088E+04  0.00000000000E+00 0. -1.
         -2   -1    0    0    0  501 -0.00000000000E+00 -0.00000000000E+00 -0.88222797527E+03  0.88222797527E+03  0.00000000000E+00 0.  1.
         23    2    1    2    0    0 -0.10103000180E+03  0.63018241561E+02  0.86021748814E+03  0.87293121829E+03  0.88636476300E+02 0.  0.
        254    2    1    2    0    0  0.10103000180E+03 -0.63018241561E+02 -0.64359495457E+03  0.11081472658E+04  0.89420217913E+03 0.  0.
         23    2    4    4    0    0 -0.10062045440E+03  0.25055993000E+03 -0.66539007513E+03  0.72378059417E+03  0.90607075010E+02 0.  0.
         23    2    4    4    0    0  0.20165045620E+03 -0.31357817156E+03  0.21795120559E+02  0.38436667165E+03  0.90931484266E+02 0.  0.
          1    1    3    3  502    0 -0.10599147688E+03  0.46009204629E+02  0.53998983666E+03  0.55221378449E+03  0.00000000000E+00 0. -1.
         -1    1    3    3    0  502  0.49614750830E+01  0.17009036932E+02  0.32022765149E+03  0.32071743381E+03  0.00000000000E+00 0.  1.
         11    1    5    5    0    0 -0.48243419663E+02  0.37424463285E+02 -0.20230428187E+03  0.21131739270E+03  0.00000000000E+00 0. -1.
        -11    1    5    5    0    0 -0.52377034741E+02  0.21313546672E+03 -0.46308579326E+03  0.51246320147E+03  0.00000000000E+00 0.  1.
          2    1    6    6  503    0  0.20038736056E+02  0.14027927092E+01 -0.52662379970E+00  0.20094678468E+02  0.00000000000E+00 0. -1.
         -2    1    6    6    0  503  0.18161172015E+03 -0.31498096427E+03  0.22321744359E+02  0.36427199319E+03  0.00000000000E+00 0.  1.
<mgrwt>
<rscale>  0 0.19691995E+04</rscale>
<asrwt>0</asrwt>
<pdfrwt beam="1">  1        2 0.16905392E+00 0.19691995E+04</pdfrwt>
<pdfrwt beam="2">  1       -2 0.13572738E+00 0.19691995E+04</pdfrwt>
<totfact> 0.79091310E+00</totfact>
</mgrwt>
</event>
<event>
12    2  0.3751044E-008  0.1557309E+04  0.7818608E-02  0.8847212E-01
          2   -1    0    0  501    0  0.00000000000E+00  0.00000000000E+00  0.12700230349E+04  0.12700230349E+04  0.00000000000E+00 0.  1.
         -2   -1    0    0    0  501 -0.00000000000E+00 -0.00000000000E+00 -0.47739544727E+03  0.47739544727E+03  0.00000000000E+00 0. -1.
         23    2    1    2    0    0 -0.15139344238E+03  0.47107686562E+02 -0.28126174540E+03  0.33571620420E+03  0.91967884666E+02 0.  0.
        254    2    1    2    0    0  0.15139344238E+03 -0.47107686562E+02  0.10738893330E+04  0.14117022780E+04  0.90251089385E+03 0.  0.
         23    2    4    4    0    0  0.19069492391E+03  0.39888117716E+03  0.43759277248E+03  0.62856855235E+03  0.90223295113E+02 0.  0.
         23    2    4    4    0    0 -0.39301481529E+02 -0.44598886373E+03  0.63629656053E+03  0.78313372561E+03  0.89299754893E+02 0.  0.
          3    1    3    3  502    0 -0.67553595867E+02  0.48350121461E+02 -0.20943432935E+03  0.22530859031E+03  0.00000000000E+00 0. -1.
         -3    1    3    3    0  502 -0.83839846514E+02 -0.12424348986E+01 -0.71827416051E+02  0.11040761389E+03  0.00000000000E+00 0.  1.
         11    1    5    5    0    0  0.23389576481E+02  0.25807182330E+02  0.84695933107E+01  0.35844343468E+02  0.00000000000E+00 0.  1.
        -11    1    5    5    0    0  0.16730534743E+03  0.37307399483E+03  0.42912317917E+03  0.59272420889E+03  0.00000000000E+00 0. -1.
          2    1    6    6  503    0  0.35992874127E+01 -0.34352423974E+03  0.51025845403E+03  0.61513051304E+03  0.00000000000E+00 0. -1.
         -2    1    6    6    0  503 -0.42900768942E+02 -0.10246462398E+03  0.12603810650E+03  0.16800321257E+03  0.00000000000E+00 0.  1.
<mgrwt>
<rscale>  0 0.15573095E+04</rscale>
<asrwt>0</asrwt>
<pdfrwt beam="1">  1        2 0.19538816E+00 0.15573095E+04</pdfrwt>
<pdfrwt beam="2">  1       -2 0.73445454E-01 0.15573095E+04</pdfrwt>
<totfact> 0.27700678E+01</totfact>
</mgrwt>
</event>
<event>
12    2  0.3751044E-008  0.1618901E+04  0.7818608E-02  0.8809020E-01
         -2   -1    0    0    0  501 -0.00000000000E+00  0.00000000000E+00  0.14113166509E+04  0.14113166509E+04  0.00000000000E+00 0.  1.
          2   -1    0    0  501    0  0.00000000000E+00 -0.00000000000E+00 -0.46425469200E+03  0.46425469200E+03  0.00000000000E+00 0. -1.
         23    2    1    2    0    0 -0.23805446914E+03 -0.25348919014E+03 -0.17139177634E+03  0.39784493960E+03  0.89323877950E+02 0.  0.
        254    2    1    2    0    0  0.23805446914E+03  0.25348919014E+03  0.11184537353E+04  0.14777264033E+04  0.90100491973E+03 0.  0.
         23    2    4    4    0    0  0.49514952947E+02  0.38790034480E+03  0.79799735766E+02  0.40960683703E+03  0.92148548863E+02 0.  0.
         23    2    4    4    0    0  0.18853951620E+03 -0.13441115466E+03  0.10386539995E+04  0.10681195663E+04  0.91998747634E+02 0.  0.
          1    1    3    3  502    0 -0.12033719291E+03 -0.18762515149E+03 -0.12266976845E+03  0.25442505686E+03  0.00000000000E+00 0. -1.
         -1    1    3    3    0  502 -0.11771727623E+03 -0.65864038646E+02 -0.48722007893E+02  0.14341988274E+03  0.00000000000E+00 0.  1.
         11    1    5    5    0    0  0.62362363092E+02  0.37117500974E+03  0.60870857576E+02  0.38126790251E+03  0.00000000000E+00 0. -1.
        -11    1    5    5    0    0 -0.12847410145E+02  0.16725335060E+02  0.18928878190E+02  0.28338934522E+02  0.00000000000E+00 0.  1.
          1    1    6    6  503    0  0.19867798452E+03 -0.12757899676E+03  0.96553297602E+03  0.99398353594E+03  0.00000000000E+00 0. -1.
         -1    1    6    6    0  503 -0.10138468328E+02 -0.68321579024E+01  0.73121023501E+02  0.74136030373E+02  0.00000000000E+00 0.  1.
<mgrwt>
<rscale>  0 0.16189013E+04</rscale>
<asrwt>0</asrwt>
<pdfrwt beam="1">  1        2 0.71423799E-01 0.16189013E+04</pdfrwt>
<pdfrwt beam="2">  1       -2 0.21712564E+00 0.16189013E+04</pdfrwt>
<totfact> 0.66182848E+00</totfact>
</mgrwt>
</event>
<event>
12    2  0.3751044E-008  0.1315853E+04  0.7818608E-02  0.9017087E-01
          2   -1    0    0  501    0  0.00000000000E+00  0.00000000000E+00  0.10527856425E+04  0.10527856425E+04  0.00000000000E+00 0. -1.
         -2   -1    0    0    0  501 -0.00000000000E+00 -0.00000000000E+00 -0.41116386851E+03  0.41116386851E+03  0.00000000000E+00 0.  1.
         23    2    1    2    0    0  0.15087535805E+03 -0.25613465985E+03 -0.14634929887E+02  0.31121957501E+03  0.90967604392E+02 0.  0.
        254    2    1    2    0    0 -0.15087535805E+03  0.25613465985E+03  0.65625670385E+03  0.11527299360E+04  0.89985838125E+03 0.  0.
         23    2    4    4    0    0  0.10844878306E+03 -0.47928623862E+02  0.72215817047E+03  0.73742029547E+03  0.90653060962E+02 0.  0.
         23    2    4    4    0    0 -0.25932414111E+03  0.30406328371E+03 -0.65901466625E+02  0.41530964051E+03  0.91845541699E+02 0.  0.
          1    1    3    3  502    0  0.73939108808E+01 -0.80629469480E+02 -0.23643441263E+02  0.84349235808E+02  0.00000000000E+00 0. -1.
         -1    1    3    3    0  502  0.14348144717E+03 -0.17550519037E+03  0.90085113756E+01  0.22687033920E+03  0.00000000000E+00 0.  1.
         11    1    5    5    0    0  0.11506829714E+03 -0.52791474514E+02  0.52343626533E+03  0.53852871479E+03  0.00000000000E+00 0. -1.
        -11    1    5    5    0    0 -0.66195140887E+01  0.48628506518E+01  0.19872190514E+03  0.19889158068E+03  0.00000000000E+00 0.  1.
          2    1    6    6  503    0 -0.16510956979E+03  0.25490095197E+03 -0.45346727650E+02  0.30707001002E+03  0.00000000000E+00 0. -1.
         -2    1    6    6    0  503 -0.94214571325E+02  0.49162331748E+02 -0.20554738975E+02  0.10823963048E+03  0.00000000000E+00 0.  1.
<mgrwt>
<rscale>  0 0.13158532E+04</rscale>
<asrwt>0</asrwt>
<pdfrwt beam="1">  1        2 0.16196702E+00 0.13158532E+04</pdfrwt>
<pdfrwt beam="2">  1       -2 0.63255980E-01 0.13158532E+04</pdfrwt>
<totfact> 0.52837245E+01</totfact>
</mgrwt>
</event>
<event>
12    2  0.3751044E-008  0.2007265E+04  0.7818608E-02  0.8603232E-01
         -2   -1    0    0    0  501 -0.00000000000E+00  0.00000000000E+00  0.25019524786E+04  0.25019524786E+04  0.00000000000E+00 0.  1.
          2   -1    0    0  501    0  0.00000000000E+00 -0.00000000000E+00 -0.40259679325E+03  0.40259679325E+03  0.00000000000E+00 0. -1.
         23    2    1    2    0    0 -0.14834334642E+03 -0.77813371237E+03  0.70604876911E+03  0.10650496770E+04  0.91258574753E+02 0.  0.
        254    2    1    2    0    0  0.14834334642E+03  0.77813371237E+03  0.13933069162E+04  0.18394995948E+04  0.90274956309E+03 0.  0.
         23    2    4    4    0    0 -0.17912701755E+03  0.26168783528E+03  0.16195403312E+02  0.33005738894E+03  0.90047639372E+02 0.  0.
         23    2    4    4    0    0  0.32747036397E+03  0.51644587709E+03  0.13771115129E+04  0.15094422058E+04  0.89590571777E+02 0.  0.
          4    1    3    3  502    0 -0.65404359162E+01 -0.16665438515E+03  0.11268810939E+03  0.20128355966E+03  0.00000000000E+00 0. -1.
         -4    1    3    3    0  502 -0.14180291050E+03 -0.61147932722E+03  0.59336065972E+03  0.86376611739E+03  0.00000000000E+00 0.  1.
         11    1    5    5    0    0 -0.15280793140E+03  0.17422250774E+03 -0.18205326790E+02  0.23245468381E+03  0.00000000000E+00 0.  1.
        -11    1    5    5    0    0 -0.26319086151E+02  0.87465327535E+02  0.34400730102E+02  0.97602705128E+02  0.00000000000E+00 0. -1.
          4    1    6    6  503    0  0.17906812475E+03  0.25018294798E+03  0.79264805167E+03  0.85026339129E+03  0.00000000000E+00 0. -1.
         -4    1    6    6    0  503  0.14840223922E+03  0.26626292911E+03  0.58446346122E+03  0.65917881453E+03  0.00000000000E+00 0.  1.
<mgrwt>
<rscale>  0 0.20072649E+04</rscale>
<asrwt>0</asrwt>
<pdfrwt beam="1">  1        2 0.61937970E-01 0.20072649E+04</pdfrwt>
<pdfrwt beam="2">  1       -2 0.38491576E+00 0.20072649E+04</pdfrwt>
<totfact> 0.68402561E-01</totfact>
</mgrwt>
</event>
<event>
12    2  0.3751044E-008  0.1242288E+04  0.7818608E-02  0.9076626E-01
         -2   -1    0    0    0  501 -0.00000000000E+00  0.00000000000E+00  0.31681248934E+03  0.31681248934E+03  0.00000000000E+00 0.  1.
          2   -1    0    0  501    0  0.00000000000E+00 -0.00000000000E+00 -0.12178184569E+04  0.12178184569E+04  0.00000000000E+00 0. -1.
         23    2    1    2    0    0 -0.75163393839E+02  0.78371367732E+02  0.10762406744E+03  0.17795408839E+03  0.91066517604E+02 0.  0.
        254    2    1    2    0    0  0.75163393839E+02 -0.78371367732E+02 -0.10086300350E+04  0.13566768579E+04  0.90080294299E+03 0.  0.
         23    2    4    4    0    0 -0.37500489913E+01 -0.42495576364E+03 -0.22141750789E+03  0.48805274101E+03  0.92565119184E+02 0.  0.
         23    2    4    4    0    0  0.78913442831E+02  0.34658439591E+03 -0.78721252711E+03  0.86862411685E+03  0.91957699929E+02 0.  0.
          4    1    3    3  502    0 -0.81463340956E+02  0.53377586769E+02  0.11542454987E+03  0.15102406895E+03  0.00000000000E+00 0.  1.
         -4    1    3    3    0  502  0.62999471171E+01  0.24993780962E+02 -0.78004824388E+01  0.26930019435E+02  0.00000000000E+00 0. -1.
         11    1    5    5    0    0  0.33027200927E+02 -0.21235044865E+03 -0.76381172558E+02  0.22807365600E+03  0.00000000000E+00 0.  1.
        -11    1    5    5    0    0 -0.36777249918E+02 -0.21260531500E+03 -0.14503633533E+03  0.25997908501E+03  0.00000000000E+00 0. -1.
          2    1    6    6  503    0  0.93760241965E+02  0.32720875937E+03 -0.70505508061E+03  0.78291712325E+03  0.00000000000E+00 0. -1.
         -2    1    6    6    0  503 -0.14846799135E+02  0.19375636544E+02 -0.82157446499E+02  0.85706993596E+02  0.00000000000E+00 0.  1.
<mgrwt>
<rscale>  0 0.12422884E+04</rscale>
<asrwt>0</asrwt>
<pdfrwt beam="1">  1        2 0.18735669E+00 0.12422884E+04</pdfrwt>
<pdfrwt beam="2">  1       -2 0.48740382E-01 0.12422884E+04</pdfrwt>
<totfact> 0.72475039E+01</totfact>
</mgrwt>
</event>
<event>
12    2  0.3751044E-008  0.2245232E+04  0.7818608E-02  0.8499834E-01
         -1   -1    0    0    0  501 -0.00000000000E+00  0.00000000000E+00  0.13440092910E+04  0.13440092910E+04  0.00000000000E+00 0.  1.
          1   -1    0    0  501    0  0.00000000000E+00 -0.00000000000E+00 -0.93769195908E+03  0.93769195908E+03  0.00000000000E+00 0. -1.
         23    2    1    2    0    0  0.14683465475E+03 -0.64334058727E+03 -0.51130476430E+03  0.83948390646E+03  0.88617944831E+02 0.  0.
        254    2    1    2    0    0 -0.14683465475E+03  0.64334058727E+03  0.91762209624E+03  0.14422173437E+04  0.89583091472E+03 0.  0.
         23    2    4    4    0    0  0.25099262203E+03 -0.74301967154E+02  0.31118947449E+03  0.41684123646E+03  0.91649597631E+02 0.  0.
         23    2    4    4    0    0 -0.39782727678E+03  0.71764255442E+03  0.60643262176E+03  0.10253761072E+04  0.10177552953E+03 0.  0.
          2    1    3    3  502    0  0.87807563509E+02 -0.33256613797E+03 -0.21230775638E+03  0.40420908915E+03  0.00000000000E+00 0. -1.
         -2    1    3    3    0  502  0.59027091240E+02 -0.31077444930E+03 -0.29899700792E+03  0.43527481731E+03  0.00000000000E+00 0.  1.
         11    1    5    5    0    0  0.12458923028E+03 -0.35228524423E+02  0.85266154100E+02  0.15502852083E+03  0.00000000000E+00 0. -1.
        -11    1    5    5    0    0  0.12640339175E+03 -0.39073442732E+02  0.22592332039E+03  0.26181271563E+03  0.00000000000E+00 0.  1.
          2    1    6    6  503    0 -0.35460832783E+03  0.57470729411E+03  0.52438051623E+03  0.85499150047E+03  0.00000000000E+00 0. -1.
         -2    1    6    6    0  503 -0.43218948947E+02  0.14293526031E+03  0.82052105530E+02  0.17038460673E+03  0.00000000000E+00 0.  1.
<mgrwt>
<rscale>  0 0.22452320E+04</rscale>
<asrwt>0</asrwt>
<pdfrwt beam="1">  1        1 0.14426030E+00 0.22452320E+04</pdfrwt>
<pdfrwt beam="2">  1       -1 0.20677066E+00 0.22452320E+04</pdfrwt>
<totfact> 0.20823433E+00</totfact>
</mgrwt>
</event>
<event>
12    2  0.3751044E-008  0.1531444E+04  0.7818608E-02  0.8863808E-01
         -1   -1    0    0    0  501 -0.00000000000E+00  0.00000000000E+00  0.19495332390E+03  0.19495332390E+03  0.00000000000E+00 0.  1.
          1   -1    0    0  501    0  0.00000000000E+00 -0.00000000000E+00 -0.30075428431E+04  0.30075428431E+04  0.00000000000E+00 0. -1.
         23    2    1    2    0    0 -0.33514673642E+03  0.31908710783E+03 -0.13037086830E+04  0.13866054042E+04  0.94224728107E+02 0.  0.
        254    2    1    2    0    0  0.33514673642E+03 -0.31908710783E+03 -0.15088808361E+04  0.18158907628E+04  0.89810799316E+03 0.  0.
         23    2    4    4    0    0  0.26240225044E+03 -0.40108512661E+03 -0.15821342806E+04  0.16557102539E+04  0.92213574705E+02 0.  0.
         23    2    4    4    0    0  0.72744485980E+02  0.81998018785E+02  0.73253444422E+02  0.16018050887E+03  0.90974133558E+02 0.  0.
          1    1    3    3  502    0 -0.18405408588E+03  0.22837464831E+03 -0.88433000245E+03  0.93170297829E+03  0.00000000000E+00 0. -1.
         -1    1    3    3    0  502 -0.15109265054E+03  0.90712459512E+02 -0.41937868059E+03  0.45490242590E+03  0.00000000000E+00 0.  1.
         11    1    5    5    0    0  0.88783774069E+02 -0.13265295394E+03 -0.68395540119E+03  0.70233493117E+03  0.00000000000E+00 0.  1.
        -11    1    5    5    0    0  0.17361847637E+03 -0.26843217268E+03 -0.89817887938E+03  0.95337532275E+03  0.00000000000E+00 0. -1.
          2    1    6    6  503    0  0.55422147746E+02  0.12849839227E+02  0.68059848984E+02  0.88706684487E+02  0.00000000000E+00 0.  1.
         -2    1    6    6    0  503  0.17322338234E+02  0.69148179558E+02  0.51935954374E+01  0.71473824381E+02  0.00000000000E+00 0. -1.
<mgrwt>
<rscale>  0 0.15314444E+04</rscale>
<asrwt>0</asrwt>
<pdfrwt beam="1">  1        1 0.46269889E+00 0.15314444E+04</pdfrwt>
<pdfrwt beam="2">  1       -1 0.29992820E-01 0.15314444E+04</pdfrwt>
<totfact> 0.58474755E+00</totfact>
</mgrwt>
</event>
<event>
12    2  0.3751044E-008  0.2131504E+04  0.7818608E-02  0.8547491E-01
         -1   -1    0    0    0  501 -0.00000000000E+00  0.00000000000E+00  0.10713877285E+04  0.10713877285E+04  0.00000000000E+00 0.  1.
          1   -1    0    0  501    0  0.00000000000E+00 -0.00000000000E+00 -0.10601460701E+04  0.10601460701E+04  0.00000000000E+00 0. -1.
         23    2    1    2    0    0  0.32129749865E+03 -0.78727974304E+03 -0.44734370234E+02  0.85623728388E+03  0.89998033249E+02 0.  0.
        254    2    1    2    0    0 -0.32129749865E+03  0.78727974304E+03  0.55976028649E+02  0.12752965147E+04  0.94879207844E+03 0.  0.
         23    2    4    4    0    0 -0.64326886768E+03  0.59678863174E+03 -0.20454645071E+02  0.88239397205E+03  0.90825229481E+02 0.  0.
         23    2    4    4    0    0  0.32197136903E+03  0.19049111130E+03  0.76430673720E+02  0.39290254262E+03  0.92619296870E+02 0.  0.
          3    1    3    3  502    0  0.28938198129E+03 -0.75878756972E+03 -0.38565060195E+02  0.81301154415E+03  0.00000000000E+00 0. -1.
         -3    1    3    3    0  502  0.31915517360E+02 -0.28492173323E+02 -0.61693100385E+01  0.43225739732E+02  0.00000000000E+00 0.  1.
         11    1    5    5    0    0 -0.54311954409E+03  0.45508983829E+03 -0.20488755748E+02  0.70887614517E+03  0.00000000000E+00 0. -1.
        -11    1    5    5    0    0 -0.10014932359E+03  0.14169879345E+03  0.34110677630E-01  0.17351782688E+03  0.00000000000E+00 0.  1.
          1    1    6    6  503    0  0.12287711522E+03  0.11899566043E+03  0.57747883119E+02  0.18053689554E+03  0.00000000000E+00 0. -1.
         -1    1    6    6    0  503  0.19909425381E+03  0.71495450867E+02  0.18682790601E+02  0.21236564708E+03  0.00000000000E+00 0.  1.
<mgrwt>
<rscale>  0 0.21315042E+04</rscale>
<asrwt>0</asrwt>
<pdfrwt beam="1">  1        1 0.16309939E+00 0.21315042E+04</pdfrwt>
<pdfrwt beam="2">  1       -1 0.16482888E+00 0.21315042E+04</pdfrwt>
<totfact> 0.33512140E+00</totfact>
</mgrwt>
</event>
<event>
12    2  0.3751044E-008  0.2026527E+04  0.7818608E-02  0.8594318E-01
          2   -1    0    0  501    0  0.00000000000E+00  0.00000000000E+00  0.16610706339E+04  0.16610706339E+04  0.00000000000E+00 0. -1.
         -2   -1    0    0    0  501 -0.00000000000E+00 -0.00000000000E+00 -0.61809689153E+03  0.61809689153E+03  0.00000000000E+00 0.  1.
         23    2    1    2    0    0  0.41003989102E+03 -0.52310960085E+03  0.93140686700E+03  0.11476189442E+04  0.87943859493E+02 0.  0.
        254    2    1    2    0    0 -0.41003989102E+03  0.52310960085E+03  0.11156687540E+03  0.11315485813E+04  0.90894370420E+03 0.  0.
         23    2    4    4    0    0  0.24472613264E+03  0.35310250775E+03 -0.57795757477E+01  0.43906441520E+03  0.90398541024E+02 0.  0.
         23    2    4    4    0    0 -0.65476602367E+03  0.17000709310E+03  0.11734645115E+03  0.69248416610E+03  0.90239532606E+02 0.  0.
          3    1    3    3  502    0  0.15724429471E+03 -0.26653354624E+03  0.45853329713E+03  0.55318955528E+03  0.00000000000E+00 0.  1.
         -3    1    3    3    0  502  0.25279559631E+03 -0.25657605461E+03  0.47287356986E+03  0.59442938890E+03  0.00000000000E+00 0. -1.
         11    1    5    5    0    0  0.85460882407E+01  0.51919671209E+02  0.17926228522E+02  0.55588106207E+02  0.00000000000E+00 0.  1.
        -11    1    5    5    0    0  0.23618004440E+03  0.30118283654E+03 -0.23705804270E+02  0.38347630899E+03  0.00000000000E+00 0. -1.
          1    1    6    6  503    0 -0.57802015857E+03  0.17790789948E+03  0.11271641277E+03  0.61519388336E+03  0.00000000000E+00 0. -1.
         -1    1    6    6    0  503 -0.76745865095E+02 -0.79008063800E+01  0.46300383838E+01  0.77290282740E+02  0.00000000000E+00 0.  1.
<mgrwt>
<rscale>  0 0.20265267E+04</rscale>
<asrwt>0</asrwt>
<pdfrwt beam="1">  1        2 0.25554933E+00 0.20265267E+04</pdfrwt>
<pdfrwt beam="2">  1       -2 0.95091830E-01 0.20265267E+04</pdfrwt>
<totfact> 0.88876689E+00</totfact>
</mgrwt>
</event>
<event>
12    2  0.3751044E-008  0.1650726E+04  0.7818608E-02  0.8789977E-01
          2   -1    0    0  501    0  0.00000000000E+00  0.00000000000E+00  0.37690042196E+03  0.37690042196E+03  0.00000000000E+00 0. -1.
         -2   -1    0    0    0  501 -0.00000000000E+00 -0.00000000000E+00 -0.18074378889E+04  0.18074378889E+04  0.00000000000E+00 0.  1.
         23    2    1    2    0    0  0.53871316780E+03 -0.47847510273E+01 -0.21535004422E+03  0.58748757065E+03  0.92364674594E+02 0.  0.
        254    2    1    2    0    0 -0.53871316780E+03  0.47847510273E+01 -0.12151874227E+04  0.15968507402E+04  0.88488250246E+03 0.  0.
         23    2    4    4    0    0 -0.60791695433E+03 -0.25940656956E+03 -0.10975305775E+04  0.12844193341E+04  0.91131034674E+02 0.  0.
         23    2    4    4    0    0  0.69203786525E+02  0.26419132059E+03 -0.11765684521E+03  0.31243140614E+03  0.95833357317E+02 0.  0.
          3    1    3    3  502    0  0.11677888343E+03  0.35523141957E+02 -0.36108595109E+02  0.12729113037E+03  0.00000000000E+00 0. -1.
         -3    1    3    3    0  502  0.42193428437E+03 -0.40307892985E+02 -0.17924144911E+03  0.46019644028E+03  0.00000000000E+00 0.  1.
         11    1    5    5    0    0 -0.55898353725E+03 -0.21367636982E+03 -0.95623592386E+03  0.11280546653E+04  0.00000000000E+00 0. -1.
        -11    1    5    5    0    0 -0.48933417083E+02 -0.45730199740E+02 -0.14129465366E+03  0.15636466873E+03  0.00000000000E+00 0.  1.
          2    1    6    6  503    0  0.41566455202E+02  0.25702070430E+03 -0.11145592883E+03  0.28321341195E+03  0.00000000000E+00 0. -1.
         -2    1    6    6    0  503  0.27637331323E+02  0.71706162875E+01 -0.62009163850E+01  0.29217994192E+02  0.00000000000E+00 0.  1.
<mgrwt>
<rscale>  0 0.16507260E+04</rscale>
<asrwt>0</asrwt>
<pdfrwt beam="1">  1        2 0.57984681E-01 0.16507260E+04</pdfrwt>
<pdfrwt beam="2">  1       -2 0.27806736E+00 0.16507260E+04</pdfrwt>
<totfact> 0.35196646E+00</totfact>
</mgrwt>
</event>
<event>
12    2  0.3751044E-008  0.2554456E+04  0.7818608E-02  0.8383838E-01
          2   -1    0    0  501    0  0.00000000000E+00  0.00000000000E+00  0.19538940015E+04  0.19538940015E+04  0.00000000000E+00 0. -1.
         -2   -1    0    0    0  501 -0.00000000000E+00 -0.00000000000E+00 -0.83490267322E+03  0.83490267322E+03  0.00000000000E+00 0.  1.
         23    2    1    2    0    0 -0.10526280238E+04  0.95759147426E+02  0.96570470123E+02  0.10649193446E+04  0.86785850681E+02 0.  0.
        254    2    1    2    0    0  0.10526280238E+04 -0.95759147426E+02  0.10224208581E+04  0.17238773301E+04  0.89956270899E+03 0.  0.
         23    2    4    4    0    0  0.20895348949E+03 -0.40810033243E+03  0.47699743272E+03  0.66793020959E+03  0.91633901819E+02 0.  0.
         23    2    4    4    0    0  0.84367453432E+03  0.31234118500E+03  0.54542342542E+03  0.10559471206E+04  0.90520012744E+02 0.  0.
          1    1    3    3  502    0 -0.63975682998E+03  0.45143422363E+02  0.99040846632E+02  0.64894978187E+03  0.00000000000E+00 0. -1.
         -1    1    3    3    0  502 -0.41287119383E+03  0.50615725063E+02 -0.24703765083E+01  0.41596956268E+03  0.00000000000E+00 0.  1.
         11    1    5    5    0    0  0.15680540173E+03 -0.34832000932E+03  0.34939669333E+03  0.51768022197E+03  0.00000000000E+00 0.  1.
        -11    1    5    5    0    0  0.52148087761E+02 -0.59780323107E+02  0.12760073939E+03  0.15024998762E+03  0.00000000000E+00 0. -1.
          3    1    6    6  503    0  0.36774417627E+03  0.18411597281E+03  0.24484164597E+03  0.47862501212E+03  0.00000000000E+00 0. -1.
         -3    1    6    6    0  503  0.47593035805E+03  0.12822521220E+03  0.30058177944E+03  0.57732210844E+03  0.00000000000E+00 0.  1.
<mgrwt>
<rscale>  0 0.25544560E+04</rscale>
<asrwt>0</asrwt>
<pdfrwt beam="1">  1        2 0.30059908E+00 0.25544560E+04</pdfrwt>
<pdfrwt beam="2">  1       -2 0.12844657E+00 0.25544560E+04</pdfrwt>
<totfact> 0.28176319E+00</totfact>
</mgrwt>
</event>
<event>
12    2  0.3751044E-008  0.3874565E+04  0.7818608E-02  0.8030340E-01
         -2   -1    0    0    0  501 -0.00000000000E+00  0.00000000000E+00  0.14899076388E+04  0.14899076388E+04  0.00000000000E+00 0.  1.
          2   -1    0    0  501    0  0.00000000000E+00 -0.00000000000E+00 -0.25189903709E+04  0.25189903709E+04  0.00000000000E+00 0. -1.
         23    2    1    2    0    0  0.17696081517E+04 -0.16845166390E+03 -0.94675359432E+03  0.20162034611E+04  0.94048151087E+02 0.  0.
        254    2    1    2    0    0 -0.17696081517E+04  0.16845166390E+03 -0.82329137750E+02  0.19926945486E+04  0.89675219742E+03 0.  0.
         23    2    4    4    0    0 -0.54566483032E+03  0.22177148274E+03  0.34818820511E+03  0.69088824064E+03  0.95701814325E+02 0.  0.
         23    2    4    4    0    0 -0.12239433213E+04 -0.53319818840E+02 -0.43051734286E+03  0.13018063080E+04  0.92055548452E+02 0.  0.
          1    1    3    3  502    0  0.95476329553E+03 -0.74570510552E+02 -0.46006575094E+03  0.10624472724E+04  0.00000000000E+00 0. -1.
         -1    1    3    3    0  502  0.81484485613E+03 -0.93881153348E+02 -0.48668784338E+03  0.95375618866E+03  0.00000000000E+00 0.  1.
         11    1    5    5    0    0 -0.13393861704E+03  0.43881304040E+02  0.39364634616E+02  0.14633761115E+03  0.00000000000E+00 0. -1.
        -11    1    5    5    0    0 -0.41172621329E+03  0.17789017870E+03  0.30882357050E+03  0.54455062949E+03  0.00000000000E+00 0.  1.
          1    1    6    6  503    0 -0.36512525425E+03  0.12998741441E+02 -0.96019889559E+02  0.37776346801E+03  0.00000000000E+00 0. -1.
         -1    1    6    6    0  503 -0.85881806709E+03 -0.66318560281E+02 -0.33449745330E+03  0.92404283995E+03  0.00000000000E+00 0.  1.
<mgrwt>
<rscale>  0 0.38745647E+04</rscale>
<asrwt>0</asrwt>
<pdfrwt beam="1">  1        2 0.38753698E+00 0.38745647E+04</pdfrwt>
<pdfrwt beam="2">  1       -2 0.22921656E+00 0.38745647E+04</pdfrwt>
<totfact> 0.23386669E-01</totfact>
</mgrwt>
</event>
<event>
12    2  0.3751044E-008  0.2255892E+04  0.7818608E-02  0.8495518E-01
         -1   -1    0    0    0  501 -0.00000000000E+00  0.00000000000E+00  0.21135359135E+04  0.21135359135E+04  0.00000000000E+00 0.  1.
          1   -1    0    0  501    0  0.00000000000E+00 -0.00000000000E+00 -0.60195921081E+03  0.60195921081E+03  0.00000000000E+00 0. -1.
         23    2    1    2    0    0 -0.70546727134E+03 -0.57949334710E+03  0.94393041149E+03  0.13163694309E+04  0.91253748009E+02 0.  0.
        254    2    1    2    0    0  0.70546727134E+03  0.57949334710E+03  0.56764629124E+03  0.13991256935E+04  0.89545172060E+03 0.  0.
         23    2    4    4    0    0 -0.90512395805E+02  0.31490915969E+03 -0.61521183633E+02  0.34642956759E+03  0.94171739996E+02 0.  0.
         23    2    4    4    0    0  0.79597966714E+03  0.26458418741E+03  0.62916747487E+03  0.10526961259E+04  0.93429113732E+02 0.  0.
          1    1    3    3  502    0 -0.58984741510E+02 -0.82567120972E+02  0.12040381616E+03  0.15745986201E+03  0.00000000000E+00 0. -1.
         -1    1    3    3    0  502 -0.64648252983E+03 -0.49692622613E+03  0.82352659533E+03  0.11589095689E+04  0.00000000000E+00 0.  1.
         11    1    5    5    0    0  0.19829279390E+02  0.42442606734E+02 -0.53664147764E+01  0.47152662650E+02  0.00000000000E+00 0. -1.
        -11    1    5    5    0    0 -0.11034167520E+03  0.27246655295E+03 -0.56154768856E+02  0.29927690493E+03  0.00000000000E+00 0.  1.
          3    1    6    6  503    0  0.17238692643E+03  0.64722724527E+02  0.92625331101E+02  0.20612068173E+03  0.00000000000E+00 0. -1.
         -3    1    6    6    0  503  0.62359274071E+03  0.19986146289E+03  0.53654214377E+03  0.84657544417E+03  0.00000000000E+00 0.  1.
<mgrwt>
<rscale>  0 0.22558922E+04</rscale>
<asrwt>0</asrwt>
<pdfrwt beam="1">  1        1 0.92609110E-01 0.22558922E+04</pdfrwt>
<pdfrwt beam="2">  1       -1 0.32515937E+00 0.22558922E+04</pdfrwt>
<totfact> 0.70079363E-01</totfact>
</mgrwt>
</event>
<event>
12    2  0.3751044E-008  0.1567176E+04  0.7818608E-02  0.8840970E-01
          1   -1    0    0  501    0  0.00000000000E+00  0.00000000000E+00  0.93086919977E+03  0.93086919977E+03  0.00000000000E+00 0. -1.
         -1   -1    0    0    0  501 -0.00000000000E+00 -0.00000000000E+00 -0.65960979776E+03  0.65960979776E+03  0.00000000000E+00 0.  1.
         23    2    1    2    0    0  0.11988787459E+03 -0.11251140070E+03  0.59413154029E+03  0.62354763506E+03  0.93741390346E+02 0.  0.
        254    2    1    2    0    0 -0.11988787459E+03  0.11251140070E+03 -0.32287213828E+03  0.96693136247E+03  0.89648085551E+03 0.  0.
         23    2    4    4    0    0 -0.19566334006E+02 -0.38359672698E+03 -0.10351696817E+03  0.40862006938E+03  0.93409357276E+02 0.  0.
         23    2    4    4    0    0 -0.10032154058E+03  0.49610812767E+03 -0.21935517012E+03  0.55831129309E+03  0.86064647138E+02 0.  0.
          3    1    3    3  502    0  0.12374013581E+03 -0.12296582410E+03  0.51754173647E+03  0.54615168598E+03  0.00000000000E+00 0. -1.
         -3    1    3    3    0  502 -0.38522612242E+01  0.10454423409E+02  0.76589803817E+02  0.77395949081E+02  0.00000000000E+00 0.  1.
         11    1    5    5    0    0  0.15043233518E+02 -0.94288259515E+01 -0.13282173746E+02  0.22172455275E+02  0.00000000000E+00 0.  1.
        -11    1    5    5    0    0 -0.34609567524E+02 -0.37416790103E+03 -0.90234794420E+02  0.38644761410E+03  0.00000000000E+00 0. -1.
          3    1    6    6  503    0 -0.94799301024E+02  0.49369954340E+03 -0.20530722770E+03  0.54302597026E+03  0.00000000000E+00 0. -1.
         -3    1    6    6    0  503 -0.55222395561E+01  0.24085842736E+01 -0.14047942420E+02  0.15285322834E+02  0.00000000000E+00 0.  1.
<mgrwt>
<rscale>  0 0.15671764E+04</rscale>
<asrwt>0</asrwt>
<pdfrwt beam="1">  1        1 0.14321065E+00 0.15671764E+04</pdfrwt>
<pdfrwt beam="2">  1       -1 0.10147843E+00 0.15671764E+04</pdfrwt>
<totfact> 0.15228856E+01</totfact>
</mgrwt>
</event>
<event>
12    2  0.3751044E-008  0.1324155E+04  0.7818608E-02  0.9010626E-01
         -2   -1    0    0    0  501 -0.00000000000E+00  0.00000000000E+00  0.14345990099E+03  0.14345990099E+03  0.00000000000E+00 0. -1.
          2   -1    0    0  501    0  0.00000000000E+00 -0.00000000000E+00 -0.30555337013E+04  0.30555337013E+04  0.00000000000E+00 0.  1.
         23    2    1    2    0    0 -0.19128775238E+02 -0.16858996219E+03 -0.66851858357E+02  0.20360053081E+03  0.90529110172E+02 0.  0.
        254    2    1    2    0    0  0.19128775238E+02  0.16858996219E+03 -0.28452219419E+04  0.29953930715E+04  0.92103380410E+03 0.  0.
         23    2    4    4    0    0  0.36062647678E+03  0.28628938175E+03 -0.22065654343E+04  0.22560085999E+04  0.92901674240E+02 0.  0.
         23    2    4    4    0    0 -0.34149770154E+03 -0.11769941956E+03 -0.63865650764E+03  0.73938447157E+03  0.91287614327E+02 0.  0.
          2    1    3    3  502    0  0.25393356913E+02 -0.13142343742E+03 -0.40100430089E+02  0.13973183951E+03  0.00000000000E+00 0. -1.
         -2    1    3    3    0  502 -0.44522132151E+02 -0.37166524765E+02 -0.26751428267E+02  0.63868691303E+02  0.00000000000E+00 0.  1.
         11    1    5    5    0    0  0.28536521425E+03  0.23760649792E+03 -0.19260869517E+04  0.19615557853E+04  0.00000000000E+00 0.  1.
        -11    1    5    5    0    0  0.75261262536E+02  0.48682883828E+02 -0.28047848263E+03  0.29445281461E+03  0.00000000000E+00 0. -1.
          2    1    6    6  503    0 -0.56022870540E+02 -0.21446364944E+02 -0.18771036702E+03  0.19706265623E+03  0.00000000000E+00 0. -1.
         -2    1    6    6    0  503 -0.28547483100E+03 -0.96253054620E+02 -0.45094614062E+03  0.54232181534E+03  0.00000000000E+00 0.  1.
<mgrwt>
<rscale>  0 0.13241549E+04</rscale>
<asrwt>0</asrwt>
<pdfrwt beam="1">  1        2 0.47008212E+00 0.13241549E+04</pdfrwt>
<pdfrwt beam="2">  1       -2 0.22070754E-01 0.13241549E+04</pdfrwt>
<totfact> 0.28549268E+01</totfact>
</mgrwt>
</event>
<event>
12    2  0.3751044E-008  0.1338991E+04  0.7818608E-02  0.8999204E-01
         -2   -1    0    0    0  501 -0.00000000000E+00  0.00000000000E+00  0.14849312299E+03  0.14849312299E+03  0.00000000000E+00 0.  1.
          2   -1    0    0  501    0  0.00000000000E+00 -0.00000000000E+00 -0.30184858804E+04  0.30184858804E+04  0.00000000000E+00 0. -1.
         23    2    1    2    0    0 -0.20878457985E+03 -0.29784340572E+03 -0.60214754521E+03  0.71062556138E+03  0.10052525634E+03 0.  0.
        254    2    1    2    0    0  0.20878457985E+03  0.29784340572E+03 -0.22678452122E+04  0.24563534420E+04  0.87077473007E+03 0.  0.
         23    2    4    4    0    0  0.52198619491E+03  0.22310567850E+03 -0.10933448195E+04  0.12353079679E+04  0.91307993641E+02 0.  0.
         23    2    4    4    0    0 -0.31320161506E+03  0.74737727216E+02 -0.11745003926E+04  0.12210454741E+04  0.88430186930E+02 0.  0.
          2    1    3    3  502    0  0.20166606082E+01 -0.57592263814E+02 -0.98555359173E+02  0.11416695929E+03  0.00000000000E+00 0. -1.
         -2    1    3    3    0  502 -0.21080124046E+03 -0.24025114191E+03 -0.50359218604E+03  0.59645860209E+03  0.00000000000E+00 0.  1.
         11    1    5    5    0    0  0.19149641612E+03  0.58335210368E+02 -0.30602813811E+03  0.36568715519E+03  0.00000000000E+00 0. -1.
        -11    1    5    5    0    0  0.33048977879E+03  0.16477046814E+03 -0.78731668143E+03  0.86962081272E+03  0.00000000000E+00 0.  1.
          3    1    6    6  503    0 -0.24303782814E+02 -0.85298631208E+00 -0.20922125870E+03  0.21062985671E+03  0.00000000000E+00 0. -1.
         -3    1    6    6    0  503 -0.28889783224E+03  0.75590713528E+02 -0.96527913394E+03  0.10104156174E+04  0.00000000000E+00 0.  1.
<mgrwt>
<rscale>  0 0.13389913E+04</rscale>
<asrwt>0</asrwt>
<pdfrwt beam="1">  1        2 0.46438245E+00 0.13389913E+04</pdfrwt>
<pdfrwt beam="2">  1       -2 0.22845096E-01 0.13389913E+04</pdfrwt>
<totfact> 0.28272847E+01</totfact>
</mgrwt>
</event>
<event>
12    2  0.3751044E-008  0.1218638E+04  0.7818608E-02  0.9096698E-01
          2   -1    0    0  501    0  0.00000000000E+00  0.00000000000E+00  0.16540025966E+04  0.16540025966E+04  0.00000000000E+00 0. -1.
         -2   -1    0    0    0  501 -0.00000000000E+00 -0.00000000000E+00 -0.22446725244E+03  0.22446725244E+03  0.00000000000E+00 0.  1.
         23    2    1    2    0    0 -0.91340720763E+02  0.88370505036E+02  0.67426659851E+03  0.69212609461E+03  0.90832877033E+02 0.  0.
        254    2    1    2    0    0  0.91340720763E+02 -0.88370505036E+02  0.75526874562E+03  0.11863437544E+04  0.90599566889E+03 0.  0.
         23    2    4    4    0    0  0.41162448919E+03 -0.29709208656E+03  0.35982751705E+03  0.62869098310E+03  0.89878152013E+02 0.  0.
         23    2    4    4    0    0 -0.32028376843E+03  0.20872158152E+03  0.39544122857E+03  0.55765277129E+03  0.91958997209E+02 0.  0.
          3    1    3    3  502    0 -0.10294036285E+03  0.95408610730E+02  0.57223862402E+03  0.58919993561E+03  0.00000000000E+00 0. -1.
         -3    1    3    3    0  502  0.11599642090E+02 -0.70381056936E+01  0.10202797449E+03  0.10292615900E+03  0.00000000000E+00 0.  1.
         11    1    5    5    0    0  0.69814328799E+02 -0.23414649715E+02  0.81537378726E+02  0.10986642097E+03  0.00000000000E+00 0. -1.
        -11    1    5    5    0    0  0.34181016039E+03 -0.27367743684E+03  0.27829013833E+03  0.51882456213E+03  0.00000000000E+00 0.  1.
          4    1    6    6  503    0 -0.27064599906E+01 -0.11236622739E+01 -0.45999889403E+01  0.54541214542E+01  0.00000000000E+00 0. -1.
         -4    1    6    6    0  503 -0.31757730844E+03  0.20984524379E+03  0.40004121751E+03  0.55219864984E+03  0.00000000000E+00 0.  1.
<mgrwt>
<rscale>  0 0.12186376E+04</rscale>
<asrwt>0</asrwt>
<pdfrwt beam="1">  1        2 0.25446193E+00 0.12186376E+04</pdfrwt>
<pdfrwt beam="2">  1       -2 0.34533425E-01 0.12186376E+04</pdfrwt>
<totfact> 0.80565373E+01</totfact>
</mgrwt>
</event>
<event>
12    2  0.3751044E-008  0.1727410E+04  0.7818608E-02  0.8745884E-01
         -2   -1    0    0    0  501 -0.00000000000E+00  0.00000000000E+00  0.36220933383E+03  0.36220933383E+03  0.00000000000E+00 0.  1.
          2   -1    0    0  501    0  0.00000000000E+00 -0.00000000000E+00 -0.20595450320E+04  0.20595450320E+04  0.00000000000E+00 0. -1.
         23    2    1    2    0    0  0.48405803995E+03 -0.18312107981E+03 -0.13148512048E+03  0.54121144935E+03  0.88181517818E+02 0.  0.
        254    2    1    2    0    0 -0.48405803995E+03  0.18312107981E+03 -0.15658505777E+04  0.18805429165E+04  0.90371904550E+03 0.  0.
         23    2    4    4    0    0 -0.45769843628E+03  0.51467103335E+03 -0.10751857237E+04  0.12808517225E+04  0.10090918396E+03 0.  0.
         23    2    4    4    0    0 -0.26359603679E+02 -0.33154995355E+03 -0.49066485398E+03  0.59969119400E+03  0.90869845511E+02 0.  0.
          2    1    3    3  502    0  0.10613707132E+03 -0.63142461123E+01 -0.43038122168E+02  0.11470495880E+03  0.00000000000E+00 0. -1.
         -2    1    3    3    0  502  0.37792096863E+03 -0.17680683369E+03 -0.88446998316E+02  0.42650649055E+03  0.00000000000E+00 0.  1.
         11    1    5    5    0    0 -0.36490108184E+03  0.35924879827E+03 -0.84454169842E+03  0.98765539484E+03  0.00000000000E+00 0. -1.
        -11    1    5    5    0    0 -0.92797354441E+02  0.15542223508E+03 -0.23064402528E+03  0.29319632765E+03  0.00000000000E+00 0.  1.
          1    1    6    6  503    0  0.19192881363E+02 -0.23923010181E+03 -0.37072545195E+03  0.44162967408E+03  0.00000000000E+00 0. -1.
         -1    1    6    6    0  503 -0.45552485041E+02 -0.92319851738E+02 -0.11993940203E+03  0.15806151991E+03  0.00000000000E+00 0.  1.
<mgrwt>
<rscale>  0 0.17274101E+04</rscale>
<asrwt>0</asrwt>
<pdfrwt beam="1">  1        2 0.31685308E+00 0.17274101E+04</pdfrwt>
<pdfrwt beam="2">  1       -2 0.55724513E-01 0.17274101E+04</pdfrwt>
<totfact> 0.17783225E+01</totfact>
</mgrwt>
</event>
<event>
12    2  0.3751044E-008  0.2298390E+04  0.7818608E-02  0.8478556E-01
          1   -1    0    0  501    0  0.00000000000E+00  0.00000000000E+00  0.26090149608E+04  0.26090149608E+04  0.00000000000E+00 0. -1.
         -1   -1    0    0    0  501 -0.00000000000E+00 -0.00000000000E+00 -0.50618678728E+03  0.50618678728E+03  0.00000000000E+00 0.  1.
         23    2    1    2    0    0 -0.54125639860E+03 -0.80096329274E+03  0.93778322195E+03  0.13497842659E+04  0.89328089785E+02 0.  0.
        254    2    1    2    0    0  0.54125639860E+03  0.80096329274E+03  0.11650449516E+04  0.17654174823E+04  0.90822269410E+03 0.  0.
         23    2    4    4    0    0  0.42954813349E+02  0.14502566242E+03  0.86581747268E+03  0.88345666702E+03  0.89320925604E+02 0.  0.
         23    2    4    4    0    0  0.49830158525E+03  0.65593763032E+03  0.29922747894E+03  0.88196081525E+03  0.98788414120E+02 0.  0.
          1    1    3    3  502    0 -0.19062442950E+02 -0.71073480150E+01  0.24411608945E+02  0.31777630155E+02  0.00000000000E+00 0. -1.
         -1    1    3    3    0  502 -0.52219395565E+03 -0.79385594473E+03  0.91337161300E+03  0.13180066357E+04  0.00000000000E+00 0.  1.
         11    1    5    5    0    0 -0.13321078689E+02 -0.32280564931E+01  0.13148606551E+03  0.13219855109E+03  0.00000000000E+00 0.  1.
        -11    1    5    5    0    0  0.56275892038E+02  0.14825371892E+03  0.73433140717E+03  0.75125811593E+03  0.00000000000E+00 0. -1.
          2    1    6    6  503    0  0.56188783232E+02  0.97530171028E+02  0.91898838098E+01  0.11293257983E+03  0.00000000000E+00 0. -1.
         -2    1    6    6    0  503  0.44211280202E+03  0.55840745929E+03  0.29003759513E+03  0.76902823543E+03  0.00000000000E+00 0.  1.
<mgrwt>
<rscale>  0 0.22983898E+04</rscale>
<asrwt>0</asrwt>
<pdfrwt beam="1">  1        1 0.40138691E+00 0.22983898E+04</pdfrwt>
<pdfrwt beam="2">  1       -1 0.77874892E-01 0.22983898E+04</pdfrwt>
<totfact> 0.16980134E+00</totfact>
</mgrwt>
</event>
<event>
12    2  0.3751044E-008  0.3395842E+04  0.7818608E-02  0.8138928E-01
         -2   -1    0    0    0  501 -0.00000000000E+00  0.00000000000E+00  0.97021993974E+03  0.97021993974E+03  0.00000000000E+00 0.  1.
          2   -1    0    0  501    0  0.00000000000E+00 -0.00000000000E+00 -0.29714246004E+04  0.29714246004E+04  0.00000000000E+00 0. -1.
         23    2    1    2    0    0  0.83962200194E+03 -0.76992424100E+03  0.33899275716E+03  0.11928675218E+04  0.10133307470E+03 0.  0.
        254    2    1    2    0    0 -0.83962200194E+03  0.76992424100E+03 -0.23401974178E+04  0.27487770184E+04  0.88402641326E+03 0.  0.
         23    2    4    4    0    0  0.17509343037E+03  0.97909650741E+02 -0.39130719554E+03  0.44926447964E+03  0.92050216260E+02 0.  0.
         23    2    4    4    0    0 -0.10147154323E+04  0.67201459026E+03 -0.19488902223E+04  0.22995125387E+04  0.91289644785E+02 0.  0.
          2    1    3    3  502    0  0.44860469690E+02 -0.73222658708E+02  0.13115057693E+02  0.86867854972E+02  0.00000000000E+00 0. -1.
         -2    1    3    3    0  502  0.79476153225E+03 -0.69670158229E+03  0.32587769947E+03  0.11059996668E+04  0.00000000000E+00 0.  1.
         11    1    5    5    0    0  0.24572349899E+01  0.29984805156E+01  0.52155600024E+01  0.64985348608E+01  0.00000000000E+00 0. -1.
        -11    1    5    5    0    0  0.17263619538E+03  0.94911170226E+02 -0.39652275555E+03  0.44276594478E+03  0.00000000000E+00 0.  1.
          1    1    6    6  503    0 -0.23344697137E+02  0.47913342772E+01 -0.23769265003E+02  0.33658724387E+02  0.00000000000E+00 0. -1.
         -1    1    6    6    0  503 -0.99137073517E+03  0.66722325598E+03 -0.19251209573E+04  0.22658538143E+04  0.00000000000E+00 0.  1.
<mgrwt>
<rscale>  0 0.33958418E+04</rscale>
<asrwt>0</asrwt>
<pdfrwt beam="1">  1        2 0.45714225E+00 0.33958418E+04</pdfrwt>
<pdfrwt beam="2">  1       -2 0.14926461E+00 0.33958418E+04</pdfrwt>
<totfact> 0.45609203E-01</totfact>
</mgrwt>
</event>
<event>
12    2  0.3751044E-008  0.1866028E+04  0.7818608E-02  0.8671954E-01
         -2   -1    0    0    0  501 -0.00000000000E+00  0.00000000000E+00  0.42546453870E+03  0.42546453870E+03  0.00000000000E+00 0.  1.
          2   -1    0    0  501    0  0.00000000000E+00 -0.00000000000E+00 -0.20460341479E+04  0.20460341479E+04  0.00000000000E+00 0. -1.
         23    2    1    2    0    0  0.50628193567E+03  0.12819954854E+03 -0.12650753824E+04  0.13719331421E+04  0.95017370721E+02 0.  0.
        254    2    1    2    0    0 -0.50628193567E+03 -0.12819954854E+03 -0.35549422677E+03  0.10995655444E+04  0.89995095343E+03 0.  0.
         23    2    4    4    0    0 -0.50288574054E+03  0.27911536969E+03 -0.35507506614E+03  0.68237398895E+03  0.93576175177E+02 0.  0.
         23    2    4    4    0    0 -0.33961951269E+01 -0.40731491823E+03 -0.41916062089E+00  0.41719155547E+03  0.90175614798E+02 0.  0.
          1    1    3    3  502    0  0.47561554632E+03  0.10833166784E+03 -0.12200190175E+04  0.13139224868E+04  0.00000000000E+00 0. -1.
         -1    1    3    3    0  502  0.30666389347E+02  0.19867880702E+02 -0.45056364842E+02  0.58010655332E+02  0.00000000000E+00 0.  1.
         11    1    5    5    0    0 -0.41362646040E+03  0.21833613711E+03 -0.32733117583E+03  0.57087933592E+03  0.00000000000E+00 0. -1.
        -11    1    5    5    0    0 -0.89259280142E+02  0.60779232586E+02 -0.27743890319E+02  0.11149465303E+03  0.00000000000E+00 0.  1.
          4    1    6    6  503    0 -0.22803242992E+02 -0.33662381801E+03  0.28031080410E+02  0.33855771179E+03  0.00000000000E+00 0. -1.
         -4    1    6    6    0  503  0.19407047866E+02 -0.70691100226E+02 -0.28450241031E+02  0.78633843686E+02  0.00000000000E+00 0.  1.
<mgrwt>
<rscale>  0 0.18660278E+04</rscale>
<asrwt>0</asrwt>
<pdfrwt beam="1">  1        2 0.31477448E+00 0.18660278E+04</pdfrwt>
<pdfrwt beam="2">  1       -2 0.65456083E-01 0.18660278E+04</pdfrwt>
<totfact> 0.12719195E+01</totfact>
</mgrwt>
</event>
<event>
12    2  0.3751044E-008  0.1185978E+04  0.7818608E-02  0.9125219E-01
          2   -1    0    0  501    0  0.00000000000E+00  0.00000000000E+00  0.91212667081E+03  0.91212667081E+03  0.00000000000E+00 0. -1.
         -2   -1    0    0    0  501 -0.00000000000E+00 -0.00000000000E+00 -0.38551206582E+03  0.38551206582E+03  0.00000000000E+00 0.  1.
         23    2    1    2    0    0 -0.13134007843E+03 -0.19339787985E+03  0.14584608052E+03  0.28901917275E+03  0.87224118718E+02 0.  0.
        254    2    1    2    0    0  0.13134007843E+03  0.19339787985E+03  0.38076852447E+03  0.10086195639E+04  0.90425427800E+03 0.  0.
         23    2    4    4    0    0  0.42252393587E+03  0.13872271353E+03 -0.70295608470E+02  0.46122422251E+03  0.10007918481E+03 0.  0.
         23    2    4    4    0    0 -0.29118385744E+03  0.54675166314E+02  0.45106413294E+03  0.54739534136E+03  0.91680941720E+02 0.  0.
          3    1    3    3  502    0 -0.98995417396E+02 -0.19064657084E+03  0.13893461807E+03  0.25583009154E+03  0.00000000000E+00 0. -1.
         -3    1    3    3    0  502 -0.32344661033E+02 -0.27513090019E+01  0.69114624500E+01  0.33189081213E+02  0.00000000000E+00 0.  1.
         11    1    5    5    0    0  0.42540315312E+03  0.13373404983E+03 -0.76845692904E+02  0.45250182241E+03  0.00000000000E+00 0. -1.
        -11    1    5    5    0    0 -0.28792172482E+01  0.49886637031E+01  0.65500844343E+01  0.87224001056E+01  0.00000000000E+00 0.  1.
          2    1    6    6  503    0 -0.14347518668E+03  0.72859786343E+02  0.22052233940E+03  0.27299043909E+03  0.00000000000E+00 0.  1.
         -2    1    6    6    0  503 -0.14770867076E+03 -0.18184620030E+02  0.23054179355E+03  0.27440490228E+03  0.00000000000E+00 0. -1.
<mgrwt>
<rscale>  0 0.11859778E+04</rscale>
<asrwt>0</asrwt>
<pdfrwt beam="1">  1        2 0.14032718E+00 0.11859778E+04</pdfrwt>
<pdfrwt beam="2">  1       -2 0.59309549E-01 0.11859778E+04</pdfrwt>
<totfact> 0.75438607E+01</totfact>
</mgrwt>
</event>
<event>
12    2  0.3751044E-008  0.1455266E+04  0.7818608E-02  0.8914758E-01
          1   -1    0    0  501    0  0.00000000000E+00  0.00000000000E+00  0.27732933778E+04  0.27732933778E+04  0.00000000000E+00 0. -1.
         -1   -1    0    0    0  501 -0.00000000000E+00 -0.00000000000E+00 -0.19091024629E+03  0.19091024629E+03  0.00000000000E+00 0.  1.
         23    2    1    2    0    0 -0.28632334848E+02  0.24871275013E+03  0.15411281748E+04  0.15639039650E+04  0.89675625726E+02 0.  0.
        254    2    1    2    0    0  0.28632334848E+02 -0.24871275013E+03  0.10412549567E+04  0.14002996591E+04  0.90219144737E+03 0.  0.
         23    2    4    4    0    0 -0.18627979085E+03 -0.52869813906E+03  0.69667729302E+03  0.89863090182E+03  0.89198455060E+02 0.  0.
         23    2    4    4    0    0  0.21491212570E+03  0.27998538892E+03  0.34457766364E+03  0.50166875723E+03  0.91426122756E+02 0.  0.
          4    1    3    3  502    0 -0.46862010831E+02  0.10375698760E+03  0.51547696120E+03  0.52789966667E+03  0.00000000000E+00 0. -1.
         -4    1    3    3    0  502  0.18229675983E+02  0.14495576253E+03  0.10256512136E+04  0.10360042984E+04  0.00000000000E+00 0.  1.
         11    1    5    5    0    0 -0.51816619006E+02 -0.28049899759E+03  0.34258846955E+03  0.44579312368E+03  0.00000000000E+00 0. -1.
        -11    1    5    5    0    0 -0.13446317185E+03 -0.24819914147E+03  0.35408882347E+03  0.45283777814E+03  0.00000000000E+00 0.  1.
          2    1    6    6  503    0  0.99051151016E+01  0.37374995276E+01  0.42687172486E+02  0.43980392253E+02  0.00000000000E+00 0. -1.
         -2    1    6    6    0  503  0.20500701060E+03  0.27624788939E+03  0.30189049115E+03  0.45768836498E+03  0.00000000000E+00 0.  1.
<mgrwt>
<rscale>  0 0.14552665E+04</rscale>
<asrwt>0</asrwt>
<pdfrwt beam="1">  1        1 0.42666049E+00 0.14552665E+04</pdfrwt>
<pdfrwt beam="2">  1       -1 0.29370809E-01 0.14552665E+04</pdfrwt>
<totfact> 0.89968402E+00</totfact>
</mgrwt>
</event>
<event>
12    2  0.3751044E-008  0.2298090E+04  0.7818608E-02  0.8478675E-01
         -1   -1    0    0    0  501 -0.00000000000E+00  0.00000000000E+00  0.89203821233E+03  0.89203821233E+03  0.00000000000E+00 0.  1.
          1   -1    0    0  501    0  0.00000000000E+00 -0.00000000000E+00 -0.14800986882E+04  0.14800986882E+04  0.00000000000E+00 0. -1.
         23    2    1    2    0    0 -0.14507874497E+01 -0.52955172193E+02 -0.12614481825E+04  0.12658412845E+04  0.91083946327E+02 0.  0.
        254    2    1    2    0    0  0.14507874497E+01  0.52955172193E+02  0.67338770668E+03  0.11062956160E+04  0.87614646690E+03 0.  0.
         23    2    4    4    0    0 -0.59506020510E+02  0.15453169640E+03 -0.16767322405E+03  0.25208761709E+03  0.89514495816E+02 0.  0.
         23    2    4    4    0    0  0.60956807960E+02 -0.10157652420E+03  0.84106093073E+03  0.85420799892E+03  0.90853142626E+02 0.  0.
          4    1    3    3  502    0 -0.27810165318E+01  0.16975792235E+02 -0.67762510957E+03  0.67784341901E+03  0.00000000000E+00 0. -1.
         -4    1    3    3    0  502  0.13302290821E+01 -0.69930964428E+02 -0.58382307293E+03  0.58799786546E+03  0.00000000000E+00 0.  1.
         11    1    5    5    0    0 -0.53687858804E+02  0.14547481689E+03 -0.10215388405E+03  0.18568986121E+03  0.00000000000E+00 0. -1.
        -11    1    5    5    0    0 -0.58181617059E+01  0.90568795124E+01 -0.65519340001E+02  0.66397755883E+02  0.00000000000E+00 0.  1.
          1    1    6    6  503    0 -0.19236441621E+02 -0.25469481672E+01  0.67969761559E+02  0.70685331700E+02  0.00000000000E+00 0. -1.
         -1    1    6    6    0  503  0.80193249581E+02 -0.99029576038E+02  0.77309116917E+03  0.78352266722E+03  0.00000000000E+00 0.  1.
<mgrwt>
<rscale>  0 0.22980902E+04</rscale>
<asrwt>0</asrwt>
<pdfrwt beam="1">  1        1 0.22770749E+00 0.22980902E+04</pdfrwt>
<pdfrwt beam="2">  1       -1 0.13723665E+00 0.22980902E+04</pdfrwt>
<totfact> 0.26957096E+00</totfact>
</mgrwt>
</event>
<event>
12    2  0.3751044E-008  0.1187543E+04  0.7818608E-02  0.9123831E-01
          1   -1    0    0  501    0  0.00000000000E+00  0.00000000000E+00  0.36447590755E+03  0.36447590755E+03  0.00000000000E+00 0. -1.
         -1   -1    0    0    0  501 -0.00000000000E+00 -0.00000000000E+00 -0.96731910133E+03  0.96731910133E+03  0.00000000000E+00 0.  1.
         23    2    1    2    0    0  0.71623935210E+02  0.18207290329E+03  0.29190423853E+02  0.21764691263E+03  0.90761046294E+02 0.  0.
        254    2    1    2    0    0 -0.71623935210E+02 -0.18207290329E+03 -0.63203361763E+03  0.11141480963E+04  0.89642565579E+03 0.  0.
         23    2    4    4    0    0 -0.35979224593E+03 -0.38281487424E+03 -0.25489574400E+03  0.59098860789E+03  0.91093392577E+02 0.  0.
         23    2    4    4    0    0  0.28816831072E+03  0.20074197095E+03 -0.37713787362E+03  0.52315948837E+03  0.90136343087E+02 0.  0.
          1    1    3    3  502    0  0.71900924237E+02  0.19083151988E+03  0.35305669651E+02  0.20696111276E+03  0.00000000000E+00 0. -1.
         -1    1    3    3    0  502 -0.27698902643E+00 -0.87586165939E+01 -0.61152457978E+01  0.10685799864E+02  0.00000000000E+00 0.  1.
         11    1    5    5    0    0 -0.35798508908E+03 -0.38083714255E+03 -0.26107616082E+03  0.58425252664E+03  0.00000000000E+00 0. -1.
        -11    1    5    5    0    0 -0.18071568472E+01 -0.19777316960E+01  0.61804168112E+01  0.67360812415E+01  0.00000000000E+00 0.  1.
          3    1    6    6  503    0  0.24693412305E+03  0.16068863589E+03 -0.26109932775E+03  0.39366249222E+03  0.00000000000E+00 0. -1.
         -3    1    6    6    0  503  0.41234187663E+02  0.40053335066E+02 -0.11603854588E+03  0.12949699615E+03  0.00000000000E+00 0.  1.
<mgrwt>
<rscale>  0 0.11875429E+04</rscale>
<asrwt>0</asrwt>
<pdfrwt beam="1">  1        1 0.56073218E-01 0.11875429E+04</pdfrwt>
<pdfrwt beam="2">  1       -1 0.14881832E+00 0.11875429E+04</pdfrwt>
<totfact> 0.23970391E+01</totfact>
</mgrwt>
</event>
<event>
12    2  0.3751044E-008  0.1393214E+04  0.7818608E-02  0.8958745E-01
         -1   -1    0    0    0  501 -0.00000000000E+00  0.00000000000E+00  0.16680668641E+03  0.16680668641E+03  0.00000000000E+00 0.  1.
          1   -1    0    0  501    0  0.00000000000E+00 -0.00000000000E+00 -0.29091252355E+04  0.29091252355E+04  0.00000000000E+00 0. -1.
         23    2    1    2    0    0 -0.36632670908E+03  0.69986035702E+02 -0.85406612995E+03  0.93538538235E+03  0.80147091133E+02 0.  0.
        254    2    1    2    0    0  0.36632670908E+03 -0.69986035702E+02 -0.18882524191E+04  0.21405465395E+04  0.93666909129E+03 0.  0.
         23    2    4    4    0    0 -0.14666515608E+02 -0.38489478413E+03 -0.13388674926E+04  0.13960694662E+04  0.89914905999E+02 0.  0.
         23    2    4    4    0    0  0.38099322469E+03  0.31490874843E+03 -0.54938492654E+03  0.74447707329E+03  0.89994211219E+02 0.  0.
          1    1    3    3  502    0 -0.27280287793E+03  0.44543519539E+02 -0.70842324539E+03  0.76044002389E+03  0.00000000000E+00 0. -1.
         -1    1    3    3    0  502 -0.93523831157E+02  0.25442516163E+02 -0.14564288456E+03  0.17494535846E+03  0.00000000000E+00 0.  1.
         11    1    5    5    0    0 -0.10811132271E+02 -0.24824948896E+02 -0.19476280498E+03  0.19663598061E+03  0.00000000000E+00 0. -1.
        -11    1    5    5    0    0 -0.38553833380E+01 -0.36006983524E+03 -0.11441046876E+04  0.11994334856E+04  0.00000000000E+00 0.  1.
          3    1    6    6  503    0  0.98674656334E+02  0.36322511198E+02 -0.13083550830E+03  0.16785095428E+03  0.00000000000E+00 0. -1.
         -3    1    6    6    0  503  0.28231856836E+03  0.27858623723E+03 -0.41854941824E+03  0.57662611901E+03  0.00000000000E+00 0.  1.
<mgrwt>
<rscale>  0 0.13932143E+04</rscale>
<asrwt>0</asrwt>
<pdfrwt beam="1">  1        1 0.44755772E+00 0.13932143E+04</pdfrwt>
<pdfrwt beam="2">  1       -1 0.25662568E-01 0.13932143E+04</pdfrwt>
<totfact> 0.91550933E+00</totfact>
</mgrwt>
</event>
<event>
12    2  0.3751044E-008  0.2013080E+04  0.7818608E-02  0.8600529E-01
         -2   -1    0    0    0  501 -0.00000000000E+00  0.00000000000E+00  0.32051753258E+03  0.32051753258E+03  0.00000000000E+00 0. -1.
          2   -1    0    0  501    0  0.00000000000E+00 -0.00000000000E+00 -0.31608980667E+04  0.31608980667E+04  0.00000000000E+00 0.  1.
         23    2    1    2    0    0 -0.42532008158E+03  0.39127251255E+03 -0.17892229157E+03  0.61160931787E+03  0.89785413117E+02 0.  0.
        254    2    1    2    0    0  0.42532008158E+03 -0.39127251255E+03 -0.26614582426E+04  0.28698062814E+04  0.90467494998E+03 0.  0.
         23    2    4    4    0    0  0.38831242140E+03 -0.50972471142E+02 -0.23901828795E+04  0.24237070908E+04  0.89426702446E+02 0.  0.
         23    2    4    4    0    0  0.37007660176E+02 -0.34030004141E+03 -0.27127536307E+03  0.44609919063E+03  0.90777090589E+02 0.  0.
          2    1    3    3  502    0 -0.26813403064E+03  0.18673583283E+03 -0.10670049347E+03  0.34373118124E+03  0.00000000000E+00 0. -1.
         -2    1    3    3    0  502 -0.15718605094E+03  0.20453667973E+03 -0.72221798102E+02  0.26787813663E+03  0.00000000000E+00 0.  1.
         11    1    5    5    0    0  0.20090730296E+03  0.18708305082E+02 -0.11934357119E+04  0.12103728944E+04  0.00000000000E+00 0.  1.
        -11    1    5    5    0    0  0.18740511844E+03 -0.69680776224E+02 -0.11967471676E+04  0.12133341964E+04  0.00000000000E+00 0. -1.
          3    1    6    6  503    0 -0.18118263372E+02 -0.18986530600E+02 -0.91957343872E+01  0.27808655896E+02  0.00000000000E+00 0. -1.
         -3    1    6    6    0  503  0.55125923549E+02 -0.32131351081E+03 -0.26207962868E+03  0.41829053473E+03  0.00000000000E+00 0.  1.
<mgrwt>
<rscale>  0 0.20130805E+04</rscale>
<asrwt>0</asrwt>
<pdfrwt beam="1">  1        2 0.48629201E+00 0.20130805E+04</pdfrwt>
<pdfrwt beam="2">  1       -2 0.49310390E-01 0.20130805E+04</pdfrwt>
<totfact> 0.49836163E+00</totfact>
</mgrwt>
</event>
<event>
12    2  0.3751044E-008  0.1604829E+04  0.7818608E-02  0.8817587E-01
         -4   -1    0    0    0  501 -0.00000000000E+00  0.00000000000E+00  0.90430840983E+03  0.90430840983E+03  0.00000000000E+00 0.  1.
          4   -1    0    0  501    0  0.00000000000E+00 -0.00000000000E+00 -0.71200200971E+03  0.71200200971E+03  0.00000000000E+00 0. -1.
         23    2    1    2    0    0  0.45814113088E+03 -0.24367071909E+03  0.23918622712E+03  0.57784861492E+03  0.86198929018E+02 0.  0.
        254    2    1    2    0    0 -0.45814113088E+03  0.24367071909E+03 -0.46879826997E+02  0.10384618046E+04  0.89829643567E+03 0.  0.
         23    2    4    4    0    0 -0.78996084302E+02 -0.31654375791E+03 -0.10442085327E+03  0.35413569227E+03  0.89822279717E+02 0.  0.
         23    2    4    4    0    0 -0.37914504658E+03  0.56021447700E+03  0.57541026277E+02  0.68432611236E+03  0.86023437286E+02 0.  0.
          1    1    3    3  502    0  0.21753152478E+03 -0.96515095676E+02  0.66334623059E+02  0.24705345613E+03  0.00000000000E+00 0. -1.
         -1    1    3    3    0  502  0.24060960610E+03 -0.14715562342E+03  0.17285160406E+03  0.33079515879E+03  0.00000000000E+00 0.  1.
         11    1    5    5    0    0 -0.61192308319E+02 -0.12686144009E+03 -0.80213167259E+02  0.16208786438E+03  0.00000000000E+00 0. -1.
        -11    1    5    5    0    0 -0.17803775983E+02 -0.18968231782E+03 -0.24207686015E+02  0.19204782788E+03  0.00000000000E+00 0.  1.
          3    1    6    6  503    0 -0.11403708537E+03  0.21899399091E+03  0.51288168271E+02  0.25217712248E+03  0.00000000000E+00 0. -1.
         -3    1    6    6    0  503 -0.26510796121E+03  0.34122048609E+03  0.62528580065E+01  0.43214898989E+03  0.00000000000E+00 0.  1.
<mgrwt>
<rscale>  0 0.16048295E+04</rscale>
<asrwt>0</asrwt>
<pdfrwt beam="1">  1        4 0.10953877E+00 0.16048295E+04</pdfrwt>
<pdfrwt beam="2">  1       -4 0.13912437E+00 0.16048295E+04</pdfrwt>
<totfact> 0.46153451E-01</totfact>
</mgrwt>
</event>
<event>
12    2  0.3751044E-008  0.2297629E+04  0.7818608E-02  0.8478857E-01
         -2   -1    0    0    0  501 -0.00000000000E+00  0.00000000000E+00  0.51976707937E+03  0.51976707937E+03  0.00000000000E+00 0.  1.
          2   -1    0    0  501    0  0.00000000000E+00 -0.00000000000E+00 -0.25391655959E+04  0.25391655959E+04  0.00000000000E+00 0. -1.
         23    2    1    2    0    0 -0.70903004712E+03 -0.40073140718E+03 -0.15210012978E+04  0.17283731099E+04  0.10256408199E+03 0.  0.
        254    2    1    2    0    0  0.70903004712E+03  0.40073140718E+03 -0.49839721872E+03  0.13305595653E+04  0.92664971849E+03 0.  0.
         23    2    4    4    0    0  0.56955915506E+03 -0.18112598915E+03 -0.11811181294E+03  0.61599293813E+03  0.91063957824E+02 0.  0.
         23    2    4    4    0    0  0.13947089206E+03  0.58185739633E+03 -0.38028540578E+03  0.71456662717E+03  0.89321416359E+02 0.  0.
          1    1    3    3  502    0 -0.63195430033E+03 -0.31931367241E+03 -0.13368737532E+04  0.15127983643E+04  0.00000000000E+00 0. -1.
         -1    1    3    3    0  502 -0.77075746791E+02 -0.81417734773E+02 -0.18412754457E+03  0.21557474562E+03  0.00000000000E+00 0.  1.
         11    1    5    5    0    0  0.28548609721E+02  0.76932147419E+01  0.47748189068E+01  0.29950084568E+02  0.00000000000E+00 0.  1.
        -11    1    5    5    0    0  0.54101054534E+03 -0.18881920389E+03 -0.12288663185E+03  0.58604285357E+03  0.00000000000E+00 0. -1.
          2    1    6    6  503    0  0.12630358208E+03  0.43176725032E+03 -0.24593036353E+03  0.51269610589E+03  0.00000000000E+00 0. -1.
         -2    1    6    6    0  503  0.13167309981E+02  0.15009014601E+03 -0.13435504225E+03  0.20187052128E+03  0.00000000000E+00 0.  1.
<mgrwt>
<rscale>  0 0.22976289E+04</rscale>
<asrwt>0</asrwt>
<pdfrwt beam="1">  1        2 0.39064087E+00 0.22976289E+04</pdfrwt>
<pdfrwt beam="2">  1       -2 0.79964164E-01 0.22976289E+04</pdfrwt>
<totfact> 0.41446964E+00</totfact>
</mgrwt>
</event>
<event>
12    2  0.3751044E-008  0.2283470E+04  0.7818608E-02  0.8484467E-01
          2   -1    0    0  501    0  0.00000000000E+00  0.00000000000E+00  0.12664186688E+04  0.12664186688E+04  0.00000000000E+00 0. -1.
         -2   -1    0    0    0  501 -0.00000000000E+00 -0.00000000000E+00 -0.10293265347E+04  0.10293265347E+04  0.00000000000E+00 0.  1.
         23    2    1    2    0    0  0.45401613674E+03  0.70554446031E+03  0.58240727346E+03  0.10259481205E+04  0.97199155390E+02 0.  0.
        254    2    1    2    0    0 -0.45401613674E+03 -0.70554446031E+03 -0.34531513930E+03  0.12697970830E+04  0.88837967599E+03 0.  0.
         23    2    4    4    0    0  0.78563213793E+02 -0.17712168290E+03 -0.45835292833E+03  0.50594860477E+03  0.91390998717E+02 0.  0.
         23    2    4    4    0    0 -0.53257935053E+03 -0.52842277742E+03  0.11303778903E+03  0.76384847825E+03  0.88405654030E+02 0.  0.
          3    1    3    3  502    0  0.19412619003E+03  0.30489913109E+03  0.30987455766E+03  0.47609946364E+03  0.00000000000E+00 0. -1.
         -3    1    3    3    0  502  0.25988994671E+03  0.40064532922E+03  0.27253271580E+03  0.54984865682E+03  0.00000000000E+00 0.  1.
         11    1    5    5    0    0  0.14165533821E+02 -0.12234705135E+03 -0.20827293657E+03  0.24196503762E+03  0.00000000000E+00 0.  1.
        -11    1    5    5    0    0  0.64397679973E+02 -0.54774631546E+02 -0.25007999176E+03  0.26398356716E+03  0.00000000000E+00 0. -1.
          1    1    6    6  503    0 -0.35874471580E+03 -0.39796916304E+03  0.10729118294E+03  0.54643263426E+03  0.00000000000E+00 0. -1.
         -1    1    6    6    0  503 -0.17383463473E+03 -0.13045361438E+03  0.57466060966E+01  0.21741584399E+03  0.00000000000E+00 0.  1.
<mgrwt>
<rscale>  0 0.22834696E+04</rscale>
<asrwt>0</asrwt>
<pdfrwt beam="1">  1        2 0.19483364E+00 0.22834696E+04</pdfrwt>
<pdfrwt beam="2">  1       -2 0.15835793E+00 0.22834696E+04</pdfrwt>
<totfact> 0.40686083E+00</totfact>
</mgrwt>
</event>
<event>
12    2  0.3751044E-008  0.1654328E+04  0.7818608E-02  0.8787850E-01
         -1   -1    0    0    0  501 -0.00000000000E+00  0.00000000000E+00  0.45250833896E+03  0.45250833896E+03  0.00000000000E+00 0.  1.
          1   -1    0    0  501    0  0.00000000000E+00 -0.00000000000E+00 -0.15120168298E+04  0.15120168298E+04  0.00000000000E+00 0. -1.
         23    2    1    2    0    0 -0.54890629460E+03  0.15577408429E+03 -0.48675466392E+03  0.75534135527E+03  0.89703815692E+02 0.  0.
        254    2    1    2    0    0  0.54890629460E+03 -0.15577408429E+03 -0.57275382697E+03  0.12091838135E+04  0.89917454534E+03 0.  0.
         23    2    4    4    0    0  0.38337799459E+01 -0.39279493874E+03 -0.37480007285E+02  0.40391408773E+03  0.86251246698E+02 0.  0.
         23    2    4    4    0    0  0.54507251465E+03  0.23702085444E+03 -0.53527381968E+03  0.80526972579E+03  0.93050188419E+02 0.  0.
          3    1    3    3  502    0 -0.36977268842E+03  0.14766633589E+03 -0.32888290065E+03  0.51643116695E+03  0.00000000000E+00 0. -1.
         -3    1    3    3    0  502 -0.17913360618E+03  0.81077484033E+01 -0.15787176327E+03  0.23891018832E+03  0.00000000000E+00 0.  1.
         11    1    5    5    0    0 -0.37432424578E+02 -0.12226645686E+03 -0.12979066548E+01  0.12787477251E+03  0.00000000000E+00 0. -1.
        -11    1    5    5    0    0  0.41266204524E+02 -0.27052848188E+03 -0.36182100631E+02  0.27603931522E+03  0.00000000000E+00 0.  1.
          2    1    6    6  503    0  0.22432701065E+03  0.14487584487E+03 -0.21670108578E+03  0.34390547933E+03  0.00000000000E+00 0.  1.
         -2    1    6    6    0  503  0.32074550400E+03  0.92145009577E+02 -0.31857273390E+03  0.46136424646E+03  0.00000000000E+00 0. -1.
<mgrwt>
<rscale>  0 0.16543279E+04</rscale>
<asrwt>0</asrwt>
<pdfrwt beam="1">  1        1 0.23261798E+00 0.16543279E+04</pdfrwt>
<pdfrwt beam="2">  1       -1 0.69616667E-01 0.16543279E+04</pdfrwt>
<totfact> 0.12790876E+01</totfact>
</mgrwt>
</event>
<event>
12    2  0.3751044E-008  0.9551521E+03  0.7818608E-02  0.9359149E-01
         -2   -1    0    0    0  501 -0.00000000000E+00  0.00000000000E+00  0.33889788197E+03  0.33889788197E+03  0.00000000000E+00 0.  1.
          2   -1    0    0  501    0  0.00000000000E+00 -0.00000000000E+00 -0.67300183543E+03  0.67300183543E+03  0.00000000000E+00 0. -1.
         23    2    1    2    0    0  0.36926384864E+02 -0.29730287450E+02  0.18127537085E+02  0.10545459119E+03  0.92437088394E+02 0.  0.
        254    2    1    2    0    0 -0.36926384864E+02  0.29730287450E+02 -0.35223149054E+03  0.90644512621E+03  0.83386347565E+03 0.  0.
         23    2    4    4    0    0  0.33494415608E+03  0.19760496559E+03 -0.26421689500E+03  0.47888458805E+03  0.91019618515E+02 0.  0.
         23    2    4    4    0    0 -0.37187054094E+03 -0.16787467814E+03 -0.88014595546E+02  0.42756053816E+03  0.92692167891E+02 0.  0.
          3    1    3    3  502    0 -0.83390075354E+01 -0.43160539282E+02 -0.16445551978E+02  0.46934287868E+02  0.00000000000E+00 0. -1.
         -3    1    3    3    0  502  0.45265392399E+02  0.13430251831E+02  0.34573089063E+02  0.58520303320E+02  0.00000000000E+00 0.  1.
         11    1    5    5    0    0  0.31463842105E+03  0.20019914393E+03 -0.22749426640E+03  0.43684170414E+03  0.00000000000E+00 0. -1.
        -11    1    5    5    0    0  0.20305735022E+02 -0.25941783421E+01 -0.36722628598E+02  0.42042883907E+02  0.00000000000E+00 0.  1.
          2    1    6    6  503    0 -0.14299733170E+03 -0.34026527560E+02  0.36183889497E+01  0.14703446600E+03  0.00000000000E+00 0.  1.
         -2    1    6    6    0  503 -0.22887320924E+03 -0.13384815058E+03 -0.91632984495E+02  0.28052607217E+03  0.00000000000E+00 0. -1.
<mgrwt>
<rscale>  0 0.95515213E+03</rscale>
<asrwt>0</asrwt>
<pdfrwt beam="1">  1        2 0.10353874E+00 0.95515213E+03</pdfrwt>
<pdfrwt beam="2">  1       -2 0.52138136E-01 0.95515213E+03</pdfrwt>
<totfact> 0.14965353E+02</totfact>
</mgrwt>
</event>
<event>
12    2  0.3751044E-008  0.1120172E+04  0.7818608E-02  0.9185751E-01
         -2   -1    0    0    0  501 -0.00000000000E+00  0.00000000000E+00  0.12569365698E+03  0.12569365698E+03  0.00000000000E+00 0.  1.
          2   -1    0    0  501    0  0.00000000000E+00 -0.00000000000E+00 -0.24957202347E+04  0.24957202347E+04  0.00000000000E+00 0. -1.
         23    2    1    2    0    0 -0.77092045098E+02  0.55702216896E+02 -0.87681354380E+03  0.88680390371E+03  0.92591860633E+02 0.  0.
        254    2    1    2    0    0  0.77092045098E+02 -0.55702216896E+02 -0.14932130339E+04  0.17346099880E+04  0.87757662079E+03 0.  0.
         23    2    4    4    0    0 -0.10626369540E+03  0.60362787903E+02 -0.14915573550E+04  0.14993982664E+04  0.92283145814E+02 0.  0.
         23    2    4    4    0    0  0.18335574049E+03 -0.11606500480E+03 -0.16556789405E+01  0.23521172157E+03  0.90727062002E+02 0.  0.
          1    1    3    3  502    0 -0.32182708253E+02  0.76680369431E+02 -0.54417167421E+03  0.55048925220E+03  0.00000000000E+00 0. -1.
         -1    1    3    3    0  502 -0.44909336845E+02 -0.20978152535E+02 -0.33264186959E+03  0.33631465151E+03  0.00000000000E+00 0.  1.
         11    1    5    5    0    0 -0.81895716300E+02 -0.19673886825E+01 -0.64126753069E+03  0.64647878920E+03  0.00000000000E+00 0. -1.
        -11    1    5    5    0    0 -0.24367979096E+02  0.62330176586E+02 -0.85028982431E+03  0.85291947723E+03  0.00000000000E+00 0.  1.
          4    1    6    6  503    0  0.14258661789E+02  0.31152366444E+01  0.22616090072E+02  0.26916568605E+02  0.00000000000E+00 0. -1.
         -4    1    6    6    0  503  0.16909707871E+03 -0.11918024144E+03 -0.24271769012E+02  0.20829515296E+03  0.00000000000E+00 0.  1.
<mgrwt>
<rscale>  0 0.11201718E+04</rscale>
<asrwt>0</asrwt>
<pdfrwt beam="1">  1        2 0.38395693E+00 0.11201718E+04</pdfrwt>
<pdfrwt beam="2">  1       -2 0.19337487E-01 0.11201718E+04</pdfrwt>
<totfact> 0.79378473E+01</totfact>
</mgrwt>
</event>
<event>
12    2  0.3751044E-008  0.2566877E+04  0.7818608E-02  0.8379540E-01
          2   -1    0    0  501    0  0.00000000000E+00  0.00000000000E+00  0.36719255519E+03  0.36719255519E+03  0.00000000000E+00 0. -1.
         -2   -1    0    0    0  501 -0.00000000000E+00 -0.00000000000E+00 -0.44859696197E+04  0.44859696197E+04  0.00000000000E+00 0.  1.
         23    2    1    2    0    0 -0.28413366695E+03 -0.31511916696E+03  0.15551606282E+03  0.46093685904E+03  0.90804802446E+02 0.  0.
        254    2    1    2    0    0  0.28413366695E+03  0.31511916696E+03 -0.42742931273E+04  0.43922253158E+04  0.91762163054E+03 0.  0.
         23    2    4    4    0    0  0.41086161607E+03  0.52549905496E+03 -0.21769346849E+04  0.22785917718E+04  0.89327017815E+02 0.  0.
         23    2    4    4    0    0 -0.12672794912E+03 -0.21037988800E+03 -0.20973584424E+04  0.21136335440E+04  0.90634717053E+02 0.  0.
          1    1    3    3  502    0 -0.28147268373E+03 -0.29434139970E+03  0.12912627404E+03  0.42724387170E+03  0.00000000000E+00 0. -1.
         -1    1    3    3    0  502 -0.26609832232E+01 -0.20777767259E+02  0.26389788772E+02  0.33692987333E+02  0.00000000000E+00 0.  1.
         11    1    5    5    0    0  0.29658192521E+03  0.43175004295E+03 -0.17559978354E+04  0.18324566395E+04  0.00000000000E+00 0. -1.
        -11    1    5    5    0    0  0.11427969087E+03  0.93749012012E+02 -0.42093684950E+03  0.44613513229E+03  0.00000000000E+00 0.  1.
          1    1    6    6  503    0 -0.43532497345E+02 -0.12434836983E+03 -0.80101211534E+03  0.81177460192E+03  0.00000000000E+00 0. -1.
         -1    1    6    6    0  503 -0.83195451780E+02 -0.86031518177E+02 -0.12963463271E+04  0.13018589421E+04  0.00000000000E+00 0.  1.
<mgrwt>
<rscale>  0 0.25668772E+04</rscale>
<asrwt>0</asrwt>
<pdfrwt beam="1">  1        2 0.56491166E-01 0.25668772E+04</pdfrwt>
<pdfrwt beam="2">  1       -2 0.69014913E+00 0.25668772E+04</pdfrwt>
<totfact> 0.18930542E-02</totfact>
</mgrwt>
</event>
<event>
12    2  0.3751044E-008  0.1812792E+04  0.7818608E-02  0.8699526E-01
         -2   -1    0    0    0  501 -0.00000000000E+00  0.00000000000E+00  0.29974847845E+03  0.29974847845E+03  0.00000000000E+00 0.  1.
          2   -1    0    0  501    0  0.00000000000E+00 -0.00000000000E+00 -0.27408099905E+04  0.27408099905E+04  0.00000000000E+00 0. -1.
         23    2    1    2    0    0 -0.55409618755E+03  0.80189160470E+02 -0.15638894005E+04  0.16635616614E+04  0.90743914505E+02 0.  0.
        254    2    1    2    0    0  0.55409618755E+03 -0.80189160470E+02 -0.87717211159E+03  0.13769968075E+04  0.90179621204E+03 0.  0.
         23    2    4    4    0    0  0.62717283859E+03  0.25946695220E+03 -0.68668080744E+03  0.97014023510E+03  0.94724208560E+02 0.  0.
         23    2    4    4    0    0 -0.73076651042E+02 -0.33965611267E+03 -0.19049130415E+03  0.40685657242E+03  0.92405961748E+02 0.  0.
          3    1    3    3  502    0 -0.11599149955E+03  0.21303316451E+02 -0.23236377632E+03  0.26057778839E+03  0.00000000000E+00 0. -1.
         -3    1    3    3    0  502 -0.43810468800E+03  0.58885844019E+02 -0.13315256241E+04  0.14029838730E+04  0.00000000000E+00 0.  1.
         11    1    5    5    0    0  0.57138311950E+03  0.20589477409E+03 -0.62160634782E+03  0.86906028496E+03  0.00000000000E+00 0.  1.
        -11    1    5    5    0    0  0.55789719094E+02  0.53572178108E+02 -0.65074459620E+02  0.10107995013E+03  0.00000000000E+00 0. -1.
          2    1    6    6  503    0 -0.72681838259E+02 -0.12902730672E+03 -0.91967392335E+02  0.17432354042E+03  0.00000000000E+00 0. -1.
         -2    1    6    6    0  503 -0.39481278308E+00 -0.21062880595E+03 -0.98523911811E+02  0.23253303200E+03  0.00000000000E+00 0.  1.
<mgrwt>
<rscale>  0 0.18127919E+04</rscale>
<asrwt>0</asrwt>
<pdfrwt beam="1">  1        2 0.42166307E+00 0.18127919E+04</pdfrwt>
<pdfrwt beam="2">  1       -2 0.46115152E-01 0.18127919E+04</pdfrwt>
<totfact> 0.10579252E+01</totfact>
</mgrwt>
</event>
<event>
12    2  0.3751044E-008  0.1652162E+04  0.7818608E-02  0.8789128E-01
         -1   -1    0    0    0  501 -0.00000000000E+00  0.00000000000E+00  0.73443014949E+03  0.73443014949E+03  0.00000000000E+00 0.  1.
          1   -1    0    0  501    0  0.00000000000E+00 -0.00000000000E+00 -0.92916948073E+03  0.92916948073E+03  0.00000000000E+00 0. -1.
         23    2    1    2    0    0 -0.32360870236E+02 -0.33873139044E+02 -0.64832030086E+03  0.65631860385E+03  0.90775997858E+02 0.  0.
        254    2    1    2    0    0  0.32360870236E+02  0.33873139044E+02  0.45358096962E+03  0.10072810264E+04  0.89815630856E+03 0.  0.
         23    2    4    4    0    0  0.33059009478E+03 -0.28124522361E+03  0.31104117002E+03  0.54155011840E+03  0.90228790968E+02 0.  0.
         23    2    4    4    0    0 -0.29822922454E+03  0.31511836266E+03  0.14253979960E+03  0.46573090797E+03  0.91364278098E+02 0.  0.
          1    1    3    3  502    0  0.78886295636E+01 -0.37652301884E+02 -0.52777300118E+03  0.52917319196E+03  0.00000000000E+00 0. -1.
         -1    1    3    3    0  502 -0.40249499799E+02  0.37791628408E+01 -0.12054729968E+03  0.12714541189E+03  0.00000000000E+00 0.  1.
         11    1    5    5    0    0  0.25797870943E+03 -0.23109568060E+03  0.20083286125E+03  0.40036491638E+03  0.00000000000E+00 0.  1.
        -11    1    5    5    0    0  0.72611385345E+02 -0.50149543019E+02  0.11020830877E+03  0.14118520202E+03  0.00000000000E+00 0. -1.
          3    1    6    6  503    0 -0.32049397002E+01  0.15385412138E+02  0.24153429067E+02  0.28816153124E+02  0.00000000000E+00 0. -1.
         -3    1    6    6    0  503 -0.29502428484E+03  0.29973295052E+03  0.11838637053E+03  0.43691475485E+03  0.00000000000E+00 0.  1.
<mgrwt>
<rscale>  0 0.16521623E+04</rscale>
<asrwt>0</asrwt>
<pdfrwt beam="1">  1        1 0.14294915E+00 0.16521623E+04</pdfrwt>
<pdfrwt beam="2">  1       -1 0.11298925E+00 0.16521623E+04</pdfrwt>
<totfact> 0.11788029E+01</totfact>
</mgrwt>
</event>
<event>
12    2  0.3751044E-008  0.4206865E+04  0.7818608E-02  0.7964068E-01
          2   -1    0    0  501    0  0.00000000000E+00  0.00000000000E+00  0.85654211484E+03  0.85654211484E+03  0.00000000000E+00 0. -1.
         -2   -1    0    0    0  501 -0.00000000000E+00 -0.00000000000E+00 -0.51654524489E+04  0.51654524489E+04  0.00000000000E+00 0.  1.
         23    2    1    2    0    0  0.10415947708E+04  0.16739074475E+04 -0.25850434180E+04  0.32522527507E+04  0.88389320266E+02 0.  0.
        254    2    1    2    0    0 -0.10415947708E+04 -0.16739074475E+04 -0.17238669161E+04  0.27697418131E+04  0.90159123617E+03 0.  0.
         23    2    4    4    0    0 -0.29979323350E+03 -0.29168543541E+03 -0.89751813004E+03  0.99440175905E+03  0.91321895305E+02 0.  0.
         23    2    4    4    0    0 -0.74180153729E+03 -0.13822220121E+04 -0.82634878604E+03  0.17753400540E+04  0.90403427020E+02 0.  0.
          2    1    3    3  502    0  0.72902446770E+03  0.11404742220E+04 -0.18356168255E+04  0.22807120062E+04  0.00000000000E+00 0. -1.
         -2    1    3    3    0  502  0.31257030310E+03  0.53343322559E+03 -0.74942659251E+03  0.97154074443E+03  0.00000000000E+00 0.  1.
         11    1    5    5    0    0 -0.15345344782E+03 -0.16910612848E+03 -0.58757741694E+03  0.63039040621E+03  0.00000000000E+00 0.  1.
        -11    1    5    5    0    0 -0.14633978568E+03 -0.12257930693E+03 -0.30994071310E+03  0.36401135284E+03  0.00000000000E+00 0. -1.
          4    1    6    6  503    0 -0.27167700179E+03 -0.58336735279E+03 -0.30998171000E+03  0.71429302260E+03  0.00000000000E+00 0. -1.
         -4    1    6    6    0  503 -0.47012453550E+03 -0.79885465934E+03 -0.51636707604E+03  0.10610470314E+04  0.00000000000E+00 0.  1.
<mgrwt>
<rscale>  0 0.42068647E+04</rscale>
<asrwt>0</asrwt>
<pdfrwt beam="1">  1        2 0.13177571E+00 0.42068647E+04</pdfrwt>
<pdfrwt beam="2">  1       -2 0.79468499E+00 0.42068647E+04</pdfrwt>
<totfact> 0.20554274E-03</totfact>
</mgrwt>
</event>
<event>
12    2  0.3751044E-008  0.1074135E+04  0.7818608E-02  0.9230775E-01
          2   -1    0    0  501    0  0.00000000000E+00  0.00000000000E+00  0.50194432573E+03  0.50194432573E+03  0.00000000000E+00 0. -1.
         -2   -1    0    0    0  501 -0.00000000000E+00 -0.00000000000E+00 -0.57464833693E+03  0.57464833693E+03  0.00000000000E+00 0.  1.
         23    2    1    2    0    0  0.85750633067E+02 -0.10171778662E+03  0.43174119578E+02  0.18191510805E+03  0.11631604681E+03 0.  0.
        254    2    1    2    0    0 -0.85750633067E+02  0.10171778662E+03 -0.11587813078E+03  0.89467755462E+03  0.87710917585E+03 0.  0.
         23    2    4    4    0    0 -0.18750082652E+03 -0.11877965286E+03 -0.42728326046E+03  0.48982317288E+03  0.89947707775E+02 0.  0.
         23    2    4    4    0    0  0.10175019346E+03  0.22049743949E+03  0.31140512968E+03  0.40485438174E+03  0.89228319135E+02 0.  0.
          4    1    3    3  502    0  0.10466783753E+03 -0.93577474107E+02  0.73484716727E+01  0.14059196247E+03  0.00000000000E+00 0. -1.
         -4    1    3    3    0  502 -0.18917204466E+02 -0.81403125173E+01  0.35825647905E+02  0.41323145579E+02  0.00000000000E+00 0.  1.
         11    1    5    5    0    0 -0.43869908850E+02 -0.79143576650E+02 -0.16241866103E+03  0.18592497432E+03  0.00000000000E+00 0. -1.
        -11    1    5    5    0    0 -0.14363091767E+03 -0.39636076212E+02 -0.26486459944E+03  0.30389819855E+03  0.00000000000E+00 0.  1.
          1    1    6    6  503    0  0.10869319933E+03  0.15340893063E+03  0.19901844537E+03  0.27378249245E+03  0.00000000000E+00 0.  1.
         -1    1    6    6    0  503 -0.69430058686E+01  0.67088508851E+02  0.11238668432E+03  0.13107188929E+03  0.00000000000E+00 0. -1.
<mgrwt>
<rscale>  0 0.10741349E+04</rscale>
<asrwt>0</asrwt>
<pdfrwt beam="1">  1        2 0.77222204E-01 0.10741349E+04</pdfrwt>
<pdfrwt beam="2">  1       -2 0.88407437E-01 0.10741349E+04</pdfrwt>
<totfact> 0.67161111E+01</totfact>
</mgrwt>
</event>
<event>
12    2  0.3751044E-008  0.1672345E+04  0.7818608E-02  0.8777296E-01
         -2   -1    0    0    0  501 -0.00000000000E+00  0.00000000000E+00  0.45656390794E+03  0.45656390794E+03  0.00000000000E+00 0.  1.
          2   -1    0    0  501    0  0.00000000000E+00 -0.00000000000E+00 -0.15314057237E+04  0.15314057237E+04  0.00000000000E+00 0. -1.
         23    2    1    2    0    0 -0.12572650366E+03 -0.17687860263E+02  0.30667023181E+03  0.34471438053E+03  0.93066422207E+02 0.  0.
        254    2    1    2    0    0  0.12572650366E+03  0.17687860263E+02 -0.13815120476E+04  0.16432552511E+04  0.88067716480E+03 0.  0.
         23    2    4    4    0    0  0.33235524154E+03 -0.31166148620E+03 -0.54585557863E+03  0.71704512057E+03  0.92749682772E+02 0.  0.
         23    2    4    4    0    0 -0.20662873788E+03  0.32934934646E+03 -0.83565646895E+03  0.92621013055E+03  0.91526195731E+02 0.  0.
          1    1    3    3  502    0 -0.53381762498E+02 -0.18282921665E+02  0.42018743414E+02  0.70352346017E+02  0.00000000000E+00 0. -1.
         -1    1    3    3    0  502 -0.72344741161E+02  0.59506140231E+00  0.26465148840E+03  0.27436203451E+03  0.00000000000E+00 0.  1.
         11    1    5    5    0    0  0.10574232572E+03 -0.82093022843E+02 -0.22664530975E+03  0.26322765865E+03  0.00000000000E+00 0. -1.
        -11    1    5    5    0    0  0.22661291581E+03 -0.22956846336E+03 -0.31921026889E+03  0.45381746192E+03  0.00000000000E+00 0.  1.
          1    1    6    6  503    0 -0.18532401130E+03  0.22924818837E+03 -0.57451003354E+03  0.64572556065E+03  0.00000000000E+00 0. -1.
         -1    1    6    6    0  503 -0.21304726572E+02  0.10010115809E+03 -0.26114643541E+03  0.28048456990E+03  0.00000000000E+00 0.  1.
<mgrwt>
<rscale>  0 0.16723452E+04</rscale>
<asrwt>0</asrwt>
<pdfrwt beam="1">  1        2 0.23560089E+00 0.16723452E+04</pdfrwt>
<pdfrwt beam="2">  1       -2 0.70240600E-01 0.16723452E+04</pdfrwt>
<totfact> 0.21439119E+01</totfact>
</mgrwt>
</event>
<event>
12    2  0.3751044E-008  0.2182305E+04  0.7818608E-02  0.8525829E-01
         -1   -1    0    0    0  501 -0.00000000000E+00  0.00000000000E+00  0.82573981696E+03  0.82573981696E+03  0.00000000000E+00 0.  1.
          1   -1    0    0  501    0  0.00000000000E+00 -0.00000000000E+00 -0.14418751255E+04  0.14418751255E+04  0.00000000000E+00 0. -1.
         23    2    1    2    0    0  0.87178173333E+03  0.12196878907E+02 -0.48940769759E+03  0.10039844041E+04  0.91173652025E+02 0.  0.
        254    2    1    2    0    0 -0.87178173333E+03 -0.12196878907E+02 -0.12672761093E+03  0.12636305383E+04  0.90584220236E+03 0.  0.
         23    2    4    4    0    0  0.14339042393E+03 -0.79545470922E+02  0.10594934182E+03  0.21588331509E+03  0.92152303740E+02 0.  0.
         23    2    4    4    0    0 -0.10151721573E+04  0.67348592015E+02 -0.23267695275E+03  0.10477472232E+04  0.92332755412E+02 0.  0.
          2    1    3    3  502    0  0.81179874463E+03  0.21510367466E+02 -0.42936736032E+03  0.91860558882E+03  0.00000000000E+00 0.  1.
         -2    1    3    3    0  502  0.59982988695E+02 -0.93134885586E+01 -0.60040337274E+02  0.85378815299E+02  0.00000000000E+00 0. -1.
         11    1    5    5    0    0 -0.67666936594E+01 -0.28817155003E+02  0.16946028223E+02  0.34108421806E+02  0.00000000000E+00 0. -1.
        -11    1    5    5    0    0  0.15015711759E+03 -0.50728315919E+02  0.89003313599E+02  0.18177489329E+03  0.00000000000E+00 0.  1.
          1    1    6    6  503    0 -0.72765501904E+03  0.89341868000E+02 -0.17385861704E+03  0.75345246356E+03  0.00000000000E+00 0. -1.
         -1    1    6    6    0  503 -0.28751713821E+03 -0.21993275985E+02 -0.58818335713E+02  0.29429475967E+03  0.00000000000E+00 0.  1.
<mgrwt>
<rscale>  0 0.21823049E+04</rscale>
<asrwt>0</asrwt>
<pdfrwt beam="1">  1        1 0.22182694E+00 0.21823049E+04</pdfrwt>
<pdfrwt beam="2">  1       -1 0.12703690E+00 0.21823049E+04</pdfrwt>
<totfact> 0.35241920E+00</totfact>
</mgrwt>
</event>
<event>
12    2  0.3751044E-008  0.3600295E+04  0.7818608E-02  0.8090424E-01
         -1   -1    0    0    0  501 -0.00000000000E+00  0.00000000000E+00  0.70829651973E+03  0.70829651973E+03  0.00000000000E+00 0.  1.
          1   -1    0    0  501    0  0.00000000000E+00 -0.00000000000E+00 -0.45751048143E+04  0.45751048143E+04  0.00000000000E+00 0. -1.
         23    2    1    2    0    0  0.28473624619E+03  0.50867057965E+03 -0.41398061293E+04  0.41816376492E+04  0.90984352722E+02 0.  0.
        254    2    1    2    0    0 -0.28473624619E+03 -0.50867057965E+03  0.27299783479E+03  0.11017636848E+04  0.89416716044E+03 0.  0.
         23    2    4    4    0    0  0.65453117494E+02 -0.65643294507E+03  0.24498505417E+03  0.70974913973E+03  0.92400447068E+02 0.  0.
         23    2    4    4    0    0 -0.35018936368E+03  0.14776236542E+03  0.28012780620E+02  0.39201454505E+03  0.91784424514E+02 0.  0.
          1    1    3    3  502    0  0.12806200153E+03  0.20362272276E+03 -0.20200279642E+04  0.20342996499E+04  0.00000000000E+00 0. -1.
         -1    1    3    3    0  502  0.15667424466E+03  0.30504785689E+03 -0.21197781651E+04  0.21473379993E+04  0.00000000000E+00 0.  1.
         11    1    5    5    0    0  0.92410780163E+01 -0.19742395977E+02  0.26405972066E+02  0.34240839397E+02  0.00000000000E+00 0. -1.
        -11    1    5    5    0    0  0.56212039478E+02 -0.63669054909E+03  0.21857908211E+03  0.67550830034E+03  0.00000000000E+00 0.  1.
          4    1    6    6  503    0 -0.61787794765E+02 -0.39259222431E+01  0.23207331253E+02  0.66119018983E+02  0.00000000000E+00 0. -1.
         -4    1    6    6    0  503 -0.28840156892E+03  0.15168828766E+03  0.48054493663E+01  0.32589552607E+03  0.00000000000E+00 0.  1.
<mgrwt>
<rscale>  0 0.36002949E+04</rscale>
<asrwt>0</asrwt>
<pdfrwt beam="1">  1        1 0.70386225E+00 0.36002949E+04</pdfrwt>
<pdfrwt beam="2">  1       -1 0.10896870E+00 0.36002949E+04</pdfrwt>
<totfact> 0.16904647E-02</totfact>
</mgrwt>
</event>
<event>
12    2  0.3751044E-008  0.2544831E+04  0.7818608E-02  0.8387186E-01
          1   -1    0    0  501    0  0.00000000000E+00  0.00000000000E+00  0.32644345373E+04  0.32644345373E+04  0.00000000000E+00 0. -1.
         -1   -1    0    0    0  501 -0.00000000000E+00 -0.00000000000E+00 -0.49596372232E+03  0.49596372232E+03  0.00000000000E+00 0.  1.
         23    2    1    2    0    0 -0.10240146758E+04 -0.42577699757E+03  0.12456073426E+04  0.16702265787E+04  0.90703165593E+02 0.  0.
        254    2    1    2    0    0  0.10240146758E+04  0.42577699757E+03  0.15228634724E+04  0.20901716809E+04  0.90543491885E+03 0.  0.
         23    2    4    4    0    0  0.91909363197E+03  0.25112945428E+03  0.15905760653E+04  0.18564978510E+04  0.94090084483E+02 0.  0.
         23    2    4    4    0    0  0.10492104387E+03  0.17464754328E+03 -0.67712592892E+02  0.23367382999E+03  0.92240304452E+02 0.  0.
          4    1    3    3  502    0 -0.31610245950E+03 -0.99347458362E+02  0.32873254744E+03  0.46675022242E+03  0.00000000000E+00 0. -1.
         -4    1    3    3    0  502 -0.70791221634E+03 -0.32642953920E+03  0.91687479516E+03  0.12034763563E+04  0.00000000000E+00 0.  1.
         11    1    5    5    0    0  0.56653712427E+03  0.19605679552E+03  0.95388830096E+03  0.11266345774E+04  0.00000000000E+00 0. -1.
        -11    1    5    5    0    0  0.35255650770E+03  0.55072658759E+02  0.63668776432E+03  0.72986327356E+03  0.00000000000E+00 0.  1.
          1    1    6    6  503    0  0.11579259860E+02  0.30297013415E+02 -0.51696582467E+02  0.61028885944E+02  0.00000000000E+00 0. -1.
         -1    1    6    6    0  503  0.93341784012E+02  0.14435052987E+03 -0.16016010425E+02  0.17264494405E+03  0.00000000000E+00 0.  1.
<mgrwt>
<rscale>  0 0.25448309E+04</rscale>
<asrwt>0</asrwt>
<pdfrwt beam="1">  1        1 0.50222068E+00 0.25448309E+04</pdfrwt>
<pdfrwt beam="2">  1       -1 0.76302113E-01 0.25448309E+04</pdfrwt>
<totfact> 0.58013293E-01</totfact>
</mgrwt>
</event>
<event>
12    2  0.3751044E-008  0.2647451E+04  0.7818608E-02  0.8352259E-01
         -2   -1    0    0    0  501 -0.00000000000E+00  0.00000000000E+00  0.13802677084E+04  0.13802677084E+04  0.00000000000E+00 0.  1.
          2   -1    0    0  501    0  0.00000000000E+00 -0.00000000000E+00 -0.12694999822E+04  0.12694999822E+04  0.00000000000E+00 0. -1.
         23    2    1    2    0    0 -0.10471733067E+04  0.50241872414E+03  0.38862449701E+01  0.11651847610E+04  0.92972660858E+02 0.  0.
        254    2    1    2    0    0  0.10471733067E+04 -0.50241872414E+03  0.10688148126E+03  0.14845829297E+04  0.91845866286E+03 0.  0.
         23    2    4    4    0    0  0.21852253413E+03 -0.54294253462E+03 -0.15142060353E+03  0.61121345382E+03  0.90083256684E+02 0.  0.
         23    2    4    4    0    0  0.82865077258E+03  0.40523810471E+02  0.25830208479E+03  0.87336947586E+03  0.88034040243E+02 0.  0.
          3    1    3    3  502    0 -0.59538743140E+03  0.30588726349E+03  0.44410677825E+02  0.67083941427E+03  0.00000000000E+00 0. -1.
         -3    1    3    3    0  502 -0.45178587531E+03  0.19653146066E+03 -0.40524432855E+02  0.49434534671E+03  0.00000000000E+00 0.  1.
         11    1    5    5    0    0  0.16921604050E+03 -0.46008757717E+03 -0.94485221917E+02  0.49924152891E+03  0.00000000000E+00 0. -1.
        -11    1    5    5    0    0  0.49306493629E+02 -0.82854957445E+02 -0.56935381615E+02  0.11197192490E+03  0.00000000000E+00 0.  1.
          4    1    6    6  503    0  0.21259547206E+03  0.23617749024E+02  0.29252613197E+02  0.21589429864E+03  0.00000000000E+00 0.  1.
         -4    1    6    6    0  503  0.61605530053E+03  0.16906061446E+02  0.22904947159E+03  0.65747517722E+03  0.00000000000E+00 0. -1.
<mgrwt>
<rscale>  0 0.26474515E+04</rscale>
<asrwt>0</asrwt>
<pdfrwt beam="1">  1        2 0.19530769E+00 0.26474515E+04</pdfrwt>
<pdfrwt beam="2">  1       -2 0.21234888E+00 0.26474515E+04</pdfrwt>
<totfact> 0.16785689E+00</totfact>
</mgrwt>
</event>
<event>
12    2  0.3751044E-008  0.1446997E+04  0.7818608E-02  0.8920485E-01
         -1   -1    0    0    0  501 -0.00000000000E+00  0.00000000000E+00  0.16642806186E+03  0.16642806186E+03  0.00000000000E+00 0.  1.
          1   -1    0    0  501    0  0.00000000000E+00 -0.00000000000E+00 -0.31452052746E+04  0.31452052746E+04  0.00000000000E+00 0. -1.
         23    2    1    2    0    0 -0.13371104249E+03  0.23926435125E+03 -0.14034929509E+03  0.32079689750E+03  0.89925814727E+02 0.  0.
        254    2    1    2    0    0  0.13371104249E+03 -0.23926435125E+03 -0.28384279176E+04  0.29908364389E+04  0.90183340379E+03 0.  0.
         23    2    4    4    0    0 -0.28202787959E+03 -0.70643417372E+02 -0.20946675409E+04  0.21167038699E+04  0.90955751085E+02 0.  0.
         23    2    4    4    0    0  0.41573892207E+03 -0.16862093387E+03 -0.74376037667E+03  0.87413256897E+03  0.98266879330E+02 0.  0.
          1    1    3    3  502    0 -0.28682883371E+01  0.20354263881E+02  0.11924361613E+02  0.23763702068E+02  0.00000000000E+00 0. -1.
         -1    1    3    3    0  502 -0.13084275415E+03  0.21891008736E+03 -0.15227365671E+03  0.29703319543E+03  0.00000000000E+00 0.  1.
         11    1    5    5    0    0 -0.54705261799E+02 -0.50891252083E+02 -0.42516245144E+03  0.43167776793E+03  0.00000000000E+00 0.  1.
        -11    1    5    5    0    0 -0.22732261779E+03 -0.19752165289E+02 -0.16695050895E+04  0.16850261020E+04  0.00000000000E+00 0. -1.
          3    1    6    6  503    0  0.41693307516E+03 -0.17357267914E+03 -0.72065960625E+03  0.85047688516E+03  0.00000000000E+00 0. -1.
         -3    1    6    6    0  503 -0.11941530912E+01  0.49517452691E+01 -0.23100770419E+02  0.23655683815E+02  0.00000000000E+00 0.  1.
<mgrwt>
<rscale>  0 0.14469975E+04</rscale>
<asrwt>0</asrwt>
<pdfrwt beam="1">  1        1 0.48387773E+00 0.14469975E+04</pdfrwt>
<pdfrwt beam="2">  1       -1 0.25604317E-01 0.14469975E+04</pdfrwt>
<totfact> 0.61533335E+00</totfact>
</mgrwt>
</event>
<event>
12    2  0.3751044E-008  0.1432519E+04  0.7818608E-02  0.8930610E-01
         -2   -1    0    0    0  501 -0.00000000000E+00  0.00000000000E+00  0.29077882189E+03  0.29077882189E+03  0.00000000000E+00 0.  1.
          2   -1    0    0  501    0  0.00000000000E+00 -0.00000000000E+00 -0.17643223598E+04  0.17643223598E+04  0.00000000000E+00 0. -1.
         23    2    1    2    0    0  0.74060234944E+02 -0.10949327395E+03 -0.10477386606E+04  0.10599123960E+04  0.90467070789E+02 0.  0.
        254    2    1    2    0    0 -0.74060234944E+02  0.10949327395E+03 -0.42580487726E+03  0.99518878560E+03  0.88972873959E+03 0.  0.
         23    2    4    4    0    0 -0.30988537465E+03 -0.21043776157E+03 -0.44283875267E+03  0.58738848620E+03  0.92768938427E+02 0.  0.
         23    2    4    4    0    0  0.23582513971E+03  0.31993103552E+03  0.17033875413E+02  0.40780029940E+03  0.89674786147E+02 0.  0.
          3    1    3    3  502    0  0.40177037440E+02 -0.11733131418E+03 -0.87093101389E+03  0.87971680817E+03  0.00000000000E+00 0. -1.
         -3    1    3    3    0  502  0.33883197504E+02  0.78380402277E+01 -0.17680764672E+03  0.18019558787E+03  0.00000000000E+00 0.  1.
         11    1    5    5    0    0 -0.30562974271E+03 -0.17911115448E+03 -0.40883298885E+03  0.54095726085E+03  0.00000000000E+00 0.  1.
        -11    1    5    5    0    0 -0.42556319414E+01 -0.31326607092E+02 -0.34005763815E+02  0.46431225353E+02  0.00000000000E+00 0. -1.
          3    1    6    6  503    0  0.33070286868E+02  0.88698674236E+02  0.31933854486E+02  0.99904302946E+02  0.00000000000E+00 0. -1.
         -3    1    6    6    0  503  0.20275485284E+03  0.23123236129E+03 -0.14899979073E+02  0.30789599646E+03  0.00000000000E+00 0.  1.
<mgrwt>
<rscale>  0 0.14325189E+04</rscale>
<asrwt>0</asrwt>
<pdfrwt beam="1">  1        2 0.27143422E+00 0.14325189E+04</pdfrwt>
<pdfrwt beam="2">  1       -2 0.44735202E-01 0.14325189E+04</pdfrwt>
<totfact> 0.41557110E+01</totfact>
</mgrwt>
</event>
<event>
12    2  0.3751044E-008  0.1528955E+04  0.7818608E-02  0.8865424E-01
          2   -1    0    0  501    0  0.00000000000E+00  0.00000000000E+00  0.14648274381E+04  0.14648274381E+04  0.00000000000E+00 0.  1.
         -2   -1    0    0    0  501 -0.00000000000E+00 -0.00000000000E+00 -0.39897228008E+03  0.39897228008E+03  0.00000000000E+00 0. -1.
         23    2    1    2    0    0  0.19707055049E+03  0.69774654173E+02  0.88565895484E+03  0.91437305255E+03  0.89336390694E+02 0.  0.
        254    2    1    2    0    0 -0.19707055049E+03 -0.69774654173E+02  0.18019620321E+03  0.94942666567E+03  0.90842446995E+03 0.  0.
         23    2    4    4    0    0 -0.14346756503E+03 -0.42812321547E+03  0.30756182999E+03  0.55390749027E+03  0.91360815847E+02 0.  0.
         23    2    4    4    0    0 -0.53602985465E+02  0.35834856129E+03 -0.12736562678E+03  0.39551917540E+03  0.94479859207E+02 0.  0.
          2    1    3    3  502    0 -0.38884672535E+01  0.67083277572E+01  0.58740225002E+01  0.97275885610E+01  0.00000000000E+00 0. -1.
         -2    1    3    3    0  502  0.20095901774E+03  0.63066326416E+02  0.87978493234E+03  0.90464546399E+03  0.00000000000E+00 0.  1.
         11    1    5    5    0    0 -0.11839511288E+03 -0.21002359481E+03  0.15731009992E+03  0.28787806563E+03  0.00000000000E+00 0.  1.
        -11    1    5    5    0    0 -0.25072452146E+02 -0.21809962066E+03  0.15025173007E+03  0.26602942464E+03  0.00000000000E+00 0. -1.
          4    1    6    6  503    0 -0.58782339009E+02  0.24455944841E+03 -0.46400321831E+02  0.25576879609E+03  0.00000000000E+00 0. -1.
         -4    1    6    6    0  503  0.51793535435E+01  0.11378911288E+03 -0.80965304948E+02  0.13975037932E+03  0.00000000000E+00 0.  1.
<mgrwt>
<rscale>  0 0.15289546E+04</rscale>
<asrwt>0</asrwt>
<pdfrwt beam="1">  1        2 0.22535806E+00 0.15289546E+04</pdfrwt>
<pdfrwt beam="2">  1       -2 0.61380351E-01 0.15289546E+04</pdfrwt>
<totfact> 0.31616535E+01</totfact>
</mgrwt>
</event>
<event>
12    2  0.3751044E-008  0.1633316E+04  0.7818608E-02  0.8800338E-01
          4   -1    0    0  501    0  0.00000000000E+00  0.00000000000E+00  0.91852789185E+03  0.91852789185E+03  0.00000000000E+00 0. -1.
         -4   -1    0    0    0  501 -0.00000000000E+00 -0.00000000000E+00 -0.72608598666E+03  0.72608598666E+03  0.00000000000E+00 0.  1.
         23    2    1    2    0    0  0.20083980543E+03  0.61849364917E+02 -0.45434833555E+03  0.51007731776E+03  0.97900401905E+02 0.  0.
        254    2    1    2    0    0 -0.20083980543E+03 -0.61849364917E+02  0.64679024073E+03  0.11345365607E+04  0.90811542261E+03 0.  0.
         23    2    4    4    0    0 -0.37352099860E+03 -0.30807550805E+03  0.65621392873E+03  0.81981407150E+03  0.83963900043E+02 0.  0.
         23    2    4    4    0    0  0.17268119317E+03  0.24622614314E+03 -0.94236879996E+01  0.31472248925E+03  0.92278552784E+02 0.  0.
          2    1    3    3  502    0  0.19162836117E+03  0.31208037612E+02 -0.34206366785E+03  0.39332292493E+03  0.00000000000E+00 0.  1.
         -2    1    3    3    0  502  0.92114442636E+01  0.30641327305E+02 -0.11228466770E+03  0.11675439283E+03  0.00000000000E+00 0. -1.
         11    1    5    5    0    0 -0.27631253159E+02 -0.43323831851E+02  0.39635274264E+02  0.64895265801E+02  0.00000000000E+00 0. -1.
        -11    1    5    5    0    0 -0.34588974545E+03 -0.26475167620E+03  0.61657865446E+03  0.75491880570E+03  0.00000000000E+00 0.  1.
          1    1    6    6  503    0  0.22982145198E+02  0.31094901168E+02  0.30967186850E+02  0.49538253280E+02  0.00000000000E+00 0. -1.
         -1    1    6    6    0  503  0.14969904797E+03  0.21513124197E+03 -0.40390874850E+02  0.26518423597E+03  0.00000000000E+00 0.  1.
<mgrwt>
<rscale>  0 0.16333159E+04</rscale>
<asrwt>0</asrwt>
<pdfrwt beam="1">  1        4 0.14131198E+00 0.16333159E+04</pdfrwt>
<pdfrwt beam="2">  1       -4 0.11170554E+00 0.16333159E+04</pdfrwt>
<totfact> 0.42150982E-01</totfact>
</mgrwt>
</event>
<event>
12    2  0.3751044E-008  0.3151660E+04  0.7818608E-02  0.8201702E-01
          2   -1    0    0  501    0  0.00000000000E+00  0.00000000000E+00  0.17615160429E+04  0.17615160429E+04  0.00000000000E+00 0. -1.
         -2   -1    0    0    0  501 -0.00000000000E+00 -0.00000000000E+00 -0.14097172758E+04  0.14097172758E+04  0.00000000000E+00 0.  1.
         23    2    1    2    0    0 -0.11933726944E+04  0.53852162079E+03  0.77986017926E+03  0.15266282268E+04  0.90928103075E+02 0.  0.
        254    2    1    2    0    0  0.11933726944E+04 -0.53852162079E+03 -0.42806141221E+03  0.16446050918E+04  0.89852401836E+03 0.  0.
         23    2    4    4    0    0  0.71602349574E+03 -0.72722199921E+03 -0.45831647755E+03  0.11224168148E+04  0.90686438172E+02 0.  0.
         23    2    4    4    0    0  0.47734919869E+03  0.18870037843E+03  0.30255065346E+02  0.52218827698E+03  0.91077644480E+02 0.  0.
          2    1    3    3  502    0 -0.98944326044E+03  0.42998981643E+03  0.60497390593E+03  0.12368842447E+04  0.00000000000E+00 0. -1.
         -2    1    3    3    0  502 -0.20392943400E+03  0.10853180436E+03  0.17488627333E+03  0.28974398217E+03  0.00000000000E+00 0.  1.
         11    1    5    5    0    0  0.66547076884E+03 -0.64780334808E+03 -0.43440601659E+03  0.10252848917E+04  0.00000000000E+00 0.  1.
        -11    1    5    5    0    0  0.50552726896E+02 -0.79418651129E+02 -0.23910460956E+02  0.97131923109E+02  0.00000000000E+00 0. -1.
          2    1    6    6  503    0  0.23604497595E+03  0.44649903853E+02  0.17531642054E+02  0.24086968065E+03  0.00000000000E+00 0. -1.
         -2    1    6    6    0  503  0.24130422275E+03  0.14405047457E+03  0.12723423291E+02  0.28131859633E+03  0.00000000000E+00 0.  1.
<mgrwt>
<rscale>  0 0.31516596E+04</rscale>
<asrwt>0</asrwt>
<pdfrwt beam="1">  1        2 0.27100247E+00 0.31516596E+04</pdfrwt>
<pdfrwt beam="2">  1       -2 0.21687958E+00 0.31516596E+04</pdfrwt>
<totfact> 0.79282729E-01</totfact>
</mgrwt>
</event>
<event>
12    2  0.3751044E-008  0.2334447E+04  0.7818608E-02  0.8464462E-01
         -2   -1    0    0    0  501 -0.00000000000E+00  0.00000000000E+00  0.14457830876E+04  0.14457830876E+04  0.00000000000E+00 0.  1.
          2   -1    0    0  501    0  0.00000000000E+00 -0.00000000000E+00 -0.94233371064E+03  0.94233371064E+03  0.00000000000E+00 0. -1.
         23    2    1    2    0    0 -0.60637660252E+03 -0.56183791181E+03  0.78695278156E+03  0.11455238650E+04  0.97856127447E+02 0.  0.
        254    2    1    2    0    0  0.60637660252E+03  0.56183791181E+03 -0.28350340463E+03  0.12425929332E+04  0.88335077626E+03 0.  0.
         23    2    4    4    0    0  0.22092807138E+03 -0.10561238926E+03  0.19695491844E+03  0.32957743394E+03  0.99332047073E+02 0.  0.
         23    2    4    4    0    0  0.38544853114E+03  0.66745030107E+03 -0.48045832308E+03  0.91301549924E+03  0.93255708050E+02 0.  0.
          4    1    3    3  502    0  0.35730998599E+01 -0.70080920770E+01  0.80615441733E+01  0.11263609174E+02  0.00000000000E+00 0. -1.
         -4    1    3    3    0  502 -0.60994970238E+03 -0.55482981974E+03  0.77889123739E+03  0.11342602558E+04  0.00000000000E+00 0.  1.
         11    1    5    5    0    0  0.11602642988E+03 -0.36146009165E+02  0.38986065903E+02  0.12762672034E+03  0.00000000000E+00 0. -1.
        -11    1    5    5    0    0  0.10490164150E+03 -0.69466380092E+02  0.15796885254E+03  0.20195071360E+03  0.00000000000E+00 0.  1.
          1    1    6    6  503    0  0.10110599963E+03  0.19191344895E+03 -0.88244730038E+02  0.23418011749E+03  0.00000000000E+00 0. -1.
         -1    1    6    6    0  503  0.28434253151E+03  0.47553685212E+03 -0.39221359304E+03  0.67883538175E+03  0.00000000000E+00 0.  1.
<mgrwt>
<rscale>  0 0.23344465E+04</rscale>
<asrwt>0</asrwt>
<pdfrwt beam="1">  1        2 0.14497442E+00 0.23344465E+04</pdfrwt>
<pdfrwt beam="2">  1       -2 0.22242817E+00 0.23344465E+04</pdfrwt>
<totfact> 0.23684993E+00</totfact>
</mgrwt>
</event>
<event>
12    2  0.3751044E-008  0.1627167E+04  0.7818608E-02  0.8804030E-01
          2   -1    0    0  501    0  0.00000000000E+00  0.00000000000E+00  0.12206404514E+04  0.12206404514E+04  0.00000000000E+00 0.  1.
         -2   -1    0    0    0  501 -0.00000000000E+00 -0.00000000000E+00 -0.54227148385E+03  0.54227148385E+03  0.00000000000E+00 0. -1.
         23    2    1    2    0    0  0.49573097523E+03 -0.23727634047E+03  0.22418363382E+03  0.60669188811E+03  0.12556864206E+03 0.  0.
        254    2    1    2    0    0 -0.49573097523E+03  0.23727634047E+03  0.45418533372E+03  0.11562200471E+04  0.91022591619E+03 0.  0.
         23    2    4    4    0    0 -0.51745232410E+03  0.52937776255E+03  0.39460633558E+03  0.84382727336E+03  0.91282988473E+02 0.  0.
         23    2    4    4    0    0  0.21721348869E+02 -0.29210142209E+03  0.59578998147E+02  0.31239277379E+03  0.90799395986E+02 0.  0.
          3    1    3    3  502    0  0.30162097224E+03 -0.12846649400E+03  0.67980173987E+02  0.33481361238E+03  0.00000000000E+00 0. -1.
         -3    1    3    3    0  502  0.19411000299E+03 -0.10880984647E+03  0.15620345984E+03  0.27187827573E+03  0.00000000000E+00 0.  1.
         11    1    5    5    0    0 -0.18736452888E+03  0.15838356485E+03  0.90342552681E+02  0.26144329619E+03  0.00000000000E+00 0. -1.
        -11    1    5    5    0    0 -0.33008779522E+03  0.37099419770E+03  0.30426378289E+03  0.58238397717E+03  0.00000000000E+00 0.  1.
          3    1    6    6  503    0 -0.56549535205E+01  0.53620116608E+01  0.21514184334E-01  0.77929539476E+01  0.00000000000E+00 0. -1.
         -3    1    6    6    0  503  0.27376302389E+02 -0.29746343375E+03  0.59557483963E+02  0.30459981984E+03  0.00000000000E+00 0.  1.
<mgrwt>
<rscale>  0 0.16271675E+04</rscale>
<asrwt>0</asrwt>
<pdfrwt beam="1">  1        2 0.18779084E+00 0.16271675E+04</pdfrwt>
<pdfrwt beam="2">  1       -2 0.83426382E-01 0.16271675E+04</pdfrwt>
<totfact> 0.22153166E+01</totfact>
</mgrwt>
</event>
<event>
12    2  0.3751044E-008  0.2844100E+04  0.7818608E-02  0.8289706E-01
         -1   -1    0    0    0  501 -0.00000000000E+00  0.00000000000E+00  0.12171241366E+04  0.12171241366E+04  0.00000000000E+00 0.  1.
          1   -1    0    0  501    0  0.00000000000E+00 -0.00000000000E+00 -0.16614793277E+04  0.16614793277E+04  0.00000000000E+00 0. -1.
         23    2    1    2    0    0 -0.39219098469E+03  0.85643733168E+03  0.61116717524E+03  0.11266779382E+04  0.92623909874E+02 0.  0.
        254    2    1    2    0    0  0.39219098469E+03 -0.85643733168E+03 -0.10555223664E+04  0.17519255261E+04  0.10333522688E+04 0.  0.
         23    2    4    4    0    0 -0.22870958854E+02  0.15289300822E+03  0.58113459232E+02  0.19000122178E+03  0.93935815403E+02 0.  0.
         23    2    4    4    0    0  0.41506194354E+03 -0.10093303399E+04 -0.11136358256E+04  0.15619243043E+04  0.91644030556E+02 0.  0.
          4    1    3    3  502    0 -0.99377368149E+02  0.13305545119E+03  0.10336090581E+03  0.19560953770E+03  0.00000000000E+00 0. -1.
         -4    1    3    3    0  502 -0.29281361654E+03  0.72338188049E+03  0.50780626944E+03  0.93106840046E+03  0.00000000000E+00 0.  1.
         11    1    5    5    0    0  0.61725967896E+01  0.13246585562E+03  0.73142950331E+02  0.15144370254E+03  0.00000000000E+00 0. -1.
        -11    1    5    5    0    0 -0.29043555643E+02  0.20427152600E+02 -0.15029491099E+02  0.38557519247E+02  0.00000000000E+00 0.  1.
          3    1    6    6  503    0  0.41613948600E+03 -0.97725551407E+03 -0.10909690994E+04  0.15226338980E+04  0.00000000000E+00 0. -1.
         -3    1    6    6    0  503 -0.10775424574E+01 -0.32074825831E+02 -0.22666726230E+02  0.39290406308E+02  0.00000000000E+00 0.  1.
<mgrwt>
<rscale>  0 0.28441003E+04</rscale>
<asrwt>0</asrwt>
<pdfrwt beam="1">  1        1 0.25561221E+00 0.28441003E+04</pdfrwt>
<pdfrwt beam="2">  1       -1 0.18724987E+00 0.28441003E+04</pdfrwt>
<totfact> 0.80698185E-01</totfact>
</mgrwt>
</event>
<event>
12    2  0.3751044E-008  0.2324456E+04  0.7818608E-02  0.8468340E-01
         -2   -1    0    0    0  501 -0.00000000000E+00  0.00000000000E+00  0.61940770149E+03  0.61940770149E+03  0.00000000000E+00 0.  1.
          2   -1    0    0  501    0  0.00000000000E+00 -0.00000000000E+00 -0.21807509951E+04  0.21807509951E+04  0.00000000000E+00 0. -1.
         23    2    1    2    0    0 -0.98426180108E+03 -0.13943310915E+02 -0.65397794239E+03  0.11851613673E+04  0.89188612112E+02 0.  0.
        254    2    1    2    0    0  0.98426180108E+03  0.13943310915E+02 -0.90736535127E+03  0.16149973293E+04  0.90329329896E+03 0.  0.
         23    2    4    4    0    0  0.61473126415E+03 -0.51557832748E+02  0.60610793049E+01  0.62336973911E+03  0.89444718753E+02 0.  0.
         23    2    4    4    0    0  0.36953053693E+03  0.65501143663E+02 -0.91342643057E+03  0.99162759018E+03  0.90189888487E+02 0.  0.
          3    1    3    3  502    0 -0.14303428469E+01 -0.53226936472E+01 -0.32194809439E+01  0.63829464881E+01  0.00000000000E+00 0. -1.
         -3    1    3    3    0  502 -0.98283145823E+03 -0.86206172679E+01 -0.65075846144E+03  0.11787784209E+04  0.00000000000E+00 0.  1.
         11    1    5    5    0    0  0.39757081064E+02  0.17129394669E+02 -0.85344187902E+01  0.44123440035E+02  0.00000000000E+00 0.  1.
        -11    1    5    5    0    0  0.57497418309E+03 -0.68687227417E+02  0.14595498095E+02  0.57924629908E+03  0.00000000000E+00 0. -1.
          4    1    6    6  503    0  0.24228502309E+03 -0.24782681504E+00 -0.59723566777E+03  0.64450953188E+03  0.00000000000E+00 0. -1.
         -4    1    6    6    0  503  0.12724551384E+03  0.65748970478E+02 -0.31619076280E+03  0.34711805829E+03  0.00000000000E+00 0.  1.
<mgrwt>
<rscale>  0 0.23244560E+04</rscale>
<asrwt>0</asrwt>
<pdfrwt beam="1">  1        2 0.33550015E+00 0.23244560E+04</pdfrwt>
<pdfrwt beam="2">  1       -2 0.95293494E-01 0.23244560E+04</pdfrwt>
<totfact> 0.44318496E+00</totfact>
</mgrwt>
</event>
<event>
12    2  0.3751044E-008  0.2007760E+04  0.7818608E-02  0.8603001E-01
         -2   -1    0    0    0  501 -0.00000000000E+00  0.00000000000E+00  0.86629267000E+03  0.86629267000E+03  0.00000000000E+00 0.  1.
          2   -1    0    0  501    0  0.00000000000E+00 -0.00000000000E+00 -0.11633188338E+04  0.11633188338E+04  0.00000000000E+00 0. -1.
         23    2    1    2    0    0 -0.14739130514E+02 -0.29823466255E+03  0.62826070665E+03  0.70187728753E+03  0.93589824842E+02 0.  0.
        254    2    1    2    0    0  0.14739130514E+02  0.29823466255E+03 -0.92528687042E+03  0.13277342163E+04  0.90419090933E+03 0.  0.
         23    2    4    4    0    0 -0.19833845636E+02  0.28629763822E+03 -0.10925658013E+04  0.11333081669E+04  0.91255968519E+02 0.  0.
         23    2    4    4    0    0  0.34572976150E+02  0.11937024328E+02  0.16727893090E+03  0.19442604938E+03  0.92094868060E+02 0.  0.
          3    1    3    3  502    0  0.17977495925E+02 -0.62003539879E+01  0.41081377598E+02  0.45269353151E+02  0.00000000000E+00 0. -1.
         -3    1    3    3    0  502 -0.32716626439E+02 -0.29203430856E+03  0.58717932905E+03  0.65660793438E+03  0.00000000000E+00 0.  1.
         11    1    5    5    0    0 -0.40288929559E+01  0.34636707805E+02 -0.28930937405E+03  0.29140323851E+03  0.00000000000E+00 0.  1.
        -11    1    5    5    0    0 -0.15804952680E+02  0.25166093042E+03 -0.80325642728E+03  0.84190492836E+03  0.00000000000E+00 0. -1.
          4    1    6    6  503    0  0.19292308930E+02 -0.36907139000E+02  0.42233478857E+02  0.59312703777E+02  0.00000000000E+00 0. -1.
         -4    1    6    6    0  503  0.15280667220E+02  0.48844163328E+02  0.12504545205E+03  0.13511334560E+03  0.00000000000E+00 0.  1.
<mgrwt>
<rscale>  0 0.20077595E+04</rscale>
<asrwt>0</asrwt>
<pdfrwt beam="1">  1        2 0.17897213E+00 0.20077595E+04</pdfrwt>
<pdfrwt beam="2">  1       -2 0.13327580E+00 0.20077595E+04</pdfrwt>
<totfact> 0.75441327E+00</totfact>
</mgrwt>
</event>
<event>
12    2  0.3751044E-008  0.1839546E+04  0.7818608E-02  0.8685547E-01
         -2   -1    0    0    0  501 -0.00000000000E+00  0.00000000000E+00  0.60181500597E+03  0.60181500597E+03  0.00000000000E+00 0.  1.
          2   -1    0    0  501    0  0.00000000000E+00 -0.00000000000E+00 -0.14057184762E+04  0.14057184762E+04  0.00000000000E+00 0. -1.
         23    2    1    2    0    0  0.19476487354E+03 -0.12177577337E+03 -0.10343167208E+04  0.10633880254E+04  0.90665973436E+02 0.  0.
        254    2    1    2    0    0 -0.19476487354E+03  0.12177577337E+03  0.23041325062E+03  0.94414545670E+03  0.88631691984E+03 0.  0.
         23    2    4    4    0    0 -0.17682548840E+03 -0.34633989355E+03 -0.28545420234E+02  0.40055497341E+03  0.91710798148E+02 0.  0.
         23    2    4    4    0    0 -0.17939385133E+02  0.46811566692E+03  0.25895867085E+03  0.54359048329E+03  0.94746615546E+02 0.  0.
          3    1    3    3  502    0  0.16639478443E+03 -0.13457489996E+03 -0.85402654939E+03  0.88043113021E+03  0.00000000000E+00 0. -1.
         -3    1    3    3    0  502  0.28370089102E+02  0.12799126586E+02 -0.18029017143E+03  0.18295689523E+03  0.00000000000E+00 0.  1.
         11    1    5    5    0    0 -0.14610738331E+03 -0.24915709001E+03 -0.57703299503E+02  0.29454421355E+03  0.00000000000E+00 0.  1.
        -11    1    5    5    0    0 -0.30718105094E+02 -0.97182803536E+02  0.29157879268E+02  0.10601075986E+03  0.00000000000E+00 0. -1.
          3    1    6    6  503    0 -0.42961921686E+02  0.36834080306E+03  0.17151281232E+03  0.40857963569E+03  0.00000000000E+00 0. -1.
         -3    1    6    6    0  503  0.25022536553E+02  0.99774863863E+02  0.87445858533E+02  0.13501084760E+03  0.00000000000E+00 0.  1.
<mgrwt>
<rscale>  0 0.18395461E+04</rscale>
<asrwt>0</asrwt>
<pdfrwt beam="1">  1        2 0.21626438E+00 0.18395461E+04</pdfrwt>
<pdfrwt beam="2">  1       -2 0.92586924E-01 0.18395461E+04</pdfrwt>
<totfact> 0.13377136E+01</totfact>
</mgrwt>
</event>
<event>
12    2  0.3751044E-008  0.1183339E+04  0.7818608E-02  0.9127566E-01
         -2   -1    0    0    0  501 -0.00000000000E+00  0.00000000000E+00  0.35013924485E+03  0.35013924485E+03  0.00000000000E+00 0.  1.
          2   -1    0    0  501    0  0.00000000000E+00 -0.00000000000E+00 -0.99980968217E+03  0.99980968217E+03  0.00000000000E+00 0. -1.
         23    2    1    2    0    0 -0.11130922687E+03  0.76883651263E+01 -0.37085871174E+03  0.39697724167E+03  0.87211761698E+02 0.  0.
        254    2    1    2    0    0  0.11130922687E+03 -0.76883651263E+01 -0.27881172558E+03  0.95297168535E+03  0.90441704971E+03 0.  0.
         23    2    4    4    0    0  0.10058134454E+03 -0.44026409699E+03 -0.83212803590E+02  0.46927313339E+03  0.96663442254E+02 0.  0.
         23    2    4    4    0    0  0.10727882330E+02  0.43257573187E+03 -0.19559892199E+03  0.48369855196E+03  0.92024451232E+02 0.  0.
          3    1    3    3  502    0 -0.11769853539E+03  0.68277938800E+01 -0.37217078813E+03  0.39039807830E+03  0.00000000000E+00 0. -1.
         -3    1    3    3    0  502  0.63893085193E+01  0.86057124634E+00  0.13120763811E+01  0.65791633704E+01  0.00000000000E+00 0.  1.
         11    1    5    5    0    0  0.96028974740E+02 -0.44136076000E+03 -0.72350502101E+02  0.45744450988E+03  0.00000000000E+00 0.  1.
        -11    1    5    5    0    0  0.45523698019E+01  0.10966630113E+01 -0.10862301489E+02  0.11828623513E+02  0.00000000000E+00 0. -1.
          1    1    6    6  503    0 -0.13631691478E+02  0.53407987226E+02 -0.56912342489E+02  0.79229103490E+02  0.00000000000E+00 0. -1.
         -1    1    6    6    0  503  0.24359573808E+02  0.37916774464E+03 -0.13868657950E+03  0.40446944847E+03  0.00000000000E+00 0.  1.
<mgrwt>
<rscale>  0 0.11833387E+04</rscale>
<asrwt>0</asrwt>
<pdfrwt beam="1">  1        2 0.15381687E+00 0.11833387E+04</pdfrwt>
<pdfrwt beam="2">  1       -2 0.53867577E-01 0.11833387E+04</pdfrwt>
<totfact> 0.80790711E+01</totfact>
</mgrwt>
</event>
<event>
12    2  0.3751044E-008  0.1865253E+04  0.7818608E-02  0.8672348E-01
         -1   -1    0    0    0  501 -0.00000000000E+00  0.00000000000E+00  0.22115186854E+04  0.22115186854E+04  0.00000000000E+00 0.  1.
          1   -1    0    0  501    0  0.00000000000E+00 -0.00000000000E+00 -0.39330074111E+03  0.39330074111E+03  0.00000000000E+00 0. -1.
         23    2    1    2    0    0 -0.29476853651E+03  0.63526011123E+03  0.83331181409E+03  0.10929593826E+04  0.98527831018E+02 0.  0.
        254    2    1    2    0    0  0.29476853651E+03 -0.63526011123E+03  0.98490613023E+03  0.15118600439E+04  0.90842545540E+03 0.  0.
         23    2    4    4    0    0  0.46310687127E+03 -0.22986855292E+03  0.91816339029E+03  0.10576935350E+04  0.91564604934E+02 0.  0.
         23    2    4    4    0    0 -0.16833833476E+03 -0.40539155831E+03  0.66742739940E+02  0.45416650892E+03  0.95564187821E+02 0.  0.
          4    1    3    3  502    0 -0.18762822178E+03  0.38052169846E+03  0.57580267003E+03  0.71522711596E+03  0.00000000000E+00 0. -1.
         -4    1    3    3    0  502 -0.10714031474E+03  0.25473841278E+03  0.25750914407E+03  0.37773226664E+03  0.00000000000E+00 0.  1.
         11    1    5    5    0    0  0.37273882332E+03 -0.14403588781E+03  0.67380926340E+03  0.78338974389E+03  0.00000000000E+00 0.  1.
        -11    1    5    5    0    0  0.90368047950E+02 -0.85832665113E+02  0.24435412690E+03  0.27430379112E+03  0.00000000000E+00 0. -1.
          2    1    6    6  503    0 -0.80592684072E+02 -0.86006079335E+02  0.22704749276E+02  0.12003221254E+03  0.00000000000E+00 0. -1.
         -2    1    6    6    0  503 -0.87745650685E+02 -0.31938547897E+03  0.44037990664E+02  0.33413429638E+03  0.00000000000E+00 0.  1.
<mgrwt>
<rscale>  0 0.18652527E+04</rscale>
<asrwt>0</asrwt>
<pdfrwt beam="1">  1        1 0.60507808E-01 0.18652527E+04</pdfrwt>
<pdfrwt beam="2">  1       -1 0.34023364E+00 0.18652527E+04</pdfrwt>
<totfact> 0.10401926E+00</totfact>
</mgrwt>
</event>
<event>
12    2  0.3751044E-008  0.1396485E+04  0.7818608E-02  0.8956366E-01
         -2   -1    0    0    0  501 -0.00000000000E+00  0.00000000000E+00  0.40219743423E+03  0.40219743423E+03  0.00000000000E+00 0.  1.
          2   -1    0    0  501    0  0.00000000000E+00 -0.00000000000E+00 -0.12121979383E+04  0.12121979383E+04  0.00000000000E+00 0. -1.
         23    2    1    2    0    0 -0.35208356638E+03 -0.71541558387E+02 -0.54902538737E+03  0.66221601468E+03  0.89555244609E+02 0.  0.
        254    2    1    2    0    0  0.35208356638E+03  0.71541558387E+02 -0.26097511667E+03  0.95217935783E+03  0.84229239914E+03 0.  0.
         23    2    4    4    0    0  0.58573207193E+03  0.68678932336E+02 -0.34048636306E+03  0.68652221491E+03  0.87080033861E+02 0.  0.
         23    2    4    4    0    0 -0.23364850555E+03  0.28626260508E+01  0.79511246383E+02  0.26565714292E+03  0.98243882797E+02 0.  0.
          2    1    3    3  502    0 -0.33772073716E+03 -0.65259408169E+02 -0.47449195047E+03  0.58605178758E+03  0.00000000000E+00 0. -1.
         -2    1    3    3    0  502 -0.14362829217E+02 -0.62821502180E+01 -0.74533436896E+02  0.76164227102E+02  0.00000000000E+00 0.  1.
         11    1    5    5    0    0  0.52533937767E+02  0.15877494308E+02 -0.61528431720E+02  0.82447906904E+02  0.00000000000E+00 0. -1.
        -11    1    5    5    0    0  0.53319813417E+03  0.52801438027E+02 -0.27895793134E+03  0.60407430800E+03  0.00000000000E+00 0.  1.
          1    1    6    6  503    0 -0.66443569715E+02 -0.40442565059E+02  0.62315701316E+01  0.78033207619E+02  0.00000000000E+00 0. -1.
         -1    1    6    6    0  503 -0.16720493584E+03  0.43305191110E+02  0.73279676252E+02  0.18762393530E+03  0.00000000000E+00 0.  1.
<mgrwt>
<rscale>  0 0.13964854E+04</rscale>
<asrwt>0</asrwt>
<pdfrwt beam="1">  1        2 0.18649199E+00 0.13964854E+04</pdfrwt>
<pdfrwt beam="2">  1       -2 0.61876530E-01 0.13964854E+04</pdfrwt>
<totfact> 0.43990268E+01</totfact>
</mgrwt>
</event>
<event>
12    2  0.3751044E-008  0.1005555E+04  0.7818608E-02  0.9302473E-01
          2   -1    0    0  501    0  0.00000000000E+00  0.00000000000E+00  0.16530366455E+04  0.16530366455E+04  0.00000000000E+00 0. -1.
         -2   -1    0    0    0  501 -0.00000000000E+00 -0.00000000000E+00 -0.15292166067E+03  0.15292166067E+03  0.00000000000E+00 0.  1.
         23    2    1    2    0    0 -0.13117967813E+02  0.23653530660E+02  0.25493130212E+03  0.27224374095E+03  0.91624860658E+02 0.  0.
        254    2    1    2    0    0  0.13117967813E+02 -0.23653530660E+02  0.12451836827E+04  0.15337145652E+04  0.89502312443E+03 0.  0.
         23    2    4    4    0    0 -0.35343879206E+03  0.20926124344E+03  0.40816622878E+03  0.58618984519E+03  0.91157098210E+02 0.  0.
         23    2    4    4    0    0  0.36655675987E+03 -0.23291477410E+03  0.83701745391E+03  0.94752472000E+03  0.92691567412E+02 0.  0.
          4    1    3    3  502    0 -0.16131815852E+02 -0.32935151095E+02  0.12974327919E+03  0.13482684508E+03  0.00000000000E+00 0. -1.
         -4    1    3    3    0  502  0.30138480388E+01  0.56588681755E+02  0.12518802293E+03  0.13741689586E+03  0.00000000000E+00 0.  1.
         11    1    5    5    0    0  0.11317127877E+01  0.16198264083E+02  0.23396109794E+02  0.28478807676E+02  0.00000000000E+00 0.  1.
        -11    1    5    5    0    0 -0.35457050485E+03  0.19306297936E+03  0.38477011898E+03  0.55771103752E+03  0.00000000000E+00 0. -1.
          2    1    6    6  503    0  0.28078729098E+03 -0.13303396317E+03  0.54852335879E+03  0.63041051171E+03  0.00000000000E+00 0. -1.
         -2    1    6    6    0  503  0.85769468894E+02 -0.99880810926E+02  0.28849409512E+03  0.31711420830E+03  0.00000000000E+00 0.  1.
<mgrwt>
<rscale>  0 0.10055548E+04</rscale>
<asrwt>0</asrwt>
<pdfrwt beam="1">  1        2 0.25431332E+00 0.10055548E+04</pdfrwt>
<pdfrwt beam="2">  1       -2 0.23526411E-01 0.10055548E+04</pdfrwt>
<totfact> 0.16646673E+02</totfact>
</mgrwt>
</event>
<event>
12    2  0.3751044E-008  0.1232785E+04  0.7818608E-02  0.9084635E-01
         -1   -1    0    0    0  501 -0.00000000000E+00  0.00000000000E+00  0.82462996632E+03  0.82462996632E+03  0.00000000000E+00 0.  1.
          1   -1    0    0  501    0  0.00000000000E+00 -0.00000000000E+00 -0.46073934875E+03  0.46073934875E+03  0.00000000000E+00 0. -1.
         23    2    1    2    0    0  0.22325254540E+02 -0.10308075745E+03 -0.18026076416E+03  0.22820138551E+03  0.91966677174E+02 0.  0.
        254    2    1    2    0    0 -0.22325254540E+02  0.10308075745E+03  0.54415138173E+03  0.10571679296E+04  0.90021066728E+03 0.  0.
         23    2    4    4    0    0 -0.89344127091E+02  0.42410532274E+03  0.55967088909E+03  0.71321375863E+03  0.87147367005E+02 0.  0.
         23    2    4    4    0    0  0.67018872551E+02 -0.32102456530E+03 -0.15519507359E+02  0.34395417093E+03  0.10254421382E+03 0.  0.
          3    1    3    3  502    0 -0.19622979580E+01  0.36999199865E+01 -0.78813332384E+02  0.78924529664E+02  0.00000000000E+00 0. -1.
         -3    1    3    3    0  502  0.24287552498E+02 -0.10678067743E+03 -0.10144743177E+03  0.14927685585E+03  0.00000000000E+00 0.  1.
         11    1    5    5    0    0 -0.74171497994E+02  0.40974361355E+03  0.50407277524E+03  0.65382000787E+03  0.00000000000E+00 0. -1.
        -11    1    5    5    0    0 -0.15172629096E+02  0.14361709192E+02  0.55598113851E+02  0.59393750752E+02  0.00000000000E+00 0.  1.
          4    1    6    6  503    0  0.66506915035E+02 -0.28977291508E+03 -0.45352244413E+02  0.30074630194E+03  0.00000000000E+00 0. -1.
         -4    1    6    6    0  503  0.51195751609E+00 -0.31251650221E+02  0.29832737054E+02  0.43207868984E+02  0.00000000000E+00 0.  1.
<mgrwt>
<rscale>  0 0.12327846E+04</rscale>
<asrwt>0</asrwt>
<pdfrwt beam="1">  1        1 0.70882977E-01 0.12327846E+04</pdfrwt>
<pdfrwt beam="2">  1       -1 0.12686615E+00 0.12327846E+04</pdfrwt>
<totfact> 0.26413214E+01</totfact>
</mgrwt>
</event>
<event>
12    2  0.3751044E-008  0.2084401E+04  0.7818608E-02  0.8568146E-01
          1   -1    0    0  501    0  0.00000000000E+00  0.00000000000E+00  0.22372190424E+04  0.22372190424E+04  0.00000000000E+00 0. -1.
         -1   -1    0    0    0  501 -0.00000000000E+00 -0.00000000000E+00 -0.48550534334E+03  0.48550534334E+03  0.00000000000E+00 0.  1.
         23    2    1    2    0    0  0.78801609654E+02  0.47252683817E+03  0.16179392838E+04  0.16898812277E+04  0.92085456200E+02 0.  0.
        254    2    1    2    0    0 -0.78801609654E+02 -0.47252683817E+03  0.13377441522E+03  0.10328431580E+04  0.90519505544E+03 0.  0.
         23    2    4    4    0    0  0.16336695797E+02  0.22356787139E+03  0.20918104620E+03  0.32054805815E+03  0.93513992248E+02 0.  0.
         23    2    4    4    0    0 -0.95138305451E+02 -0.69609470956E+03 -0.75406630973E+02  0.71229509985E+03  0.89883298982E+02 0.  0.
          1    1    3    3  502    0  0.84766690358E+02  0.28818032703E+03  0.90931811875E+03  0.95764958820E+03  0.00000000000E+00 0. -1.
         -1    1    3    3    0  502 -0.59650807038E+01  0.18434651113E+03  0.70862116506E+03  0.73223163953E+03  0.00000000000E+00 0.  1.
         11    1    5    5    0    0  0.49266830587E+01  0.11552603875E+03  0.16887687293E+03  0.20467031061E+03  0.00000000000E+00 0.  1.
        -11    1    5    5    0    0  0.11410012738E+02  0.10804183264E+03  0.40304173267E+02  0.11587774754E+03  0.00000000000E+00 0. -1.
          1    1    6    6  503    0 -0.60269082092E+02 -0.47839300387E+03 -0.98365023559E+01  0.48227480256E+03  0.00000000000E+00 0. -1.
         -1    1    6    6    0  503 -0.34869223359E+02 -0.21770170569E+03 -0.65570128617E+02  0.23002029729E+03  0.00000000000E+00 0.  1.
<mgrwt>
<rscale>  0 0.20844009E+04</rscale>
<asrwt>0</asrwt>
<pdfrwt beam="1">  1        1 0.34418754E+00 0.20844009E+04</pdfrwt>
<pdfrwt beam="2">  1       -1 0.74693131E-01 0.20844009E+04</pdfrwt>
<totfact> 0.34122470E+00</totfact>
</mgrwt>
</event>
<event>
12    2  0.3751044E-008  0.2270498E+04  0.7818608E-02  0.8489645E-01
         -1   -1    0    0    0  501 -0.00000000000E+00  0.00000000000E+00  0.74950792366E+03  0.74950792366E+03  0.00000000000E+00 0.  1.
          1   -1    0    0  501    0  0.00000000000E+00 -0.00000000000E+00 -0.17195153210E+04  0.17195153210E+04  0.00000000000E+00 0. -1.
         23    2    1    2    0    0  0.17593209045E+03 -0.11243835041E+03 -0.14430538910E+04  0.14609315034E+04  0.91224131555E+02 0.  0.
        254    2    1    2    0    0 -0.17593209045E+03  0.11243835041E+03  0.47304649362E+03  0.10080917413E+04  0.86537939119E+03 0.  0.
         23    2    4    4    0    0  0.17568253919E+03 -0.28419221245E+03  0.24514165289E+03  0.42387055595E+03  0.89119302221E+02 0.  0.
         23    2    4    4    0    0 -0.35161462964E+03  0.39663056285E+03  0.22790484073E+03  0.58422118536E+03  0.91788484199E+02 0.  0.
          3    1    3    3  502    0  0.16732803480E+03 -0.10745159999E+03 -0.11062697501E+04  0.11240005683E+04  0.00000000000E+00 0. -1.
         -3    1    3    3    0  502  0.86040556485E+01 -0.49867504122E+01 -0.33678414095E+03  0.33693093513E+03  0.00000000000E+00 0.  1.
         11    1    5    5    0    0  0.93248802224E+02 -0.16853703758E+03  0.87109730849E+02  0.21139578369E+03  0.00000000000E+00 0.  1.
        -11    1    5    5    0    0  0.82433736969E+02 -0.11565517486E+03  0.15803192204E+03  0.21247477226E+03  0.00000000000E+00 0. -1.
          2    1    6    6  503    0 -0.24379196498E+03  0.32627064330E+03  0.15179959918E+03  0.43466098650E+03  0.00000000000E+00 0. -1.
         -2    1    6    6    0  503 -0.10782266466E+03  0.70359919550E+02  0.76105241549E+02  0.14956019887E+03  0.00000000000E+00 0.  1.
<mgrwt>
<rscale>  0 0.22704981E+04</rscale>
<asrwt>0</asrwt>
<pdfrwt beam="1">  1        1 0.26454082E+00 0.22704981E+04</pdfrwt>
<pdfrwt beam="2">  1       -1 0.11530891E+00 0.22704981E+04</pdfrwt>
<totfact> 0.28562253E+00</totfact>
</mgrwt>
</event>
<event>
12    2  0.3751044E-008  0.1696323E+04  0.7818608E-02  0.8763464E-01
         -1   -1    0    0    0  501 -0.00000000000E+00  0.00000000000E+00  0.10361160277E+04  0.10361160277E+04  0.00000000000E+00 0.  1.
          1   -1    0    0  501    0  0.00000000000E+00 -0.00000000000E+00 -0.69430240290E+03  0.69430240290E+03  0.00000000000E+00 0. -1.
         23    2    1    2    0    0  0.18264564429E+03 -0.53527754053E+03 -0.81837485228E+02  0.57913250142E+03  0.93891444938E+02 0.  0.
        254    2    1    2    0    0 -0.18264564429E+03  0.53527754053E+03  0.42365111000E+03  0.11512859292E+04  0.90889908730E+03 0.  0.
         23    2    4    4    0    0 -0.51049355565E+03  0.32462081870E+03  0.67809396402E+02  0.61567993794E+03  0.92094111860E+02 0.  0.
         23    2    4    4    0    0  0.32784791136E+03  0.21065672183E+03  0.35584171360E+03  0.53560599122E+03  0.91596644386E+02 0.  0.
          3    1    3    3  502    0  0.17619759978E+03 -0.40988262888E+03 -0.81719441298E+02  0.45357185837E+03  0.00000000000E+00 0. -1.
         -3    1    3    3    0  502  0.64480445127E+01 -0.12539491165E+03 -0.11804393009E+00  0.12556064304E+03  0.00000000000E+00 0.  1.
         11    1    5    5    0    0 -0.11098798544E+03  0.58856745400E+02 -0.21941441737E+02  0.12752990338E+03  0.00000000000E+00 0.  1.
        -11    1    5    5    0    0 -0.39950557021E+03  0.26576407330E+03  0.89750838139E+02  0.48815003456E+03  0.00000000000E+00 0. -1.
          4    1    6    6  503    0  0.16477569394E+03  0.51983069292E+02  0.15442883447E+03  0.23173591375E+03  0.00000000000E+00 0. -1.
         -4    1    6    6    0  503  0.16307221742E+03  0.15867365254E+03  0.20141287913E+03  0.30387007747E+03  0.00000000000E+00 0.  1.
<mgrwt>
<rscale>  0 0.16963229E+04</rscale>
<asrwt>0</asrwt>
<pdfrwt beam="1">  1        1 0.10681575E+00 0.16963229E+04</pdfrwt>
<pdfrwt beam="2">  1       -1 0.15940247E+00 0.16963229E+04</pdfrwt>
<totfact> 0.77543648E+00</totfact>
</mgrwt>
</event>
<event>
12    2  0.3751044E-008  0.2229347E+04  0.7818608E-02  0.8506312E-01
         -2   -1    0    0    0  501 -0.00000000000E+00  0.00000000000E+00  0.14970843798E+04  0.14970843798E+04  0.00000000000E+00 0.  1.
          2   -1    0    0  501    0  0.00000000000E+00 -0.00000000000E+00 -0.82994459829E+03  0.82994459829E+03  0.00000000000E+00 0. -1.
         23    2    1    2    0    0  0.22506940975E+03  0.91217927162E+03  0.43329134668E+03  0.10386210390E+04  0.90912093454E+02 0.  0.
        254    2    1    2    0    0 -0.22506940975E+03 -0.91217927162E+03  0.23384843488E+03  0.12884079392E+04  0.85004862473E+03 0.  0.
         23    2    4    4    0    0 -0.11987880447E+03 -0.89900391033E+03 -0.10954904126E+03  0.91764309715E+03  0.86538446651E+02 0.  0.
         23    2    4    4    0    0 -0.10519060528E+03 -0.13175361289E+02  0.34339747614E+03  0.37076484201E+03  0.91137741179E+02 0.  0.
          1    1    3    3  502    0  0.56470131671E+01  0.15968948673E+03  0.63543125616E+02  0.17196031445E+03  0.00000000000E+00 0. -1.
         -1    1    3    3    0  502  0.21942239658E+03  0.75248978489E+03  0.36974822107E+03  0.86666072454E+03  0.00000000000E+00 0.  1.
         11    1    5    5    0    0 -0.12899337271E+03 -0.85505238736E+03 -0.92634426724E+02  0.86967523384E+03  0.00000000000E+00 0.  1.
        -11    1    5    5    0    0  0.91145682408E+01 -0.43951522966E+02 -0.16914614535E+02  0.47967863305E+02  0.00000000000E+00 0. -1.
          1    1    6    6  503    0 -0.61854855795E+02 -0.21609701258E+02  0.78671221572E+02  0.10238243735E+03  0.00000000000E+00 0. -1.
         -1    1    6    6    0  503 -0.43335749482E+02  0.84343399690E+01  0.26472625456E+03  0.26838240466E+03  0.00000000000E+00 0.  1.
<mgrwt>
<rscale>  0 0.22293471E+04</rscale>
<asrwt>0</asrwt>
<pdfrwt beam="1">  1        2 0.12768378E+00 0.22293471E+04</pdfrwt>
<pdfrwt beam="2">  1       -2 0.23032067E+00 0.22293471E+04</pdfrwt>
<totfact> 0.25435276E+00</totfact>
</mgrwt>
</event>
<event>
12    2  0.3751044E-008  0.1327302E+04  0.7818608E-02  0.9008191E-01
         -2   -1    0    0    0  501 -0.00000000000E+00  0.00000000000E+00  0.91477156567E+02  0.91477156567E+02  0.00000000000E+00 0.  1.
          2   -1    0    0  501    0  0.00000000000E+00 -0.00000000000E+00 -0.48146708725E+04  0.48146708725E+04  0.00000000000E+00 0. -1.
         23    2    1    2    0    0  0.14022439242E+03 -0.27508395003E+03 -0.19755729282E+04  0.20014699874E+04  0.87519462054E+02 0.  0.
        254    2    1    2    0    0 -0.14022439242E+03  0.27508395003E+03 -0.27476207877E+04  0.29046780416E+04  0.89016878875E+03 0.  0.
         23    2    4    4    0    0 -0.50729405110E+03  0.14772852010E+03 -0.17286944481E+04  0.18099001309E+04  0.90460041331E+02 0.  0.
         23    2    4    4    0    0  0.36706965868E+03  0.12735542993E+03 -0.10189263397E+04  0.10947779107E+04  0.96789711701E+02 0.  0.
          1    1    3    3  502    0  0.12632450970E+03 -0.21531681568E+03 -0.17493611071E+04  0.17670833302E+04  0.00000000000E+00 0. -1.
         -1    1    3    3    0  502  0.13899882724E+02 -0.59767134349E+02 -0.22621182107E+03  0.23438665721E+03  0.00000000000E+00 0.  1.
         11    1    5    5    0    0 -0.16669346280E+03  0.50206018881E+02 -0.43423031803E+03  0.46782830608E+03  0.00000000000E+00 0.  1.
        -11    1    5    5    0    0 -0.34060058831E+03  0.97522501214E+02 -0.12944641301E+04  0.13420718248E+04  0.00000000000E+00 0. -1.
          3    1    6    6  503    0  0.16759338227E+03  0.98653340519E+02 -0.41962206387E+03  0.46249616199E+03  0.00000000000E+00 0. -1.
         -3    1    6    6    0  503  0.19947627641E+03  0.28702089412E+02 -0.59930427579E+03  0.63228174872E+03  0.00000000000E+00 0.  1.
<mgrwt>
<rscale>  0 0.13273016E+04</rscale>
<asrwt>0</asrwt>
<pdfrwt beam="1">  1        2 0.74071871E+00 0.13273016E+04</pdfrwt>
<pdfrwt beam="2">  1       -2 0.14073406E-01 0.13273016E+04</pdfrwt>
<totfact> 0.23240905E+00</totfact>
</mgrwt>
</event>
<event>
12    2  0.3751044E-008  0.2225873E+04  0.7818608E-02  0.8507736E-01
          2   -1    0    0  501    0  0.00000000000E+00  0.00000000000E+00  0.92840213590E+03  0.92840213590E+03  0.00000000000E+00 0. -1.
         -2   -1    0    0    0  501 -0.00000000000E+00 -0.00000000000E+00 -0.13341501037E+04  0.13341501037E+04  0.00000000000E+00 0.  1.
         23    2    1    2    0    0 -0.67331125968E+03  0.24245040523E+03  0.43958379921E+03  0.84503974418E+03  0.93423772765E+02 0.  0.
        254    2    1    2    0    0  0.67331125968E+03 -0.24245040523E+03 -0.84533176700E+03  0.14175124954E+04  0.88466130635E+03 0.  0.
         23    2    4    4    0    0  0.15976594921E+03 -0.43723959120E+03 -0.96144223757E+02  0.48404381500E+03  0.91384268007E+02 0.  0.
         23    2    4    4    0    0  0.51354531047E+03  0.19478918597E+03 -0.74918754324E+03  0.93346868041E+03  0.91707085203E+02 0.  0.
          2    1    3    3  502    0 -0.50582038399E+03  0.20652116947E+03  0.29519484639E+03  0.62100342321E+03  0.00000000000E+00 0. -1.
         -2    1    3    3    0  502 -0.16749087569E+03  0.35929235763E+02  0.14438895282E+03  0.22403632098E+03  0.00000000000E+00 0.  1.
         11    1    5    5    0    0  0.12127359632E+03 -0.20151739387E+03 -0.38272359362E+02  0.23828831001E+03  0.00000000000E+00 0. -1.
        -11    1    5    5    0    0  0.38492352892E+02 -0.23572219733E+03 -0.57871864395E+02  0.24575550499E+03  0.00000000000E+00 0.  1.
          1    1    6    6  503    0  0.51697539771E+03  0.19242570672E+03 -0.73691156388E+03  0.92050522401E+03  0.00000000000E+00 0. -1.
         -1    1    6    6    0  503 -0.34300872364E+01  0.23634792557E+01 -0.12275979361E+02  0.12963456403E+02  0.00000000000E+00 0.  1.
<mgrwt>
<rscale>  0 0.22258731E+04</rscale>
<asrwt>0</asrwt>
<pdfrwt beam="1">  1        2 0.14283110E+00 0.22258731E+04</pdfrwt>
<pdfrwt beam="2">  1       -2 0.20525386E+00 0.22258731E+04</pdfrwt>
<totfact> 0.31443166E+00</totfact>
</mgrwt>
</event>
<event>
12    2  0.3751044E-008  0.1182873E+04  0.7818608E-02  0.9127981E-01
         -1   -1    0    0    0  501 -0.00000000000E+00  0.00000000000E+00  0.30409032960E+03  0.30409032960E+03  0.00000000000E+00 0.  1.
          1   -1    0    0  501    0  0.00000000000E+00 -0.00000000000E+00 -0.11503075589E+04  0.11503075589E+04  0.00000000000E+00 0. -1.
         23    2    1    2    0    0 -0.28360815376E+02  0.17117156226E+03 -0.37573676963E+03  0.42388750193E+03  0.91643083024E+02 0.  0.
        254    2    1    2    0    0  0.28360815376E+02 -0.17117156226E+03 -0.47048045971E+03  0.10305103866E+04  0.90027537695E+03 0.  0.
         23    2    4    4    0    0  0.24532411010E+03 -0.85690051018E+02 -0.65962725417E+03  0.71498111422E+03  0.92537427082E+02 0.  0.
         23    2    4    4    0    0 -0.21696329473E+03 -0.85481511242E+02  0.18914679446E+03  0.31552927238E+03  0.96964178180E+02 0.  0.
          3    1    3    3  502    0 -0.24018137352E+02  0.77833692958E+02 -0.27355500989E+03  0.28542476788E+03  0.00000000000E+00 0. -1.
         -3    1    3    3    0  502 -0.43426780242E+01  0.93337869302E+02 -0.10218175974E+03  0.13846273405E+03  0.00000000000E+00 0.  1.
         11    1    5    5    0    0  0.15580644603E+03 -0.99551892421E+02 -0.45968506893E+03  0.49547612506E+03  0.00000000000E+00 0.  1.
        -11    1    5    5    0    0  0.89517664074E+02  0.13861841403E+02 -0.19994218524E+03  0.21950498916E+03  0.00000000000E+00 0. -1.
          1    1    6    6  503    0  0.96087541270E+01 -0.22505470347E+01  0.19235471659E+01  0.10054509015E+02  0.00000000000E+00 0. -1.
         -1    1    6    6    0  503 -0.22657204885E+03 -0.83230964208E+02  0.18722324730E+03  0.30547476336E+03  0.00000000000E+00 0.  1.
<mgrwt>
<rscale>  0 0.11828735E+04</rscale>
<asrwt>0</asrwt>
<pdfrwt beam="1">  1        1 0.17697040E+00 0.11828735E+04</pdfrwt>
<pdfrwt beam="2">  1       -1 0.46783127E-01 0.11828735E+04</pdfrwt>
<totfact> 0.52432042E+01</totfact>
</mgrwt>
</event>
<event>
12    2  0.6036623E-008  0.2346145E+04  0.7818608E-02  0.8459946E-01
          1   -1    0    0  501    0  0.00000000000E+00  0.00000000000E+00  0.14486577364E+04  0.14486577364E+04  0.00000000000E+00 0. -1.
         -1   -1    0    0    0  501 -0.00000000000E+00 -0.00000000000E+00 -0.94991353124E+03  0.94991353124E+03  0.00000000000E+00 0.  1.
         23    2    1    2    0    0  0.31829982506E+03  0.59531554489E+03  0.92603204861E+03  0.11502202821E+04  0.98772292053E+02 0.  0.
        254    2    1    2    0    0 -0.31829982506E+03 -0.59531554489E+03 -0.42728784342E+03  0.12483509856E+04  0.95921316998E+03 0.  0.
         23    2    4    4    0    0 -0.34626379402E+03 -0.57839947841E+03  0.12127282682E+03  0.69129613885E+03  0.93480914549E+02 0.  0.
         23    2    4    4    0    0  0.27963968959E+02 -0.16916066472E+02 -0.54856067024E+03  0.55705484674E+03  0.91231334964E+02 0.  0.
          1    1    3    3  502    0  0.28989237293E+03  0.55400975967E+03  0.89315185020E+03  0.10902681456E+04  0.00000000000E+00 0. -1.
         -1    1    3    3    0  502  0.28407452127E+02  0.41305785213E+02  0.32880198413E+02  0.59952136543E+02  0.00000000000E+00 0.  1.
         11    1    5    5    0    0 -0.21156358408E+03 -0.26280691676E+03  0.55652987457E+02  0.34194134090E+03  0.00000000000E+00 0. -1.
        -11    1    5    5    0    0 -0.13470020993E+03 -0.31559256165E+03  0.65619839358E+02  0.34935479794E+03  0.00000000000E+00 0.  1.
          1    1    6    6  503    0  0.58737605672E+02 -0.21432664743E+02 -0.42817066256E+03  0.43271189228E+03  0.00000000000E+00 0.  1.
         -1    1    6    6    0  503 -0.30773636714E+02  0.45165982714E+01 -0.12039000767E+03  0.12434295446E+03  0.00000000000E+00 0. -1.
<mgrwt>
<rscale>  0 0.23461454E+04</rscale>
<asrwt>0</asrwt>
<pdfrwt beam="1">  1        1 0.22287042E+00 0.23461454E+04</pdfrwt>
<pdfrwt beam="2">  1       -1 0.14614054E+00 0.23461454E+04</pdfrwt>
<totfact> 0.23928875E+00</totfact>
</mgrwt>
</event>
<event>
12    2  0.3751044E-008  0.1752000E+04  0.7818608E-02  0.8732250E-01
         -2   -1    0    0    0  501 -0.00000000000E+00  0.00000000000E+00  0.11005327186E+04  0.11005327186E+04  0.00000000000E+00 0.  1.
          2   -1    0    0  501    0  0.00000000000E+00 -0.00000000000E+00 -0.69727711754E+03  0.69727711754E+03  0.00000000000E+00 0. -1.
         23    2    1    2    0    0 -0.28089989712E+03 -0.49083316591E+03 -0.16512527107E+03  0.59603304313E+03  0.90371922641E+02 0.  0.
        254    2    1    2    0    0  0.28089989712E+03  0.49083316591E+03  0.56838087216E+03  0.12017767930E+04  0.89520315877E+03 0.  0.
         23    2    4    4    0    0  0.12274095769E+03  0.40383421950E+03  0.79144990539E+03  0.90080809408E+03  0.83155577542E+02 0.  0.
         23    2    4    4    0    0  0.15815893943E+03  0.86998946409E+02 -0.22306903324E+03  0.30096869895E+03  0.90770575392E+02 0.  0.
          2    1    3    3  502    0 -0.21597470810E+03 -0.44003605776E+03 -0.13768160410E+03  0.50914932070E+03  0.00000000000E+00 0. -1.
         -2    1    3    3    0  502 -0.64925189028E+02 -0.50797108149E+02 -0.27443666971E+02  0.86883722431E+02  0.00000000000E+00 0.  1.
         11    1    5    5    0    0  0.54435981604E+02  0.30608680471E+03  0.57818752594E+03  0.65647027599E+03  0.00000000000E+00 0. -1.
        -11    1    5    5    0    0  0.68304976087E+02  0.97747414790E+02  0.21326237946E+03  0.24433781809E+03  0.00000000000E+00 0.  1.
          4    1    6    6  503    0  0.15338885087E+03  0.46077026784E+02 -0.16696311377E+03  0.23136100218E+03  0.00000000000E+00 0. -1.
         -4    1    6    6    0  503  0.47700885682E+01  0.40921919624E+02 -0.56105919466E+02  0.69607696771E+02  0.00000000000E+00 0.  1.
<mgrwt>
<rscale>  0 0.17520003E+04</rscale>
<asrwt>0</asrwt>
<pdfrwt beam="1">  1        2 0.10727340E+00 0.17520003E+04</pdfrwt>
<pdfrwt beam="2">  1       -2 0.16931273E+00 0.17520003E+04</pdfrwt>
<totfact> 0.84052144E+00</totfact>
</mgrwt>
</event>
<event>
12    2  0.3751044E-008  0.2289711E+04  0.7818608E-02  0.8481989E-01
         -2   -1    0    0    0  501 -0.00000000000E+00  0.00000000000E+00  0.14892816276E+04  0.14892816276E+04  0.00000000000E+00 0.  1.
          2   -1    0    0  501    0  0.00000000000E+00 -0.00000000000E+00 -0.88008448517E+03  0.88008448517E+03  0.00000000000E+00 0. -1.
         23    2    1    2    0    0  0.14071560695E+03  0.76945076703E+03  0.84060065462E+03  0.11522480486E+04  0.95972600072E+02 0.  0.
        254    2    1    2    0    0 -0.14071560695E+03 -0.76945076703E+03 -0.23140351223E+03  0.12171180642E+04  0.90331247732E+03 0.  0.
         23    2    4    4    0    0 -0.10819013822E+03  0.17241838115E+03 -0.14467070431E+03  0.26612377502E+03  0.91973076395E+02 0.  0.
         23    2    4    4    0    0 -0.32525468728E+02 -0.94186914818E+03 -0.86732807924E+02  0.95099428913E+03  0.93231751954E+02 0.  0.
          2    1    3    3  502    0  0.75137965852E+02  0.54210675929E+03  0.63954305490E+03  0.84174863912E+03  0.00000000000E+00 0.  1.
         -2    1    3    3    0  502  0.65577641093E+02  0.22734400775E+03  0.20105759972E+03  0.31049940946E+03  0.00000000000E+00 0. -1.
         11    1    5    5    0    0 -0.10978104741E+02  0.47455176833E+02  0.40875728990E+01  0.48879656752E+02  0.00000000000E+00 0. -1.
        -11    1    5    5    0    0 -0.97212033476E+02  0.12496320432E+03 -0.14875827721E+03  0.21724411827E+03  0.00000000000E+00 0.  1.
          1    1    6    6  503    0  0.31557187956E+02 -0.24875492193E+03 -0.31856992714E+02  0.25276418908E+03  0.00000000000E+00 0. -1.
         -1    1    6    6    0  503 -0.64082656684E+02 -0.69311422625E+03 -0.54875815210E+02  0.69823010005E+03  0.00000000000E+00 0.  1.
<mgrwt>
<rscale>  0 0.22897106E+04</rscale>
<asrwt>0</asrwt>
<pdfrwt beam="1">  1        2 0.13539761E+00 0.22897106E+04</pdfrwt>
<pdfrwt beam="2">  1       -2 0.22912025E+00 0.22897106E+04</pdfrwt>
<totfact> 0.23763070E+00</totfact>
</mgrwt>
</event>
<event>
12    2  0.3751044E-008  0.1795698E+04  0.7818608E-02  0.8708590E-01
          1   -1    0    0  501    0  0.00000000000E+00  0.00000000000E+00  0.15191588535E+04  0.15191588535E+04  0.00000000000E+00 0. -1.
         -1   -1    0    0    0  501 -0.00000000000E+00 -0.00000000000E+00 -0.53064435312E+03  0.53064435312E+03  0.00000000000E+00 0.  1.
         23    2    1    2    0    0  0.20367493753E+03  0.81159038915E+02  0.10777773001E+04  0.11036644919E+04  0.91657690390E+02 0.  0.
        254    2    1    2    0    0 -0.20367493753E+03 -0.81159038915E+02 -0.89262799764E+02  0.94613871472E+03  0.91604604158E+03 0.  0.
         23    2    4    4    0    0 -0.33529098833E+03 -0.20005109737E+03  0.30593150117E+03  0.50391514033E+03  0.88858859033E+02 0.  0.
         23    2    4    4    0    0  0.13161605080E+03  0.11889205846E+03 -0.39519430093E+03  0.44222357439E+03  0.89022737899E+02 0.  0.
          3    1    3    3  502    0  0.21185201750E+03  0.69052880802E+02  0.99956335720E+03  0.10240978873E+04  0.00000000000E+00 0. -1.
         -3    1    3    3    0  502 -0.81770799719E+01  0.12106158113E+02  0.78213942923E+02  0.79566604607E+02  0.00000000000E+00 0.  1.
         11    1    5    5    0    0 -0.34425005215E+00 -0.35347847257E+01  0.23413804174E+02  0.23681626572E+02  0.00000000000E+00 0. -1.
        -11    1    5    5    0    0 -0.33494673828E+03 -0.19651631265E+03  0.28251769699E+03  0.48023351376E+03  0.00000000000E+00 0.  1.
          2    1    6    6  503    0 -0.79159478450E+01 -0.12419662397E+01 -0.53335061802E+02  0.53933602956E+02  0.00000000000E+00 0. -1.
         -2    1    6    6    0  503  0.13953199865E+03  0.12013402470E+03 -0.34185923913E+03  0.38828997143E+03  0.00000000000E+00 0.  1.
<mgrwt>
<rscale>  0 0.17956983E+04</rscale>
<asrwt>0</asrwt>
<pdfrwt beam="1">  1        1 0.23371674E+00 0.17956983E+04</pdfrwt>
<pdfrwt beam="2">  1       -1 0.81637593E-01 0.17956983E+04</pdfrwt>
<totfact> 0.89455373E+00</totfact>
</mgrwt>
</event>
<event>
12    2  0.3751044E-008  0.1471723E+04  0.7818608E-02  0.8903477E-01
          2   -1    0    0  501    0  0.00000000000E+00  0.00000000000E+00  0.23771136183E+04  0.23771136183E+04  0.00000000000E+00 0. -1.
         -2   -1    0    0    0  501 -0.00000000000E+00 -0.00000000000E+00 -0.22779403598E+03  0.22779403598E+03  0.00000000000E+00 0.  1.
         23    2    1    2    0    0 -0.42328486534E+03  0.88863901004E+02  0.42606196473E+03  0.61415869459E+03  0.92710486029E+02 0.  0.
        254    2    1    2    0    0  0.42328486534E+03 -0.88863901004E+02  0.17232576176E+04  0.19907489597E+04  0.89799651101E+03 0.  0.
         23    2    4    4    0    0  0.36583625185E+02 -0.44895477425E+02 -0.85345508338E+02  0.13850278647E+03  0.92440253908E+02 0.  0.
         23    2    4    4    0    0  0.38670124015E+03 -0.43968423579E+02  0.18086031259E+04  0.18522461732E+04  0.91101853255E+02 0.  0.
          1    1    3    3  502    0 -0.54646984447E+02  0.15194767577E+02  0.10692013048E+03  0.12103341758E+03  0.00000000000E+00 0. -1.
         -1    1    3    3    0  502 -0.36863788089E+03  0.73669133427E+02  0.31914183425E+03  0.49312527700E+03  0.00000000000E+00 0.  1.
         11    1    5    5    0    0  0.31753794401E+02  0.23388465863E+02 -0.41283864901E+02  0.57093618693E+02  0.00000000000E+00 0. -1.
        -11    1    5    5    0    0  0.48298307840E+01 -0.68283943288E+02 -0.44061643437E+02  0.81409167781E+02  0.00000000000E+00 0.  1.
          1    1    6    6  503    0  0.17501495038E+02  0.23619730508E+01  0.27441190687E+02  0.32632808515E+02  0.00000000000E+00 0. -1.
         -1    1    6    6    0  503  0.36919974511E+03 -0.46330396629E+02  0.17811619352E+04  0.18196133647E+04  0.00000000000E+00 0.  1.
<mgrwt>
<rscale>  0 0.14717232E+04</rscale>
<asrwt>0</asrwt>
<pdfrwt beam="1">  1        2 0.36570977E+00 0.14717232E+04</pdfrwt>
<pdfrwt beam="2">  1       -2 0.35045238E-01 0.14717232E+04</pdfrwt>
<totfact> 0.30382676E+01</totfact>
</mgrwt>
</event>
<event>
12    2  0.3751044E-008  0.1302781E+04  0.7818608E-02  0.9027363E-01
         -1   -1    0    0    0  501 -0.00000000000E+00  0.00000000000E+00  0.33805754146E+03  0.33805754146E+03  0.00000000000E+00 0.  1.
          1   -1    0    0  501    0  0.00000000000E+00 -0.00000000000E+00 -0.12551396126E+04  0.12551396126E+04  0.00000000000E+00 0. -1.
         23    2    1    2    0    0  0.26716165362E+03 -0.74119626659E+02 -0.15638974702E+02  0.29292474414E+03  0.93226927334E+02 0.  0.
        254    2    1    2    0    0 -0.26716165362E+03  0.74119626659E+02 -0.90144309642E+03  0.13002724099E+04  0.89511988900E+03 0.  0.
         23    2    4    4    0    0 -0.56456144838E+03  0.18783938856E+03 -0.52732880961E+03  0.80039939955E+03  0.92467618455E+02 0.  0.
         23    2    4    4    0    0  0.29739979476E+03 -0.11371976190E+03 -0.37411428682E+03  0.49987301037E+03  0.92372640537E+02 0.  0.
          3    1    3    3  502    0  0.12204587102E+03 -0.80407145089E+02 -0.20548973861E+02  0.14758985040E+03  0.00000000000E+00 0. -1.
         -3    1    3    3    0  502  0.14511578259E+03  0.62875184296E+01  0.49099991588E+01  0.14533489374E+03  0.00000000000E+00 0.  1.
         11    1    5    5    0    0 -0.42250916508E+03  0.16151099612E+03 -0.35159762769E+03  0.57290547933E+03  0.00000000000E+00 0.  1.
        -11    1    5    5    0    0 -0.14205228330E+03  0.26328392432E+02 -0.17573118192E+03  0.22749392022E+03  0.00000000000E+00 0. -1.
          1    1    6    6  503    0  0.44892096227E+01 -0.81410577922E+01 -0.48384931118E+02  0.49269984619E+02  0.00000000000E+00 0. -1.
         -1    1    6    6    0  503  0.29291058514E+03 -0.10557870411E+03 -0.32572935570E+03  0.45060302575E+03  0.00000000000E+00 0.  1.
<mgrwt>
<rscale>  0 0.13027807E+04</rscale>
<asrwt>0</asrwt>
<pdfrwt beam="1">  1        1 0.19309840E+00 0.13027807E+04</pdfrwt>
<pdfrwt beam="2">  1       -1 0.52008852E-01 0.13027807E+04</pdfrwt>
<totfact> 0.35619659E+01</totfact>
</mgrwt>
</event>
<event>
12    2  0.3751044E-008  0.1751033E+04  0.7818608E-02  0.8732782E-01
          2   -1    0    0  501    0  0.00000000000E+00  0.00000000000E+00  0.16100711717E+04  0.16100711717E+04  0.00000000000E+00 0. -1.
         -2   -1    0    0    0  501 -0.00000000000E+00 -0.00000000000E+00 -0.47608385194E+03  0.47608385194E+03  0.00000000000E+00 0.  1.
         23    2    1    2    0    0  0.45182916779E+03  0.14254403739E+03  0.93748908523E+03  0.10547109662E+04  0.95189483484E+02 0.  0.
        254    2    1    2    0    0 -0.45182916779E+03 -0.14254403739E+03  0.19649823450E+03  0.10314440574E+04  0.89487255406E+03 0.  0.
         23    2    4    4    0    0 -0.53400456576E+03 -0.43400610981E+03  0.16395823726E+03  0.71349341605E+03  0.93104090001E+02 0.  0.
         23    2    4    4    0    0  0.82175397972E+02  0.29146207241E+03  0.32539997237E+02  0.31795064139E+03  0.91273343617E+02 0.  0.
          2    1    3    3  502    0  0.42415142042E+03  0.10680506036E+03  0.83262786073E+03  0.94052161210E+03  0.00000000000E+00 0. -1.
         -2    1    3    3    0  502  0.27677747374E+02  0.35738977034E+02  0.10486122450E+03  0.11418935407E+03  0.00000000000E+00 0.  1.
         11    1    5    5    0    0 -0.46624087944E+03 -0.41232972031E+03  0.15765770671E+03  0.64206877232E+03  0.00000000000E+00 0.  1.
        -11    1    5    5    0    0 -0.67763686325E+02 -0.21676389496E+02  0.63005305545E+01  0.71424643725E+02  0.00000000000E+00 0. -1.
          3    1    6    6  503    0 -0.17494441661E+02  0.18098885229E+02  0.15038725243E-01  0.25171916131E+02  0.00000000000E+00 0. -1.
         -3    1    6    6    0  503  0.99669839633E+02  0.27336318719E+03  0.32524958512E+02  0.29277872526E+03  0.00000000000E+00 0.  1.
<mgrwt>
<rscale>  0 0.17510327E+04</rscale>
<asrwt>0</asrwt>
<pdfrwt beam="1">  1        2 0.24770325E+00 0.17510327E+04</pdfrwt>
<pdfrwt beam="2">  1       -2 0.73243671E-01 0.17510327E+04</pdfrwt>
<totfact> 0.17555074E+01</totfact>
</mgrwt>
</event>
<event>
12    2  0.3751044E-008  0.1366105E+04  0.7818608E-02  0.8978725E-01
          1   -1    0    0  501    0  0.00000000000E+00  0.00000000000E+00  0.29917395643E+04  0.29917395643E+04  0.00000000000E+00 0. -1.
         -1   -1    0    0    0  501 -0.00000000000E+00 -0.00000000000E+00 -0.15594975738E+03  0.15594975738E+03  0.00000000000E+00 0.  1.
         23    2    1    2    0    0 -0.19109326305E+03  0.10033391713E+03  0.24066288390E+03  0.33949855382E+03  0.10371650905E+03 0.  0.
        254    2    1    2    0    0  0.19109326305E+03 -0.10033391713E+03  0.25951269230E+04  0.28081907678E+04  0.10510319272E+04 0.  0.
         23    2    4    4    0    0 -0.13880096261E+03 -0.32407531489E+03  0.28763786092E+03  0.46466748098E+03  0.94285799049E+02 0.  0.
         23    2    4    4    0    0  0.32989422566E+03  0.22374139776E+03  0.23074890621E+04  0.23435232869E+04  0.93301721466E+02 0.  0.
          4    1    3    3  502    0 -0.12786519622E+03  0.60943595049E+02  0.22092511408E+03  0.26243387017E+03  0.00000000000E+00 0. -1.
         -4    1    3    3    0  502 -0.63228066834E+02  0.39390322085E+02  0.19737769826E+02  0.77064683657E+02  0.00000000000E+00 0.  1.
         11    1    5    5    0    0 -0.63199923083E+02 -0.16686786601E+03  0.20457770680E+03  0.27146114474E+03  0.00000000000E+00 0.  1.
        -11    1    5    5    0    0 -0.75601039523E+02 -0.15720744888E+03  0.83060154120E+02  0.19320633623E+03  0.00000000000E+00 0. -1.
          1    1    6    6  503    0  0.89952413672E+02  0.10627016046E+03  0.66134276234E+03  0.67583950242E+03  0.00000000000E+00 0.  1.
         -1    1    6    6    0  503  0.23994181198E+03  0.11747123730E+03  0.16461462997E+04  0.16676837844E+04  0.00000000000E+00 0. -1.
<mgrwt>
<rscale>  0 0.13661055E+04</rscale>
<asrwt>0</asrwt>
<pdfrwt beam="1">  1        1 0.46026758E+00 0.13661055E+04</pdfrwt>
<pdfrwt beam="2">  1       -1 0.23992273E-01 0.13661055E+04</pdfrwt>
<totfact> 0.89823175E+00</totfact>
</mgrwt>
</event>
<event>
12    2  0.3751044E-008  0.1709824E+04  0.7818608E-02  0.8755781E-01
          1   -1    0    0  501    0  0.00000000000E+00  0.00000000000E+00  0.84755045662E+03  0.84755045662E+03  0.00000000000E+00 0. -1.
         -1   -1    0    0    0  501 -0.00000000000E+00 -0.00000000000E+00 -0.86233728733E+03  0.86233728733E+03  0.00000000000E+00 0.  1.
         23    2    1    2    0    0  0.71297687572E+02  0.41065035877E+03  0.43485282929E+03  0.60921496703E+03  0.91262344406E+02 0.  0.
        254    2    1    2    0    0 -0.71297687572E+02 -0.41065035877E+03 -0.44963966001E+03  0.11006727769E+04  0.91410484113E+03 0.  0.
         23    2    4    4    0    0  0.15992531096E+03  0.13420630352E+03 -0.44730475413E+03  0.50204106470E+03  0.91521858567E+02 0.  0.
         23    2    4    4    0    0 -0.23122299853E+03 -0.54485666229E+03 -0.23349058812E+01  0.59863171221E+03  0.89563483567E+02 0.  0.
          2    1    3    3  502    0  0.58189093317E+02  0.39216775724E+03  0.43204489876E+03  0.58638239652E+03  0.00000000000E+00 0. -1.
         -2    1    3    3    0  502  0.13108594255E+02  0.18482601526E+02  0.28079305309E+01  0.22832570516E+02  0.00000000000E+00 0.  1.
         11    1    5    5    0    0  0.15314597315E+03  0.11601958465E+03 -0.31987046767E+03  0.37313717210E+03  0.00000000000E+00 0. -1.
        -11    1    5    5    0    0  0.67793378129E+01  0.18186718868E+02 -0.12743428646E+03  0.12890389261E+03  0.00000000000E+00 0.  1.
          2    1    6    6  503    0 -0.51739635002E+02 -0.74570250096E+02 -0.26888560445E+02  0.94661009462E+02  0.00000000000E+00 0. -1.
         -2    1    6    6    0  503 -0.17948336353E+03 -0.47028641219E+03  0.24553654564E+02  0.50397070275E+03  0.00000000000E+00 0.  1.
<mgrwt>
<rscale>  0 0.17098238E+04</rscale>
<asrwt>0</asrwt>
<pdfrwt beam="1">  1        1 0.13039238E+00 0.17098238E+04</pdfrwt>
<pdfrwt beam="2">  1       -1 0.13266727E+00 0.17098238E+04</pdfrwt>
<totfact> 0.92175324E+00</totfact>
</mgrwt>
</event>
<event>
12    2  0.3751044E-008  0.1946042E+04  0.7818608E-02  0.8632272E-01
         -1   -1    0    0    0  501 -0.00000000000E+00  0.00000000000E+00  0.54617744814E+03  0.54617744814E+03  0.00000000000E+00 0.  1.
          1   -1    0    0  501    0  0.00000000000E+00 -0.00000000000E+00 -0.17334472769E+04  0.17334472769E+04  0.00000000000E+00 0. -1.
         23    2    1    2    0    0 -0.58966126478E+03 -0.32573975058E+03 -0.21772887883E+02  0.68020792417E+03  0.91662255960E+02 0.  0.
        254    2    1    2    0    0  0.58966126478E+03  0.32573975058E+03 -0.11654969409E+04  0.15994168009E+04  0.86368060730E+03 0.  0.
         23    2    4    4    0    0  0.41349348430E+02  0.47387440604E+03 -0.73847911329E+03  0.88311611409E+03  0.90972242430E+02 0.  0.
         23    2    4    4    0    0  0.54831191635E+03 -0.14813465546E+03 -0.42701782759E+03  0.71630068678E+03  0.90291832606E+02 0.  0.
          3    1    3    3  502    0 -0.27548211131E+03 -0.19842747502E+03 -0.32396309906E+02  0.34104747088E+03  0.00000000000E+00 0. -1.
         -3    1    3    3    0  502 -0.31417915348E+03 -0.12731227556E+03  0.10623422023E+02  0.33916045330E+03  0.00000000000E+00 0.  1.
         11    1    5    5    0    0  0.58005627965E+02  0.19252980068E+03 -0.27498897070E+03  0.34066304618E+03  0.00000000000E+00 0. -1.
        -11    1    5    5    0    0 -0.16656279535E+02  0.28134460536E+03 -0.46349014258E+03  0.54245306791E+03  0.00000000000E+00 0.  1.
          1    1    6    6  503    0  0.67445649003E+02 -0.50879672422E+02 -0.64564099562E+02  0.10633052049E+03  0.00000000000E+00 0. -1.
         -1    1    6    6    0  503  0.48086626735E+03 -0.97254983041E+02 -0.36245372803E+03  0.60997016629E+03  0.00000000000E+00 0.  1.
<mgrwt>
<rscale>  0 0.19460419E+04</rscale>
<asrwt>0</asrwt>
<pdfrwt beam="1">  1        1 0.26668419E+00 0.19460419E+04</pdfrwt>
<pdfrwt beam="2">  1       -1 0.84027301E-01 0.19460419E+04</pdfrwt>
<totfact> 0.59149727E+00</totfact>
</mgrwt>
</event>
<event>
12    2  0.3751044E-008  0.1713169E+04  0.7818608E-02  0.8753889E-01
          1   -1    0    0  501    0  0.00000000000E+00  0.00000000000E+00  0.50096907561E+03  0.50096907561E+03  0.00000000000E+00 0. -1.
         -1   -1    0    0    0  501 -0.00000000000E+00 -0.00000000000E+00 -0.14646346546E+04  0.14646346546E+04  0.00000000000E+00 0.  1.
         23    2    1    2    0    0  0.23028784013E+03  0.55829202693E+03 -0.47653187425E+03  0.77477458684E+03  0.92035626752E+02 0.  0.
        254    2    1    2    0    0 -0.23028784013E+03 -0.55829202693E+03 -0.48713370471E+03  0.11908291434E+04  0.90335614558E+03 0.  0.
         23    2    4    4    0    0  0.14190453810E+03 -0.48762511313E+03  0.59981709831E+02  0.51940358605E+03  0.90923763643E+02 0.  0.
         23    2    4    4    0    0 -0.37219237823E+03 -0.70666913797E+02 -0.54711541454E+03  0.67142555731E+03  0.89196541715E+02 0.  0.
          3    1    3    3  502    0  0.12959509925E+03  0.29111886738E+03 -0.19385125687E+03  0.37299248583E+03  0.00000000000E+00 0. -1.
         -3    1    3    3    0  502  0.10069274088E+03  0.26717315954E+03 -0.28268061738E+03  0.40178210101E+03  0.00000000000E+00 0.  1.
         11    1    5    5    0    0  0.59226434294E+02 -0.17691763883E+03 -0.21269345173E+02  0.18777648014E+03  0.00000000000E+00 0. -1.
        -11    1    5    5    0    0  0.82678103809E+02 -0.31070747430E+03  0.81251055004E+02  0.33162710591E+03  0.00000000000E+00 0.  1.
          1    1    6    6  503    0 -0.25478508394E+03 -0.84180495878E+02 -0.34203609840E+03  0.43473036182E+03  0.00000000000E+00 0.  1.
         -1    1    6    6    0  503 -0.11740729429E+03  0.13513582081E+02 -0.20507931615E+03  0.23669519548E+03  0.00000000000E+00 0. -1.
<mgrwt>
<rscale>  0 0.17131686E+04</rscale>
<asrwt>0</asrwt>
<pdfrwt beam="1">  1        1 0.77072166E-01 0.17131686E+04</pdfrwt>
<pdfrwt beam="2">  1       -1 0.22532841E+00 0.17131686E+04</pdfrwt>
<totfact> 0.42597536E+00</totfact>
</mgrwt>
</event>
<event>
12    2  0.3751044E-008  0.1079816E+04  0.7818608E-02  0.9225091E-01
          3   -1    0    0  501    0  0.00000000000E+00  0.00000000000E+00  0.24148670663E+03  0.24148670663E+03  0.00000000000E+00 0. -1.
         -3   -1    0    0    0  501 -0.00000000000E+00 -0.00000000000E+00 -0.12071088129E+04  0.12071088129E+04  0.00000000000E+00 0.  1.
         23    2    1    2    0    0 -0.62009484447E+02  0.94882567597E+02 -0.60385767046E+02  0.15811197347E+03  0.92222977065E+02 0.  0.
        254    2    1    2    0    0  0.62009484447E+02 -0.94882567597E+02 -0.90523633920E+03  0.12904835460E+04  0.91271412555E+03 0.  0.
         23    2    4    4    0    0 -0.88791639105E+02  0.37912029156E+03 -0.51374845956E+03  0.65107288888E+03  0.91336062418E+02 0.  0.
         23    2    4    4    0    0  0.15080112355E+03 -0.47400285916E+03 -0.39148787965E+03  0.63941065715E+03  0.90352306080E+02 0.  0.
          4    1    3    3  502    0 -0.32859595906E+02  0.41458920492E+02  0.20631753221E+02  0.56782606249E+02  0.00000000000E+00 0. -1.
         -4    1    3    3    0  502 -0.29149888541E+02  0.53423647104E+02 -0.81017520266E+02  0.10132936722E+03  0.00000000000E+00 0.  1.
         11    1    5    5    0    0 -0.31627870501E+02  0.54970510490E+02 -0.42839350800E+02  0.76532928814E+02  0.00000000000E+00 0.  1.
        -11    1    5    5    0    0 -0.57163768604E+02  0.32414978107E+03 -0.47090910876E+03  0.57453996007E+03  0.00000000000E+00 0. -1.
          3    1    6    6  503    0 -0.56351165695E+01 -0.27749198501E+02 -0.51534759386E+01  0.28780737837E+02  0.00000000000E+00 0. -1.
         -3    1    6    6    0  503  0.15643624012E+03 -0.44625366065E+03 -0.38633440371E+03  0.61062991931E+03  0.00000000000E+00 0.  1.
<mgrwt>
<rscale>  0 0.10798162E+04</rscale>
<asrwt>0</asrwt>
<pdfrwt beam="1">  1        3 0.37151802E-01 0.10798162E+04</pdfrwt>
<pdfrwt beam="2">  1       -3 0.18570904E+00 0.10798162E+04</pdfrwt>
<totfact> 0.33949127E+00</totfact>
</mgrwt>
</event>
<event>
12    2  0.3751044E-008  0.1236270E+04  0.7818608E-02  0.9081688E-01
         -2   -1    0    0    0  501 -0.00000000000E+00  0.00000000000E+00  0.52053333007E+03  0.52053333007E+03  0.00000000000E+00 0.  1.
          2   -1    0    0  501    0  0.00000000000E+00 -0.00000000000E+00 -0.73403774187E+03  0.73403774187E+03  0.00000000000E+00 0. -1.
         23    2    1    2    0    0  0.15658184798E+03 -0.12580490441E+03  0.14964326756E+03  0.26605547016E+03  0.89708731925E+02 0.  0.
        254    2    1    2    0    0 -0.15658184798E+03  0.12580490441E+03 -0.36314767936E+03  0.98851560179E+03  0.89718566020E+03 0.  0.
         23    2    4    4    0    0  0.13146362678E+03 -0.32019409794E+03 -0.25505135161E+03  0.43941298345E+03  0.90695273009E+02 0.  0.
         23    2    4    4    0    0 -0.28804547476E+03  0.44599900235E+03 -0.10809632775E+03  0.54910261834E+03  0.89126672611E+02 0.  0.
          1    1    3    3  502    0 -0.94572747718E+01 -0.63136270153E+01  0.22465248659E+02  0.25179144734E+02  0.00000000000E+00 0. -1.
         -1    1    3    3    0  502  0.16603912275E+03 -0.11949127740E+03  0.12717801890E+03  0.24087632542E+03  0.00000000000E+00 0.  1.
         11    1    5    5    0    0  0.98862196636E+02 -0.25177985719E+03 -0.24111361914E+03  0.36235701697E+03  0.00000000000E+00 0. -1.
        -11    1    5    5    0    0  0.32601430145E+02 -0.68414240745E+02 -0.13937732473E+02  0.77055966484E+02  0.00000000000E+00 0.  1.
          3    1    6    6  503    0 -0.16841051229E+03  0.25228712864E+03 -0.16783318616E+02  0.30379693170E+03  0.00000000000E+00 0. -1.
         -3    1    6    6    0  503 -0.11963496247E+03  0.19371187371E+03 -0.91313009135E+02  0.24530568664E+03  0.00000000000E+00 0.  1.
<mgrwt>
<rscale>  0 0.12362704E+04</rscale>
<asrwt>0</asrwt>
<pdfrwt beam="1">  1        2 0.11292888E+00 0.12362704E+04</pdfrwt>
<pdfrwt beam="2">  1       -2 0.80082051E-01 0.12362704E+04</pdfrwt>
<totfact> 0.52372750E+01</totfact>
</mgrwt>
</event>
<event>
12    2  0.3751044E-008  0.1188669E+04  0.7818608E-02  0.9122833E-01
         -1   -1    0    0    0  501 -0.00000000000E+00  0.00000000000E+00  0.53642092158E+03  0.53642092158E+03  0.00000000000E+00 0.  1.
          1   -1    0    0  501    0  0.00000000000E+00 -0.00000000000E+00 -0.65850063260E+03  0.65850063260E+03  0.00000000000E+00 0. -1.
         23    2    1    2    0    0 -0.60792697666E+02  0.14774955160E+03  0.16437206618E+03  0.24122710142E+03  0.75144236181E+02 0.  0.
        254    2    1    2    0    0  0.60792697666E+02 -0.14774955160E+03 -0.28645177719E+03  0.95369445276E+03  0.89551817764E+03 0.  0.
         23    2    4    4    0    0 -0.18385170696E+02 -0.23823137211E+03  0.27322249529E+03  0.37419488470E+03  0.90989442495E+02 0.  0.
         23    2    4    4    0    0  0.79177868362E+02  0.90481820506E+02 -0.55967427248E+03  0.57949956806E+03  0.90157436856E+02 0.  0.
          4    1    3    3  502    0  0.61342690556E+01 -0.61793394156E+01  0.79599361634E+01  0.11797206287E+02  0.00000000000E+00 0. -1.
         -4    1    3    3    0  502 -0.66926966721E+02  0.15392889102E+03  0.15641213001E+03  0.22942989513E+03  0.00000000000E+00 0.  1.
         11    1    5    5    0    0 -0.58853203619E+01 -0.23767811414E+03  0.23628450504E+03  0.33519530167E+03  0.00000000000E+00 0. -1.
        -11    1    5    5    0    0 -0.12499850335E+02 -0.55325796030E+00  0.36937990250E+02  0.38999583030E+02  0.00000000000E+00 0.  1.
          1    1    6    6  503    0  0.19772115380E+02  0.82431532658E+02 -0.24731274072E+03  0.26143734592E+03  0.00000000000E+00 0.  1.
         -1    1    6    6    0  503  0.59405752983E+02  0.80502878474E+01 -0.31236153177E+03  0.31806222214E+03  0.00000000000E+00 0. -1.
<mgrwt>
<rscale>  0 0.11886690E+04</rscale>
<asrwt>0</asrwt>
<pdfrwt beam="1">  1        1 0.10130779E+00 0.11886690E+04</pdfrwt>
<pdfrwt beam="2">  1       -1 0.82526295E-01 0.11886690E+04</pdfrwt>
<totfact> 0.43205075E+01</totfact>
</mgrwt>
</event>
<event>
12    2  0.3751044E-008  0.2343578E+04  0.7818608E-02  0.8460934E-01
          1   -1    0    0  501    0  0.00000000000E+00  0.00000000000E+00  0.21534823638E+04  0.21534823638E+04  0.00000000000E+00 0. -1.
         -1   -1    0    0    0  501 -0.00000000000E+00 -0.00000000000E+00 -0.63761377307E+03  0.63761377307E+03  0.00000000000E+00 0.  1.
         23    2    1    2    0    0  0.58980113314E+03  0.71942060476E+03  0.23342360395E+03  0.96352720534E+03  0.92014745256E+02 0.  0.
        254    2    1    2    0    0 -0.58980113314E+03 -0.71942060476E+03  0.12824449868E+04  0.18275689316E+04  0.91099488044E+03 0.  0.
         23    2    4    4    0    0  0.21602934765E+03 -0.30727015062E+03  0.46295478279E+03  0.60326599797E+03  0.92299018893E+02 0.  0.
         23    2    4    4    0    0 -0.80583048079E+03 -0.41215045413E+03  0.81949020402E+03  0.12243029336E+04  0.90126123289E+02 0.  0.
          4    1    3    3  502    0  0.30551350390E+03  0.44056230453E+03  0.11874895685E+03  0.54912199008E+03  0.00000000000E+00 0. -1.
         -4    1    3    3    0  502  0.28428762925E+03  0.27885830023E+03  0.11467464710E+03  0.41440521527E+03  0.00000000000E+00 0.  1.
         11    1    5    5    0    0  0.22259036005E+03 -0.29128239979E+03  0.42310381824E+03  0.55982921131E+03  0.00000000000E+00 0. -1.
        -11    1    5    5    0    0 -0.65610124076E+01 -0.15987750832E+02  0.39850964546E+02  0.43436786664E+02  0.00000000000E+00 0.  1.
          3    1    6    6  503    0 -0.48161004566E+03 -0.29500353579E+03  0.51651972082E+03  0.76535478323E+03  0.00000000000E+00 0. -1.
         -3    1    6    6    0  503 -0.32422043513E+03 -0.11714691835E+03  0.30297048320E+03  0.45894815036E+03  0.00000000000E+00 0.  1.
<mgrwt>
<rscale>  0 0.23435785E+04</rscale>
<asrwt>0</asrwt>
<pdfrwt beam="1">  1        1 0.33130497E+00 0.23435785E+04</pdfrwt>
<pdfrwt beam="2">  1       -1 0.98094428E-01 0.23435785E+04</pdfrwt>
<totfact> 0.21012363E+00</totfact>
</mgrwt>
</event>
<event>
12    2  0.3751044E-008  0.1875237E+04  0.7818608E-02  0.8667281E-01
          2   -1    0    0  501    0  0.00000000000E+00  0.00000000000E+00  0.59575136922E+03  0.59575136922E+03  0.00000000000E+00 0. -1.
         -2   -1    0    0    0  501 -0.00000000000E+00 -0.00000000000E+00 -0.14756637849E+04  0.14756637849E+04  0.00000000000E+00 0.  1.
         23    2    1    2    0    0  0.71096903373E+03  0.75492637442E+02 -0.26509387125E+03  0.76751711653E+03  0.87359363348E+02 0.  0.
        254    2    1    2    0    0 -0.71096903373E+03 -0.75492637442E+02 -0.61481854443E+03  0.13038980376E+04  0.90053991840E+03 0.  0.
         23    2    4    4    0    0 -0.25796905366E+03  0.39838633929E+03 -0.21982659040E+03  0.53316641621E+03  0.10335854851E+03 0.  0.
         23    2    4    4    0    0 -0.45299998006E+03 -0.47387897673E+03 -0.39499195403E+03  0.77073162138E+03  0.90765202142E+02 0.  0.
          3    1    3    3  502    0  0.43781429262E+03  0.83340917803E+02 -0.14149984576E+03  0.46759947578E+03  0.00000000000E+00 0. -1.
         -3    1    3    3    0  502  0.27315474110E+03 -0.78482803619E+01 -0.12359402549E+03  0.29991764074E+03  0.00000000000E+00 0.  1.
         11    1    5    5    0    0 -0.10416811051E+03  0.10053046225E+03 -0.10495672924E+03  0.17881074939E+03  0.00000000000E+00 0.  1.
        -11    1    5    5    0    0 -0.15380094316E+03  0.29785587704E+03 -0.11486986117E+03  0.35435566682E+03  0.00000000000E+00 0. -1.
          1    1    6    6  503    0 -0.35607626612E+03 -0.33038527824E+03 -0.25848968590E+03  0.55023781866E+03  0.00000000000E+00 0. -1.
         -1    1    6    6    0  503 -0.96923713947E+02 -0.14349369849E+03 -0.13650226813E+03  0.22049380272E+03  0.00000000000E+00 0.  1.
<mgrwt>
<rscale>  0 0.18752373E+04</rscale>
<asrwt>0</asrwt>
<pdfrwt beam="1">  1        2 0.91654057E-01 0.18752373E+04</pdfrwt>
<pdfrwt beam="2">  1       -2 0.22702520E+00 0.18752373E+04</pdfrwt>
<totfact> 0.41874494E+00</totfact>
</mgrwt>
</event>
<event>
12    2  0.3751044E-008  0.2426792E+04  0.7818608E-02  0.8429541E-01
          2   -1    0    0  501    0  0.00000000000E+00  0.00000000000E+00  0.32090564074E+04  0.32090564074E+04  0.00000000000E+00 0.  1.
         -2   -1    0    0    0  501 -0.00000000000E+00 -0.00000000000E+00 -0.45880461259E+03  0.45880461259E+03  0.00000000000E+00 0. -1.
         23    2    1    2    0    0 -0.60867994158E+03 -0.83742320365E+03  0.98943530865E+03  0.14349858943E+04  0.91833509338E+02 0.  0.
        254    2    1    2    0    0  0.60867994158E+03  0.83742320365E+03  0.17608164862E+04  0.22328751257E+04  0.90193554970E+03 0.  0.
         23    2    4    4    0    0  0.57539819161E+03  0.12406995727E+03  0.48802952504E+03  0.77042034832E+03  0.94330602602E+02 0.  0.
         23    2    4    4    0    0  0.33281749974E+02  0.71335324638E+03  0.12727869611E+04  0.14624547774E+04  0.93844544507E+02 0.  0.
          1    1    3    3  502    0 -0.45565112325E+03 -0.59689684417E+03  0.76692177678E+03  0.10733465425E+04  0.00000000000E+00 0. -1.
         -1    1    3    3    0  502 -0.15302881833E+03 -0.24052635948E+03  0.22251353187E+03  0.36163935172E+03  0.00000000000E+00 0.  1.
         11    1    5    5    0    0  0.50329444367E+03  0.76260886457E+02  0.40481557769E+03  0.65038194299E+03  0.00000000000E+00 0. -1.
        -11    1    5    5    0    0  0.72103747939E+02  0.47809070816E+02  0.83213947352E+02  0.12003840533E+03  0.00000000000E+00 0.  1.
          1    1    6    6  503    0  0.62354538826E+02  0.34319825776E+03  0.60126757908E+03  0.69512289150E+03  0.00000000000E+00 0. -1.
         -1    1    6    6    0  503 -0.29072788852E+02  0.37015498862E+03  0.67151938205E+03  0.76733188590E+03  0.00000000000E+00 0.  1.
<mgrwt>
<rscale>  0 0.24267920E+04</rscale>
<asrwt>0</asrwt>
<pdfrwt beam="1">  1        2 0.49370097E+00 0.24267920E+04</pdfrwt>
<pdfrwt beam="2">  1       -2 0.70585327E-01 0.24267920E+04</pdfrwt>
<totfact> 0.20968635E+00</totfact>
</mgrwt>
</event>
<event>
12    2  0.3751044E-008  0.1565025E+04  0.7818608E-02  0.8842327E-01
         -2   -1    0    0    0  501 -0.00000000000E+00  0.00000000000E+00  0.11660955404E+04  0.11660955404E+04  0.00000000000E+00 0.  1.
          2   -1    0    0  501    0  0.00000000000E+00 -0.00000000000E+00 -0.52510800128E+03  0.52510800128E+03  0.00000000000E+00 0. -1.
         23    2    1    2    0    0 -0.19191802174E+02 -0.47101831729E+02 -0.35212987599E+03  0.36778527174E+03  0.93186097238E+02 0.  0.
        254    2    1    2    0    0  0.19191802174E+02  0.47101831729E+02  0.99311741516E+03  0.13234182700E+04  0.87325071383E+03 0.  0.
         23    2    4    4    0    0  0.25471829439E+03  0.49234545893E+01  0.10288922388E+04  0.10639548127E+04  0.92059515130E+02 0.  0.
         23    2    4    4    0    0 -0.23552649222E+03  0.42178377139E+02 -0.35774823687E+02  0.25946345732E+03  0.93753419343E+02 0.  0.
          1    1    3    3  502    0 -0.28638592769E+02 -0.27385050032E+02 -0.34092159741E+03  0.34321661606E+03  0.00000000000E+00 0. -1.
         -1    1    3    3    0  502  0.94467905952E+01 -0.19716781697E+02 -0.11208278586E+02  0.24568655679E+02  0.00000000000E+00 0.  1.
         11    1    5    5    0    0  0.12080774624E+03  0.25464000151E+02  0.64874124875E+03  0.66038483832E+03  0.00000000000E+00 0.  1.
        -11    1    5    5    0    0  0.13391054815E+03 -0.20540545562E+02  0.38015099009E+03  0.40356997434E+03  0.00000000000E+00 0. -1.
          1    1    6    6  503    0 -0.20309107825E+03  0.25480424185E+01 -0.13314195653E+02  0.20354298413E+03  0.00000000000E+00 0. -1.
         -1    1    6    6    0  503 -0.32435413972E+02  0.39630334721E+02 -0.22460628034E+02  0.55920473185E+02  0.00000000000E+00 0.  1.
<mgrwt>
<rscale>  0 0.15650254E+04</rscale>
<asrwt>0</asrwt>
<pdfrwt beam="1">  1        2 0.80785847E-01 0.15650254E+04</pdfrwt>
<pdfrwt beam="2">  1       -2 0.17939931E+00 0.15650254E+04</pdfrwt>
<totfact> 0.10224549E+01</totfact>
</mgrwt>
</event>
<event>
12    2  0.3751044E-008  0.2031916E+04  0.7818608E-02  0.8591843E-01
         -2   -1    0    0    0  501 -0.00000000000E+00  0.00000000000E+00  0.59147064078E+03  0.59147064078E+03  0.00000000000E+00 0.  1.
          2   -1    0    0  501    0  0.00000000000E+00 -0.00000000000E+00 -0.17450918957E+04  0.17450918957E+04  0.00000000000E+00 0. -1.
         23    2    1    2    0    0 -0.64911109334E+03 -0.49166160530E+03 -0.48356636233E+03  0.95145579920E+03  0.91407688003E+02 0.  0.
        254    2    1    2    0    0  0.64911109334E+03  0.49166160530E+03 -0.67005489261E+03  0.13851067373E+04  0.89803717572E+03 0.  0.
         23    2    4    4    0    0  0.13182257870E+03  0.64513458198E+03 -0.38644555323E+03  0.76890044727E+03  0.91059931223E+02 0.  0.
         23    2    4    4    0    0  0.51728851464E+03 -0.15347297668E+03 -0.28360933938E+03  0.61620629002E+03  0.90191865154E+02 0.  0.
          1    1    3    3  502    0 -0.32659431317E+03 -0.20122358755E+03 -0.19562424497E+03  0.43060843327E+03  0.00000000000E+00 0. -1.
         -1    1    3    3    0  502 -0.32251678017E+03 -0.29043801776E+03 -0.28794211736E+03  0.52084736593E+03  0.00000000000E+00 0.  1.
         11    1    5    5    0    0  0.16115766047E+02  0.63222402139E+02 -0.93792918364E+01  0.65914802304E+02  0.00000000000E+00 0. -1.
        -11    1    5    5    0    0  0.11570681265E+03  0.58191217984E+03 -0.37706626140E+03  0.70298564496E+03  0.00000000000E+00 0.  1.
          1    1    6    6  503    0  0.18280921306E+03 -0.13490770128E+02 -0.11441786811E+03  0.21608483935E+03  0.00000000000E+00 0. -1.
         -1    1    6    6    0  503  0.33447930158E+03 -0.13998220655E+03 -0.16919147127E+03  0.40012145067E+03  0.00000000000E+00 0.  1.
<mgrwt>
<rscale>  0 0.20319160E+04</rscale>
<asrwt>0</asrwt>
<pdfrwt beam="1">  1        2 0.26847567E+00 0.20319160E+04</pdfrwt>
<pdfrwt beam="2">  1       -2 0.90995484E-01 0.20319160E+04</pdfrwt>
<totfact> 0.88372016E+00</totfact>
</mgrwt>
</event>
<event>
12    2  0.3751044E-008  0.1323836E+04  0.7818608E-02  0.9010874E-01
          2   -1    0    0  501    0  0.00000000000E+00  0.00000000000E+00  0.27034209433E+04  0.27034209433E+04  0.00000000000E+00 0. -1.
         -2   -1    0    0    0  501 -0.00000000000E+00 -0.00000000000E+00 -0.16206709221E+03  0.16206709221E+03  0.00000000000E+00 0.  1.
         23    2    1    2    0    0  0.56792926626E+02  0.27133706325E+03  0.11196138243E+04  0.11570145163E+04  0.91094659821E+02 0.  0.
        254    2    1    2    0    0 -0.56792926626E+02 -0.27133706325E+03  0.14217400268E+04  0.17084735192E+04  0.90591822121E+03 0.  0.
         23    2    4    4    0    0 -0.19951447708E+03  0.20976208656E+03  0.10036624704E+04  0.10491224269E+04  0.97536417331E+02 0.  0.
         23    2    4    4    0    0  0.14272155045E+03 -0.48109914981E+03  0.41807755638E+03  0.65935109221E+03  0.90162002768E+02 0.  0.
          2    1    3    3  502    0  0.76013677494E+01  0.28704907479E+01  0.13579103590E+03  0.13603391467E+03  0.00000000000E+00 0. -1.
         -2    1    3    3    0  502  0.49191558877E+02  0.26846657250E+03  0.98382278837E+03  0.10209806016E+04  0.00000000000E+00 0.  1.
         11    1    5    5    0    0 -0.19527228930E+03  0.17702270532E+03  0.95200736601E+03  0.98781897639E+03  0.00000000000E+00 0. -1.
        -11    1    5    5    0    0 -0.42421877772E+01  0.32739381238E+02  0.51655104394E+02  0.61303450563E+02  0.00000000000E+00 0.  1.
          2    1    6    6  503    0  0.11143675224E+03 -0.32840858576E+03  0.23504381315E+03  0.41894622930E+03  0.00000000000E+00 0. -1.
         -2    1    6    6    0  503  0.31284798218E+02 -0.15269056405E+03  0.18303374323E+03  0.24040486291E+03  0.00000000000E+00 0.  1.
<mgrwt>
<rscale>  0 0.13238362E+04</rscale>
<asrwt>0</asrwt>
<pdfrwt beam="1">  1        2 0.41591088E+00 0.13238362E+04</pdfrwt>
<pdfrwt beam="2">  1       -2 0.24933401E-01 0.13238362E+04</pdfrwt>
<totfact> 0.37537442E+01</totfact>
</mgrwt>
</event>
<event>
12    2  0.3751044E-008  0.2121528E+04  0.7818608E-02  0.8551819E-01
          1   -1    0    0  501    0  0.00000000000E+00  0.00000000000E+00  0.25301054104E+04  0.25301054104E+04  0.00000000000E+00 0. -1.
         -1   -1    0    0    0  501 -0.00000000000E+00 -0.00000000000E+00 -0.44473275226E+03  0.44473275226E+03  0.00000000000E+00 0.  1.
         23    2    1    2    0    0  0.28818053150E+03  0.81254757901E+03  0.88662708162E+03  0.12418483068E+04  0.11312845972E+03 0.  0.
        254    2    1    2    0    0 -0.28818053150E+03 -0.81254757901E+03  0.11987455765E+04  0.17329898558E+04  0.90718316576E+03 0.  0.
         23    2    4    4    0    0 -0.31239166595E+03 -0.34936753536E+03  0.11652724097E+04  0.12591815163E+04  0.89621841862E+02 0.  0.
         23    2    4    4    0    0  0.24211134441E+02 -0.46318004365E+03  0.33473166806E+02  0.47380833948E+03  0.90840287328E+02 0.  0.
          1    1    3    3  502    0 -0.74453835175E+01  0.72590716706E+01  0.19485814954E+02  0.22086757156E+02  0.00000000000E+00 0. -1.
         -1    1    3    3    0  502  0.29562591502E+03  0.80528850734E+03  0.86714126667E+03  0.12197615497E+04  0.00000000000E+00 0.  1.
         11    1    5    5    0    0 -0.31049744800E+03 -0.34822180831E+03  0.11125667727E+04  0.12064294081E+04  0.00000000000E+00 0. -1.
        -11    1    5    5    0    0 -0.18942179437E+01 -0.11457270545E+01  0.52705636949E+02  0.52752108188E+02  0.00000000000E+00 0.  1.
          3    1    6    6  503    0  0.47566908655E+02 -0.42442560418E+03  0.35169104357E+02  0.42852837734E+03  0.00000000000E+00 0. -1.
         -3    1    6    6    0  503 -0.23355774214E+02 -0.38754439469E+02 -0.16959375512E+01  0.45279962145E+02  0.00000000000E+00 0.  1.
<mgrwt>
<rscale>  0 0.21215285E+04</rscale>
<asrwt>0</asrwt>
<pdfrwt beam="1">  1        1 0.38924698E+00 0.21215285E+04</pdfrwt>
<pdfrwt beam="2">  1       -1 0.68420425E-01 0.21215285E+04</pdfrwt>
<totfact> 0.25629468E+00</totfact>
</mgrwt>
</event>
<event>
12    2  0.3751044E-008  0.1725375E+04  0.7818608E-02  0.8747023E-01
          2   -1    0    0  501    0  0.00000000000E+00  0.00000000000E+00  0.63363909917E+03  0.63363909917E+03  0.00000000000E+00 0. -1.
         -2   -1    0    0    0  501 -0.00000000000E+00 -0.00000000000E+00 -0.11745331055E+04  0.11745331055E+04  0.00000000000E+00 0.  1.
         23    2    1    2    0    0  0.37216661125E+03  0.69538010195E+02  0.31476570609E+03  0.50090266058E+03  0.92100511703E+02 0.  0.
        254    2    1    2    0    0 -0.37216661125E+03 -0.69538010195E+02 -0.85565971245E+03  0.13072695441E+04  0.91293844047E+03 0.  0.
         23    2    4    4    0    0 -0.29578805536E+03 -0.47347321293E+03 -0.52503282313E+03  0.77188723532E+03  0.92103103238E+02 0.  0.
         23    2    4    4    0    0 -0.76378555894E+02  0.40393520273E+03 -0.33062688932E+03  0.53538230881E+03  0.91229078928E+02 0.  0.
          4    1    3    3  502    0  0.26694928498E+03  0.89199969294E+02  0.24483300944E+03  0.37304390865E+03  0.00000000000E+00 0. -1.
         -4    1    3    3    0  502  0.10521732627E+03 -0.19661959099E+02  0.69932696642E+02  0.12785875192E+03  0.00000000000E+00 0.  1.
         11    1    5    5    0    0 -0.20442934103E+03 -0.38890112454E+03 -0.38138432087E+03  0.58179845338E+03  0.00000000000E+00 0. -1.
        -11    1    5    5    0    0 -0.91358714327E+02 -0.84572088381E+02 -0.14364850226E+03  0.19008878194E+03  0.00000000000E+00 0.  1.
          3    1    6    6  503    0 -0.72669214410E+02  0.38240920985E+03 -0.33445829364E+03  0.51320558131E+03  0.00000000000E+00 0. -1.
         -3    1    6    6    0  503 -0.37093414839E+01  0.21525992880E+02  0.38314043200E+01  0.22176727504E+02  0.00000000000E+00 0.  1.
<mgrwt>
<rscale>  0 0.17253754E+04</rscale>
<asrwt>0</asrwt>
<pdfrwt beam="1">  1        2 0.97482939E-01 0.17253754E+04</pdfrwt>
<pdfrwt beam="2">  1       -2 0.18069740E+00 0.17253754E+04</pdfrwt>
<totfact> 0.78952459E+00</totfact>
</mgrwt>
</event>
<event>
12    2  0.3751044E-008  0.1305822E+04  0.7818608E-02  0.9024961E-01
         -2   -1    0    0    0  501 -0.00000000000E+00  0.00000000000E+00  0.56626879296E+03  0.56626879296E+03  0.00000000000E+00 0.  1.
          2   -1    0    0  501    0  0.00000000000E+00 -0.00000000000E+00 -0.75280961436E+03  0.75280961436E+03  0.00000000000E+00 0. -1.
         23    2    1    2    0    0 -0.19278457474E+03  0.26499971545E+03 -0.13112756999E+02  0.34096121036E+03  0.93230151406E+02 0.  0.
        254    2    1    2    0    0  0.19278457474E+03 -0.26499971545E+03 -0.17342806440E+03  0.97811719696E+03  0.90512165813E+03 0.  0.
         23    2    4    4    0    0 -0.17956697897E+02 -0.40631405146E+03  0.24288696730E+03  0.48232652671E+03  0.90726225888E+02 0.  0.
         23    2    4    4    0    0  0.21074127263E+03  0.14131433602E+03 -0.41631503170E+03  0.49579067025E+03  0.90047529293E+02 0.  0.
          4    1    3    3  502    0 -0.12156257616E+03  0.21107813397E+03  0.22877164023E+02  0.24465241302E+03  0.00000000000E+00 0. -1.
         -4    1    3    3    0  502 -0.71221998573E+02  0.53921581478E+02 -0.35989921022E+02  0.96308797339E+02  0.00000000000E+00 0.  1.
         11    1    5    5    0    0  0.29469746238E+02 -0.94245287971E+02  0.36928753723E+02  0.10542472717E+03  0.00000000000E+00 0.  1.
        -11    1    5    5    0    0 -0.47426444135E+02 -0.31206876349E+03  0.20595821358E+03  0.37690179953E+03  0.00000000000E+00 0. -1.
          3    1    6    6  503    0  0.15848178045E+03  0.10968801662E+03 -0.23199040967E+03  0.30160816617E+03  0.00000000000E+00 0. -1.
         -3    1    6    6    0  503  0.52259492183E+02  0.31626319401E+02 -0.18432462204E+03  0.19418250408E+03  0.00000000000E+00 0.  1.
<mgrwt>
<rscale>  0 0.13058217E+04</rscale>
<asrwt>0</asrwt>
<pdfrwt beam="1">  1        2 0.11581686E+00 0.13058217E+04</pdfrwt>
<pdfrwt beam="2">  1       -2 0.87118276E-01 0.13058217E+04</pdfrwt>
<totfact> 0.41661856E+01</totfact>
</mgrwt>
</event>
<event>
12    2  0.3751044E-008  0.1307441E+04  0.7818608E-02  0.9023685E-01
         -2   -1    0    0    0  501 -0.00000000000E+00  0.00000000000E+00  0.49661186609E+03  0.49661186609E+03  0.00000000000E+00 0.  1.
          2   -1    0    0  501    0  0.00000000000E+00 -0.00000000000E+00 -0.86053222516E+03  0.86053222516E+03  0.00000000000E+00 0. -1.
         23    2    1    2    0    0  0.20546628871E+03  0.54951751324E+02  0.16959138975E+03  0.28712640860E+03  0.91892569195E+02 0.  0.
        254    2    1    2    0    0 -0.20546628871E+03 -0.54951751324E+02 -0.53351174882E+03  0.10700176827E+04  0.90281059159E+03 0.  0.
         23    2    4    4    0    0  0.10459093861E+03 -0.25236600676E+03  0.12191490092E+03  0.31307952768E+03  0.92345448050E+02 0.  0.
         23    2    4    4    0    0 -0.31005722732E+03  0.19741425544E+03 -0.65542664974E+03  0.75693815497E+03  0.90903271705E+02 0.  0.
          3    1    3    3  502    0  0.64771601057E+01 -0.15348487302E+02  0.29312463752E+02  0.33715726252E+02  0.00000000000E+00 0. -1.
         -3    1    3    3    0  502  0.19898912860E+03  0.70300238625E+02  0.14027892599E+03  0.25341068235E+03  0.00000000000E+00 0.  1.
         11    1    5    5    0    0  0.27133190498E+02 -0.37689077310E+02  0.61372020871E+02  0.76962338328E+02  0.00000000000E+00 0.  1.
        -11    1    5    5    0    0  0.77457748116E+02 -0.21467692945E+03  0.60542880050E+02  0.23611718935E+03  0.00000000000E+00 0. -1.
          1    1    6    6  503    0 -0.26351803342E+03  0.17989735883E+03 -0.49448757807E+03  0.58849195281E+03  0.00000000000E+00 0. -1.
         -1    1    6    6    0  503 -0.46539193898E+02  0.17516896605E+02 -0.16093907167E+03  0.16844620217E+03  0.00000000000E+00 0.  1.
<mgrwt>
<rscale>  0 0.13074410E+04</rscale>
<asrwt>0</asrwt>
<pdfrwt beam="1">  1        2 0.13238957E+00 0.13074410E+04</pdfrwt>
<pdfrwt beam="2">  1       -2 0.76401827E-01 0.13074410E+04</pdfrwt>
<totfact> 0.46866919E+01</totfact>
</mgrwt>
</event>
<event>
12    2  0.3751044E-008  0.2554457E+04  0.7818608E-02  0.8383838E-01
         -2   -1    0    0    0  501 -0.00000000000E+00  0.00000000000E+00  0.62672420574E+03  0.62672420574E+03  0.00000000000E+00 0.  1.
          2   -1    0    0  501    0  0.00000000000E+00 -0.00000000000E+00 -0.26029192248E+04  0.26029192248E+04  0.00000000000E+00 0. -1.
         23    2    1    2    0    0  0.10320207586E+03  0.58049371708E+03 -0.20616825230E+04  0.21464371440E+04  0.95047164073E+02 0.  0.
        254    2    1    2    0    0 -0.10320207586E+03 -0.58049371708E+03  0.85487503983E+02  0.10832062865E+04  0.90465690832E+03 0.  0.
         23    2    4    4    0    0 -0.12826029350E+03  0.14381235906E+03  0.25758110474E+03  0.33233123924E+03  0.83446567018E+02 0.  0.
         23    2    4    4    0    0  0.25058217645E+02 -0.72430607614E+03 -0.17209360076E+03  0.75087504727E+03  0.94604032563E+02 0.  0.
          2    1    3    3  502    0  0.74523631265E+02  0.54959824651E+03 -0.18939791432E+04  0.19735169113E+04  0.00000000000E+00 0. -1.
         -2    1    3    3    0  502  0.28678444591E+02  0.30895470562E+02 -0.16770337977E+03  0.17292023269E+03  0.00000000000E+00 0.  1.
         11    1    5    5    0    0 -0.99462437312E+02  0.14893782625E+03  0.20543311116E+03  0.27253993411E+03  0.00000000000E+00 0.  1.
        -11    1    5    5    0    0 -0.28797856190E+02 -0.51254671803E+01  0.52147993587E+02  0.59791305138E+02  0.00000000000E+00 0. -1.
          3    1    6    6  503    0  0.17305498302E+01 -0.90226293007E+02  0.98936506531E+01  0.90783605765E+02  0.00000000000E+00 0. -1.
         -3    1    6    6    0  503  0.23327667815E+02 -0.63407978313E+03 -0.18198725141E+03  0.66009144150E+03  0.00000000000E+00 0.  1.
<mgrwt>
<rscale>  0 0.25544569E+04</rscale>
<asrwt>0</asrwt>
<pdfrwt beam="1">  1        2 0.40044911E+00 0.25544569E+04</pdfrwt>
<pdfrwt beam="2">  1       -2 0.96419110E-01 0.25544569E+04</pdfrwt>
<totfact> 0.24222718E+00</totfact>
</mgrwt>
</event>
<event>
12    2  0.3751044E-008  0.1226271E+04  0.7818608E-02  0.9090167E-01
          2   -1    0    0  501    0  0.00000000000E+00  0.00000000000E+00  0.79532451499E+03  0.79532451499E+03  0.00000000000E+00 0. -1.
         -2   -1    0    0    0  501 -0.00000000000E+00 -0.00000000000E+00 -0.47268154566E+03  0.47268154566E+03  0.00000000000E+00 0.  1.
         23    2    1    2    0    0 -0.55770495921E+02  0.12753853438E+03 -0.15872134497E+03  0.22892403359E+03  0.88528649808E+02 0.  0.
        254    2    1    2    0    0  0.55770495921E+02 -0.12753853438E+03  0.48136431431E+03  0.10390820271E+04  0.91027656781E+03 0.  0.
         23    2    4    4    0    0  0.47185153266E+03 -0.62223509867E+02  0.20049495685E+03  0.52473959118E+03  0.92939640502E+02 0.  0.
         23    2    4    4    0    0 -0.41608103674E+03 -0.65315024511E+02  0.28086935746E+03  0.51434243588E+03  0.90945389271E+02 0.  0.
          2    1    3    3  502    0 -0.58388713086E+02  0.99244434723E+02 -0.16363456774E+03  0.20008740940E+03  0.00000000000E+00 0.  1.
         -2    1    3    3    0  502  0.26182171651E+01  0.28294099655E+02  0.49132227728E+01  0.28836624186E+02  0.00000000000E+00 0. -1.
         11    1    5    5    0    0  0.23870982968E+03  0.15118343146E+02  0.10431014932E+03  0.26094358459E+03  0.00000000000E+00 0. -1.
        -11    1    5    5    0    0  0.23314170297E+03 -0.77341853013E+02  0.96184807529E+02  0.26379600659E+03  0.00000000000E+00 0.  1.
          1    1    6    6  503    0 -0.18748461925E+03 -0.73943877873E+02  0.11820890646E+03  0.23364829359E+03  0.00000000000E+00 0. -1.
         -1    1    6    6    0  503 -0.22859641748E+03  0.86288533627E+01  0.16266045100E+03  0.28069414229E+03  0.00000000000E+00 0.  1.
<mgrwt>
<rscale>  0 0.12262711E+04</rscale>
<asrwt>0</asrwt>
<pdfrwt beam="1">  1        2 0.12235762E+00 0.12262711E+04</pdfrwt>
<pdfrwt beam="2">  1       -2 0.72720238E-01 0.12262711E+04</pdfrwt>
<totfact> 0.58491521E+01</totfact>
</mgrwt>
</event>
<event>
12    2  0.3751044E-008  0.3229918E+04  0.7818608E-02  0.8180960E-01
          2   -1    0    0  501    0  0.00000000000E+00  0.00000000000E+00  0.19271916629E+04  0.19271916629E+04  0.00000000000E+00 0. -1.
         -2   -1    0    0    0  501 -0.00000000000E+00 -0.00000000000E+00 -0.13533124301E+04  0.13533124301E+04  0.00000000000E+00 0.  1.
         23    2    1    2    0    0 -0.80461633863E+03  0.83433497359E+03 -0.68640538625E+03  0.13503423069E+04  0.93539783547E+02 0.  0.
        254    2    1    2    0    0  0.80461633863E+03 -0.83433497359E+03  0.12602846191E+04  0.19301617861E+04  0.89088994768E+03 0.  0.
         23    2    4    4    0    0  0.21478774135E+03 -0.28486966394E+03  0.10195292706E+04  0.10839338607E+04  0.90488571067E+02 0.  0.
         23    2    4    4    0    0  0.58982859728E+03 -0.54946530965E+03  0.24075534844E+03  0.84622792536E+03  0.91261509877E+02 0.  0.
          1    1    3    3  502    0 -0.17117773365E+03  0.12781006196E+03 -0.11365116498E+03  0.24197895722E+03  0.00000000000E+00 0. -1.
         -1    1    3    3    0  502 -0.63343860498E+03  0.70652491162E+03 -0.57275422127E+03  0.11083633497E+04  0.00000000000E+00 0.  1.
         11    1    5    5    0    0  0.16988621329E+03 -0.16202416906E+03  0.71338696516E+03  0.75102204954E+03  0.00000000000E+00 0. -1.
        -11    1    5    5    0    0  0.44901528061E+02 -0.12284549488E+03  0.30614230547E+03  0.33291181120E+03  0.00000000000E+00 0.  1.
          3    1    6    6  503    0  0.34714530925E+03 -0.38315154384E+03  0.14998736669E+03  0.53834113854E+03  0.00000000000E+00 0. -1.
         -3    1    6    6    0  503  0.24268328803E+03 -0.16631376580E+03  0.90767981747E+02  0.30788678682E+03  0.00000000000E+00 0.  1.
<mgrwt>
<rscale>  0 0.32299179E+04</rscale>
<asrwt>0</asrwt>
<pdfrwt beam="1">  1        2 0.29649103E+00 0.32299179E+04</pdfrwt>
<pdfrwt beam="2">  1       -2 0.20820191E+00 0.32299179E+04</pdfrwt>
<totfact> 0.72457004E-01</totfact>
</mgrwt>
</event>
<event>
12    2  0.3751044E-008  0.2235987E+04  0.7818608E-02  0.8503597E-01
          1   -1    0    0  501    0  0.00000000000E+00  0.00000000000E+00  0.23381718793E+04  0.23381718793E+04  0.00000000000E+00 0. -1.
         -1   -1    0    0    0  501 -0.00000000000E+00 -0.00000000000E+00 -0.53456704179E+03  0.53456704179E+03  0.00000000000E+00 0.  1.
         23    2    1    2    0    0 -0.80556302106E+03  0.22353339105E+03  0.12767810098E+04  0.15288395041E+04  0.91002882487E+02 0.  0.
        254    2    1    2    0    0  0.80556302106E+03 -0.22353339105E+03  0.52682382772E+03  0.13438994170E+04  0.91083661522E+03 0.  0.
         23    2    4    4    0    0  0.29786847891E+03 -0.41128809102E+03 -0.84264616131E+02  0.52268425712E+03  0.90635437647E+02 0.  0.
         23    2    4    4    0    0  0.50769454215E+03  0.18775469998E+03  0.61108844385E+03  0.82121515984E+03  0.89217022221E+02 0.  0.
          4    1    3    3  502    0 -0.41892008918E+03  0.90517736156E+02  0.58394763012E+03  0.72434959543E+03  0.00000000000E+00 0.  1.
         -4    1    3    3    0  502 -0.38664293188E+03  0.13301565489E+03  0.69283337964E+03  0.80448990868E+03  0.00000000000E+00 0. -1.
         11    1    5    5    0    0  0.16491185163E+03 -0.30049662687E+03 -0.57174727950E+02  0.34750984315E+03  0.00000000000E+00 0. -1.
        -11    1    5    5    0    0  0.13295662728E+03 -0.11079146415E+03 -0.27089888181E+02  0.17517441397E+03  0.00000000000E+00 0.  1.
          2    1    6    6  503    0  0.29689401171E+03  0.15599896483E+03  0.37849607872E+03  0.50570842669E+03  0.00000000000E+00 0.  1.
         -2    1    6    6    0  503  0.21080053043E+03  0.31755735148E+02  0.23259236513E+03  0.31550673315E+03  0.00000000000E+00 0. -1.
<mgrwt>
<rscale>  0 0.22359871E+04</rscale>
<asrwt>0</asrwt>
<pdfrwt beam="1">  1        1 0.35971874E+00 0.22359871E+04</pdfrwt>
<pdfrwt beam="2">  1       -1 0.82241085E-01 0.22359871E+04</pdfrwt>
<totfact> 0.23411931E+00</totfact>
</mgrwt>
</event>
<event>
12    2  0.3751044E-008  0.1288306E+04  0.7818608E-02  0.9038890E-01
          1   -1    0    0  501    0  0.00000000000E+00  0.00000000000E+00  0.11187518562E+04  0.11187518562E+04  0.00000000000E+00 0. -1.
         -1   -1    0    0    0  501 -0.00000000000E+00 -0.00000000000E+00 -0.37088922324E+03  0.37088922324E+03  0.00000000000E+00 0.  1.
         23    2    1    2    0    0 -0.21476361116E+03 -0.74637570356E+02 -0.67380362293E+02  0.25376159870E+03  0.90336372324E+02 0.  0.
        254    2    1    2    0    0  0.21476361116E+03  0.74637570356E+02  0.81524299522E+03  0.12358794807E+04  0.90060134021E+03 0.  0.
         23    2    4    4    0    0 -0.18044264005E+03 -0.54439811796E+01 -0.10463215116E+03  0.22746248284E+03  0.90565505385E+02 0.  0.
         23    2    4    4    0    0  0.39520625121E+03  0.80081551535E+02  0.91987514639E+03  0.10084169979E+04  0.90186034183E+02 0.  0.
          4    1    3    3  502    0 -0.26978347411E+02 -0.42977951621E+02 -0.32216584520E+02  0.60106936976E+02  0.00000000000E+00 0. -1.
         -4    1    3    3    0  502 -0.18778526375E+03 -0.31659618735E+02 -0.35163777773E+02  0.19365466173E+03  0.00000000000E+00 0.  1.
         11    1    5    5    0    0 -0.12393332619E+03 -0.15050204180E+02 -0.21802217958E+02  0.12673324227E+03  0.00000000000E+00 0. -1.
        -11    1    5    5    0    0 -0.56509313853E+02  0.96062230006E+01 -0.82829933204E+02  0.10072924058E+03  0.00000000000E+00 0.  1.
          1    1    6    6  503    0  0.68174426157E+02  0.50483300144E+02  0.18806185703E+03  0.20630942306E+03  0.00000000000E+00 0. -1.
         -1    1    6    6    0  503  0.32703182505E+03  0.29598251392E+02  0.73181328936E+03  0.80210757481E+03  0.00000000000E+00 0.  1.
<mgrwt>
<rscale>  0 0.12883059E+04</rscale>
<asrwt>0</asrwt>
<pdfrwt beam="1">  1        1 0.17211567E+00 0.12883059E+04</pdfrwt>
<pdfrwt beam="2">  1       -1 0.57059881E-01 0.12883059E+04</pdfrwt>
<totfact> 0.37531221E+01</totfact>
</mgrwt>
</event>
<event>
12    2  0.3751044E-008  0.1628636E+04  0.7818608E-02  0.8803147E-01
          2   -1    0    0  501    0  0.00000000000E+00  0.00000000000E+00  0.94621712168E+03  0.94621712168E+03  0.00000000000E+00 0. -1.
         -2   -1    0    0    0  501 -0.00000000000E+00 -0.00000000000E+00 -0.70080496667E+03  0.70080496667E+03  0.00000000000E+00 0.  1.
         23    2    1    2    0    0 -0.23330308709E+03  0.50850552246E+03  0.51865453870E+02  0.56900333219E+03  0.89814085320E+02 0.  0.
        254    2    1    2    0    0  0.23330308709E+03 -0.50850552246E+03  0.19354670114E+03  0.10780187562E+04  0.90091948381E+03 0.  0.
         23    2    4    4    0    0 -0.53293061274E+02 -0.24914089241E+03  0.50566080364E+03  0.57347432042E+03  0.90931915119E+02 0.  0.
         23    2    4    4    0    0  0.28659614837E+03 -0.25936463004E+03 -0.31211410251E+03  0.50454443574E+03  0.87991539830E+02 0.  0.
          4    1    3    3  502    0 -0.96790859664E+02  0.19253653555E+03  0.63346627529E+02  0.22461429886E+03  0.00000000000E+00 0.  1.
         -4    1    3    3    0  502 -0.13651222743E+03  0.31596898691E+03 -0.11481173659E+02  0.34438903333E+03  0.00000000000E+00 0. -1.
         11    1    5    5    0    0  0.22013523410E+02 -0.46179450669E+02  0.66941568794E+02  0.84251471854E+02  0.00000000000E+00 0. -1.
        -11    1    5    5    0    0 -0.75306584684E+02 -0.20296144175E+03  0.43871923485E+03  0.48922284857E+03  0.00000000000E+00 0.  1.
          4    1    6    6  503    0  0.10483810237E+03 -0.90597837139E+02 -0.16769803102E+03  0.21753534290E+03  0.00000000000E+00 0. -1.
         -4    1    6    6    0  503  0.18175804599E+03 -0.16876679290E+03 -0.14441607148E+03  0.28700909284E+03  0.00000000000E+00 0.  1.
<mgrwt>
<rscale>  0 0.16286358E+04</rscale>
<asrwt>0</asrwt>
<pdfrwt beam="1">  1        2 0.14557187E+00 0.16286358E+04</pdfrwt>
<pdfrwt beam="2">  1       -2 0.10781615E+00 0.16286358E+04</pdfrwt>
<totfact> 0.18022266E+01</totfact>
</mgrwt>
</event>
<event>
12    2  0.3751044E-008  0.1732418E+04  0.7818608E-02  0.8743088E-01
          1   -1    0    0  501    0  0.00000000000E+00  0.00000000000E+00  0.13038105484E+04  0.13038105484E+04  0.00000000000E+00 0. -1.
         -1   -1    0    0    0  501 -0.00000000000E+00 -0.00000000000E+00 -0.57548085244E+03  0.57548085244E+03  0.00000000000E+00 0.  1.
         23    2    1    2    0    0  0.59982289835E+03  0.16710120350E+03  0.17046733618E+03  0.65202753453E+03  0.91490280828E+02 0.  0.
        254    2    1    2    0    0 -0.59982289835E+03 -0.16710120350E+03  0.55786235980E+03  0.12272638663E+04  0.89847418634E+03 0.  0.
         23    2    4    4    0    0 -0.75703479276E+03  0.87522069839E+02  0.31036707214E+03  0.82862863623E+03  0.97651969548E+02 0.  0.
         23    2    4    4    0    0  0.15721189442E+03 -0.25462327334E+03  0.24749528766E+03  0.39863523010E+03  0.90041869076E+02 0.  0.
          2    1    3    3  502    0  0.52741463661E+03  0.14568108078E+03  0.11708010290E+03  0.55955064713E+03  0.00000000000E+00 0.  1.
         -2    1    3    3    0  502  0.72408261731E+02  0.21420122718E+02  0.53387233286E+02  0.92476887394E+02  0.00000000000E+00 0. -1.
         11    1    5    5    0    0 -0.11364768537E+03  0.38872992707E+02  0.76109986046E+02  0.14219576621E+03  0.00000000000E+00 0. -1.
        -11    1    5    5    0    0 -0.64338710739E+03  0.48649077132E+02  0.23425708609E+03  0.68643287002E+03  0.00000000000E+00 0.  1.
          1    1    6    6  503    0  0.16855613187E+02 -0.10533075398E+03  0.70461007087E+02  0.12784143675E+03  0.00000000000E+00 0. -1.
         -1    1    6    6    0  503  0.14035628123E+03 -0.14929251936E+03  0.17703428058E+03  0.27079379335E+03  0.00000000000E+00 0.  1.
<mgrwt>
<rscale>  0 0.17324180E+04</rscale>
<asrwt>0</asrwt>
<pdfrwt beam="1">  1        1 0.20058624E+00 0.17324180E+04</pdfrwt>
<pdfrwt beam="2">  1       -1 0.88535516E-01 0.17324180E+04</pdfrwt>
<totfact> 0.10684780E+01</totfact>
</mgrwt>
</event>
<event>
12    2  0.3751044E-008  0.1319697E+04  0.7818608E-02  0.9014090E-01
          2   -1    0    0  501    0  0.00000000000E+00  0.00000000000E+00  0.31910323079E+04  0.31910323079E+04  0.00000000000E+00 0. -1.
         -2   -1    0    0    0  501 -0.00000000000E+00 -0.00000000000E+00 -0.13644486436E+03  0.13644486436E+03  0.00000000000E+00 0.  1.
         23    2    1    2    0    0 -0.32254674896E+03  0.31157736374E+02  0.51784794543E+03  0.61758500200E+03  0.90760841268E+02 0.  0.
        254    2    1    2    0    0  0.32254674896E+03 -0.31157736374E+02  0.25367394981E+04  0.27098921703E+04  0.89635990725E+03 0.  0.
         23    2    4    4    0    0  0.41726163753E+03  0.29697100306E+03  0.93583766334E+03  0.10704576398E+04  0.88251774658E+02 0.  0.
         23    2    4    4    0    0 -0.94714888566E+02 -0.32812873944E+03  0.16009018348E+04  0.16394345304E+04  0.90661542089E+02 0.  0.
          3    1    3    3  502    0 -0.17422043284E+03 -0.11168671016E+02  0.20867912287E+03  0.27207439195E+03  0.00000000000E+00 0. -1.
         -3    1    3    3    0  502 -0.14832631612E+03  0.42326407390E+02  0.30916882256E+03  0.34551061005E+03  0.00000000000E+00 0.  1.
         11    1    5    5    0    0  0.34532925192E+03  0.25704785769E+03  0.84195850858E+03  0.94563207620E+03  0.00000000000E+00 0.  1.
        -11    1    5    5    0    0  0.71932385610E+02  0.39923145372E+02  0.93879154754E+02  0.12482556362E+03  0.00000000000E+00 0. -1.
          3    1    6    6  503    0  0.97361402263E+01 -0.16095085716E+02  0.39677914900E+02  0.43911059444E+02  0.00000000000E+00 0. -1.
         -3    1    6    6    0  503 -0.10445102879E+03 -0.31203365372E+03  0.15612239199E+04  0.15955234710E+04  0.00000000000E+00 0.  1.
<mgrwt>
<rscale>  0 0.13196969E+04</rscale>
<asrwt>0</asrwt>
<pdfrwt beam="1">  1        2 0.49092799E+00 0.13196969E+04</pdfrwt>
<pdfrwt beam="2">  1       -2 0.20991520E-01 0.13196969E+04</pdfrwt>
<totfact> 0.25607544E+01</totfact>
</mgrwt>
</event>
<event>
12    2  0.3751044E-008  0.1218504E+04  0.7818608E-02  0.9096812E-01
          1   -1    0    0  501    0  0.00000000000E+00  0.00000000000E+00  0.13560894180E+04  0.13560894180E+04  0.00000000000E+00 0. -1.
         -1   -1    0    0    0  501 -0.00000000000E+00 -0.00000000000E+00 -0.27371945568E+03  0.27371945568E+03  0.00000000000E+00 0.  1.
         23    2    1    2    0    0 -0.18969433107E+03 -0.87447184919E+01  0.18756898191E+01  0.21209245689E+03  0.94441954210E+02 0.  0.
        254    2    1    2    0    0  0.18969433107E+03  0.87447184919E+01  0.10804942725E+04  0.14177164168E+04  0.89799307136E+03 0.  0.
         23    2    4    4    0    0 -0.20769084311E+03 -0.31460963507E+03  0.56031494181E+03  0.68198618619E+03  0.95066373390E+02 0.  0.
         23    2    4    4    0    0  0.39738517418E+03  0.32335435356E+03  0.52017933072E+03  0.73573023063E+03  0.90771259400E+02 0.  0.
          2    1    3    3  502    0 -0.93279647868E+02  0.39782700080E+02 -0.16064233030E+02  0.10267334374E+03  0.00000000000E+00 0.  1.
         -2    1    3    3    0  502 -0.96414683206E+02 -0.48527418572E+02  0.17939922849E+02  0.10941911315E+03  0.00000000000E+00 0. -1.
         11    1    5    5    0    0 -0.16969043579E+02 -0.62808553662E+01  0.69329227337E+02  0.71651513224E+02  0.00000000000E+00 0.  1.
        -11    1    5    5    0    0 -0.19072179953E+03 -0.30832877970E+03  0.49098571448E+03  0.61033467297E+03  0.00000000000E+00 0. -1.
          4    1    6    6  503    0  0.23577206809E+03  0.24730090365E+03  0.34313519824E+03  0.48423957842E+03  0.00000000000E+00 0. -1.
         -4    1    6    6    0  503  0.16161310610E+03  0.76053449904E+02  0.17704413249E+03  0.25149065222E+03  0.00000000000E+00 0.  1.
<mgrwt>
<rscale>  0 0.12185041E+04</rscale>
<asrwt>0</asrwt>
<pdfrwt beam="1">  1        1 0.20862914E+00 0.12185041E+04</pdfrwt>
<pdfrwt beam="2">  1       -1 0.42110686E-01 0.12185041E+04</pdfrwt>
<totfact> 0.45170439E+01</totfact>
</mgrwt>
</event>
<event>
12    2  0.3751044E-008  0.1187956E+04  0.7818608E-02  0.9123464E-01
         -2   -1    0    0    0  501 -0.00000000000E+00  0.00000000000E+00  0.84095038657E+02  0.84095038657E+02  0.00000000000E+00 0.  1.
          2   -1    0    0  501    0  0.00000000000E+00 -0.00000000000E+00 -0.41953742033E+04  0.41953742033E+04  0.00000000000E+00 0. -1.
         23    2    1    2    0    0  0.14144361259E+02  0.17007271788E+03 -0.14911214662E+04  0.15038414777E+04  0.94716265184E+02 0.  0.
        254    2    1    2    0    0 -0.14144361259E+02 -0.17007271788E+03 -0.26201576985E+04  0.27756277642E+04  0.89986572802E+03 0.  0.
         23    2    4    4    0    0  0.26275859014E+03 -0.43617626179E+03 -0.16170862488E+04  0.16980406382E+04  0.95300917364E+02 0.  0.
         23    2    4    4    0    0 -0.27690295140E+03  0.26610354391E+03 -0.10030714497E+04  0.10775871261E+04  0.86921461782E+02 0.  0.
          1    1    3    3  502    0  0.20125483475E+01  0.34547189264E+02 -0.71829241855E+03  0.71912555036E+03  0.00000000000E+00 0. -1.
         -1    1    3    3    0  502  0.12131812911E+02  0.13552552862E+03 -0.77282904764E+03  0.78471592737E+03  0.00000000000E+00 0.  1.
         11    1    5    5    0    0  0.47620581556E+02 -0.25233621805E+02 -0.18685073902E+03  0.19446761718E+03  0.00000000000E+00 0. -1.
        -11    1    5    5    0    0  0.21513800858E+03 -0.41094263998E+03 -0.14302355098E+04  0.15035730210E+04  0.00000000000E+00 0.  1.
          1    1    6    6  503    0 -0.43969847918E+02  0.57817488472E+01 -0.10613330868E+03  0.11502632463E+03  0.00000000000E+00 0. -1.
         -1    1    6    6    0  503 -0.23293310348E+03  0.26032179506E+03 -0.89693814099E+03  0.96256080143E+03  0.00000000000E+00 0.  1.
<mgrwt>
<rscale>  0 0.11879565E+04</rscale>
<asrwt>0</asrwt>
<pdfrwt beam="1">  1        2 0.64544232E+00 0.11879565E+04</pdfrwt>
<pdfrwt beam="2">  1       -2 0.12937696E-01 0.11879565E+04</pdfrwt>
<totfact> 0.10943660E+01</totfact>
</mgrwt>
</event>
<event>
12    2  0.3751044E-008  0.1534920E+04  0.7818608E-02  0.8861558E-01
         -1   -1    0    0    0  501 -0.00000000000E+00  0.00000000000E+00  0.56786052638E+03  0.56786052638E+03  0.00000000000E+00 0.  1.
          1   -1    0    0  501    0  0.00000000000E+00 -0.00000000000E+00 -0.10372169776E+04  0.10372169776E+04  0.00000000000E+00 0. -1.
         23    2    1    2    0    0 -0.10457659353E+03  0.45741337876E+03  0.33352177736E+02  0.47932014380E+03  0.92044388793E+02 0.  0.
        254    2    1    2    0    0  0.10457659353E+03 -0.45741337876E+03 -0.50270862893E+03  0.11257573602E+04  0.89131947436E+03 0.  0.
         23    2    4    4    0    0 -0.28954292368E+03 -0.38701990312E+03 -0.20432087852E+02  0.49222854875E+03  0.90840321057E+02 0.  0.
         23    2    4    4    0    0  0.39411951721E+03 -0.70393475641E+02 -0.48227654108E+03  0.63352881141E+03  0.92101343912E+02 0.  0.
          1    1    3    3  502    0 -0.34070993484E+02  0.53813466803E+02 -0.18537752292E+02  0.66335285229E+02  0.00000000000E+00 0. -1.
         -1    1    3    3    0  502 -0.70505600048E+02  0.40359991196E+03  0.51889930028E+02  0.41298485857E+03  0.00000000000E+00 0.  1.
         11    1    5    5    0    0 -0.22968078327E+03 -0.29948957978E+03  0.21881284331E+02  0.37805563243E+03  0.00000000000E+00 0. -1.
        -11    1    5    5    0    0 -0.59862140404E+02 -0.87530323336E+02 -0.42313372183E+02  0.11417291633E+03  0.00000000000E+00 0.  1.
          2    1    6    6  503    0  0.17564022793E+03  0.48984115006E+01 -0.16516580930E+03  0.24114980544E+03  0.00000000000E+00 0.  1.
         -2    1    6    6    0  503  0.21847928928E+03 -0.75291887142E+02 -0.31711073178E+03  0.39237900597E+03  0.00000000000E+00 0. -1.
<mgrwt>
<rscale>  0 0.15349196E+04</rscale>
<asrwt>0</asrwt>
<pdfrwt beam="1">  1        1 0.15957184E+00 0.15349196E+04</pdfrwt>
<pdfrwt beam="2">  1       -1 0.87363158E-01 0.15349196E+04</pdfrwt>
<totfact> 0.17613989E+01</totfact>
</mgrwt>
</event>
<event>
12    2  0.3751044E-008  0.1474952E+04  0.7818608E-02  0.8901282E-01
          2   -1    0    0  501    0  0.00000000000E+00  0.00000000000E+00  0.19015627827E+04  0.19015627827E+04  0.00000000000E+00 0.  1.
         -2   -1    0    0    0  501 -0.00000000000E+00 -0.00000000000E+00 -0.28601260226E+03  0.28601260226E+03  0.00000000000E+00 0. -1.
         23    2    1    2    0    0  0.29344649182E+03  0.32106078056E+03  0.73026005200E+03  0.85493427803E+03  0.91880399566E+02 0.  0.
        254    2    1    2    0    0 -0.29344649182E+03 -0.32106078056E+03  0.88529012846E+03  0.13326411069E+04  0.89610425732E+03 0.  0.
         23    2    4    4    0    0 -0.44901901535E+03 -0.47998154643E+03  0.86674959819E+03  0.10916348823E+04  0.91714171681E+02 0.  0.
         23    2    4    4    0    0  0.15557252353E+03  0.15892076587E+03  0.18540530273E+02  0.24100622462E+03  0.91003456751E+02 0.  0.
          3    1    3    3  502    0  0.13468908970E+03  0.10226086543E+03  0.34594695320E+03  0.38506847432E+03  0.00000000000E+00 0. -1.
         -3    1    3    3    0  502  0.15875740212E+03  0.21879991514E+03  0.38431309880E+03  0.46986580371E+03  0.00000000000E+00 0.  1.
         11    1    5    5    0    0 -0.31071624018E+03 -0.36820755248E+03  0.68401109629E+03  0.83665558234E+03  0.00000000000E+00 0. -1.
        -11    1    5    5    0    0 -0.13830277517E+03 -0.11177399395E+03  0.18273850190E+03  0.25497929999E+03  0.00000000000E+00 0.  1.
          3    1    6    6  503    0  0.77800027197E+02  0.13250112523E+03  0.34140109248E+02  0.15740057014E+03  0.00000000000E+00 0. -1.
         -3    1    6    6    0  503  0.77772496333E+02  0.26419640635E+02 -0.15599578975E+02  0.83605654482E+02  0.00000000000E+00 0.  1.
<mgrwt>
<rscale>  0 0.14749521E+04</rscale>
<asrwt>0</asrwt>
<pdfrwt beam="1">  1        2 0.29254811E+00 0.14749521E+04</pdfrwt>
<pdfrwt beam="2">  1       -2 0.44001940E-01 0.14749521E+04</pdfrwt>
<totfact> 0.35936195E+01</totfact>
</mgrwt>
</event>
<event>
12    2  0.3751044E-008  0.1516184E+04  0.7818608E-02  0.8873762E-01
          2   -1    0    0  501    0  0.00000000000E+00  0.00000000000E+00  0.27572799045E+04  0.27572799045E+04  0.00000000000E+00 0. -1.
         -2   -1    0    0    0  501 -0.00000000000E+00 -0.00000000000E+00 -0.20843127393E+03  0.20843127393E+03  0.00000000000E+00 0.  1.
         23    2    1    2    0    0  0.10303633640E+03 -0.37714951451E+03  0.14245865711E+04  0.14803078446E+04  0.94900860222E+02 0.  0.
        254    2    1    2    0    0 -0.10303633640E+03  0.37714951451E+03  0.11242620595E+04  0.14854033339E+04  0.88859419476E+03 0.  0.
         23    2    4    4    0    0 -0.18522831805E+03 -0.13843710349E+03  0.72610453684E+01  0.24917360877E+03  0.92522446459E+02 0.  0.
         23    2    4    4    0    0  0.82191981643E+02  0.51558661799E+03  0.11170010142E+04  0.12362297251E+04  0.89373291114E+02 0.  0.
          1    1    3    3  502    0  0.23547227335E+02 -0.25719406690E+03  0.89520194339E+03  0.93171335690E+03  0.00000000000E+00 0. -1.
         -1    1    3    3    0  502  0.79489109068E+02 -0.11995544761E+03  0.52938462768E+03  0.54859448766E+03  0.00000000000E+00 0.  1.
         11    1    5    5    0    0 -0.13325168121E+03 -0.44090850963E+02  0.15132628520E+02  0.14117014603E+03  0.00000000000E+00 0. -1.
        -11    1    5    5    0    0 -0.51976636834E+02 -0.94346252525E+02 -0.78715831520E+01  0.10800346274E+03  0.00000000000E+00 0.  1.
          1    1    6    6  503    0  0.11769459874E+02  0.45630878638E+02  0.17390600678E+03  0.18017768026E+03  0.00000000000E+00 0. -1.
         -1    1    6    6    0  503  0.70422521769E+02  0.46995573936E+03  0.94309500739E+03  0.10560520449E+04  0.00000000000E+00 0.  1.
<mgrwt>
<rscale>  0 0.15161838E+04</rscale>
<asrwt>0</asrwt>
<pdfrwt beam="1">  1        2 0.42419688E+00 0.15161838E+04</pdfrwt>
<pdfrwt beam="2">  1       -2 0.32066352E-01 0.15161838E+04</pdfrwt>
<totfact> 0.21527623E+01</totfact>
</mgrwt>
</event>
<event>
12    2  0.3751044E-008  0.1265473E+04  0.7818608E-02  0.9057403E-01
          1   -1    0    0  501    0  0.00000000000E+00  0.00000000000E+00  0.11126807866E+04  0.11126807866E+04  0.00000000000E+00 0. -1.
         -1   -1    0    0    0  501 -0.00000000000E+00 -0.00000000000E+00 -0.35981142226E+03  0.35981142226E+03  0.00000000000E+00 0.  1.
         23    2    1    2    0    0 -0.27862431593E+03  0.93624794939E+02  0.26163687822E+03  0.40386999614E+03  0.90884575639E+02 0.  0.
        254    2    1    2    0    0  0.27862431593E+03 -0.93624794939E+02  0.49123248615E+03  0.10686222127E+04  0.90235634117E+03 0.  0.
         23    2    4    4    0    0 -0.19714170459E+03 -0.34155797081E+03  0.20962163626E+03  0.45588704783E+03  0.91460761432E+02 0.  0.
         23    2    4    4    0    0  0.47576602051E+03  0.24793317587E+03  0.28161084989E+03  0.61273516490E+03  0.91189613221E+02 0.  0.
          1    1    3    3  502    0 -0.22421702438E+03  0.11115218016E+03  0.21915579047E+03  0.33265198281E+03  0.00000000000E+00 0. -1.
         -1    1    3    3    0  502 -0.54407291551E+02 -0.17527385218E+02  0.42481087751E+02  0.71218013332E+02  0.00000000000E+00 0.  1.
         11    1    5    5    0    0 -0.77118425186E+02 -0.22362557824E+03  0.12028571816E+03  0.26537578025E+03  0.00000000000E+00 0. -1.
        -11    1    5    5    0    0 -0.12002327940E+03 -0.11793239257E+03  0.89335918102E+02  0.19051126759E+03  0.00000000000E+00 0.  1.
          4    1    6    6  503    0  0.80500401894E+02  0.32505005996E+02  0.85045577596E+02  0.12153040932E+03  0.00000000000E+00 0. -1.
         -4    1    6    6    0  503  0.39526561862E+03  0.21542816988E+03  0.19656527229E+03  0.49120475559E+03  0.00000000000E+00 0.  1.
<mgrwt>
<rscale>  0 0.12654726E+04</rscale>
<asrwt>0</asrwt>
<pdfrwt beam="1">  1        1 0.17118166E+00 0.12654726E+04</pdfrwt>
<pdfrwt beam="2">  1       -1 0.55355604E-01 0.12654726E+04</pdfrwt>
<totfact> 0.40306240E+01</totfact>
</mgrwt>
</event>
<event>
12    2  0.3751044E-008  0.1818781E+04  0.7818608E-02  0.8696375E-01
          2   -1    0    0  501    0  0.00000000000E+00  0.00000000000E+00  0.21043736603E+04  0.21043736603E+04  0.00000000000E+00 0. -1.
         -2   -1    0    0    0  501 -0.00000000000E+00 -0.00000000000E+00 -0.39298672549E+03  0.39298672549E+03  0.00000000000E+00 0.  1.
         23    2    1    2    0    0  0.39741259669E+03  0.46738364465E+03  0.24172433502E+03  0.66575231057E+03  0.91712821263E+02 0.  0.
        254    2    1    2    0    0 -0.39741259669E+03 -0.46738364465E+03  0.14696625998E+04  0.18316080752E+04  0.90470754431E+03 0.  0.
         23    2    4    4    0    0 -0.25223505379E+03  0.24067057750E+03  0.41482794325E+03  0.54968144860E+03  0.92318054576E+02 0.  0.
         23    2    4    4    0    0 -0.14517754291E+03 -0.70805422215E+03  0.10548346566E+04  0.12819266266E+04  0.90787790728E+02 0.  0.
          4    1    3    3  502    0  0.31675366594E+02  0.10501807503E+02  0.24908271560E+02  0.41641791529E+02  0.00000000000E+00 0.  1.
         -4    1    3    3    0  502  0.36573723010E+03  0.45688183715E+03  0.21681606346E+03  0.62411051904E+03  0.00000000000E+00 0. -1.
         11    1    5    5    0    0 -0.23977910737E+03  0.24830156062E+03  0.38947577152E+03  0.52042200370E+03  0.00000000000E+00 0. -1.
        -11    1    5    5    0    0 -0.12455946420E+02 -0.76309831137E+01  0.25352171726E+02  0.29259444898E+02  0.00000000000E+00 0.  1.
          3    1    6    6  503    0 -0.12136287411E+03 -0.63066446532E+03  0.88184739054E+03  0.10909268698E+04  0.00000000000E+00 0. -1.
         -3    1    6    6    0  503 -0.23814668797E+02 -0.77389756834E+02  0.17298726603E+03  0.19099975686E+03  0.00000000000E+00 0.  1.
<mgrwt>
<rscale>  0 0.18187808E+04</rscale>
<asrwt>0</asrwt>
<pdfrwt beam="1">  1        2 0.32374979E+00 0.18187808E+04</pdfrwt>
<pdfrwt beam="2">  1       -2 0.60459498E-01 0.18187808E+04</pdfrwt>
<totfact> 0.14037527E+01</totfact>
</mgrwt>
</event>
<event>
12    2  0.3751044E-008  0.1656318E+04  0.7818608E-02  0.8786678E-01
         -2   -1    0    0    0  501 -0.00000000000E+00  0.00000000000E+00  0.45388054444E+03  0.45388054444E+03  0.00000000000E+00 0.  1.
          2   -1    0    0  501    0  0.00000000000E+00 -0.00000000000E+00 -0.15110744460E+04  0.15110744460E+04  0.00000000000E+00 0. -1.
         23    2    1    2    0    0  0.36250244646E+03 -0.19822088485E+03 -0.85917521656E+03  0.95950617561E+03  0.10849196011E+03 0.  0.
        254    2    1    2    0    0 -0.36250244646E+03  0.19822088485E+03 -0.19801868496E+03  0.10054488148E+04  0.89499518249E+03 0.  0.
         23    2    4    4    0    0  0.15555153605E+02  0.28847338496E+03  0.25836855143E+03  0.39792776538E+03  0.90185040109E+02 0.  0.
         23    2    4    4    0    0 -0.37805760006E+03 -0.90252500109E+02 -0.45638723639E+03  0.60752104940E+03  0.98587287118E+02 0.  0.
          1    1    3    3  502    0  0.22163004317E+03 -0.17919538694E+03 -0.57508691091E+03  0.64183784388E+03  0.00000000000E+00 0. -1.
         -1    1    3    3    0  502  0.14087240329E+03 -0.19025497910E+02 -0.28408830565E+03  0.31766833173E+03  0.00000000000E+00 0.  1.
         11    1    5    5    0    0  0.58005145658E+01  0.10775935386E+03  0.41878281367E+02  0.11575627311E+03  0.00000000000E+00 0.  1.
        -11    1    5    5    0    0  0.97546390389E+01  0.18071403110E+03  0.21649027006E+03  0.28217149227E+03  0.00000000000E+00 0. -1.
          3    1    6    6  503    0 -0.11544420616E+03  0.10342933459E+02 -0.96707365323E+02  0.15095249424E+03  0.00000000000E+00 0. -1.
         -3    1    6    6    0  503 -0.26261339390E+03 -0.10059543357E+03 -0.35967987107E+03  0.45656855517E+03  0.00000000000E+00 0.  1.
<mgrwt>
<rscale>  0 0.16563180E+04</rscale>
<asrwt>0</asrwt>
<pdfrwt beam="1">  1        2 0.23247299E+00 0.16563180E+04</pdfrwt>
<pdfrwt beam="2">  1       -2 0.69827775E-01 0.16563180E+04</pdfrwt>
<totfact> 0.22326073E+01</totfact>
</mgrwt>
</event>
<event>
12    2  0.3751044E-008  0.1115326E+04  0.7818608E-02  0.9190381E-01
         -2   -1    0    0    0  501 -0.00000000000E+00  0.00000000000E+00  0.36444131702E+03  0.36444131702E+03  0.00000000000E+00 0.  1.
          2   -1    0    0  501    0  0.00000000000E+00 -0.00000000000E+00 -0.85332864646E+03  0.85332864646E+03  0.00000000000E+00 0. -1.
         23    2    1    2    0    0  0.25786133852E+02  0.12844471257E+03  0.23477351835E+02  0.16166483136E+03  0.91767983320E+02 0.  0.
        254    2    1    2    0    0 -0.25786133852E+02 -0.12844471257E+03 -0.51236468127E+03  0.10561051321E+04  0.91415398845E+03 0.  0.
         23    2    4    4    0    0 -0.10151021185E+03 -0.49768573092E+03 -0.39240228273E+03  0.64818221192E+03  0.90361598532E+02 0.  0.
         23    2    4    4    0    0  0.75724077996E+02  0.36924101835E+03 -0.11996239854E+03  0.40792292021E+03  0.99684834083E+02 0.  0.
          2    1    3    3  502    0 -0.53227467319E+01 -0.11232830061E+02 -0.84707309165E+01  0.15041987442E+02  0.00000000000E+00 0. -1.
         -2    1    3    3    0  502  0.31108880584E+02  0.13967754263E+03  0.31948082752E+02  0.14662284391E+03  0.00000000000E+00 0.  1.
         11    1    5    5    0    0 -0.44083299545E+02 -0.33261202389E+03 -0.30195697710E+03  0.45138909131E+03  0.00000000000E+00 0.  1.
        -11    1    5    5    0    0 -0.57426912304E+02 -0.16507370703E+03 -0.90445305628E+02  0.19679312061E+03  0.00000000000E+00 0. -1.
          3    1    6    6  503    0  0.75831209101E+02  0.29386004098E+03 -0.13312622186E+03  0.33140109671E+03  0.00000000000E+00 0. -1.
         -3    1    6    6    0  503 -0.10713110438E+00  0.75380977370E+02  0.13163823314E+02  0.76521823492E+02  0.00000000000E+00 0.  1.
<mgrwt>
<rscale>  0 0.11153263E+04</rscale>
<asrwt>0</asrwt>
<pdfrwt beam="1">  1        2 0.13128133E+00 0.11153263E+04</pdfrwt>
<pdfrwt beam="2">  1       -2 0.56067896E-01 0.11153263E+04</pdfrwt>
<totfact> 0.93548034E+01</totfact>
</mgrwt>
</event>
<event>
12    2  0.4142556E-008  0.1548247E+04  0.7818608E-02  0.8852988E-01
          1   -1    0    0  501    0  0.00000000000E+00  0.00000000000E+00  0.20517940152E+04  0.20517940152E+04  0.00000000000E+00 0. -1.
         -1   -1    0    0    0  501 -0.00000000000E+00 -0.00000000000E+00 -0.29206972473E+03  0.29206972473E+03  0.00000000000E+00 0.  1.
         23    2    1    2    0    0 -0.14015910373E+03  0.14285471947E+02  0.13149627256E+04  0.13261503931E+04  0.98484751775E+02 0.  0.
        254    2    1    2    0    0  0.14015910373E+03 -0.14285471947E+02  0.44476156485E+03  0.10177133468E+04  0.90447717365E+03 0.  0.
         23    2    4    4    0    0 -0.35537918652E+02 -0.72993572212E+02 -0.25805328576E+03  0.28502708088E+03  0.89765991866E+02 0.  0.
         23    2    4    4    0    0  0.17569702238E+03  0.58708100266E+02  0.70281485062E+03  0.73268626594E+03  0.92543856301E+02 0.  0.
          3    1    3    3  502    0 -0.14390032857E+03  0.26216748531E+02  0.12896442590E+04  0.12979125306E+04  0.00000000000E+00 0. -1.
         -3    1    3    3    0  502  0.37412248367E+01 -0.11931276584E+02  0.25318466581E+02  0.28237862423E+02  0.00000000000E+00 0.  1.
         11    1    5    5    0    0 -0.15088539304E+02 -0.91259667252E+02 -0.18149458896E+03  0.20370634920E+03  0.00000000000E+00 0.  1.
        -11    1    5    5    0    0 -0.20449379348E+02  0.18266095040E+02 -0.76558696807E+02  0.81320731677E+02  0.00000000000E+00 0. -1.
          1    1    6    6  503    0  0.32424157560E+02  0.42038800833E+02  0.10427916803E+03  0.11701594615E+03  0.00000000000E+00 0. -1.
         -1    1    6    6    0  503  0.14327286482E+03  0.16669299433E+02  0.59853568259E+03  0.61567031979E+03  0.00000000000E+00 0.  1.
<mgrwt>
<rscale>  0 0.15482466E+04</rscale>
<asrwt>0</asrwt>
<pdfrwt beam="1">  1        1 0.31566061E+00 0.15482466E+04</pdfrwt>
<pdfrwt beam="2">  1       -1 0.44933805E-01 0.15482466E+04</pdfrwt>
<totfact> 0.13012961E+01</totfact>
</mgrwt>
</event>
<event>
12    2  0.3751044E-008  0.1135948E+04  0.7818608E-02  0.9170846E-01
          2   -1    0    0  501    0  0.00000000000E+00  0.00000000000E+00  0.12562568627E+04  0.12562568627E+04  0.00000000000E+00 0. -1.
         -2   -1    0    0    0  501 -0.00000000000E+00 -0.00000000000E+00 -0.25679024504E+03  0.25679024504E+03  0.00000000000E+00 0.  1.
         23    2    1    2    0    0 -0.29139029237E+02 -0.79451798245E+02  0.43215350245E+03  0.44950686746E+03  0.90211434652E+02 0.  0.
        254    2    1    2    0    0  0.29139029237E+02  0.79451798245E+02  0.56731311525E+03  0.10635402403E+04  0.89560705712E+03 0.  0.
         23    2    4    4    0    0  0.31627521836E+03 -0.20577775599E+03  0.51580569437E+03  0.64546965707E+03  0.90559733001E+02 0.  0.
         23    2    4    4    0    0 -0.28713618912E+03  0.28522955423E+03  0.51507420872E+02  0.41807058325E+03  0.91251895648E+02 0.  0.
          4    1    3    3  502    0 -0.16351924389E+02 -0.35712371113E+02  0.45209506257E+02  0.59888716281E+02  0.00000000000E+00 0.  1.
         -4    1    3    3    0  502 -0.12787104848E+02 -0.43739427132E+02  0.38694399620E+03  0.38961815118E+03  0.00000000000E+00 0. -1.
         11    1    5    5    0    0  0.11537998390E+03 -0.30675900448E+02  0.19212370820E+03  0.22619697347E+03  0.00000000000E+00 0.  1.
        -11    1    5    5    0    0  0.20089523446E+03 -0.17510185554E+03  0.32368198617E+03  0.41927268360E+03  0.00000000000E+00 0. -1.
          3    1    6    6  503    0 -0.18048292224E+03  0.15008797791E+03 -0.10804192516E+02  0.23498343965E+03  0.00000000000E+00 0.  1.
         -3    1    6    6    0  503 -0.10665326689E+03  0.13514157632E+03  0.62311613388E+02  0.18308714360E+03  0.00000000000E+00 0. -1.
<mgrwt>
<rscale>  0 0.11359481E+04</rscale>
<asrwt>0</asrwt>
<pdfrwt beam="1">  1        2 0.19327028E+00 0.11359481E+04</pdfrwt>
<pdfrwt beam="2">  1       -2 0.39506192E-01 0.11359481E+04</pdfrwt>
<totfact> 0.10521291E+02</totfact>
</mgrwt>
</event>
<event>
12    2  0.3751044E-008  0.2521346E+04  0.7818608E-02  0.8395420E-01
          2   -1    0    0  501    0  0.00000000000E+00  0.00000000000E+00  0.42440922947E+03  0.42440922947E+03  0.00000000000E+00 0. -1.
         -2   -1    0    0    0  501 -0.00000000000E+00 -0.00000000000E+00 -0.37447258759E+04  0.37447258759E+04  0.00000000000E+00 0.  1.
         23    2    1    2    0    0  0.11449848088E+03 -0.74662686228E+03 -0.27792559354E+04  0.28815229194E+04  0.91373992923E+02 0.  0.
        254    2    1    2    0    0 -0.11449848088E+03  0.74662686228E+03 -0.54106071097E+03  0.12876121860E+04  0.89142407130E+03 0.  0.
         23    2    4    4    0    0 -0.37925285135E+03  0.21453871442E+03  0.45136161296E+02  0.44768467935E+03  0.92329376802E+02 0.  0.
         23    2    4    4    0    0  0.26475437048E+03  0.53208814787E+03 -0.58619687227E+03  0.83992750662E+03  0.92944981241E+02 0.  0.
          4    1    3    3  502    0  0.71608075086E+02 -0.29066474350E+03 -0.96566673315E+03  0.10110024476E+04  0.00000000000E+00 0. -1.
         -4    1    3    3    0  502  0.42890405792E+02 -0.45596211879E+03 -0.18135892023E+04  0.18705204718E+04  0.00000000000E+00 0.  1.
         11    1    5    5    0    0 -0.20721304548E+03  0.16256397821E+03  0.49162245987E+02  0.26792017405E+03  0.00000000000E+00 0.  1.
        -11    1    5    5    0    0 -0.17203980587E+03  0.51974736205E+02 -0.40260846910E+01  0.17976450530E+03  0.00000000000E+00 0. -1.
          4    1    6    6  503    0 -0.57282064457E+01  0.24520248486E+02 -0.14843470758E+02  0.29229840216E+02  0.00000000000E+00 0. -1.
         -4    1    6    6    0  503  0.27048257692E+03  0.50756789938E+03 -0.57135340151E+03  0.81069766640E+03  0.00000000000E+00 0.  1.
<mgrwt>
<rscale>  0 0.25213458E+04</rscale>
<asrwt>0</asrwt>
<pdfrwt beam="1">  1        2 0.65293727E-01 0.25213458E+04</pdfrwt>
<pdfrwt beam="2">  1       -2 0.57611168E+00 0.25213458E+04</pdfrwt>
<totfact> 0.41703022E-02</totfact>
</mgrwt>
</event>
<event>
12    2  0.3751044E-008  0.2255175E+04  0.7818608E-02  0.8495808E-01
          1   -1    0    0  501    0  0.00000000000E+00  0.00000000000E+00  0.23888623999E+04  0.23888623999E+04  0.00000000000E+00 0. -1.
         -1   -1    0    0    0  501 -0.00000000000E+00 -0.00000000000E+00 -0.53224226974E+03  0.53224226974E+03  0.00000000000E+00 0.  1.
         23    2    1    2    0    0  0.56616967847E+02  0.50212401867E+03  0.18262414456E+04  0.18971814279E+04  0.93837846302E+02 0.  0.
        254    2    1    2    0    0 -0.56616967847E+02 -0.50212401867E+03  0.30378684585E+02  0.10239232418E+04  0.89003479116E+03 0.  0.
         23    2    4    4    0    0 -0.82878760499E+02 -0.41602076726E+03  0.42602393936E+03  0.60785160811E+03  0.89693995571E+02 0.  0.
         23    2    4    4    0    0  0.26261792652E+02 -0.86103251409E+02 -0.39564525477E+03  0.41607163370E+03  0.92070544083E+02 0.  0.
          2    1    3    3  502    0  0.75950839456E+02  0.39878991538E+03  0.15256524714E+04  0.15787391773E+04  0.00000000000E+00 0. -1.
         -2    1    3    3    0  502 -0.19333871609E+02  0.10333410329E+03  0.30058897423E+03  0.31844225053E+03  0.00000000000E+00 0.  1.
         11    1    5    5    0    0 -0.25195597447E-01 -0.74393271012E+02  0.35544275052E+02  0.82448498444E+02  0.00000000000E+00 0. -1.
        -11    1    5    5    0    0 -0.82853564901E+02 -0.34162749625E+03  0.39047966431E+03  0.52540310967E+03  0.00000000000E+00 0.  1.
          2    1    6    6  503    0  0.17575379217E+02  0.13819157559E+02 -0.13415792101E+03  0.13600812785E+03  0.00000000000E+00 0. -1.
         -2    1    6    6    0  503  0.86864134357E+01 -0.99922408968E+02 -0.26148733376E+03  0.28006350585E+03  0.00000000000E+00 0.  1.
<mgrwt>
<rscale>  0 0.22551750E+04</rscale>
<asrwt>0</asrwt>
<pdfrwt beam="1">  1        1 0.36751729E+00 0.22551750E+04</pdfrwt>
<pdfrwt beam="2">  1       -1 0.81883427E-01 0.22551750E+04</pdfrwt>
<totfact> 0.21773031E+00</totfact>
</mgrwt>
</event>
<event>
12    2  0.3751044E-008  0.1027070E+04  0.7818608E-02  0.9279343E-01
          2   -1    0    0  501    0  0.00000000000E+00  0.00000000000E+00  0.17170900434E+04  0.17170900434E+04  0.00000000000E+00 0. -1.
         -2   -1    0    0    0  501 -0.00000000000E+00 -0.00000000000E+00 -0.15358437040E+03  0.15358437040E+03  0.00000000000E+00 0.  1.
         23    2    1    2    0    0 -0.26736207597E+02  0.54664981712E+02  0.84030599753E+02  0.13616487835E+03  0.88185301383E+02 0.  0.
        254    2    1    2    0    0  0.26736207597E+02 -0.54664981712E+02  0.14794750732E+04  0.17345095354E+04  0.90331265414E+03 0.  0.
         23    2    4    4    0    0  0.45835607342E+02 -0.44778651841E+03  0.52417543893E+03  0.69714293396E+03  0.92923143626E+02 0.  0.
         23    2    4    4    0    0 -0.19099399745E+02  0.39312153670E+03  0.95529963427E+03  0.10373666014E+04  0.92858736014E+02 0.  0.
          3    1    3    3  502    0 -0.13871427166E+02 -0.16911836006E+02 -0.37295177951E+01  0.22188645558E+02  0.00000000000E+00 0.  1.
         -3    1    3    3    0  502 -0.12864780431E+02  0.71576817718E+02  0.87760117548E+02  0.11397623280E+03  0.00000000000E+00 0. -1.
         11    1    5    5    0    0 -0.93764408317E+01 -0.11037606513E+03  0.80102344575E+02  0.13670105707E+03  0.00000000000E+00 0.  1.
        -11    1    5    5    0    0  0.55212048173E+02 -0.33741045328E+03  0.44407309436E+03  0.56044187689E+03  0.00000000000E+00 0. -1.
          3    1    6    6  503    0 -0.14511669772E+02  0.34661917022E+03  0.74324769302E+03  0.82022714592E+03  0.00000000000E+00 0. -1.
         -3    1    6    6    0  503 -0.45877299724E+01  0.46502366476E+02  0.21205194125E+03  0.21713945552E+03  0.00000000000E+00 0.  1.
<mgrwt>
<rscale>  0 0.10270700E+04</rscale>
<asrwt>0</asrwt>
<pdfrwt beam="1">  1        2 0.26416769E+00 0.10270700E+04</pdfrwt>
<pdfrwt beam="2">  1       -2 0.23628366E-01 0.10270700E+04</pdfrwt>
<totfact> 0.15202398E+02</totfact>
</mgrwt>
</event>
<event>
12    2  0.3751044E-008  0.1726094E+04  0.7818608E-02  0.8746620E-01
         -2   -1    0    0    0  501 -0.00000000000E+00  0.00000000000E+00  0.11144751902E+04  0.11144751902E+04  0.00000000000E+00 0.  1.
          2   -1    0    0  501    0  0.00000000000E+00 -0.00000000000E+00 -0.66834180027E+03  0.66834180027E+03  0.00000000000E+00 0. -1.
         23    2    1    2    0    0 -0.34027056092E+03  0.51969545850E+03  0.50869210595E+02  0.62971579142E+03  0.89927065794E+02 0.  0.
        254    2    1    2    0    0  0.34027056092E+03 -0.51969545850E+03  0.39526417930E+03  0.11531011990E+04  0.88743516920E+03 0.  0.
         23    2    4    4    0    0  0.53847309884E+03 -0.57608658854E+03  0.46097051060E+03  0.91798535042E+03  0.91510962527E+02 0.  0.
         23    2    4    4    0    0 -0.19820253792E+03  0.56391130041E+02 -0.65706331303E+02  0.23511584860E+03  0.92184243262E+02 0.  0.
          1    1    3    3  502    0 -0.75657546939E+02  0.12509276002E+03 -0.25817570379E+02  0.14845474044E+03  0.00000000000E+00 0. -1.
         -1    1    3    3    0  502 -0.26461301398E+03  0.39460269848E+03  0.76686780973E+02  0.48126105098E+03  0.00000000000E+00 0.  1.
         11    1    5    5    0    0  0.63273627362E+02 -0.30273374506E+02  0.42634208325E+02  0.82083523578E+02  0.00000000000E+00 0. -1.
        -11    1    5    5    0    0  0.47519947148E+03 -0.54581321403E+03  0.41833630227E+03  0.83590182684E+03  0.00000000000E+00 0.  1.
          3    1    6    6  503    0 -0.40334041200E+02 -0.14279324230E+02 -0.43010930814E+02  0.60668559811E+02  0.00000000000E+00 0. -1.
         -3    1    6    6    0  503 -0.15786849672E+03  0.70670454272E+02 -0.22695400489E+02  0.17444728879E+03  0.00000000000E+00 0.  1.
<mgrwt>
<rscale>  0 0.17260943E+04</rscale>
<asrwt>0</asrwt>
<pdfrwt beam="1">  1        2 0.10282182E+00 0.17260943E+04</pdfrwt>
<pdfrwt beam="2">  1       -2 0.17145772E+00 0.17260943E+04</pdfrwt>
<totfact> 0.85766151E+00</totfact>
</mgrwt>
</event>
<event>
12    2  0.3751044E-008  0.2382452E+04  0.7818608E-02  0.8446103E-01
         -2   -1    0    0    0  501 -0.00000000000E+00  0.00000000000E+00  0.22792918976E+04  0.22792918976E+04  0.00000000000E+00 0. -1.
          2   -1    0    0  501    0  0.00000000000E+00 -0.00000000000E+00 -0.62257007565E+03  0.62257007565E+03  0.00000000000E+00 0.  1.
         23    2    1    2    0    0  0.25626534504E+03 -0.57199737132E+03 -0.26217272521E+03  0.68533038554E+03  0.89945981756E+02 0.  0.
        254    2    1    2    0    0 -0.25626534504E+03  0.57199737132E+03  0.19188945471E+04  0.22165315877E+04  0.91542507959E+03 0.  0.
         23    2    4    4    0    0 -0.19730155068E+03  0.31201482248E+03  0.12459466080E+03  0.40022535225E+03  0.91516947819E+02 0.  0.
         23    2    4    4    0    0 -0.58963794366E+02  0.25998254884E+03  0.17942998863E+04  0.18163062354E+04  0.91589322893E+02 0.  0.
          1    1    3    3  502    0  0.80693429177E+02 -0.93871759087E+02 -0.55346681649E+02  0.13559716751E+03  0.00000000000E+00 0. -1.
         -1    1    3    3    0  502  0.17557191587E+03 -0.47812561223E+03 -0.20682604356E+03  0.54973321803E+03  0.00000000000E+00 0.  1.
         11    1    5    5    0    0 -0.11854714366E+03  0.21977796751E+03  0.12430651793E+03  0.27894065797E+03  0.00000000000E+00 0. -1.
        -11    1    5    5    0    0 -0.78754407015E+02  0.92236854975E+02  0.28814287443E+00  0.12128469428E+03  0.00000000000E+00 0.  1.
          1    1    6    6  503    0 -0.21374420244E+02  0.72052071922E+02  0.81297982851E+03  0.81644630471E+03  0.00000000000E+00 0. -1.
         -1    1    6    6    0  503 -0.37589374122E+02  0.18793047692E+03  0.98132005779E+03  0.99985993070E+03  0.00000000000E+00 0.  1.
<mgrwt>
<rscale>  0 0.23824516E+04</rscale>
<asrwt>0</asrwt>
<pdfrwt beam="1">  1        2 0.95780013E-01 0.23824516E+04</pdfrwt>
<pdfrwt beam="2">  1       -2 0.35066029E+00 0.23824516E+04</pdfrwt>
<totfact> 0.65849882E-01</totfact>
</mgrwt>
</event>
<event>
12    2  0.3751044E-008  0.1606062E+04  0.7818608E-02  0.8816833E-01
          1   -1    0    0  501    0  0.00000000000E+00  0.00000000000E+00  0.26420804700E+04  0.26420804700E+04  0.00000000000E+00 0. -1.
         -1   -1    0    0    0  501 -0.00000000000E+00 -0.00000000000E+00 -0.24407223744E+03  0.24407223744E+03  0.00000000000E+00 0.  1.
         23    2    1    2    0    0  0.48286952548E+03 -0.13485868820E+03  0.11857656029E+04  0.12900922928E+04  0.83355950396E+02 0.  0.
        254    2    1    2    0    0 -0.48286952548E+03  0.13485868820E+03  0.12122426297E+04  0.15960604147E+04  0.90913519876E+03 0.  0.
         23    2    4    4    0    0 -0.66260465121E+03 -0.14771977004E+03  0.73398350755E+03  0.10042523479E+04  0.94471872328E+02 0.  0.
         23    2    4    4    0    0  0.17973512573E+03  0.28257845825E+03  0.47825912212E+03  0.59180806675E+03  0.96693844108E+02 0.  0.
          4    1    3    3  502    0  0.26180051828E+03 -0.10993826226E+03  0.61029216079E+03  0.67311399807E+03  0.00000000000E+00 0. -1.
         -4    1    3    3    0  502  0.22106900720E+03 -0.24920425947E+02  0.57547344216E+03  0.61697829476E+03  0.00000000000E+00 0.  1.
         11    1    5    5    0    0 -0.32697182265E+03 -0.10788184565E+03  0.41817320282E+03  0.54168061898E+03  0.00000000000E+00 0. -1.
        -11    1    5    5    0    0 -0.33563282856E+03 -0.39837924398E+02  0.31581030473E+03  0.46257172892E+03  0.00000000000E+00 0.  1.
          3    1    6    6  503    0  0.13323928513E+02 -0.29697838001E+01  0.44113349293E+02  0.46177205120E+02  0.00000000000E+00 0. -1.
         -3    1    6    6    0  503  0.16641119722E+03  0.28554824205E+03  0.43414577283E+03  0.54563086163E+03  0.00000000000E+00 0.  1.
<mgrwt>
<rscale>  0 0.16060616E+04</rscale>
<asrwt>0</asrwt>
<pdfrwt beam="1">  1        1 0.40647390E+00 0.16060616E+04</pdfrwt>
<pdfrwt beam="2">  1       -1 0.37549577E-01 0.16060616E+04</pdfrwt>
<totfact> 0.70857952E+00</totfact>
</mgrwt>
</event>
<event>
12    2  0.3751044E-008  0.1988319E+04  0.7818608E-02  0.8612101E-01
         -2   -1    0    0    0  501 -0.00000000000E+00  0.00000000000E+00  0.29623306615E+03  0.29623306615E+03  0.00000000000E+00 0.  1.
          2   -1    0    0  501    0  0.00000000000E+00 -0.00000000000E+00 -0.33364045779E+04  0.33364045779E+04  0.00000000000E+00 0. -1.
         23    2    1    2    0    0 -0.35537431689E+03 -0.16912072600E+03 -0.24403771319E+04  0.24736811945E+04  0.93623614393E+02 0.  0.
        254    2    1    2    0    0  0.35537431689E+03  0.16912072600E+03 -0.59979437983E+03  0.11589564495E+04  0.91023844607E+03 0.  0.
         23    2    4    4    0    0  0.60164567400E+03  0.25465681534E+03 -0.58705438989E+03  0.88318296443E+03  0.92475301129E+02 0.  0.
         23    2    4    4    0    0 -0.24627135710E+03 -0.85536089340E+02 -0.12739989936E+02  0.27577348508E+03  0.89009571504E+02 0.  0.
          3    1    3    3  502    0 -0.16681166101E+03 -0.29489367462E+02 -0.96208907911E+03  0.97688850396E+03  0.00000000000E+00 0.  1.
         -3    1    3    3    0  502 -0.18856265589E+03 -0.13963135854E+03 -0.14782880528E+04  0.14967926906E+04  0.00000000000E+00 0. -1.
         11    1    5    5    0    0  0.30746066151E+02  0.37678105142E+02 -0.52276245568E+02  0.71398641734E+02  0.00000000000E+00 0. -1.
        -11    1    5    5    0    0  0.57089960785E+03  0.21697871020E+03 -0.53477814433E+03  0.81178432269E+03  0.00000000000E+00 0.  1.
          1    1    6    6  503    0 -0.12079874912E+03 -0.48112816498E+02  0.37819958878E+02  0.13541613711E+03  0.00000000000E+00 0. -1.
         -1    1    6    6    0  503 -0.12547260798E+03 -0.37423272841E+02 -0.50559948814E+02  0.14035734797E+03  0.00000000000E+00 0.  1.
<mgrwt>
<rscale>  0 0.19883192E+04</rscale>
<asrwt>0</asrwt>
<pdfrwt beam="1">  1        2 0.51329304E+00 0.19883192E+04</pdfrwt>
<pdfrwt beam="2">  1       -2 0.45574316E-01 0.19883192E+04</pdfrwt>
<totfact> 0.44909107E+00</totfact>
</mgrwt>
</event>
<event>
12    2  0.3751044E-008  0.2044963E+04  0.7818608E-02  0.8585883E-01
         -3   -1    0    0    0  501 -0.00000000000E+00  0.00000000000E+00  0.14716217080E+04  0.14716217080E+04  0.00000000000E+00 0.  1.
          3   -1    0    0  501    0  0.00000000000E+00 -0.00000000000E+00 -0.71041945445E+03  0.71041945445E+03  0.00000000000E+00 0. -1.
         23    2    1    2    0    0  0.13395231031E+03 -0.33341829168E+03 -0.47911512933E+03  0.60588954245E+03  0.91868666200E+02 0.  0.
        254    2    1    2    0    0 -0.13395231031E+03  0.33341829168E+03  0.12403173829E+04  0.15761516200E+04  0.90374539572E+03 0.  0.
         23    2    4    4    0    0 -0.42845711708E+03  0.23539277226E+03  0.29659980357E+03  0.57839433898E+03  0.87082199585E+02 0.  0.
         23    2    4    4    0    0  0.29450480676E+03  0.98025519420E+02  0.94371757931E+03  0.99775728102E+03  0.92599344827E+02 0.  0.
          4    1    3    3  502    0  0.60092449467E+02 -0.23565590988E+03 -0.36401219872E+03  0.43777813006E+03  0.00000000000E+00 0. -1.
         -4    1    3    3    0  502  0.73859860845E+02 -0.97762381794E+02 -0.11510293062E+03  0.16811141239E+03  0.00000000000E+00 0.  1.
         11    1    5    5    0    0 -0.32895556588E+03  0.19346416639E+03  0.18864016424E+03  0.42570560199E+03  0.00000000000E+00 0.  1.
        -11    1    5    5    0    0 -0.99501551197E+02  0.41928605868E+02  0.10795963933E+03  0.15268873699E+03  0.00000000000E+00 0. -1.
          4    1    6    6  503    0  0.16408922780E+03  0.77993414333E+02  0.41879504295E+03  0.45650578896E+03  0.00000000000E+00 0. -1.
         -4    1    6    6    0  503  0.13041557896E+03  0.20032105087E+02  0.52492253636E+03  0.54125149205E+03  0.00000000000E+00 0.  1.
<mgrwt>
<rscale>  0 0.20449633E+04</rscale>
<asrwt>0</asrwt>
<pdfrwt beam="1">  1        3 0.10929530E+00 0.20449633E+04</pdfrwt>
<pdfrwt beam="2">  1       -3 0.22640334E+00 0.20449633E+04</pdfrwt>
<totfact> 0.17271515E-01</totfact>
</mgrwt>
</event>
<event>
12    2  0.3751044E-008  0.1481947E+04  0.7818608E-02  0.8896548E-01
         -2   -1    0    0    0  501 -0.00000000000E+00  0.00000000000E+00  0.15509513847E+03  0.15509513847E+03  0.00000000000E+00 0.  1.
          2   -1    0    0  501    0  0.00000000000E+00 -0.00000000000E+00 -0.35400297510E+04  0.35400297510E+04  0.00000000000E+00 0. -1.
         23    2    1    2    0    0  0.47000240540E+01 -0.16363007298E+03 -0.61002332677E+00  0.18802080497E+03  0.92490864210E+02 0.  0.
        254    2    1    2    0    0 -0.47000240540E+01  0.16363007298E+03 -0.33843245892E+04  0.35071040845E+04  0.90516807470E+03 0.  0.
         23    2    4    4    0    0 -0.36690612525E+03  0.80473783731E+02 -0.73675590904E+03  0.83206456262E+03  0.91793421588E+02 0.  0.
         23    2    4    4    0    0  0.36220610119E+03  0.83156289248E+02 -0.26475686802E+04  0.26750395219E+04  0.90046095350E+02 0.  0.
          3    1    3    3  502    0  0.38439209709E+02 -0.10848028638E+03  0.26194892621E+02  0.11803269791E+03  0.00000000000E+00 0. -1.
         -3    1    3    3    0  502 -0.33739185655E+02 -0.55149786600E+02 -0.26804915948E+02  0.69988107059E+02  0.00000000000E+00 0.  1.
         11    1    5    5    0    0 -0.16126810904E+03  0.81963062340E+02 -0.33380211790E+03  0.37966985724E+03  0.00000000000E+00 0.  1.
        -11    1    5    5    0    0 -0.20563801621E+03 -0.14892786089E+01 -0.40295379114E+03  0.45239470538E+03  0.00000000000E+00 0. -1.
          1    1    6    6  503    0  0.22869535516E+03  0.11133600098E+02 -0.17141170597E+04  0.17293417293E+04  0.00000000000E+00 0. -1.
         -1    1    6    6    0  503  0.13351074603E+03  0.72022689150E+02 -0.93345162046E+03  0.94569779254E+03  0.00000000000E+00 0.  1.
<mgrwt>
<rscale>  0 0.14819466E+04</rscale>
<asrwt>0</asrwt>
<pdfrwt beam="1">  1        2 0.54461999E+00 0.14819466E+04</pdfrwt>
<pdfrwt beam="2">  1       -2 0.23860789E-01 0.14819466E+04</pdfrwt>
<totfact> 0.11684484E+01</totfact>
</mgrwt>
</event>
<event>
12    2  0.3751044E-008  0.1422555E+04  0.7818608E-02  0.8937652E-01
         -2   -1    0    0    0  501 -0.00000000000E+00  0.00000000000E+00  0.31541297591E+03  0.31541297591E+03  0.00000000000E+00 0.  1.
          2   -1    0    0  501    0  0.00000000000E+00 -0.00000000000E+00 -0.16039782754E+04  0.16039782754E+04  0.00000000000E+00 0. -1.
         23    2    1    2    0    0  0.29193105742E+03  0.23613841806E+03 -0.13160572648E+03  0.40817723884E+03  0.91123522178E+02 0.  0.
        254    2    1    2    0    0 -0.29193105742E+03 -0.23613841806E+03 -0.11569595730E+04  0.15112140125E+04  0.89678717828E+03 0.  0.
         23    2    4    4    0    0 -0.31519821805E+03 -0.23098099326E+03 -0.12868578012E+04  0.13480594515E+04  0.92515664356E+02 0.  0.
         23    2    4    4    0    0  0.23267160631E+02 -0.51574248019E+01  0.12989822825E+03  0.16315456099E+03  0.95801363652E+02 0.  0.
          1    1    3    3  502    0  0.22552260073E+02  0.66409613895E+01 -0.33535905385E+02  0.40955631512E+02  0.00000000000E+00 0. -1.
         -1    1    3    3    0  502  0.26937879735E+03  0.22949745668E+03 -0.98069821095E+02  0.36722160733E+03  0.00000000000E+00 0.  1.
         11    1    5    5    0    0 -0.85334461485E+01 -0.34422447279E+02 -0.81873883654E+02  0.89224757800E+02  0.00000000000E+00 0.  1.
        -11    1    5    5    0    0 -0.30666477191E+03 -0.19655854598E+03 -0.12049839176E+04  0.12588346937E+04  0.00000000000E+00 0. -1.
          3    1    6    6  503    0  0.85661686473E+01  0.45099579362E+02  0.52937847180E+02  0.70069729327E+02  0.00000000000E+00 0. -1.
         -3    1    6    6    0  503  0.14700991983E+02 -0.50257004164E+02  0.76960381066E+02  0.93084831668E+02  0.00000000000E+00 0.  1.
<mgrwt>
<rscale>  0 0.14225548E+04</rscale>
<asrwt>0</asrwt>
<pdfrwt beam="1">  1        2 0.24676589E+00 0.14225548E+04</pdfrwt>
<pdfrwt beam="2">  1       -2 0.48525073E-01 0.14225548E+04</pdfrwt>
<totfact> 0.43356297E+01</totfact>
</mgrwt>
</event>
<event>
12    2  0.3751044E-008  0.1699864E+04  0.7818608E-02  0.8761442E-01
         -2   -1    0    0    0  501 -0.00000000000E+00  0.00000000000E+00  0.22502258145E+04  0.22502258145E+04  0.00000000000E+00 0. -1.
          2   -1    0    0  501    0  0.00000000000E+00 -0.00000000000E+00 -0.32102761322E+03  0.32102761322E+03  0.00000000000E+00 0.  1.
         23    2    1    2    0    0 -0.39684715155E+03  0.36193082822E+03  0.31543261760E+03  0.62973572779E+03  0.92670192092E+02 0.  0.
        254    2    1    2    0    0  0.39684715155E+03 -0.36193082822E+03  0.16137655836E+04  0.19415176999E+04  0.93635999163E+03 0.  0.
         23    2    4    4    0    0  0.41137334596E+03  0.21629471951E+03  0.53494288648E+03  0.71417840585E+03  0.88743834344E+02 0.  0.
         23    2    4    4    0    0 -0.14526194411E+02 -0.57822554773E+03  0.10788226972E+04  0.12273392940E+04  0.89148956288E+02 0.  0.
          1    1    3    3  502    0 -0.10954446205E+03  0.11666585162E+03  0.48619606348E+02  0.16725661787E+03  0.00000000000E+00 0. -1.
         -1    1    3    3    0  502 -0.28730268950E+03  0.24526497660E+03  0.26681301125E+03  0.46247910992E+03  0.00000000000E+00 0.  1.
         11    1    5    5    0    0  0.31058791913E+03  0.17638801165E+03  0.46002776540E+03  0.58241147920E+03  0.00000000000E+00 0.  1.
        -11    1    5    5    0    0  0.10078542682E+03  0.39906707856E+02  0.74915121084E+02  0.13176692665E+03  0.00000000000E+00 0. -1.
          1    1    6    6  503    0 -0.14984269852E+02 -0.23400811232E+03  0.52921632626E+03  0.57883870375E+03  0.00000000000E+00 0. -1.
         -1    1    6    6    0  503  0.45807544118E+00 -0.34421743541E+03  0.54960637090E+03  0.64850059029E+03  0.00000000000E+00 0.  1.
<mgrwt>
<rscale>  0 0.16998643E+04</rscale>
<asrwt>0</asrwt>
<pdfrwt beam="1">  1        2 0.49388865E-01 0.16998643E+04</pdfrwt>
<pdfrwt beam="2">  1       -2 0.34618858E+00 0.16998643E+04</pdfrwt>
<totfact> 0.15997901E+00</totfact>
</mgrwt>
</event>
<event>
12    2  0.3751044E-008  0.1665382E+04  0.7818608E-02  0.8781358E-01
         -1   -1    0    0    0  501 -0.00000000000E+00  0.00000000000E+00  0.35633002895E+03  0.35633002895E+03  0.00000000000E+00 0.  1.
          1   -1    0    0  501    0  0.00000000000E+00 -0.00000000000E+00 -0.19458770014E+04  0.19458770014E+04  0.00000000000E+00 0. -1.
         23    2    1    2    0    0  0.40248739464E+03 -0.26952561557E+03 -0.10030314796E+04  0.11177205898E+04  0.92666107719E+02 0.  0.
        254    2    1    2    0    0 -0.40248739464E+03  0.26952561557E+03 -0.58651549285E+03  0.11844864406E+04  0.90794688403E+03 0.  0.
         23    2    4    4    0    0 -0.35712566985E+03  0.40686246444E+02 -0.78308909557E+03  0.86606908623E+03  0.87481516928E+02 0.  0.
         23    2    4    4    0    0 -0.45361724789E+02  0.22883936912E+03  0.19657360272E+03  0.31841735432E+03  0.91232052002E+02 0.  0.
          3    1    3    3  502    0  0.38727308881E+03 -0.24303890637E+03 -0.88920524015E+03  0.99986714840E+03  0.00000000000E+00 0. -1.
         -3    1    3    3    0  502  0.15214305827E+02 -0.26486709194E+02 -0.11382623943E+03  0.11785344139E+03  0.00000000000E+00 0.  1.
         11    1    5    5    0    0 -0.10488228862E+03 -0.48237888216E+01 -0.31991392358E+03  0.33670236397E+03  0.00000000000E+00 0.  1.
        -11    1    5    5    0    0 -0.25224338122E+03  0.45510035265E+02 -0.46317517199E+03  0.52936672226E+03  0.00000000000E+00 0. -1.
          3    1    6    6  503    0 -0.17237213101E+02  0.20738488439E+03  0.19127116230E+03  0.28264866764E+03  0.00000000000E+00 0. -1.
         -3    1    6    6    0  503 -0.28124511688E+02  0.21454484729E+02  0.53024404168E+01  0.35768686684E+02  0.00000000000E+00 0.  1.
<mgrwt>
<rscale>  0 0.16653821E+04</rscale>
<asrwt>0</asrwt>
<pdfrwt beam="1">  1        1 0.29936568E+00 0.16653821E+04</pdfrwt>
<pdfrwt beam="2">  1       -1 0.54820006E-01 0.16653821E+04</pdfrwt>
<totfact> 0.10409322E+01</totfact>
</mgrwt>
</event>
<event>
12    2  0.3751044E-008  0.2078996E+04  0.7818608E-02  0.8570553E-01
          2   -1    0    0  501    0  0.00000000000E+00  0.00000000000E+00  0.16457102244E+04  0.16457102244E+04  0.00000000000E+00 0.  1.
         -2   -1    0    0    0  501 -0.00000000000E+00 -0.00000000000E+00 -0.65658950279E+03  0.65658950279E+03  0.00000000000E+00 0. -1.
         23    2    1    2    0    0  0.46532524608E+03  0.40246419440E+03  0.10373016695E+04  0.12092642467E+04  0.88432191858E+02 0.  0.
        254    2    1    2    0    0 -0.46532524608E+03 -0.40246419440E+03 -0.48180947812E+02  0.10930354805E+04  0.90216414551E+03 0.  0.
         23    2    4    4    0    0 -0.29902402224E+03  0.25606831386E+03 -0.52123576844E+02  0.40786776053E+03  0.93020941604E+02 0.  0.
         23    2    4    4    0    0 -0.16630122384E+03 -0.65853250826E+03  0.39426290317E+01  0.68516771995E+03  0.90100491963E+02 0.  0.
          1    1    3    3  502    0  0.11971731944E+03  0.87218390307E+02  0.32405081689E+03  0.35629793166E+03  0.00000000000E+00 0. -1.
         -1    1    3    3    0  502  0.34560792664E+03  0.31524580409E+03  0.71325085257E+03  0.85296631507E+03  0.00000000000E+00 0.  1.
         11    1    5    5    0    0 -0.48811741504E+01  0.37913970300E+02 -0.73743965399E+01  0.38931693122E+02  0.00000000000E+00 0. -1.
        -11    1    5    5    0    0 -0.29414284809E+03  0.21815434356E+03 -0.44749180304E+02  0.36893606741E+03  0.00000000000E+00 0.  1.
          4    1    6    6  503    0 -0.59275435325E+02 -0.23922000349E+03 -0.41899637144E+02  0.24999073362E+03  0.00000000000E+00 0. -1.
         -4    1    6    6    0  503 -0.10702578851E+03 -0.41931250477E+03  0.45842266176E+02  0.43517698633E+03  0.00000000000E+00 0.  1.
<mgrwt>
<rscale>  0 0.20789960E+04</rscale>
<asrwt>0</asrwt>
<pdfrwt beam="1">  1        2 0.25318619E+00 0.20789960E+04</pdfrwt>
<pdfrwt beam="2">  1       -2 0.10101377E+00 0.20789960E+04</pdfrwt>
<totfact> 0.78279324E+00</totfact>
</mgrwt>
</event>
<event>
12    2  0.3751044E-008  0.1950229E+04  0.7818608E-02  0.8630250E-01
          2   -1    0    0  501    0  0.00000000000E+00  0.00000000000E+00  0.12004534753E+04  0.12004534753E+04  0.00000000000E+00 0. -1.
         -2   -1    0    0    0  501 -0.00000000000E+00 -0.00000000000E+00 -0.79207434170E+03  0.79207434170E+03  0.00000000000E+00 0.  1.
         23    2    1    2    0    0 -0.69420677887E+03 -0.29546141926E+03  0.24196489632E+03  0.79782349403E+03  0.93567165599E+02 0.  0.
        254    2    1    2    0    0  0.69420677887E+03  0.29546141926E+03  0.16641423732E+03  0.11947043230E+04  0.91126517487E+03 0.  0.
         23    2    4    4    0    0  0.36873635912E+03  0.17225520171E+03  0.53599335564E+03  0.67883726370E+03  0.88841410631E+02 0.  0.
         23    2    4    4    0    0  0.32547041975E+03  0.12320621755E+03 -0.36957911831E+03  0.51586705931E+03  0.91756918067E+02 0.  0.
          1    1    3    3  502    0 -0.11176555595E+02 -0.16650912979E+02  0.17694769643E+02  0.26744591429E+02  0.00000000000E+00 0. -1.
         -1    1    3    3    0  502 -0.68303022327E+03 -0.27881050628E+03  0.22427012667E+03  0.77107890260E+03  0.00000000000E+00 0.  1.
         11    1    5    5    0    0  0.17174323881E+03  0.12743449206E+03  0.25614733943E+03  0.33368660348E+03  0.00000000000E+00 0. -1.
        -11    1    5    5    0    0  0.19699312031E+03  0.44820709654E+02  0.27984601620E+03  0.34515066022E+03  0.00000000000E+00 0.  1.
          1    1    6    6  503    0  0.26207525762E+02  0.13944564589E+02 -0.80040848230E+02  0.85368745297E+02  0.00000000000E+00 0. -1.
         -1    1    6    6    0  503  0.29926289399E+03  0.10926165296E+03 -0.28953827008E+03  0.43049831401E+03  0.00000000000E+00 0.  1.
<mgrwt>
<rscale>  0 0.19502291E+04</rscale>
<asrwt>0</asrwt>
<pdfrwt beam="1">  1        2 0.18468515E+00 0.19502291E+04</pdfrwt>
<pdfrwt beam="2">  1       -2 0.12185759E+00 0.19502291E+04</pdfrwt>
<totfact> 0.90250575E+00</totfact>
</mgrwt>
</event>
<event>
12    2  0.3751044E-008  0.1942754E+04  0.7818608E-02  0.8633863E-01
         -2   -1    0    0    0  501 -0.00000000000E+00  0.00000000000E+00  0.72986587113E+03  0.72986587113E+03  0.00000000000E+00 0.  1.
          2   -1    0    0  501    0  0.00000000000E+00 -0.00000000000E+00 -0.12928037773E+04  0.12928037773E+04  0.00000000000E+00 0. -1.
         23    2    1    2    0    0  0.66561462366E+02 -0.73063796625E+03 -0.13445702096E+02  0.73860416933E+03  0.84220342308E+02 0.  0.
        254    2    1    2    0    0 -0.66561462366E+02  0.73063796625E+03 -0.54949220412E+03  0.12840654791E+04  0.89923312124E+03 0.  0.
         23    2    4    4    0    0 -0.19240910137E+03  0.90063214884E+03 -0.44474753572E+03  0.10265428471E+04  0.88489076410E+02 0.  0.
         23    2    4    4    0    0  0.12584763901E+03 -0.16999418259E+03 -0.10474466839E+03  0.25752263201E+03  0.10300878644E+03 0.  0.
          2    1    3    3  502    0  0.44105390794E+02 -0.66904870619E+03  0.49408162938E+01  0.67051910369E+03  0.00000000000E+00 0. -1.
         -2    1    3    3    0  502  0.22456071573E+02 -0.61589260060E+02 -0.18386518390E+02  0.68085065644E+02  0.00000000000E+00 0.  1.
         11    1    5    5    0    0 -0.97315119977E+02  0.46334757135E+03 -0.17954464027E+03  0.50635706996E+03  0.00000000000E+00 0. -1.
        -11    1    5    5    0    0 -0.95093981398E+02  0.43728457749E+03 -0.26520289545E+03  0.52018577716E+03  0.00000000000E+00 0.  1.
          4    1    6    6  503    0  0.63805148479E+02 -0.87602444049E+02 -0.10977758828E+03  0.15426083127E+03  0.00000000000E+00 0. -1.
         -4    1    6    6    0  503  0.62042490529E+02 -0.82391738540E+02  0.50329198819E+01  0.10326180075E+03  0.00000000000E+00 0.  1.
<mgrwt>
<rscale>  0 0.19427541E+04</rscale>
<asrwt>0</asrwt>
<pdfrwt beam="1">  1        2 0.19889289E+00 0.19427541E+04</pdfrwt>
<pdfrwt beam="2">  1       -2 0.11228706E+00 0.19427541E+04</pdfrwt>
<totfact> 0.97390372E+00</totfact>
</mgrwt>
</event>
<event>
12    2  0.3751044E-008  0.1899110E+04  0.7818608E-02  0.8655300E-01
         -4   -1    0    0    0  501 -0.00000000000E+00  0.00000000000E+00  0.65143081279E+03  0.65143081279E+03  0.00000000000E+00 0.  1.
          4   -1    0    0  501    0  0.00000000000E+00 -0.00000000000E+00 -0.13841137674E+04  0.13841137674E+04  0.00000000000E+00 0. -1.
         23    2    1    2    0    0 -0.13928432663E+03 -0.53272484997E+03 -0.80857499451E+03  0.98149093146E+03  0.79592947932E+02 0.  0.
        254    2    1    2    0    0  0.13928432663E+03  0.53272484997E+03  0.75892039880E+02  0.10540536488E+04  0.89558562031E+03 0.  0.
         23    2    4    4    0    0  0.41613557834E+03  0.77121329348E+01  0.14296875242E+03  0.44973622879E+03  0.92705527172E+02 0.  0.
         23    2    4    4    0    0 -0.27685125171E+03  0.52501271704E+03 -0.67076712537E+02  0.60431741996E+03  0.91734890174E+02 0.  0.
          2    1    3    3  502    0 -0.11536319780E+03 -0.48852826552E+03 -0.76495809551E+03  0.91494776983E+03  0.00000000000E+00 0. -1.
         -2    1    3    3    0  502 -0.23921128830E+02 -0.44196584447E+02 -0.43616899000E+02  0.66543161629E+02  0.00000000000E+00 0.  1.
         11    1    5    5    0    0  0.41914498630E+03  0.42285622246E+01  0.13470941220E+03  0.44028062189E+03  0.00000000000E+00 0.  1.
        -11    1    5    5    0    0 -0.30094079575E+01  0.34835707102E+01  0.82593402141E+01  0.94556069038E+01  0.00000000000E+00 0. -1.
          1    1    6    6  503    0 -0.15637154217E+03  0.33024951166E+03  0.98988885659E+00  0.36540084706E+03  0.00000000000E+00 0. -1.
         -1    1    6    6    0  503 -0.12047970955E+03  0.19476320538E+03 -0.68066601394E+02  0.23891657290E+03  0.00000000000E+00 0.  1.
<mgrwt>
<rscale>  0 0.18991096E+04</rscale>
<asrwt>0</asrwt>
<pdfrwt beam="1">  1        4 0.21294058E+00 0.18991096E+04</pdfrwt>
<pdfrwt beam="2">  1       -4 0.10022012E+00 0.18991096E+04</pdfrwt>
<totfact> 0.16669277E-01</totfact>
</mgrwt>
</event>
<event>
12    2  0.3751044E-008  0.1123133E+04  0.7818608E-02  0.9182933E-01
          2   -1    0    0  501    0  0.00000000000E+00  0.00000000000E+00  0.10725677146E+04  0.10725677146E+04  0.00000000000E+00 0. -1.
         -2   -1    0    0    0  501 -0.00000000000E+00 -0.00000000000E+00 -0.29402078759E+03  0.29402078759E+03  0.00000000000E+00 0.  1.
         23    2    1    2    0    0  0.11252570173E+03 -0.51113709262E+02  0.32822628505E+03  0.36121357406E+03  0.86418210260E+02 0.  0.
        254    2    1    2    0    0 -0.11252570173E+03  0.51113709262E+02  0.45032064200E+03  0.10053749282E+04  0.89034567487E+03 0.  0.
         23    2    4    4    0    0  0.33896386747E+03  0.81511882730E+02 -0.74518217380E+00  0.36021075389E+03  0.90612038061E+02 0.  0.
         23    2    4    4    0    0 -0.45148956920E+03 -0.30398173468E+02  0.45106582417E+03  0.64516417428E+03  0.89496111624E+02 0.  0.
          3    1    3    3  502    0  0.11630541644E+03 -0.18951670669E+02  0.24366235703E+03  0.27066115338E+03  0.00000000000E+00 0. -1.
         -3    1    3    3    0  502 -0.37797147080E+01 -0.32162038593E+02  0.84563928022E+02  0.90552420687E+02  0.00000000000E+00 0.  1.
         11    1    5    5    0    0  0.10840513736E+03 -0.93491946727E+01  0.23155958108E+02  0.11124423421E+03  0.00000000000E+00 0.  1.
        -11    1    5    5    0    0  0.23055873011E+03  0.90861077402E+02 -0.23901140282E+02  0.24896651968E+03  0.00000000000E+00 0. -1.
          1    1    6    6  503    0 -0.29091700313E+03 -0.57585107658E+02  0.31832082338E+03  0.43505964411E+03  0.00000000000E+00 0. -1.
         -1    1    6    6    0  503 -0.16057256607E+03  0.27186934190E+02  0.13274500079E+03  0.21010453017E+03  0.00000000000E+00 0.  1.
<mgrwt>
<rscale>  0 0.11231335E+04</rscale>
<asrwt>0</asrwt>
<pdfrwt beam="1">  1        2 0.16501042E+00 0.11231335E+04</pdfrwt>
<pdfrwt beam="2">  1       -2 0.45233968E-01 0.11231335E+04</pdfrwt>
<totfact> 0.10407225E+02</totfact>
</mgrwt>
</event>
<event>
12    2  0.3751044E-008  0.3589316E+04  0.7818608E-02  0.8092943E-01
          2   -1    0    0  501    0  0.00000000000E+00  0.00000000000E+00  0.18235083809E+04  0.18235083809E+04  0.00000000000E+00 0. -1.
         -2   -1    0    0    0  501 -0.00000000000E+00 -0.00000000000E+00 -0.17662637227E+04  0.17662637227E+04  0.00000000000E+00 0.  1.
         23    2    1    2    0    0 -0.86891860621E+03  0.13514862165E+04  0.51989935874E+03  0.16912386792E+04  0.91969501322E+02 0.  0.
        254    2    1    2    0    0  0.86891860621E+03 -0.13514862165E+04 -0.46265470051E+03  0.18985334243E+04  0.89935824544E+03 0.  0.
         23    2    4    4    0    0  0.35492834911E+03 -0.12043960653E+04 -0.13732627078E+03  0.12660594058E+04  0.86625049942E+02 0.  0.
         23    2    4    4    0    0  0.51399025710E+03 -0.14709015123E+03 -0.32532842973E+03  0.63247401850E+03  0.91451079315E+02 0.  0.
          1    1    3    3  502    0 -0.73796066478E+03  0.10823771323E+04  0.41783388528E+03  0.13750314014E+04  0.00000000000E+00 0. -1.
         -1    1    3    3    0  502 -0.13095794142E+03  0.26910908424E+03  0.10206547346E+03  0.31620727777E+03  0.00000000000E+00 0.  1.
         11    1    5    5    0    0  0.42698666686E+01 -0.33807379197E+01 -0.58794635133E+01  0.80143147838E+01  0.00000000000E+00 0.  1.
        -11    1    5    5    0    0  0.35065848244E+03 -0.12010153274E+04 -0.13144680727E+03  0.12580450910E+04  0.00000000000E+00 0. -1.
          4    1    6    6  503    0  0.34048507411E+01 -0.13529294442E+02 -0.13800219530E+02  0.19623477667E+02  0.00000000000E+00 0.  1.
         -4    1    6    6    0  503  0.51058540636E+03 -0.13356085678E+03 -0.31152821020E+03  0.61285054083E+03  0.00000000000E+00 0. -1.
<mgrwt>
<rscale>  0 0.35893156E+04</rscale>
<asrwt>0</asrwt>
<pdfrwt beam="1">  1        2 0.28053975E+00 0.35893156E+04</pdfrwt>
<pdfrwt beam="2">  1       -2 0.27173288E+00 0.35893156E+04</pdfrwt>
<totfact> 0.32309288E-01</totfact>
</mgrwt>
</event>
<event>
12    2  0.3751044E-008  0.1954648E+04  0.7818608E-02  0.8628123E-01
          2   -1    0    0  501    0  0.00000000000E+00  0.00000000000E+00  0.24673304943E+04  0.24673304943E+04  0.00000000000E+00 0. -1.
         -2   -1    0    0    0  501 -0.00000000000E+00 -0.00000000000E+00 -0.38712375959E+03  0.38712375959E+03  0.00000000000E+00 0.  1.
         23    2    1    2    0    0 -0.77132725098E+03 -0.21594633547E+03  0.11848568135E+04  0.14331096801E+04  0.91318885426E+02 0.  0.
        254    2    1    2    0    0  0.77132725098E+03  0.21594633547E+03  0.89534992121E+03  0.14213445738E+04  0.75959882049E+03 0.  0.
         23    2    4    4    0    0  0.57807081174E+03 -0.16898574723E+03  0.73012435526E+03  0.95086095695E+03  0.91284933833E+02 0.  0.
         23    2    4    4    0    0  0.19325643924E+03  0.38493208270E+03  0.16522556594E+03  0.47048361683E+03  0.92382825572E+02 0.  0.
          1    1    3    3  502    0 -0.25923745616E+03 -0.10807496782E+03  0.46259442352E+03  0.54118190843E+03  0.00000000000E+00 0. -1.
         -1    1    3    3    0  502 -0.51208979482E+03 -0.10787136765E+03  0.72226239002E+03  0.89192777172E+03  0.00000000000E+00 0.  1.
         11    1    5    5    0    0  0.50041777397E+03 -0.12770062572E+03  0.57778764365E+03  0.77496061801E+03  0.00000000000E+00 0. -1.
        -11    1    5    5    0    0  0.77653037774E+02 -0.41285121507E+02  0.15233671161E+03  0.17590033893E+03  0.00000000000E+00 0.  1.
          4    1    6    6  503    0  0.17984103817E+03  0.32634306309E+03  0.17123614041E+03  0.41007854080E+03  0.00000000000E+00 0. -1.
         -4    1    6    6    0  503  0.13415401071E+02  0.58589019611E+02 -0.60105744715E+01  0.60405076031E+02  0.00000000000E+00 0.  1.
<mgrwt>
<rscale>  0 0.19546481E+04</rscale>
<asrwt>0</asrwt>
<pdfrwt beam="1">  1        2 0.37958930E+00 0.19546481E+04</pdfrwt>
<pdfrwt beam="2">  1       -2 0.59557503E-01 0.19546481E+04</pdfrwt>
<totfact> 0.89250896E+00</totfact>
</mgrwt>
</event>
<event>
12    2  0.3751044E-008  0.3396012E+04  0.7818608E-02  0.8138886E-01
         -2   -1    0    0    0  501 -0.00000000000E+00  0.00000000000E+00  0.94385562159E+03  0.94385562159E+03  0.00000000000E+00 0.  1.
          2   -1    0    0  501    0  0.00000000000E+00 -0.00000000000E+00 -0.30547307462E+04  0.30547307462E+04  0.00000000000E+00 0. -1.
         23    2    1    2    0    0  0.19424925896E+03 -0.61706429137E+03  0.71668072191E+03  0.97040481510E+03  0.97740133578E+02 0.  0.
        254    2    1    2    0    0 -0.19424925896E+03  0.61706429137E+03 -0.28275558465E+04  0.30281815526E+04  0.86966104694E+03 0.  0.
         23    2    4    4    0    0  0.13576314924E+03 -0.24873270951E+02 -0.15439408736E+04  0.15527067086E+04  0.89968824431E+02 0.  0.
         23    2    4    4    0    0 -0.33001240821E+03  0.64193756232E+03 -0.12836149729E+04  0.14754748441E+04  0.91469084463E+02 0.  0.
          4    1    3    3  502    0  0.89311439013E+02 -0.28314407496E+03  0.40181490871E+03  0.49960216291E+03  0.00000000000E+00 0. -1.
         -4    1    3    3    0  502  0.10493781995E+03 -0.33392021641E+03  0.31486581321E+03  0.47080265219E+03  0.00000000000E+00 0.  1.
         11    1    5    5    0    0  0.85033698654E+02 -0.24529885328E+02 -0.51750711864E+03  0.52502005964E+03  0.00000000000E+00 0.  1.
        -11    1    5    5    0    0  0.50729450587E+02 -0.34338562256E+00 -0.10264337550E+04  0.10276866490E+04  0.00000000000E+00 0. -1.
          3    1    6    6  503    0 -0.49006904666E+02  0.17143857433E+03 -0.27917196745E+03  0.33125496054E+03  0.00000000000E+00 0. -1.
         -3    1    6    6    0  503 -0.28100550354E+03  0.47049898799E+03 -0.10044430054E+04  0.11442198835E+04  0.00000000000E+00 0.  1.
<mgrwt>
<rscale>  0 0.33960122E+04</rscale>
<asrwt>0</asrwt>
<pdfrwt beam="1">  1        2 0.46995858E+00 0.33960122E+04</pdfrwt>
<pdfrwt beam="2">  1       -2 0.14520856E+00 0.33960122E+04</pdfrwt>
<totfact> 0.43468846E-01</totfact>
</mgrwt>
</event>
<event>
12    2  0.3751044E-008  0.2250314E+04  0.7818608E-02  0.8497773E-01
         -2   -1    0    0    0  501 -0.00000000000E+00  0.00000000000E+00  0.38477587988E+03  0.38477587988E+03  0.00000000000E+00 0.  1.
          2   -1    0    0  501    0  0.00000000000E+00 -0.00000000000E+00 -0.32901704388E+04  0.32901704388E+04  0.00000000000E+00 0. -1.
         23    2    1    2    0    0  0.36690108359E+03  0.81546122590E+03 -0.74323822060E+03  0.11662764870E+04  0.90578008132E+02 0.  0.
        254    2    1    2    0    0 -0.36690108359E+03 -0.81546122590E+03 -0.21621563383E+04  0.25086698316E+04  0.90493694633E+03 0.  0.
         23    2    4    4    0    0  0.24043850384E+02 -0.40962223951E+03 -0.20011282162E+03  0.46528943221E+03  0.89892316170E+02 0.  0.
         23    2    4    4    0    0 -0.39094493397E+03 -0.40583898639E+03 -0.19620435167E+04  0.20433803994E+04  0.90804576595E+02 0.  0.
          3    1    3    3  502    0  0.12228456957E+03  0.25875342249E+03 -0.29362378498E+03  0.41002655610E+03  0.00000000000E+00 0. -1.
         -3    1    3    3    0  502  0.24461651402E+03  0.55670780341E+03 -0.44961443562E+03  0.75624993093E+03  0.00000000000E+00 0.  1.
         11    1    5    5    0    0  0.84927257975E+01 -0.39443720635E+03 -0.17367399922E+03  0.43106321364E+03  0.00000000000E+00 0.  1.
        -11    1    5    5    0    0  0.15551124587E+02 -0.15185033158E+02 -0.26438822397E+02  0.34226218571E+02  0.00000000000E+00 0. -1.
          1    1    6    6  503    0 -0.12193662844E+03 -0.11171545842E+03 -0.72862954105E+03  0.74716122296E+03  0.00000000000E+00 0. -1.
         -1    1    6    6    0  503 -0.26900830553E+03 -0.29412352797E+03 -0.12334139756E+04  0.12962191765E+04  0.00000000000E+00 0.  1.
<mgrwt>
<rscale>  0 0.22503140E+04</rscale>
<asrwt>0</asrwt>
<pdfrwt beam="1">  1        2 0.50618004E+00 0.22503140E+04</pdfrwt>
<pdfrwt beam="2">  1       -2 0.59196293E-01 0.22503140E+04</pdfrwt>
<totfact> 0.27487335E+00</totfact>
</mgrwt>
</event>
<event>
12    2  0.3751044E-008  0.1724454E+04  0.7818608E-02  0.8747539E-01
         -1   -1    0    0    0  501 -0.00000000000E+00  0.00000000000E+00  0.54127450294E+03  0.54127450294E+03  0.00000000000E+00 0.  1.
          1   -1    0    0  501    0  0.00000000000E+00 -0.00000000000E+00 -0.13734912549E+04  0.13734912549E+04  0.00000000000E+00 0. -1.
         23    2    1    2    0    0  0.23352244622E+02  0.61392206729E+03 -0.18410626714E+03  0.64770425778E+03  0.90443661538E+02 0.  0.
        254    2    1    2    0    0 -0.23352244622E+02 -0.61392206729E+03 -0.64811048487E+03  0.12670615001E+04  0.89886150902E+03 0.  0.
         23    2    4    4    0    0 -0.36493135003E+03 -0.24279779762E+03 -0.60186723161E+03  0.75057715460E+03  0.94848509560E+02 0.  0.
         23    2    4    4    0    0  0.34157910541E+03 -0.37112426967E+03 -0.46243253261E+02  0.51648434549E+03  0.10103530014E+03 0.  0.
          4    1    3    3  502    0  0.17421317656E+02  0.38073077001E+03 -0.15944721939E+03  0.41313779458E+03  0.00000000000E+00 0. -1.
         -4    1    3    3    0  502  0.59309269659E+01  0.23319129728E+03 -0.24659047753E+02  0.23456646320E+03  0.00000000000E+00 0.  1.
         11    1    5    5    0    0 -0.32845461295E+03 -0.19831707427E+03 -0.56240929339E+03  0.68082031991E+03  0.00000000000E+00 0. -1.
        -11    1    5    5    0    0 -0.36476737083E+02 -0.44480723350E+02 -0.39457938221E+02  0.69756834695E+02  0.00000000000E+00 0.  1.
          3    1    6    6  503    0  0.17382897977E+03 -0.11768510288E+03 -0.70209915282E+01  0.21003712046E+03  0.00000000000E+00 0. -1.
         -3    1    6    6    0  503  0.16775012564E+03 -0.25343916679E+03 -0.39222261733E+02  0.30644722504E+03  0.00000000000E+00 0.  1.
<mgrwt>
<rscale>  0 0.17244545E+04</rscale>
<asrwt>0</asrwt>
<pdfrwt beam="1">  1        1 0.21130635E+00 0.17244545E+04</pdfrwt>
<pdfrwt beam="2">  1       -1 0.83273000E-01 0.17244545E+04</pdfrwt>
<totfact> 0.10902070E+01</totfact>
</mgrwt>
</event>
<event>
12    2  0.3751044E-008  0.2224434E+04  0.7818608E-02  0.8508326E-01
         -2   -1    0    0    0  501 -0.00000000000E+00  0.00000000000E+00  0.14866126919E+04  0.14866126919E+04  0.00000000000E+00 0.  1.
          2   -1    0    0  501    0  0.00000000000E+00 -0.00000000000E+00 -0.83211104396E+03  0.83211104396E+03  0.00000000000E+00 0. -1.
         23    2    1    2    0    0 -0.80909649559E+02  0.39478673125E+03 -0.59376075574E+03  0.72329424283E+03  0.90552703395E+02 0.  0.
        254    2    1    2    0    0  0.80909649559E+02 -0.39478673125E+03  0.12482624037E+04  0.15954294930E+04  0.90820333859E+03 0.  0.
         23    2    4    4    0    0  0.26808312072E+03  0.12842180863E+03  0.11843658785E+03  0.33311251748E+03  0.92606713654E+02 0.  0.
         23    2    4    4    0    0 -0.18717347116E+03 -0.52320853988E+03  0.11298258158E+04  0.12623169755E+04  0.90314384960E+02 0.  0.
          1    1    3    3  502    0 -0.88535630586E+02  0.38571482775E+03 -0.59076850603E+03  0.71107096266E+03  0.00000000000E+00 0. -1.
         -1    1    3    3    0  502  0.76259810271E+01  0.90719034988E+01 -0.29922497151E+01  0.12223280168E+02  0.00000000000E+00 0.  1.
         11    1    5    5    0    0  0.13348396195E+03  0.94640075555E+02  0.24303603793E+02  0.16542483839E+03  0.00000000000E+00 0.  1.
        -11    1    5    5    0    0  0.13459915877E+03  0.33781733075E+02  0.94132984060E+02  0.16768767909E+03  0.00000000000E+00 0. -1.
          4    1    6    6  503    0 -0.45482142657E+02 -0.25404126415E+03  0.48716254571E+03  0.55130112927E+03  0.00000000000E+00 0.  1.
         -4    1    6    6    0  503 -0.14169132851E+03 -0.26916727573E+03  0.64266327012E+03  0.71101584628E+03  0.00000000000E+00 0. -1.
<mgrwt>
<rscale>  0 0.22244342E+04</rscale>
<asrwt>0</asrwt>
<pdfrwt beam="1">  1        2 0.12801708E+00 0.22244342E+04</pdfrwt>
<pdfrwt beam="2">  1       -2 0.22870964E+00 0.22244342E+04</pdfrwt>
<totfact> 0.25951912E+00</totfact>
</mgrwt>
</event>
<event>
12    2  0.3751044E-008  0.1466543E+04  0.7818608E-02  0.8907012E-01
          1   -1    0    0  501    0  0.00000000000E+00  0.00000000000E+00  0.14995474139E+04  0.14995474139E+04  0.00000000000E+00 0. -1.
         -1   -1    0    0    0  501 -0.00000000000E+00 -0.00000000000E+00 -0.35856605092E+03  0.35856605092E+03  0.00000000000E+00 0.  1.
         23    2    1    2    0    0 -0.23163144143E+03 -0.25951494264E+03  0.71646135643E+03  0.80168340014E+03  0.91532883090E+02 0.  0.
        254    2    1    2    0    0  0.23163144143E+03  0.25951494264E+03  0.42452000656E+03  0.10564300647E+04  0.90267719340E+03 0.  0.
         23    2    4    4    0    0  0.42987209915E+03  0.32004962324E+01  0.54407454548E+03  0.69933067022E+03  0.90807546302E+02 0.  0.
         23    2    4    4    0    0 -0.19824065772E+03  0.25631444641E+03 -0.11955453892E+03  0.35709939447E+03  0.90720647819E+02 0.  0.
          3    1    3    3  502    0 -0.56303961286E+02 -0.10600244109E+03  0.17503028469E+03  0.21223160494E+03  0.00000000000E+00 0.  1.
         -3    1    3    3    0  502 -0.17532748015E+03 -0.15351250155E+03  0.54143107174E+03  0.58945179520E+03  0.00000000000E+00 0. -1.
         11    1    5    5    0    0  0.49759388093E+02  0.98684456947E+01  0.11720490571E+03  0.12771207009E+03  0.00000000000E+00 0. -1.
        -11    1    5    5    0    0  0.38011271106E+03 -0.66679494622E+01  0.42686963977E+03  0.57161860013E+03  0.00000000000E+00 0.  1.
          2    1    6    6  503    0 -0.18062935000E+03  0.25009278388E+03 -0.88645222122E+02  0.32098494986E+03  0.00000000000E+00 0.  1.
         -2    1    6    6    0  503 -0.17611307721E+02  0.62216625240E+01 -0.30909316798E+02  0.36114444606E+02  0.00000000000E+00 0. -1.
<mgrwt>
<rscale>  0 0.14665426E+04</rscale>
<asrwt>0</asrwt>
<pdfrwt beam="1">  1        1 0.23069960E+00 0.14665426E+04</pdfrwt>
<pdfrwt beam="2">  1       -1 0.55164009E-01 0.14665426E+04</pdfrwt>
<totfact> 0.21091103E+01</totfact>
</mgrwt>
</event>
<event>
12    2  0.3751044E-008  0.1755699E+04  0.7818608E-02  0.8730219E-01
         -2   -1    0    0    0  501 -0.00000000000E+00  0.00000000000E+00  0.52788650036E+03  0.52788650036E+03  0.00000000000E+00 0.  1.
          2   -1    0    0  501    0  0.00000000000E+00 -0.00000000000E+00 -0.14598212418E+04  0.14598212418E+04  0.00000000000E+00 0. -1.
         23    2    1    2    0    0 -0.42236721662E+03  0.23053650627E+02  0.19833513170E+03  0.47382219523E+03  0.79026019443E+02 0.  0.
        254    2    1    2    0    0  0.42236721662E+03 -0.23053650627E+02 -0.11302698731E+04  0.15138855469E+04  0.91400980664E+03 0.  0.
         23    2    4    4    0    0  0.29272898530E+03  0.29821488890E+03 -0.12366333431E+03  0.44514034667E+03  0.90746510550E+02 0.  0.
         23    2    4    4    0    0  0.12963823132E+03 -0.32126853953E+03 -0.10066065388E+04  0.10687452003E+04  0.94551750833E+02 0.  0.
          1    1    3    3  502    0 -0.23102921046E+03 -0.23423128257E+01  0.67705381043E+02  0.24075714140E+03  0.00000000000E+00 0. -1.
         -1    1    3    3    0  502 -0.19133800616E+03  0.25395963452E+02  0.13062975065E+03  0.23306505383E+03  0.00000000000E+00 0.  1.
         11    1    5    5    0    0  0.17687559867E+03  0.11667444775E+03 -0.52084074530E+02  0.21819865944E+03  0.00000000000E+00 0. -1.
        -11    1    5    5    0    0  0.11585338663E+03  0.18154044116E+03 -0.71579259779E+02  0.22694168722E+03  0.00000000000E+00 0.  1.
          1    1    6    6  503    0  0.12906356029E+03 -0.32779901521E+03 -0.98199481856E+03  0.10432753331E+04  0.00000000000E+00 0. -1.
         -1    1    6    6    0  503  0.57467102639E+00  0.65304756833E+01 -0.24611720273E+02  0.25469867182E+02  0.00000000000E+00 0.  1.
<mgrwt>
<rscale>  0 0.17556992E+04</rscale>
<asrwt>0</asrwt>
<pdfrwt beam="1">  1        2 0.22458788E+00 0.17556992E+04</pdfrwt>
<pdfrwt beam="2">  1       -2 0.81213308E-01 0.17556992E+04</pdfrwt>
<totfact> 0.16933866E+01</totfact>
</mgrwt>
</event>
<event>
12    2  0.3751044E-008  0.1147499E+04  0.7818608E-02  0.9160094E-01
          1   -1    0    0  501    0  0.00000000000E+00  0.00000000000E+00  0.54161130842E+03  0.54161130842E+03  0.00000000000E+00 0. -1.
         -1   -1    0    0    0  501 -0.00000000000E+00 -0.00000000000E+00 -0.60779469206E+03  0.60779469206E+03  0.00000000000E+00 0.  1.
         23    2    1    2    0    0 -0.59321594456E+01 -0.61167083780E+02 -0.20721933411E+03  0.23477292540E+03  0.91661722759E+02 0.  0.
        254    2    1    2    0    0  0.59321594456E+01  0.61167083780E+02  0.14103595047E+03  0.91463307508E+03  0.90160186338E+03 0.  0.
         23    2    4    4    0    0  0.20308912688E+02  0.13055995649E+03  0.50641083519E+03  0.53125951396E+03  0.91249016413E+02 0.  0.
         23    2    4    4    0    0 -0.14376753242E+02 -0.69392872709E+02 -0.36537488472E+03  0.38337356113E+03  0.91947915529E+02 0.  0.
          4    1    3    3  502    0  0.36750066331E+01 -0.72130839208E+02 -0.20799201729E+03  0.22017502786E+03  0.00000000000E+00 0.  1.
         -4    1    3    3    0  502 -0.96071660786E+01  0.10963755428E+02  0.77268318311E+00  0.14597897535E+02  0.00000000000E+00 0. -1.
         11    1    5    5    0    0  0.35027082936E+02  0.11745935529E+03  0.49149079482E+03  0.50654397447E+03  0.00000000000E+00 0.  1.
        -11    1    5    5    0    0 -0.14718170248E+02  0.13100601194E+02  0.14920040372E+02  0.24715539481E+02  0.00000000000E+00 0. -1.
          2    1    6    6  503    0 -0.11564152087E+02  0.15125397237E+02 -0.19278077082E+02  0.27095230412E+02  0.00000000000E+00 0. -1.
         -2    1    6    6    0  503 -0.28126011556E+01 -0.84518269946E+02 -0.34609680764E+03  0.35627833072E+03  0.00000000000E+00 0.  1.
<mgrwt>
<rscale>  0 0.11474990E+04</rscale>
<asrwt>0</asrwt>
<pdfrwt beam="1">  1        1 0.83324817E-01 0.11474990E+04</pdfrwt>
<pdfrwt beam="2">  1       -1 0.93506876E-01 0.11474990E+04</pdfrwt>
<totfact> 0.43715567E+01</totfact>
</mgrwt>
</event>
<event>
12    2  0.3751044E-008  0.1100253E+04  0.7818608E-02  0.9204945E-01
         -1   -1    0    0    0  501 -0.00000000000E+00  0.00000000000E+00  0.70998931705E+03  0.70998931705E+03  0.00000000000E+00 0.  1.
          1   -1    0    0  501    0  0.00000000000E+00 -0.00000000000E+00 -0.42625898467E+03  0.42625898467E+03  0.00000000000E+00 0. -1.
         23    2    1    2    0    0 -0.51344206630E+02 -0.13915303830E+03 -0.93173955847E+00  0.17616108348E+03  0.95037169412E+02 0.  0.
        254    2    1    2    0    0  0.51344206630E+02  0.13915303830E+03  0.28466207194E+03  0.96008721824E+03  0.90483986197E+03 0.  0.
         23    2    4    4    0    0  0.19114461132E+03  0.43017088246E+03 -0.54996178108E+02  0.48278687937E+03  0.92061613741E+02 0.  0.
         23    2    4    4    0    0 -0.13980040469E+03 -0.29101784416E+03  0.33965825005E+03  0.47730033887E+03  0.90622005553E+02 0.  0.
          1    1    3    3  502    0 -0.36847395928E+02 -0.10984503264E+03 -0.42380065426E+02  0.12336827683E+03  0.00000000000E+00 0. -1.
         -1    1    3    3    0  502 -0.14496810702E+02 -0.29308005660E+02  0.41448325867E+02  0.52792806646E+02  0.00000000000E+00 0.  1.
         11    1    5    5    0    0  0.17406421333E+03  0.41786401207E+03 -0.35441216493E+02  0.45405370032E+03  0.00000000000E+00 0.  1.
        -11    1    5    5    0    0  0.17080397996E+02  0.12306870395E+02 -0.19554961615E+02  0.28733179052E+02  0.00000000000E+00 0. -1.
          1    1    6    6  503    0 -0.26383804269E+02 -0.43670771618E+01  0.33020583249E+02  0.42491592212E+02  0.00000000000E+00 0. -1.
         -1    1    6    6    0  503 -0.11341660042E+03 -0.28665076700E+03  0.30663766680E+03  0.43480874666E+03  0.00000000000E+00 0.  1.
<mgrwt>
<rscale>  0 0.11002533E+04</rscale>
<asrwt>0</asrwt>
<pdfrwt beam="1">  1        1 0.65578305E-01 0.11002533E+04</pdfrwt>
<pdfrwt beam="2">  1       -1 0.10922913E+00 0.11002533E+04</pdfrwt>
<totfact> 0.42623667E+01</totfact>
</mgrwt>
</event>
<event>
12    2  0.3751044E-008  0.1921652E+04  0.7818608E-02  0.8644153E-01
          1   -1    0    0  501    0  0.00000000000E+00  0.00000000000E+00  0.14515070872E+04  0.14515070872E+04  0.00000000000E+00 0. -1.
         -1   -1    0    0    0  501 -0.00000000000E+00 -0.00000000000E+00 -0.63601933263E+03  0.63601933263E+03  0.00000000000E+00 0.  1.
         23    2    1    2    0    0  0.34675883853E+03 -0.15435575401E+03  0.96271358611E+03  0.10386772263E+04  0.89249877970E+02 0.  0.
        254    2    1    2    0    0 -0.34675883853E+03  0.15435575401E+03 -0.14722583150E+03  0.10488491935E+04  0.96661357038E+03 0.  0.
         23    2    4    4    0    0 -0.35781243713E+03  0.51995714668E+03  0.16960153155E+02  0.63782365222E+03  0.90256246214E+02 0.  0.
         23    2    4    4    0    0  0.11053598609E+02 -0.36560139267E+03 -0.16418598465E+03  0.41102554132E+03  0.90545003712E+02 0.  0.
          2    1    3    3  502    0  0.78717116245E+02 -0.99842708049E+01  0.28264056134E+03  0.29356729546E+03  0.00000000000E+00 0. -1.
         -2    1    3    3    0  502  0.26804172228E+03 -0.14437148320E+03  0.68007302477E+03  0.74510993086E+03  0.00000000000E+00 0.  1.
         11    1    5    5    0    0 -0.29948790303E+03  0.38868963957E+03 -0.13990895948E+02  0.49088530752E+03  0.00000000000E+00 0. -1.
        -11    1    5    5    0    0 -0.58324534102E+02  0.13126750711E+03  0.30951049103E+02  0.14693834469E+03  0.00000000000E+00 0.  1.
          1    1    6    6  503    0  0.37512459609E+02 -0.32796623331E+03 -0.13565276736E+03  0.35689033065E+03  0.00000000000E+00 0. -1.
         -1    1    6    6    0  503 -0.26458861001E+02 -0.37635159360E+02 -0.28533217295E+02  0.54135210674E+02  0.00000000000E+00 0.  1.
<mgrwt>
<rscale>  0 0.19216520E+04</rscale>
<asrwt>0</asrwt>
<pdfrwt beam="1">  1        1 0.22330878E+00 0.19216520E+04</pdfrwt>
<pdfrwt beam="2">  1       -1 0.97849129E-01 0.19216520E+04</pdfrwt>
<totfact> 0.66131782E+00</totfact>
</mgrwt>
</event>
<event>
12    2  0.3751044E-008  0.1824366E+04  0.7818608E-02  0.8693448E-01
         -2   -1    0    0    0  501 -0.00000000000E+00  0.00000000000E+00  0.37375223052E+03  0.37375223052E+03  0.00000000000E+00 0. -1.
          2   -1    0    0  501    0  0.00000000000E+00 -0.00000000000E+00 -0.22262808844E+04  0.22262808844E+04  0.00000000000E+00 0.  1.
         23    2    1    2    0    0  0.63115974215E+03 -0.24190229424E+03 -0.87439158542E+03  0.11089451449E+04  0.91210468564E+02 0.  0.
        254    2    1    2    0    0 -0.63115974215E+03  0.24190229424E+03 -0.97813706844E+03  0.14910879700E+04  0.89983991335E+03 0.  0.
         23    2    4    4    0    0 -0.46840924049E+02 -0.18159013321E+03 -0.66888044350E+03  0.70059864592E+03  0.90930557757E+02 0.  0.
         23    2    4    4    0    0 -0.58431881810E+03  0.42349242744E+03 -0.30925662495E+03  0.79048932412E+03  0.91974964960E+02 0.  0.
          2    1    3    3  502    0  0.55792562986E+03 -0.19114565087E+03 -0.72023735309E+03  0.93089178377E+03  0.00000000000E+00 0. -1.
         -2    1    3    3    0  502  0.73234112290E+02 -0.50756643368E+02 -0.15415423233E+03  0.17805336109E+03  0.00000000000E+00 0.  1.
         11    1    5    5    0    0 -0.48737982493E+02 -0.11720497173E+03 -0.55899450703E+03  0.57322530930E+03  0.00000000000E+00 0. -1.
        -11    1    5    5    0    0  0.18970584443E+01 -0.64385161472E+02 -0.10988593647E+03  0.12737333662E+03  0.00000000000E+00 0.  1.
          2    1    6    6  503    0 -0.89909731290E+02  0.27442578445E+02 -0.39564723622E+02  0.10199128516E+03  0.00000000000E+00 0. -1.
         -2    1    6    6    0  503 -0.49440908681E+03  0.39604984900E+03 -0.26969190133E+03  0.68849803896E+03  0.00000000000E+00 0.  1.
<mgrwt>
<rscale>  0 0.18243656E+04</rscale>
<asrwt>0</asrwt>
<pdfrwt beam="1">  1        2 0.34250475E+00 0.18243656E+04</pdfrwt>
<pdfrwt beam="2">  1       -2 0.57500344E-01 0.18243656E+04</pdfrwt>
<totfact> 0.13325919E+01</totfact>
</mgrwt>
</event>
<event>
12    2  0.3751044E-008  0.1343446E+04  0.7818608E-02  0.8995804E-01
         -1   -1    0    0    0  501 -0.00000000000E+00  0.00000000000E+00  0.94364415890E+03  0.94364415890E+03  0.00000000000E+00 0.  1.
          1   -1    0    0  501    0  0.00000000000E+00 -0.00000000000E+00 -0.47815875071E+03  0.47815875071E+03  0.00000000000E+00 0. -1.
         23    2    1    2    0    0 -0.66650312402E+01 -0.35157955397E+03  0.23009346965E+03  0.42990392407E+03  0.90673997060E+02 0.  0.
        254    2    1    2    0    0  0.66650312402E+01  0.35157955397E+03  0.23539193854E+03  0.99189898554E+03  0.89710736669E+03 0.  0.
         23    2    4    4    0    0  0.39836056780E+03  0.27638756198E+03  0.30047710833E+03  0.57778523982E+03  0.92022086056E+02 0.  0.
         23    2    4    4    0    0 -0.39169553656E+03  0.75191991986E+02 -0.65085169789E+02  0.41411374572E+03  0.90415076434E+02 0.  0.
          1    1    3    3  502    0 -0.69978093557E+01 -0.20596523716E+03  0.80804825469E+02  0.22135958997E+03  0.00000000000E+00 0. -1.
         -1    1    3    3    0  502  0.33277811541E+00 -0.14561431681E+03  0.14928864418E+03  0.20854433409E+03  0.00000000000E+00 0.  1.
         11    1    5    5    0    0  0.35333997401E+03  0.20651399452E+03  0.23469175560E+03  0.47178107986E+03  0.00000000000E+00 0.  1.
        -11    1    5    5    0    0  0.45020593797E+02  0.69873567458E+02  0.65785352724E+02  0.10600415996E+03  0.00000000000E+00 0. -1.
          3    1    6    6  503    0 -0.10172481358E+03  0.60817574104E+02 -0.23455395876E+02  0.12081750954E+03  0.00000000000E+00 0. -1.
         -3    1    6    6    0  503 -0.28997072299E+03  0.14374417882E+02 -0.41629773913E+02  0.29329623618E+03  0.00000000000E+00 0.  1.
<mgrwt>
<rscale>  0 0.13434459E+04</rscale>
<asrwt>0</asrwt>
<pdfrwt beam="1">  1        1 0.73562885E-01 0.13434459E+04</pdfrwt>
<pdfrwt beam="2">  1       -1 0.14517602E+00 0.13434459E+04</pdfrwt>
<totfact> 0.17582197E+01</totfact>
</mgrwt>
</event>
<event>
12    2  0.3751044E-008  0.2012413E+04  0.7818608E-02  0.8600839E-01
         -1   -1    0    0    0  501 -0.00000000000E+00  0.00000000000E+00  0.35811263305E+03  0.35811263305E+03  0.00000000000E+00 0.  1.
          1   -1    0    0  501    0  0.00000000000E+00 -0.00000000000E+00 -0.28271866955E+04  0.28271866955E+04  0.00000000000E+00 0. -1.
         23    2    1    2    0    0 -0.42844187197E+03  0.61014622161E+03 -0.14676916850E+04  0.16486641132E+04  0.90186619307E+02 0.  0.
        254    2    1    2    0    0  0.42844187197E+03 -0.61014622161E+03 -0.10013823774E+04  0.15366352153E+04  0.89590193098E+03 0.  0.
         23    2    4    4    0    0 -0.20732334909E+03  0.63099791461E+02 -0.21619048238E+03  0.31916790934E+03  0.90361910779E+02 0.  0.
         23    2    4    4    0    0  0.63576522107E+03 -0.67324601307E+03 -0.78519189499E+03  0.12174673060E+04  0.90789420117E+02 0.  0.
          4    1    3    3  502    0 -0.18684895212E+02  0.10182288121E+02 -0.21607331945E+02  0.30326244315E+02  0.00000000000E+00 0.  1.
         -4    1    3    3    0  502 -0.40975697676E+03  0.59996393349E+03 -0.14460843531E+04  0.16183378689E+04  0.00000000000E+00 0. -1.
         11    1    5    5    0    0 -0.19874011949E+03  0.71097768060E+02 -0.16857877051E+03  0.27013205953E+03  0.00000000000E+00 0. -1.
        -11    1    5    5    0    0 -0.85832296082E+01 -0.79979765987E+01 -0.47611711866E+02  0.49035849814E+02  0.00000000000E+00 0.  1.
          3    1    6    6  503    0  0.59313365816E+03 -0.65549539073E+03 -0.75199699720E+03  0.11605952040E+04  0.00000000000E+00 0. -1.
         -3    1    6    6    0  503  0.42631562911E+02 -0.17750622343E+02 -0.33194897793E+02  0.56872102030E+02  0.00000000000E+00 0.  1.
<mgrwt>
<rscale>  0 0.20124128E+04</rscale>
<asrwt>0</asrwt>
<pdfrwt beam="1">  1        1 0.43495181E+00 0.20124128E+04</pdfrwt>
<pdfrwt beam="2">  1       -1 0.55094250E-01 0.20124128E+04</pdfrwt>
<totfact> 0.24622087E+00</totfact>
</mgrwt>
</event>
<event>
12    2  0.3751044E-008  0.1661981E+04  0.7818608E-02  0.8783350E-01
          1   -1    0    0  501    0  0.00000000000E+00  0.00000000000E+00  0.27192166131E+04  0.27192166131E+04  0.00000000000E+00 0.  1.
         -1   -1    0    0    0  501 -0.00000000000E+00 -0.00000000000E+00 -0.25394997248E+03  0.25394997248E+03  0.00000000000E+00 0. -1.
         23    2    1    2    0    0  0.22274868679E+03  0.52018294469E+03  0.11310472984E+04  0.12681496297E+04  0.93424936035E+02 0.  0.
        254    2    1    2    0    0 -0.22274868679E+03 -0.52018294469E+03  0.13342193422E+04  0.17050169559E+04  0.89818388611E+03 0.  0.
         23    2    4    4    0    0 -0.14188231025E+03  0.14881391652E+03  0.82711986717E+03  0.85720453347E+03  0.91630594351E+02 0.  0.
         23    2    4    4    0    0 -0.80866376549E+02 -0.66899686121E+03  0.50709947506E+03  0.84781242242E+03  0.86832337515E+02 0.  0.
          3    1    3    3  502    0  0.11375304373E+03  0.34649341656E+03  0.65204053665E+03  0.74709725211E+03  0.00000000000E+00 0. -1.
         -3    1    3    3    0  502  0.10899564306E+03  0.17368952813E+03  0.47900676174E+03  0.52105237758E+03  0.00000000000E+00 0.  1.
         11    1    5    5    0    0 -0.55790374573E+02  0.78043499496E+02  0.22099778738E+03  0.24092192872E+03  0.00000000000E+00 0.  1.
        -11    1    5    5    0    0 -0.86091935672E+02  0.70770417023E+02  0.60612207979E+03  0.61628260475E+03  0.00000000000E+00 0. -1.
          2    1    6    6  503    0 -0.63224391645E+02 -0.39884885144E+03  0.25310261425E+03  0.47659066644E+03  0.00000000000E+00 0. -1.
         -2    1    6    6    0  503 -0.17641984904E+02 -0.27014800976E+03  0.25399686081E+03  0.37122175598E+03  0.00000000000E+00 0.  1.
<mgrwt>
<rscale>  0 0.16619807E+04</rscale>
<asrwt>0</asrwt>
<pdfrwt beam="1">  1        1 0.41834100E+00 0.16619807E+04</pdfrwt>
<pdfrwt beam="2">  1       -1 0.39069228E-01 0.16619807E+04</pdfrwt>
<totfact> 0.57896755E+00</totfact>
</mgrwt>
</event>
<event>
12    2  0.3751044E-008  0.1970538E+04  0.7818608E-02  0.8620520E-01
         -2   -1    0    0    0  501 -0.00000000000E+00  0.00000000000E+00  0.41791246196E+03  0.41791246196E+03  0.00000000000E+00 0. -1.
          2   -1    0    0  501    0  0.00000000000E+00 -0.00000000000E+00 -0.23228667543E+04  0.23228667543E+04  0.00000000000E+00 0.  1.
         23    2    1    2    0    0  0.22407101231E+03  0.44252300142E+03 -0.15951641893E+04  0.16729762090E+04  0.90918534420E+02 0.  0.
        254    2    1    2    0    0 -0.22407101231E+03 -0.44252300142E+03 -0.30979010308E+03  0.10678030072E+04  0.89341979437E+03 0.  0.
         23    2    4    4    0    0 -0.49968023458E+03 -0.51175803869E+03 -0.18509727219E+03  0.74440027141E+03  0.91072152251E+02 0.  0.
         23    2    4    4    0    0  0.27560922226E+03  0.69235037268E+02 -0.12469283089E+03  0.32340273583E+03  0.91033475636E+02 0.  0.
          2    1    3    3  502    0  0.17868463090E+03  0.41120104209E+03 -0.14478193069E+04  0.15156501046E+04  0.00000000000E+00 0.  1.
         -2    1    3    3    0  502  0.45386381414E+02  0.31321959338E+02 -0.14734488238E+03  0.15732610438E+03  0.00000000000E+00 0. -1.
         11    1    5    5    0    0 -0.12846775581E+03 -0.10046330310E+03 -0.75094541502E+02  0.17954394927E+03  0.00000000000E+00 0.  1.
        -11    1    5    5    0    0 -0.37121247876E+03 -0.41129473559E+03 -0.11000273069E+03  0.56485632215E+03  0.00000000000E+00 0. -1.
          1    1    6    6  503    0  0.25239240791E+03  0.65743940262E+02 -0.79813532102E+02  0.27275335591E+03  0.00000000000E+00 0. -1.
         -1    1    6    6    0  503  0.23216814354E+02  0.34910970063E+01 -0.44879298791E+02  0.50649379927E+02  0.00000000000E+00 0.  1.
<mgrwt>
<rscale>  0 0.19705380E+04</rscale>
<asrwt>0</asrwt>
<pdfrwt beam="1">  1        2 0.35736411E+00 0.19705380E+04</pdfrwt>
<pdfrwt beam="2">  1       -2 0.64294225E-01 0.19705380E+04</pdfrwt>
<totfact> 0.91601903E+00</totfact>
</mgrwt>
</event>
<event>
12    2  0.3751044E-008  0.2253015E+04  0.7818608E-02  0.8496680E-01
         -1   -1    0    0    0  501 -0.00000000000E+00  0.00000000000E+00  0.61640323025E+03  0.61640323025E+03  0.00000000000E+00 0.  1.
          1   -1    0    0  501    0  0.00000000000E+00 -0.00000000000E+00 -0.20587492532E+04  0.20587492532E+04  0.00000000000E+00 0. -1.
         23    2    1    2    0    0  0.32699983762E+01 -0.49177238764E+03 -0.15591153200E+04  0.16392847038E+04  0.12067719410E+03 0.  0.
        254    2    1    2    0    0 -0.32699983762E+01  0.49177238764E+03  0.11676929699E+03  0.10358677796E+04  0.90417709217E+03 0.  0.
         23    2    4    4    0    0 -0.24601389613E+03  0.66145715354E+03  0.28781975080E+02  0.71239710295E+03  0.92913008461E+02 0.  0.
         23    2    4    4    0    0  0.24274389775E+03 -0.16968476590E+03  0.87987321912E+02  0.32347067668E+03  0.95780948940E+02 0.  0.
          4    1    3    3  502    0  0.57324507012E+02 -0.34471121078E+03 -0.10998502556E+04  0.11540288136E+04  0.00000000000E+00 0. -1.
         -4    1    3    3    0  502 -0.54054508636E+02 -0.14706117686E+03 -0.45926506435E+03  0.48525589020E+03  0.00000000000E+00 0.  1.
         11    1    5    5    0    0 -0.24101985407E+03  0.65672548172E+03  0.38356800626E+02  0.70060700292E+03  0.00000000000E+00 0. -1.
        -11    1    5    5    0    0 -0.49940420560E+01  0.47316718229E+01 -0.95748255463E+01  0.11790100022E+02  0.00000000000E+00 0.  1.
          3    1    6    6  503    0  0.36385663243E+02 -0.18095081225E+02 -0.20343093711E+02  0.45444360661E+02  0.00000000000E+00 0.  1.
         -3    1    6    6    0  503  0.20635823451E+03 -0.15158968467E+03  0.10833041562E+03  0.27802631602E+03  0.00000000000E+00 0. -1.
<mgrwt>
<rscale>  0 0.22530155E+04</rscale>
<asrwt>0</asrwt>
<pdfrwt beam="1">  1        1 0.31673066E+00 0.22530155E+04</pdfrwt>
<pdfrwt beam="2">  1       -1 0.94831265E-01 0.22530155E+04</pdfrwt>
<totfact> 0.26517521E+00</totfact>
</mgrwt>
</event>
<event>
12    2  0.3751044E-008  0.2172641E+04  0.7818608E-02  0.8529902E-01
          1   -1    0    0  501    0  0.00000000000E+00  0.00000000000E+00  0.10392399593E+04  0.10392399593E+04  0.00000000000E+00 0. -1.
         -1   -1    0    0    0  501 -0.00000000000E+00 -0.00000000000E+00 -0.11355344443E+04  0.11355344443E+04  0.00000000000E+00 0.  1.
         23    2    1    2    0    0  0.78754239971E+03 -0.16615291512E+03  0.35214860656E+03  0.88314038266E+03  0.89991509790E+02 0.  0.
        254    2    1    2    0    0 -0.78754239971E+03  0.16615291512E+03 -0.44844309155E+03  0.12916340209E+04  0.90520020716E+03 0.  0.
         23    2    4    4    0    0 -0.58993314233E+03  0.46489693359E+03 -0.65357380198E+02  0.75937495304E+03  0.90710864177E+02 0.  0.
         23    2    4    4    0    0 -0.19760925738E+03 -0.29874401847E+03 -0.38308571135E+03  0.53225906786E+03  0.90816550842E+02 0.  0.
          1    1    3    3  502    0  0.30875787691E+03 -0.60400913757E+02  0.18573580366E+03  0.36534570710E+03  0.00000000000E+00 0. -1.
         -1    1    3    3    0  502  0.47878452280E+03 -0.10575200137E+03  0.16641280291E+03  0.51779467556E+03  0.00000000000E+00 0.  1.
         11    1    5    5    0    0 -0.14950676944E+03  0.79033174795E+02 -0.37178366850E+02  0.17314949549E+03  0.00000000000E+00 0. -1.
        -11    1    5    5    0    0 -0.44042637288E+03  0.38586375879E+03 -0.28179013348E+02  0.58622545755E+03  0.00000000000E+00 0.  1.
          3    1    6    6  503    0 -0.66052427359E+02 -0.81707269077E+02 -0.58583189137E+02  0.12029543229E+03  0.00000000000E+00 0. -1.
         -3    1    6    6    0  503 -0.13155683003E+03 -0.21703674939E+03 -0.32450252222E+03  0.41196363558E+03  0.00000000000E+00 0.  1.
<mgrwt>
<rscale>  0 0.21726415E+04</rscale>
<asrwt>0</asrwt>
<pdfrwt beam="1">  1        1 0.15988307E+00 0.21726415E+04</pdfrwt>
<pdfrwt beam="2">  1       -1 0.17469761E+00 0.21726415E+04</pdfrwt>
<totfact> 0.29306977E+00</totfact>
</mgrwt>
</event>
<event>
12    2  0.3751044E-008  0.1258492E+04  0.7818608E-02  0.9063145E-01
         -2   -1    0    0    0  501 -0.00000000000E+00  0.00000000000E+00  0.16142118042E+03  0.16142118042E+03  0.00000000000E+00 0.  1.
          2   -1    0    0  501    0  0.00000000000E+00 -0.00000000000E+00 -0.24529037299E+04  0.24529037299E+04  0.00000000000E+00 0. -1.
         23    2    1    2    0    0  0.22430052543E+03  0.54934340235E+02 -0.15203631002E+03  0.29090138749E+03  0.90443740729E+02 0.  0.
        254    2    1    2    0    0 -0.22430052543E+03 -0.54934340235E+02 -0.21394462395E+04  0.23234235229E+04  0.87620668078E+03 0.  0.
         23    2    4    4    0    0 -0.51641204621E+03  0.13467371164E+03 -0.14070044852E+04  0.15072932022E+04  0.86329403154E+02 0.  0.
         23    2    4    4    0    0  0.29211152078E+03 -0.18960805187E+03 -0.73244175424E+03  0.81613032065E+03  0.91199906857E+02 0.  0.
          3    1    3    3  502    0  0.13816913122E+03  0.61314938466E+02 -0.13541964889E+03  0.20295002293E+03  0.00000000000E+00 0. -1.
         -3    1    3    3    0  502  0.86131394208E+02 -0.63805982314E+01 -0.16616661131E+02  0.87951364567E+02  0.00000000000E+00 0.  1.
         11    1    5    5    0    0 -0.14265572273E+03  0.61114243593E+02 -0.32403823882E+03  0.35928593935E+03  0.00000000000E+00 0. -1.
        -11    1    5    5    0    0 -0.37375632348E+03  0.73559468043E+02 -0.10829662464E+04  0.11480072629E+04  0.00000000000E+00 0.  1.
          4    1    6    6  503    0  0.22952761033E+02  0.64939176187E+01 -0.81914728159E+02  0.85317189912E+02  0.00000000000E+00 0. -1.
         -4    1    6    6    0  503  0.26915875975E+03 -0.19610196949E+03 -0.65052702609E+03  0.73081313074E+03  0.00000000000E+00 0.  1.
<mgrwt>
<rscale>  0 0.12584921E+04</rscale>
<asrwt>0</asrwt>
<pdfrwt beam="1">  1        2 0.37736982E+00 0.12584921E+04</pdfrwt>
<pdfrwt beam="2">  1       -2 0.24834027E-01 0.12584921E+04</pdfrwt>
<totfact> 0.53158134E+01</totfact>
</mgrwt>
</event>
<event>
12    2  0.3751044E-008  0.1979830E+04  0.7818608E-02  0.8616109E-01
         -2   -1    0    0    0  501 -0.00000000000E+00  0.00000000000E+00  0.11172846093E+04  0.11172846093E+04  0.00000000000E+00 0.  1.
          2   -1    0    0  501    0  0.00000000000E+00 -0.00000000000E+00 -0.87706566904E+03  0.87706566904E+03  0.00000000000E+00 0. -1.
         23    2    1    2    0    0  0.32855983711E+03 -0.17775018169E+03  0.78527804300E+03  0.87475082902E+03  0.94766631199E+02 0.  0.
        254    2    1    2    0    0 -0.32855983711E+03  0.17775018169E+03 -0.54505910274E+03  0.11195994493E+04  0.90380684210E+03 0.  0.
         23    2    4    4    0    0 -0.14591275236E+03 -0.18825349538E+03 -0.64267246685E+03  0.69065970717E+03  0.85164673650E+02 0.  0.
         23    2    4    4    0    0 -0.18264708475E+03  0.36600367707E+03  0.97613364113E+02  0.42893974217E+03  0.84512036788E+02 0.  0.
          1    1    3    3  502    0  0.14185389716E+03 -0.11557990560E+03  0.30434667521E+03  0.35511708130E+03  0.00000000000E+00 0. -1.
         -1    1    3    3    0  502  0.18670593995E+03 -0.62170276096E+02  0.48093136779E+03  0.51963374772E+03  0.00000000000E+00 0.  1.
         11    1    5    5    0    0 -0.14654612507E+03 -0.13938769346E+03 -0.48180719947E+03  0.52253504507E+03  0.00000000000E+00 0.  1.
        -11    1    5    5    0    0  0.63337271355E+00 -0.48865801914E+02 -0.16086526738E+03  0.16812466210E+03  0.00000000000E+00 0. -1.
          2    1    6    6  503    0 -0.13474344517E+03  0.25952381973E+03  0.29841383689E+02  0.29393692725E+03  0.00000000000E+00 0. -1.
         -2    1    6    6    0  503 -0.47903639582E+02  0.10647985734E+03  0.67771980425E+02  0.13500281491E+03  0.00000000000E+00 0.  1.
<mgrwt>
<rscale>  0 0.19798303E+04</rscale>
<asrwt>0</asrwt>
<pdfrwt beam="1">  1        2 0.13493318E+00 0.19798303E+04</pdfrwt>
<pdfrwt beam="2">  1       -2 0.17188994E+00 0.19798303E+04</pdfrwt>
<totfact> 0.58433807E+00</totfact>
</mgrwt>
</event>
<event>
12    2  0.3751044E-008  0.2030172E+04  0.7818608E-02  0.8592643E-01
          2   -1    0    0  501    0  0.00000000000E+00  0.00000000000E+00  0.83996075424E+03  0.83996075424E+03  0.00000000000E+00 0. -1.
         -2   -1    0    0    0  501 -0.00000000000E+00 -0.00000000000E+00 -0.12267234055E+04  0.12267234055E+04  0.00000000000E+00 0.  1.
         23    2    1    2    0    0  0.47362262352E+03  0.50933327351E+03  0.31587933133E+03  0.76996104468E+03  0.96547839683E+02 0.  0.
        254    2    1    2    0    0 -0.47362262352E+03 -0.50933327351E+03 -0.70264198263E+03  0.12967231151E+04  0.83907467396E+03 0.  0.
         23    2    4    4    0    0  0.25514767600E+02 -0.11475914802E+03  0.16122134776E+03  0.22003029605E+03  0.92738033106E+02 0.  0.
         23    2    4    4    0    0 -0.49913739113E+03 -0.39457412550E+03 -0.86386333039E+03  0.10766928191E+04  0.90447207216E+02 0.  0.
          4    1    3    3  502    0  0.58909726355E+02  0.46172131071E+02  0.53821661942E+01  0.75041250388E+02  0.00000000000E+00 0.  1.
         -4    1    3    3    0  502  0.41471289717E+03  0.46316114244E+03  0.31049716513E+03  0.69491979429E+03  0.00000000000E+00 0. -1.
         11    1    5    5    0    0 -0.26821694606E+02 -0.39600366105E+01  0.32141863740E+02  0.42049787112E+02  0.00000000000E+00 0. -1.
        -11    1    5    5    0    0  0.52336462206E+02 -0.11079911141E+03  0.12907948402E+03  0.17798050893E+03  0.00000000000E+00 0.  1.
          1    1    6    6  503    0 -0.20857820891E+03 -0.12684955048E+03 -0.27694920361E+03  0.36918361160E+03  0.00000000000E+00 0. -1.
         -1    1    6    6    0  503 -0.29055918222E+03 -0.26772457502E+03 -0.58691412678E+03  0.70750920747E+03  0.00000000000E+00 0.  1.
<mgrwt>
<rscale>  0 0.20301719E+04</rscale>
<asrwt>0</asrwt>
<pdfrwt beam="1">  1        2 0.12922473E+00 0.20301719E+04</pdfrwt>
<pdfrwt beam="2">  1       -2 0.18872668E+00 0.20301719E+04</pdfrwt>
<totfact> 0.47240577E+00</totfact>
</mgrwt>
</event>
<event>
12    2  0.3751044E-008  0.1685672E+04  0.7818608E-02  0.8769579E-01
          1   -1    0    0  501    0  0.00000000000E+00  0.00000000000E+00  0.16051088212E+04  0.16051088212E+04  0.00000000000E+00 0. -1.
         -1   -1    0    0    0  501 -0.00000000000E+00 -0.00000000000E+00 -0.44256952470E+03  0.44256952470E+03  0.00000000000E+00 0.  1.
         23    2    1    2    0    0 -0.21718119220E+02  0.30905822792E+03 -0.20431062530E+03  0.38167464109E+03  0.89129316705E+02 0.  0.
        254    2    1    2    0    0  0.21718119220E+02 -0.30905822792E+03  0.13668499218E+04  0.16660037048E+04  0.90072247155E+03 0.  0.
         23    2    4    4    0    0  0.11544539343E+03 -0.31464977237E+03  0.59721174231E+02  0.35224094435E+03  0.90415408570E+02 0.  0.
         23    2    4    4    0    0 -0.93727274212E+02  0.55915444540E+01  0.13071287476E+04  0.13137627605E+04  0.92579483368E+02 0.  0.
          1    1    3    3  502    0 -0.28572016604E+02  0.29386042062E+02 -0.13951511823E+02  0.43296007703E+02  0.00000000000E+00 0. -1.
         -1    1    3    3    0  502  0.68538973835E+01  0.27967218585E+03 -0.19035911347E+03  0.33837863339E+03  0.00000000000E+00 0.  1.
         11    1    5    5    0    0  0.22124536528E+02 -0.15629198887E+03  0.58750080351E+02  0.16842877677E+03  0.00000000000E+00 0. -1.
        -11    1    5    5    0    0  0.93320856904E+02 -0.15835778350E+03  0.97109387993E+00  0.18381216758E+03  0.00000000000E+00 0.  1.
          1    1    6    6  503    0 -0.72742540570E+02  0.78836026818E+01  0.12599963558E+04  0.12621190296E+04  0.00000000000E+00 0. -1.
         -1    1    6    6    0  503 -0.20984733642E+02 -0.22920582278E+01  0.47132391789E+02  0.51643730817E+02  0.00000000000E+00 0.  1.
<mgrwt>
<rscale>  0 0.16856717E+04</rscale>
<asrwt>0</asrwt>
<pdfrwt beam="1">  1        1 0.24693982E+00 0.16856717E+04</pdfrwt>
<pdfrwt beam="2">  1       -1 0.68087620E-01 0.16856717E+04</pdfrwt>
<totfact> 0.11516094E+01</totfact>
</mgrwt>
</event>
<event>
12    2  0.3751044E-008  0.1391998E+04  0.7818608E-02  0.8959631E-01
         -2   -1    0    0    0  501 -0.00000000000E+00  0.00000000000E+00  0.50013608747E+03  0.50013608747E+03  0.00000000000E+00 0.  1.
          2   -1    0    0  501    0  0.00000000000E+00 -0.00000000000E+00 -0.96856530371E+03  0.96856530371E+03  0.00000000000E+00 0. -1.
         23    2    1    2    0    0 -0.15691377300E+03  0.74320908512E+02 -0.50922061084E+03  0.54565664043E+03  0.91049487322E+02 0.  0.
        254    2    1    2    0    0  0.15691377300E+03 -0.74320908512E+02  0.40791394605E+02  0.92304475075E+03  0.90565012252E+03 0.  0.
         23    2    4    4    0    0  0.40459341760E+03  0.23896561300E+03  0.14723508236E+03  0.49965677995E+03  0.84725028826E+02 0.  0.
         23    2    4    4    0    0 -0.24767964460E+03 -0.31328652151E+03 -0.10644368775E+03  0.42338797081E+03  0.91833894885E+02 0.  0.
          1    1    3    3  502    0 -0.16167849746E+03  0.48471646753E+02 -0.42007516471E+03  0.45271688845E+03  0.00000000000E+00 0. -1.
         -1    1    3    3    0  502  0.47647244615E+01  0.25849261759E+02 -0.89145446123E+02  0.92939751975E+02  0.00000000000E+00 0.  1.
         11    1    5    5    0    0  0.39487895674E+03  0.24382174481E+03  0.13506120535E+03  0.48334249028E+03  0.00000000000E+00 0.  1.
        -11    1    5    5    0    0  0.97144608576E+01 -0.48561318136E+01  0.12173877004E+02  0.16314289665E+02  0.00000000000E+00 0. -1.
          2    1    6    6  503    0  0.62639049850E+00 -0.35723585392E+02 -0.20452138599E+02  0.41168639661E+02  0.00000000000E+00 0. -1.
         -2    1    6    6    0  503 -0.24830603510E+03 -0.27756293612E+03 -0.85991549155E+02  0.38221933115E+03  0.00000000000E+00 0.  1.
<mgrwt>
<rscale>  0 0.13919978E+04</rscale>
<asrwt>0</asrwt>
<pdfrwt beam="1">  1        2 0.14901005E+00 0.13919978E+04</pdfrwt>
<pdfrwt beam="2">  1       -2 0.76944014E-01 0.13919978E+04</pdfrwt>
<totfact> 0.38790239E+01</totfact>
</mgrwt>
</event>
<event>
12    2  0.3751044E-008  0.2605953E+04  0.7818608E-02  0.8366182E-01
          2   -1    0    0  501    0  0.00000000000E+00  0.00000000000E+00  0.27451646236E+04  0.27451646236E+04  0.00000000000E+00 0. -1.
         -2   -1    0    0    0  501 -0.00000000000E+00 -0.00000000000E+00 -0.61845049087E+03  0.61845049087E+03  0.00000000000E+00 0.  1.
         23    2    1    2    0    0 -0.41156243898E+03 -0.40595155647E+03 -0.33738982946E+03  0.67543788750E+03  0.90576682849E+02 0.  0.
        254    2    1    2    0    0  0.41156243898E+03  0.40595155647E+03  0.24641039622E+04  0.26881772269E+04  0.90570865055E+03 0.  0.
         23    2    4    4    0    0  0.58291001458E+02  0.56467744649E+03  0.19766391855E+04  0.20585742198E+04  0.91470701745E+02 0.  0.
         23    2    4    4    0    0  0.35327143752E+03 -0.15872589002E+03  0.48746477665E+03  0.62960300714E+03  0.93719909275E+02 0.  0.
          1    1    3    3  502    0 -0.19372604600E+03 -0.22309859993E+03 -0.12669167569E+03  0.32148646454E+03  0.00000000000E+00 0. -1.
         -1    1    3    3    0  502 -0.21783639297E+03 -0.18285295654E+03 -0.21069815377E+03  0.35395142297E+03  0.00000000000E+00 0.  1.
         11    1    5    5    0    0  0.41280590172E+02  0.49838701042E+03  0.18236181235E+04  0.18909459960E+04  0.00000000000E+00 0.  1.
        -11    1    5    5    0    0  0.17010411286E+02  0.66290436070E+02  0.15302106200E+03  0.16762822382E+03  0.00000000000E+00 0. -1.
          2    1    6    6  503    0  0.23947357768E+03 -0.14983750275E+03  0.37360300994E+03  0.46837813855E+03  0.00000000000E+00 0. -1.
         -2    1    6    6    0  503  0.11379785984E+03 -0.88883872652E+01  0.11386176671E+03  0.16122486859E+03  0.00000000000E+00 0.  1.
<mgrwt>
<rscale>  0 0.26059535E+04</rscale>
<asrwt>0</asrwt>
<pdfrwt beam="1">  1        2 0.42233301E+00 0.26059535E+04</pdfrwt>
<pdfrwt beam="2">  1       -2 0.95146231E-01 0.26059535E+04</pdfrwt>
<totfact> 0.20483476E+00</totfact>
</mgrwt>
</event>
<event>
12    2  0.3751044E-008  0.1228784E+04  0.7818608E-02  0.9088028E-01
         -1   -1    0    0    0  501 -0.00000000000E+00  0.00000000000E+00  0.55910637776E+03  0.55910637776E+03  0.00000000000E+00 0.  1.
          1   -1    0    0  501    0  0.00000000000E+00 -0.00000000000E+00 -0.67514458618E+03  0.67514458618E+03  0.00000000000E+00 0. -1.
         23    2    1    2    0    0 -0.13894919181E+03 -0.14802203950E+03 -0.24180971889E+03  0.32699534803E+03  0.85068298477E+02 0.  0.
        254    2    1    2    0    0  0.13894919181E+03  0.14802203950E+03  0.12577151046E+03  0.90725561591E+03  0.87525817772E+03 0.  0.
         23    2    4    4    0    0 -0.32944743767E+03 -0.64860321168E+02 -0.61226522277E+02  0.35246214700E+03  0.87968190782E+02 0.  0.
         23    2    4    4    0    0  0.46839662948E+03  0.21288236067E+03  0.18699803274E+03  0.55479346890E+03  0.90073452783E+02 0.  0.
          3    1    3    3  502    0 -0.11893281826E+03 -0.11993241398E+03 -0.23862935628E+03  0.29235726237E+03  0.00000000000E+00 0. -1.
         -3    1    3    3    0  502 -0.20016373545E+02 -0.28089625526E+02 -0.31803626048E+01  0.34638085663E+02  0.00000000000E+00 0.  1.
         11    1    5    5    0    0 -0.25825022863E+03 -0.34791603056E+02 -0.12059603310E+02  0.26086216717E+03  0.00000000000E+00 0.  1.
        -11    1    5    5    0    0 -0.71197209046E+02 -0.30068718112E+02 -0.49166918966E+02  0.91599979833E+02  0.00000000000E+00 0. -1.
          2    1    6    6  503    0  0.23596853739E+03  0.68212389434E+02  0.59216581070E+02  0.25266714109E+03  0.00000000000E+00 0.  1.
         -2    1    6    6    0  503  0.23242809209E+03  0.14466997124E+03  0.12778145167E+03  0.30212632782E+03  0.00000000000E+00 0. -1.
<mgrwt>
<rscale>  0 0.12287842E+04</rscale>
<asrwt>0</asrwt>
<pdfrwt beam="1">  1        1 0.10386840E+00 0.12287842E+04</pdfrwt>
<pdfrwt beam="2">  1       -1 0.86016366E-01 0.12287842E+04</pdfrwt>
<totfact> 0.37939186E+01</totfact>
</mgrwt>
</event>
<event>
12    2  0.3751044E-008  0.2967940E+04  0.7818608E-02  0.8252945E-01
          2   -1    0    0  501    0  0.00000000000E+00  0.00000000000E+00  0.36004649436E+04  0.36004649436E+04  0.00000000000E+00 0. -1.
         -2   -1    0    0    0  501 -0.00000000000E+00 -0.00000000000E+00 -0.61163412081E+03  0.61163412081E+03  0.00000000000E+00 0.  1.
         23    2    1    2    0    0  0.95207851995E+03 -0.78337743104E+03  0.21026870285E+04  0.24408915763E+04  0.12855053423E+03 0.  0.
        254    2    1    2    0    0 -0.95207851995E+03  0.78337743104E+03  0.88614379435E+03  0.17712074882E+04  0.91202600521E+03 0.  0.
         23    2    4    4    0    0 -0.49502110183E+03  0.34005266234E+03 -0.77515295604E+02  0.61235565444E+03  0.91044615682E+02 0.  0.
         23    2    4    4    0    0 -0.45705741813E+03  0.44332476870E+03  0.96365908996E+03  0.11588518337E+04  0.94129680982E+02 0.  0.
          1    1    3    3  502    0  0.83748982947E+03 -0.65197008262E+03  0.18690161770E+04  0.21493430794E+04  0.00000000000E+00 0. -1.
         -1    1    3    3    0  502  0.11458869049E+03 -0.13140734842E+03  0.23367085147E+03  0.29154849688E+03  0.00000000000E+00 0.  1.
         11    1    5    5    0    0 -0.19891973440E+03  0.18499385059E+03 -0.13108622154E+02  0.27196253688E+03  0.00000000000E+00 0.  1.
        -11    1    5    5    0    0 -0.29610136743E+03  0.15505881175E+03 -0.64406673449E+02  0.34039311756E+03  0.00000000000E+00 0. -1.
          1    1    6    6  503    0 -0.11454637289E+03  0.73622483586E+02  0.25763678098E+03  0.29140667896E+03  0.00000000000E+00 0. -1.
         -1    1    6    6    0  503 -0.34251104524E+03  0.36970228511E+03  0.70602230898E+03  0.86744515475E+03  0.00000000000E+00 0.  1.
<mgrwt>
<rscale>  0 0.29679402E+04</rscale>
<asrwt>0</asrwt>
<pdfrwt beam="1">  1        2 0.55391767E+00 0.29679402E+04</pdfrwt>
<pdfrwt beam="2">  1       -2 0.94097559E-01 0.29679402E+04</pdfrwt>
<totfact> 0.56389436E-01</totfact>
</mgrwt>
</event>
<event>
12    2  0.3751044E-008  0.2145679E+04  0.7818608E-02  0.8541384E-01
         -1   -1    0    0    0  501 -0.00000000000E+00  0.00000000000E+00  0.95648792444E+03  0.95648792444E+03  0.00000000000E+00 0.  1.
          1   -1    0    0  501    0  0.00000000000E+00 -0.00000000000E+00 -0.12033443445E+04  0.12033443445E+04  0.00000000000E+00 0. -1.
         23    2    1    2    0    0 -0.57516500061E+03 -0.20090690368E+03 -0.74185486537E+03  0.96450480839E+03  0.93501455899E+02 0.  0.
        254    2    1    2    0    0  0.57516500061E+03  0.20090690368E+03  0.49499844532E+03  0.11953274606E+04  0.90144656814E+03 0.  0.
         23    2    4    4    0    0  0.31375246681E+03  0.37871606062E+03 -0.10614186983E+03  0.51146044003E+03  0.91974019052E+02 0.  0.
         23    2    4    4    0    0  0.26141253380E+03 -0.17780915694E+03  0.60114031514E+03  0.68386702052E+03  0.79698269406E+02 0.  0.
          3    1    3    3  502    0 -0.33514964635E+03 -0.68303018605E+02 -0.42151638667E+03  0.54283206614E+03  0.00000000000E+00 0. -1.
         -3    1    3    3    0  502 -0.24001535426E+03 -0.13260388508E+03 -0.32033847870E+03  0.42167274225E+03  0.00000000000E+00 0.  1.
         11    1    5    5    0    0  0.31966689108E+03  0.36406226671E+03 -0.10384998324E+03  0.49549275909E+03  0.00000000000E+00 0. -1.
        -11    1    5    5    0    0 -0.59144242639E+01  0.14653793919E+02 -0.22918865887E+01  0.15967680944E+02  0.00000000000E+00 0.  1.
          3    1    6    6  503    0  0.14084846769E+03 -0.12535104160E+03  0.41655753947E+03  0.45724321555E+03  0.00000000000E+00 0. -1.
         -3    1    6    6    0  503  0.12056406612E+03 -0.52458115341E+02  0.18458277568E+03  0.22662380497E+03  0.00000000000E+00 0.  1.
<mgrwt>
<rscale>  0 0.21456788E+04</rscale>
<asrwt>0</asrwt>
<pdfrwt beam="1">  1        1 0.18512990E+00 0.21456788E+04</pdfrwt>
<pdfrwt beam="2">  1       -1 0.14715199E+00 0.21456788E+04</pdfrwt>
<totfact> 0.35759223E+00</totfact>
</mgrwt>
</event>
<event>
12    2  0.3751044E-008  0.1501466E+04  0.7818608E-02  0.8883479E-01
         -2   -1    0    0    0  501 -0.00000000000E+00  0.00000000000E+00  0.32501315478E+03  0.32501315478E+03  0.00000000000E+00 0.  1.
          2   -1    0    0  501    0  0.00000000000E+00 -0.00000000000E+00 -0.17340841683E+04  0.17340841683E+04  0.00000000000E+00 0. -1.
         23    2    1    2    0    0 -0.84284882513E+02 -0.37341709493E+03 -0.75353676891E+03  0.84978980285E+03  0.88208722465E+02 0.  0.
        254    2    1    2    0    0  0.84284882513E+02  0.37341709493E+03 -0.65553424457E+03  0.12093075202E+04  0.94135820195E+03 0.  0.
         23    2    4    4    0    0  0.43103849828E+03  0.29830824999E+03 -0.65469629375E+03  0.84354497160E+03  0.90326535681E+02 0.  0.
         23    2    4    4    0    0 -0.34675361576E+03  0.75108844939E+02 -0.83795082326E+00  0.36576254860E+03  0.88893932083E+02 0.  0.
          1    1    3    3  502    0 -0.75959292710E+02 -0.36975180902E+03 -0.75070193470E+03  0.84026163139E+03  0.00000000000E+00 0. -1.
         -1    1    3    3    0  502 -0.83255898031E+01 -0.36652859165E+01 -0.28348342113E+01  0.95281714628E+01  0.00000000000E+00 0.  1.
         11    1    5    5    0    0  0.22283315432E+03  0.18098330391E+03 -0.29441095776E+03  0.41120236260E+03  0.00000000000E+00 0. -1.
        -11    1    5    5    0    0  0.20820534395E+03  0.11732494608E+03 -0.36028533599E+03  0.43234260900E+03  0.00000000000E+00 0.  1.
          4    1    6    6  503    0 -0.13899565200E+03  0.47515567337E+02 -0.40691141623E+02  0.15242470082E+03  0.00000000000E+00 0. -1.
         -4    1    6    6    0  503 -0.20775796376E+03  0.27593277603E+02  0.39853190800E+02  0.21333784777E+03  0.00000000000E+00 0.  1.
<mgrwt>
<rscale>  0 0.15014662E+04</rscale>
<asrwt>0</asrwt>
<pdfrwt beam="1">  1        2 0.26678218E+00 0.15014662E+04</pdfrwt>
<pdfrwt beam="2">  1       -2 0.50002024E-01 0.15014662E+04</pdfrwt>
<totfact> 0.34315215E+01</totfact>
</mgrwt>
</event>
<event>
12    2  0.3751044E-008  0.1184342E+04  0.7818608E-02  0.9126674E-01
         -1   -1    0    0    0  501 -0.00000000000E+00  0.00000000000E+00  0.19013985581E+03  0.19013985581E+03  0.00000000000E+00 0.  1.
          1   -1    0    0  501    0  0.00000000000E+00 -0.00000000000E+00 -0.18442550147E+04  0.18442550147E+04  0.00000000000E+00 0. -1.
         23    2    1    2    0    0 -0.12056376284E+03 -0.79772791774E+02 -0.36075985939E+02  0.17613191079E+03  0.93923660591E+02 0.  0.
        254    2    1    2    0    0  0.12056376284E+03  0.79772791774E+02 -0.16180391729E+04  0.18582629597E+04  0.90232540862E+03 0.  0.
         23    2    4    4    0    0 -0.62425022492E+02 -0.25013374794E+03 -0.99656310967E+02  0.29103269241E+03  0.91131072869E+02 0.  0.
         23    2    4    4    0    0  0.18298878533E+03  0.32990653971E+03 -0.15183828620E+04  0.15672302673E+04  0.91656831239E+02 0.  0.
          2    1    3    3  502    0 -0.91904342610E+01  0.35007853815E+01  0.23020266022E+02  0.25033022748E+02  0.00000000000E+00 0. -1.
         -2    1    3    3    0  502 -0.11137332858E+03 -0.83273577156E+02 -0.59096251961E+02  0.15109888804E+03  0.00000000000E+00 0.  1.
         11    1    5    5    0    0 -0.37607614734E+02 -0.23941376686E+03 -0.73092294508E+02  0.25313191810E+03  0.00000000000E+00 0.  1.
        -11    1    5    5    0    0 -0.24817407759E+02 -0.10719981082E+02 -0.26564016459E+02  0.37900774302E+02  0.00000000000E+00 0. -1.
          1    1    6    6  503    0  0.90885260490E+02  0.13178364518E+03 -0.47606878164E+03  0.50226342149E+03  0.00000000000E+00 0. -1.
         -1    1    6    6    0  503  0.92103524840E+02  0.19812289453E+03 -0.10423140803E+04  0.10649668458E+04  0.00000000000E+00 0.  1.
<mgrwt>
<rscale>  0 0.11843418E+04</rscale>
<asrwt>0</asrwt>
<pdfrwt beam="1">  1        1 0.28373155E+00 0.11843418E+04</pdfrwt>
<pdfrwt beam="2">  1       -1 0.29252285E-01 0.11843418E+04</pdfrwt>
<totfact> 0.40216095E+01</totfact>
</mgrwt>
</event>
<event>
12    2  0.3751044E-008  0.1421201E+04  0.7818608E-02  0.8938614E-01
          1   -1    0    0  501    0  0.00000000000E+00  0.00000000000E+00  0.72180183398E+03  0.72180183398E+03  0.00000000000E+00 0. -1.
         -1   -1    0    0    0  501 -0.00000000000E+00 -0.00000000000E+00 -0.69957295093E+03  0.69957295093E+03  0.00000000000E+00 0.  1.
         23    2    1    2    0    0 -0.63707804229E+02 -0.11264080594E+03 -0.38801564836E+03  0.41925220136E+03  0.92030590000E+02 0.  0.
        254    2    1    2    0    0  0.63707804229E+02  0.11264080594E+03  0.41024453140E+03  0.10021225835E+04  0.90509803968E+03 0.  0.
         23    2    4    4    0    0 -0.15069588136E+03 -0.32543199716E+03  0.33768072852E+03  0.50088472094E+03  0.90785438370E+02 0.  0.
         23    2    4    4    0    0  0.21440368559E+03  0.43807280310E+03  0.72563802887E+02  0.50123786261E+03  0.89984266476E+02 0.  0.
          4    1    3    3  502    0 -0.79856511850E+00 -0.92644795606E+02 -0.23511751546E+03  0.25271316138E+03  0.00000000000E+00 0. -1.
         -4    1    3    3    0  502 -0.62909239110E+02 -0.19996010330E+02 -0.15289813290E+03  0.16653903998E+03  0.00000000000E+00 0.  1.
         11    1    5    5    0    0 -0.18256004617E+02  0.20549650285E+00  0.13743702009E+02  0.22851986309E+02  0.00000000000E+00 0.  1.
        -11    1    5    5    0    0 -0.13243987675E+03 -0.32563749366E+03  0.32393702651E+03  0.47803273463E+03  0.00000000000E+00 0. -1.
          1    1    6    6  503    0  0.13343533108E+03  0.29123982522E+03  0.48089692240E+01  0.32038843543E+03  0.00000000000E+00 0. -1.
         -1    1    6    6    0  503  0.80968354512E+02  0.14683297788E+03  0.67754833663E+02  0.18084942718E+03  0.00000000000E+00 0.  1.
<mgrwt>
<rscale>  0 0.14212010E+04</rscale>
<asrwt>0</asrwt>
<pdfrwt beam="1">  1        1 0.11104644E+00 0.14212010E+04</pdfrwt>
<pdfrwt beam="2">  1       -1 0.10762661E+00 0.14212010E+04</pdfrwt>
<totfact> 0.20339415E+01</totfact>
</mgrwt>
</event>
<event>
12    2  0.3751044E-008  0.1651126E+04  0.7818608E-02  0.8789740E-01
         -2   -1    0    0    0  501 -0.00000000000E+00  0.00000000000E+00  0.13501996490E+04  0.13501996490E+04  0.00000000000E+00 0.  1.
          2   -1    0    0  501    0  0.00000000000E+00 -0.00000000000E+00 -0.50478066516E+03  0.50478066516E+03  0.00000000000E+00 0. -1.
         23    2    1    2    0    0  0.23639984592E+03 -0.14630758066E+03  0.91057476587E+03  0.95902526865E+03  0.11529209144E+03 0.  0.
        254    2    1    2    0    0 -0.23639984592E+03  0.14630758066E+03 -0.65155782005E+02  0.89595504554E+03  0.84923458031E+03 0.  0.
         23    2    4    4    0    0 -0.27921250001E+03 -0.41749962676E+02 -0.40084164266E+03  0.49841419832E+03  0.89666108666E+02 0.  0.
         23    2    4    4    0    0  0.42812654089E+02  0.18805754334E+03  0.33568586066E+03  0.39754084723E+03  0.90305953356E+02 0.  0.
          1    1    3    3  502    0  0.12453799665E+03 -0.99592119616E+02  0.68088261425E+03  0.69930639729E+03  0.00000000000E+00 0. -1.
         -1    1    3    3    0  502  0.11186184927E+03 -0.46715461047E+02  0.22969215162E+03  0.25971887136E+03  0.00000000000E+00 0.  1.
         11    1    5    5    0    0 -0.16525326257E+02 -0.21409397316E+02 -0.14229199774E+02  0.30560085529E+02  0.00000000000E+00 0. -1.
        -11    1    5    5    0    0 -0.26268717376E+03 -0.20340565360E+02 -0.38661244289E+03  0.46785411279E+03  0.00000000000E+00 0.  1.
          1    1    6    6  503    0  0.35194274816E+02  0.12782059221E+02  0.63264055399E+02  0.73514343657E+02  0.00000000000E+00 0. -1.
         -1    1    6    6    0  503  0.76183792731E+01  0.17527548412E+03  0.27242180526E+03  0.32402650357E+03  0.00000000000E+00 0.  1.
<mgrwt>
<rscale>  0 0.16511265E+04</rscale>
<asrwt>0</asrwt>
<pdfrwt beam="1">  1        2 0.77658564E-01 0.16511265E+04</pdfrwt>
<pdfrwt beam="2">  1       -2 0.20772302E+00 0.16511265E+04</pdfrwt>
<totfact> 0.68840001E+00</totfact>
</mgrwt>
</event>
<event>
12    2  0.3751044E-008  0.1492264E+04  0.7818608E-02  0.8889614E-01
          2   -1    0    0  501    0  0.00000000000E+00  0.00000000000E+00  0.14579115143E+04  0.14579115143E+04  0.00000000000E+00 0.  1.
         -2   -1    0    0    0  501 -0.00000000000E+00 -0.00000000000E+00 -0.38185654512E+03  0.38185654512E+03  0.00000000000E+00 0. -1.
         23    2    1    2    0    0 -0.13208407027E+03  0.42624895197E+03  0.51880344964E+03  0.69018610634E+03  0.89807969359E+02 0.  0.
        254    2    1    2    0    0  0.13208407027E+03 -0.42624895197E+03  0.55725151955E+03  0.11495819531E+04  0.90104108683E+03 0.  0.
         23    2    4    4    0    0 -0.20311199456E+03 -0.18710182442E+03  0.65496202228E+03  0.71658066319E+03  0.90835131884E+02 0.  0.
         23    2    4    4    0    0  0.33519606483E+03 -0.23914712755E+03 -0.97710502727E+02  0.43300128990E+03  0.91624364787E+02 0.  0.
          2    1    3    3  502    0 -0.11473433909E+03  0.38460434922E+03  0.50038008721E+03  0.64145514705E+03  0.00000000000E+00 0. -1.
         -2    1    3    3    0  502 -0.17349731178E+02  0.41644602753E+02  0.18423362428E+02  0.48730959292E+02  0.00000000000E+00 0.  1.
         11    1    5    5    0    0 -0.20091599140E+03 -0.15037715143E+03  0.53179012740E+03  0.58803168526E+03  0.00000000000E+00 0.  1.
        -11    1    5    5    0    0 -0.21960031588E+01 -0.36724672995E+02  0.12317189488E+03  0.12854897793E+03  0.00000000000E+00 0. -1.
          3    1    6    6  503    0  0.11272008729E+03 -0.75889385500E+02  0.11176443303E+02  0.13634489281E+03  0.00000000000E+00 0. -1.
         -3    1    6    6    0  503  0.22247597754E+03 -0.16325774205E+03 -0.10888694603E+03  0.29665639709E+03  0.00000000000E+00 0.  1.
<mgrwt>
<rscale>  0 0.14922641E+04</rscale>
<asrwt>0</asrwt>
<pdfrwt beam="1">  1        2 0.22429408E+00 0.14922641E+04</pdfrwt>
<pdfrwt beam="2">  1       -2 0.58747162E-01 0.14922641E+04</pdfrwt>
<totfact> 0.35103661E+01</totfact>
</mgrwt>
</event>
<event>
12    2  0.3751044E-008  0.1451593E+04  0.7818608E-02  0.8917297E-01
         -2   -1    0    0    0  501 -0.00000000000E+00  0.00000000000E+00  0.49815982395E+03  0.49815982395E+03  0.00000000000E+00 0.  1.
          2   -1    0    0  501    0  0.00000000000E+00 -0.00000000000E+00 -0.10574532219E+04  0.10574532219E+04  0.00000000000E+00 0. -1.
         23    2    1    2    0    0  0.31763548341E+03  0.26977217492E+03 -0.32767392909E+03  0.53766192664E+03  0.89670602067E+02 0.  0.
        254    2    1    2    0    0 -0.31763548341E+03 -0.26977217492E+03 -0.23161946885E+03  0.10179511192E+04  0.89939289304E+03 0.  0.
         23    2    4    4    0    0  0.21632555141E+03  0.16651452693E+03 -0.92909847347E+01  0.28806399356E+03  0.91491584951E+02 0.  0.
         23    2    4    4    0    0 -0.53396103482E+03 -0.43628670185E+03 -0.22232848411E+03  0.72988712563E+03  0.88570810075E+02 0.  0.
          4    1    3    3  502    0  0.26066851753E+03  0.21945899801E+03 -0.21903595378E+03  0.40507663088E+03  0.00000000000E+00 0. -1.
         -4    1    3    3    0  502  0.56966965877E+02  0.50313176909E+02 -0.10863797531E+03  0.13258529576E+03  0.00000000000E+00 0.  1.
         11    1    5    5    0    0  0.17920043613E+03  0.15706399279E+03 -0.36509252167E+02  0.24107015500E+03  0.00000000000E+00 0. -1.
        -11    1    5    5    0    0  0.37125115286E+02  0.94505341410E+01  0.27218267433E+02  0.46993838560E+02  0.00000000000E+00 0.  1.
          4    1    6    6  503    0 -0.43893050158E+03 -0.38803723487E+03 -0.21104346666E+03  0.62271359845E+03  0.00000000000E+00 0. -1.
         -4    1    6    6    0  503 -0.95030533237E+02 -0.48249466978E+02 -0.11285017454E+02  0.10717352719E+03  0.00000000000E+00 0.  1.
<mgrwt>
<rscale>  0 0.14515932E+04</rscale>
<asrwt>0</asrwt>
<pdfrwt beam="1">  1        2 0.16268511E+00 0.14515932E+04</pdfrwt>
<pdfrwt beam="2">  1       -2 0.76639974E-01 0.14515932E+04</pdfrwt>
<totfact> 0.34178334E+01</totfact>
</mgrwt>
</event>
<event>
12    2  0.3751044E-008  0.2288730E+04  0.7818608E-02  0.8482378E-01
         -2   -1    0    0    0  501 -0.00000000000E+00  0.00000000000E+00  0.77733638823E+03  0.77733638823E+03  0.00000000000E+00 0. -1.
          2   -1    0    0  501    0  0.00000000000E+00 -0.00000000000E+00 -0.16846898696E+04  0.16846898696E+04  0.00000000000E+00 0.  1.
         23    2    1    2    0    0  0.14132579132E+03  0.34560712631E+03 -0.13401259382E+04  0.13940976918E+04  0.90297171914E+02 0.  0.
        254    2    1    2    0    0 -0.14132579132E+03 -0.34560712631E+03  0.43277245678E+03  0.10679285660E+04  0.90208766629E+03 0.  0.
         23    2    4    4    0    0  0.21371968237E+03  0.21237659287E+02 -0.15829781053E+03  0.28167049587E+03  0.90293580186E+02 0.  0.
         23    2    4    4    0    0 -0.35504547369E+03 -0.36684478560E+03  0.59107026731E+03  0.78625807012E+03  0.90583148676E+02 0.  0.
          3    1    3    3  502    0  0.43408770215E+02  0.15392619966E+03 -0.42758759390E+03  0.45651806835E+03  0.00000000000E+00 0. -1.
         -3    1    3    3    0  502  0.97917021106E+02  0.19168092664E+03 -0.91253834425E+03  0.93757962350E+03  0.00000000000E+00 0.  1.
         11    1    5    5    0    0  0.15223652788E+03 -0.26449199238E+02 -0.95170838688E+02  0.18147454119E+03  0.00000000000E+00 0. -1.
        -11    1    5    5    0    0  0.61483154483E+02  0.47686858525E+02 -0.63126971844E+02  0.10019595469E+03  0.00000000000E+00 0.  1.
          3    1    6    6  503    0 -0.10246080204E+02  0.39730604625E+01  0.21556756127E+02  0.24196303513E+02  0.00000000000E+00 0. -1.
         -3    1    6    6    0  503 -0.34479939348E+03 -0.37081784606E+03  0.56951351118E+03  0.76206176661E+03  0.00000000000E+00 0.  1.
<mgrwt>
<rscale>  0 0.22887296E+04</rscale>
<asrwt>0</asrwt>
<pdfrwt beam="1">  1        2 0.25918306E+00 0.22887296E+04</pdfrwt>
<pdfrwt beam="2">  1       -2 0.11959021E+00 0.22887296E+04</pdfrwt>
<totfact> 0.48609595E+00</totfact>
</mgrwt>
</event>
<event>
12    2  0.3751044E-008  0.1760103E+04  0.7818608E-02  0.8727809E-01
          2   -1    0    0  501    0  0.00000000000E+00  0.00000000000E+00  0.23477758128E+04  0.23477758128E+04  0.00000000000E+00 0. -1.
         -2   -1    0    0    0  501 -0.00000000000E+00 -0.00000000000E+00 -0.32988263672E+03  0.32988263672E+03  0.00000000000E+00 0.  1.
         23    2    1    2    0    0 -0.60097607591E+03  0.81134361376E+02  0.10762451107E+04  0.12385683301E+04  0.89403252551E+02 0.  0.
        254    2    1    2    0    0  0.60097607591E+03 -0.81134361376E+02  0.94164806537E+03  0.14390901194E+04  0.90361732189E+03 0.  0.
         23    2    4    4    0    0  0.38386534153E+03 -0.43208619564E+03  0.26738954004E+03  0.64337649673E+03  0.91570025312E+02 0.  0.
         23    2    4    4    0    0  0.21711073438E+03  0.35095183426E+03  0.67425852533E+03  0.79571362270E+03  0.90726784458E+02 0.  0.
          4    1    3    3  502    0 -0.71549707161E+02 -0.12402707147E+02  0.16983856075E+03  0.18471146271E+03  0.00000000000E+00 0. -1.
         -4    1    3    3    0  502 -0.52942636875E+03  0.93537068523E+02  0.90640655000E+03  0.10538568674E+04  0.00000000000E+00 0.  1.
         11    1    5    5    0    0  0.32209873179E+03 -0.30461207066E+03  0.19527342212E+03  0.48442524294E+03  0.00000000000E+00 0. -1.
        -11    1    5    5    0    0  0.61766609743E+02 -0.12747412498E+03  0.72116117928E+02  0.15895125380E+03  0.00000000000E+00 0.  1.
          1    1    6    6  503    0  0.89247584911E+02  0.17270453803E+03  0.39811360036E+03  0.44304224139E+03  0.00000000000E+00 0.  1.
         -1    1    6    6    0  503  0.12786314947E+03  0.17824729623E+03  0.27614492497E+03  0.35267138131E+03  0.00000000000E+00 0. -1.
<mgrwt>
<rscale>  0 0.17601028E+04</rscale>
<asrwt>0</asrwt>
<pdfrwt beam="1">  1        2 0.36119627E+00 0.17601028E+04</pdfrwt>
<pdfrwt beam="2">  1       -2 0.50751177E-01 0.17601028E+04</pdfrwt>
<totfact> 0.14815240E+01</totfact>
</mgrwt>
</event>
<event>
12    2  0.3751044E-008  0.2604885E+04  0.7818608E-02  0.8366544E-01
         -1   -1    0    0    0  501 -0.00000000000E+00  0.00000000000E+00  0.75507278531E+03  0.75507278531E+03  0.00000000000E+00 0.  1.
          1   -1    0    0  501    0  0.00000000000E+00 -0.00000000000E+00 -0.22466133735E+04  0.22466133735E+04  0.00000000000E+00 0. -1.
         23    2    1    2    0    0  0.66881069329E+02  0.10526511611E+03 -0.19867645715E+04  0.19927109085E+04  0.90052651042E+02 0.  0.
        254    2    1    2    0    0 -0.66881069329E+02 -0.10526511611E+03  0.49522398335E+03  0.10089752503E+04  0.87018988733E+03 0.  0.
         23    2    4    4    0    0 -0.21683730109E+03 -0.28308559102E+03  0.62656475904E+03  0.72661567017E+03  0.90725232843E+02 0.  0.
         23    2    4    4    0    0  0.14995623176E+03  0.17782047491E+03 -0.13134077570E+03  0.28235958017E+03  0.91485192298E+02 0.  0.
          4    1    3    3  502    0  0.86363947972E+02  0.99532421163E+02 -0.16020245226E+04  0.16074352259E+04  0.00000000000E+00 0. -1.
         -4    1    3    3    0  502 -0.19482878642E+02  0.57326949498E+01 -0.38474004890E+03  0.38527568257E+03  0.00000000000E+00 0.  1.
         11    1    5    5    0    0 -0.66268232472E+02 -0.55585848920E+02  0.90871475463E+02  0.12545473402E+03  0.00000000000E+00 0. -1.
        -11    1    5    5    0    0 -0.15056906861E+03 -0.22749974210E+03  0.53569328358E+03  0.60116093615E+03  0.00000000000E+00 0.  1.
          1    1    6    6  503    0  0.83696159094E+02  0.32221769472E+02 -0.40570800875E+02  0.98434137161E+02  0.00000000000E+00 0. -1.
         -1    1    6    6    0  503  0.66260072662E+02  0.14559870544E+03 -0.90769974823E+02  0.18392544300E+03  0.00000000000E+00 0.  1.
<mgrwt>
<rscale>  0 0.26048851E+04</rscale>
<asrwt>0</asrwt>
<pdfrwt beam="1">  1        1 0.34563282E+00 0.26048851E+04</pdfrwt>
<pdfrwt beam="2">  1       -1 0.11616504E+00 0.26048851E+04</pdfrwt>
<totfact> 0.11937343E+00</totfact>
</mgrwt>
</event>
<event>
12    2  0.3751044E-008  0.3404953E+04  0.7818608E-02  0.8136692E-01
          1   -1    0    0  501    0  0.00000000000E+00  0.00000000000E+00  0.24294776052E+04  0.24294776052E+04  0.00000000000E+00 0. -1.
         -1   -1    0    0    0  501 -0.00000000000E+00 -0.00000000000E+00 -0.11930243418E+04  0.11930243418E+04  0.00000000000E+00 0.  1.
         23    2    1    2    0    0 -0.11411956714E+03 -0.88734396663E+02  0.22503394595E+04  0.22568766889E+04  0.92561531656E+02 0.  0.
        254    2    1    2    0    0  0.11411956714E+03  0.88734396663E+02 -0.10138861961E+04  0.13656252581E+04  0.90336596028E+03 0.  0.
         23    2    4    4    0    0  0.18351027327E+03 -0.36573496072E+03 -0.31885445878E+03  0.52728014735E+03  0.94435724229E+02 0.  0.
         23    2    4    4    0    0 -0.69390706124E+02  0.45446935739E+03 -0.69503173728E+03  0.83834511074E+03  0.91629372869E+02 0.  0.
          4    1    3    3  502    0 -0.23295803608E+02 -0.54272406119E+02  0.44180103274E+03  0.44573124309E+03  0.00000000000E+00 0.  1.
         -4    1    3    3    0  502 -0.90823763534E+02 -0.34461990544E+02  0.18085384268E+04  0.18111454458E+04  0.00000000000E+00 0. -1.
         11    1    5    5    0    0  0.12007286191E+03 -0.20448317042E+03 -0.23833068525E+03  0.33620287727E+03  0.00000000000E+00 0. -1.
        -11    1    5    5    0    0  0.63437411352E+02 -0.16125179031E+03 -0.80523773529E+02  0.19107727008E+03  0.00000000000E+00 0.  1.
          3    1    6    6  503    0 -0.46124733206E+02  0.41637428641E+03 -0.58433388507E+03  0.71898617972E+03  0.00000000000E+00 0. -1.
         -3    1    6    6    0  503 -0.23265972918E+02  0.38095070981E+02 -0.11069785221E+03  0.11935893102E+03  0.00000000000E+00 0.  1.
<mgrwt>
<rscale>  0 0.34049528E+04</rscale>
<asrwt>0</asrwt>
<pdfrwt beam="1">  1        1 0.37376579E+00 0.34049528E+04</pdfrwt>
<pdfrwt beam="2">  1       -1 0.18354221E+00 0.34049528E+04</pdfrwt>
<totfact> 0.24469469E-01</totfact>
</mgrwt>
</event>
<event>
12    2  0.3751044E-008  0.1877839E+04  0.7818608E-02  0.8665967E-01
          2   -1    0    0  501    0  0.00000000000E+00  0.00000000000E+00  0.26812160938E+04  0.26812160938E+04  0.00000000000E+00 0. -1.
         -2   -1    0    0    0  501 -0.00000000000E+00 -0.00000000000E+00 -0.32879461932E+03  0.32879461932E+03  0.00000000000E+00 0.  1.
         23    2    1    2    0    0  0.27677123834E+03  0.39517472893E+03  0.17263519155E+04  0.17947569705E+04  0.89979232298E+02 0.  0.
        254    2    1    2    0    0 -0.27677123834E+03 -0.39517472893E+03  0.62606955897E+03  0.12152537426E+04  0.92309976790E+03 0.  0.
         23    2    4    4    0    0 -0.12342770274E+03 -0.52810277031E+03  0.77302695012E+03  0.94841286734E+03  0.88257393562E+02 0.  0.
         23    2    4    4    0    0 -0.15334353559E+03  0.13292804139E+03 -0.14695739115E+03  0.26684087527E+03  0.91779484657E+02 0.  0.
          3    1    3    3  502    0  0.95895401382E+02  0.20409339912E+03  0.71337207543E+03  0.74816426109E+03  0.00000000000E+00 0. -1.
         -3    1    3    3    0  502  0.18087583696E+03  0.19108132981E+03  0.10129798400E+04  0.10465927094E+04  0.00000000000E+00 0.  1.
         11    1    5    5    0    0 -0.10758177483E+03 -0.42642790400E+03  0.56190878380E+03  0.71355173386E+03  0.00000000000E+00 0. -1.
        -11    1    5    5    0    0 -0.15845927913E+02 -0.10167486631E+03  0.21111816632E+03  0.23486113348E+03  0.00000000000E+00 0.  1.
          1    1    6    6  503    0 -0.12691725623E+03  0.14573306523E+03 -0.13036955055E+03  0.23311442671E+03  0.00000000000E+00 0. -1.
         -1    1    6    6    0  503 -0.26426279364E+02 -0.12805023839E+02 -0.16587840601E+02  0.33726448558E+02  0.00000000000E+00 0.  1.
<mgrwt>
<rscale>  0 0.18778386E+04</rscale>
<asrwt>0</asrwt>
<pdfrwt beam="1">  1        2 0.41249477E+00 0.18778386E+04</pdfrwt>
<pdfrwt beam="2">  1       -2 0.50583789E-01 0.18778386E+04</pdfrwt>
<totfact> 0.94621241E+00</totfact>
</mgrwt>
</event>
<event>
12    2  0.3751044E-008  0.1413504E+04  0.7818608E-02  0.8944101E-01
         -2   -1    0    0    0  501 -0.00000000000E+00  0.00000000000E+00  0.91724762025E+03  0.91724762025E+03  0.00000000000E+00 0. -1.
          2   -1    0    0  501    0  0.00000000000E+00 -0.00000000000E+00 -0.54456248693E+03  0.54456248693E+03  0.00000000000E+00 0.  1.
         23    2    1    2    0    0 -0.26528481394E+03 -0.16926364289E+03 -0.14828220117E+03  0.35968414877E+03  0.91426814365E+02 0.  0.
        254    2    1    2    0    0  0.26528481394E+03  0.16926364289E+03  0.52096733449E+03  0.11021259584E+04  0.91882993600E+03 0.  0.
         23    2    4    4    0    0 -0.63941281656E+01 -0.24438967342E+03  0.53796285873E+03  0.59782956003E+03  0.90713549854E+02 0.  0.
         23    2    4    4    0    0  0.27167894211E+03  0.41365331631E+03 -0.16995524239E+02  0.50429639838E+03  0.95433201220E+02 0.  0.
          2    1    3    3  502    0 -0.14080292835E+02 -0.43727688577E+02 -0.30602391809E+02  0.55198476238E+02  0.00000000000E+00 0. -1.
         -2    1    3    3    0  502 -0.25120452110E+03 -0.12553595431E+03 -0.11767980937E+03  0.30448567254E+03  0.00000000000E+00 0.  1.
         11    1    5    5    0    0  0.20830778691E+02 -0.14393420250E+03  0.39554420971E+03  0.42143350344E+03  0.00000000000E+00 0. -1.
        -11    1    5    5    0    0 -0.27224906857E+02 -0.10045547093E+03  0.14241864902E+03  0.17639605659E+03  0.00000000000E+00 0.  1.
          1    1    6    6  503    0  0.98137696883E+02  0.21697374015E+03 -0.38049546070E+02  0.24115633813E+03  0.00000000000E+00 0. -1.
         -1    1    6    6    0  503  0.17354124522E+03  0.19667957616E+03  0.21054021832E+02  0.26314006024E+03  0.00000000000E+00 0.  1.
<mgrwt>
<rscale>  0 0.14135044E+04</rscale>
<asrwt>0</asrwt>
<pdfrwt beam="1">  1        2 0.83778845E-01 0.14135044E+04</pdfrwt>
<pdfrwt beam="2">  1       -2 0.14111502E+00 0.14135044E+04</pdfrwt>
<totfact> 0.19042864E+01</totfact>
</mgrwt>
</event>
<event>
12    2  0.3751044E-008  0.1356266E+04  0.7818608E-02  0.8986098E-01
          1   -1    0    0  501    0  0.00000000000E+00  0.00000000000E+00  0.12057248020E+04  0.12057248020E+04  0.00000000000E+00 0. -1.
         -1   -1    0    0    0  501 -0.00000000000E+00 -0.00000000000E+00 -0.38140064990E+03  0.38140064990E+03  0.00000000000E+00 0.  1.
         23    2    1    2    0    0 -0.13737825451E+03 -0.21507520483E+03  0.52535630155E+03  0.59105207245E+03  0.90626597778E+02 0.  0.
        254    2    1    2    0    0  0.13737825451E+03  0.21507520483E+03  0.29896785058E+03  0.99607337947E+03  0.91523236015E+03 0.  0.
         23    2    4    4    0    0  0.32198879967E+03  0.22987879605E+03  0.54195232315E+03  0.67747534131E+03  0.93485129979E+02 0.  0.
         23    2    4    4    0    0 -0.18461054516E+03 -0.14803591213E+02 -0.24298447257E+03  0.31859803816E+03  0.90349633722E+02 0.  0.
          3    1    3    3  502    0 -0.76003921823E+02 -0.80559904341E+02  0.31522446502E+03  0.33411518623E+03  0.00000000000E+00 0. -1.
         -3    1    3    3    0  502 -0.61374332691E+02 -0.13451530049E+03  0.21013183652E+03  0.25693688622E+03  0.00000000000E+00 0.  1.
         11    1    5    5    0    0  0.12155537435E+03  0.13537639455E+03  0.20394726049E+03  0.27330745013E+03  0.00000000000E+00 0. -1.
        -11    1    5    5    0    0  0.20043342533E+03  0.94502401491E+02  0.33800506267E+03  0.40416789118E+03  0.00000000000E+00 0.  1.
          4    1    6    6  503    0 -0.13752518544E+03  0.24773073693E+02 -0.13485238203E+03  0.19419589787E+03  0.00000000000E+00 0.  1.
         -4    1    6    6    0  503 -0.47085359723E+02 -0.39576664907E+02 -0.10813209054E+03  0.12440214029E+03  0.00000000000E+00 0. -1.
<mgrwt>
<rscale>  0 0.13562658E+04</rscale>
<asrwt>0</asrwt>
<pdfrwt beam="1">  1        1 0.18549612E+00 0.13562658E+04</pdfrwt>
<pdfrwt beam="2">  1       -1 0.58677024E-01 0.13562658E+04</pdfrwt>
<totfact> 0.30475249E+01</totfact>
</mgrwt>
</event>
<event>
12    2  0.3751044E-008  0.1230270E+04  0.7818608E-02  0.9086766E-01
         -2   -1    0    0    0  501 -0.00000000000E+00  0.00000000000E+00  0.21420856221E+03  0.21420856221E+03  0.00000000000E+00 0.  1.
          2   -1    0    0  501    0  0.00000000000E+00 -0.00000000000E+00 -0.17664602771E+04  0.17664602771E+04  0.00000000000E+00 0. -1.
         23    2    1    2    0    0  0.20311470382E+03 -0.68271030239E+02 -0.90331370825E+02  0.24990542732E+03  0.91522945598E+02 0.  0.
        254    2    1    2    0    0 -0.20311470382E+03  0.68271030239E+02 -0.14619203441E+04  0.17307634120E+04  0.90134032388E+03 0.  0.
         23    2    4    4    0    0  0.11016193765E+03  0.25435022181E+03 -0.12801680384E+04  0.13129204706E+04  0.90001487061E+02 0.  0.
         23    2    4    4    0    0 -0.31327664146E+03 -0.18607919157E+03 -0.18175230564E+03  0.41784294140E+03  0.93760884431E+02 0.  0.
          1    1    3    3  502    0  0.42768697208E+02 -0.24302548316E+02  0.16954328366E+02  0.52030996203E+02  0.00000000000E+00 0.  1.
         -1    1    3    3    0  502  0.16034600661E+03 -0.43968481922E+02 -0.10728569919E+03  0.19787443111E+03  0.00000000000E+00 0. -1.
         11    1    5    5    0    0  0.42305279738E+02  0.19071185104E+02 -0.22000572529E+03  0.22484653867E+03  0.00000000000E+00 0.  1.
        -11    1    5    5    0    0  0.67856657910E+02  0.23527903671E+03 -0.10601623132E+04  0.10880739319E+04  0.00000000000E+00 0. -1.
          2    1    6    6  503    0 -0.23454421009E+03 -0.88240661045E+02 -0.11738569554E+03  0.27672513847E+03  0.00000000000E+00 0.  1.
         -2    1    6    6    0  503 -0.78732431375E+02 -0.97838530527E+02 -0.64366610106E+02  0.14111780293E+03  0.00000000000E+00 0. -1.
<mgrwt>
<rscale>  0 0.12302698E+04</rscale>
<asrwt>0</asrwt>
<pdfrwt beam="1">  1        2 0.27176311E+00 0.12302698E+04</pdfrwt>
<pdfrwt beam="2">  1       -2 0.32955165E-01 0.12302698E+04</pdfrwt>
<totfact> 0.76216971E+01</totfact>
</mgrwt>
</event>
<event>
12    2  0.3751044E-008  0.1603604E+04  0.7818608E-02  0.8818337E-01
          1   -1    0    0  501    0  0.00000000000E+00  0.00000000000E+00  0.14060565899E+04  0.14060565899E+04  0.00000000000E+00 0.  1.
         -1   -1    0    0    0  501 -0.00000000000E+00 -0.00000000000E+00 -0.45722662396E+03  0.45722662396E+03  0.00000000000E+00 0. -1.
         23    2    1    2    0    0 -0.10796739434E+03  0.47775122305E+03  0.40961655977E+02  0.50139034385E+03  0.99051654588E+02 0.  0.
        254    2    1    2    0    0  0.10796739434E+03 -0.47775122305E+03  0.90786830997E+03  0.13618928700E+04  0.88917047397E+03 0.  0.
         23    2    4    4    0    0  0.27153207513E+03 -0.12834112334E+03 -0.56728381355E+02  0.31907940711E+03  0.91610299791E+02 0.  0.
         23    2    4    4    0    0 -0.16356468079E+03 -0.34941009971E+03  0.96459669132E+03  0.10428134629E+04  0.90400878982E+02 0.  0.
          2    1    3    3  502    0  0.13173273399E+02  0.14744338949E+02  0.90235091134E+01  0.21733715278E+02  0.00000000000E+00 0.  1.
         -2    1    3    3    0  502 -0.12114066773E+03  0.46300688410E+03  0.31938146864E+02  0.47965662857E+03  0.00000000000E+00 0. -1.
         11    1    5    5    0    0  0.14136812613E+03 -0.11268698697E+03 -0.14594823573E+02  0.18137340762E+03  0.00000000000E+00 0. -1.
        -11    1    5    5    0    0  0.13016394900E+03 -0.15654136379E+02 -0.42133557782E+02  0.13770599949E+03  0.00000000000E+00 0.  1.
          1    1    6    6  503    0 -0.98163635800E+02 -0.14076675174E+03  0.51552274849E+03  0.54333698751E+03  0.00000000000E+00 0. -1.
         -1    1    6    6    0  503 -0.65401044992E+02 -0.20864334797E+03  0.44907394283E+03  0.49947647539E+03  0.00000000000E+00 0.  1.
<mgrwt>
<rscale>  0 0.16036041E+04</rscale>
<asrwt>0</asrwt>
<pdfrwt beam="1">  1        1 0.21631640E+00 0.16036041E+04</pdfrwt>
<pdfrwt beam="2">  1       -1 0.70342558E-01 0.16036041E+04</pdfrwt>
<totfact> 0.14906267E+01</totfact>
</mgrwt>
</event>
<event>
12    2  0.3751044E-008  0.2403137E+04  0.7818608E-02  0.8438330E-01
          1   -1    0    0  501    0  0.00000000000E+00  0.00000000000E+00  0.17776897523E+04  0.17776897523E+04  0.00000000000E+00 0. -1.
         -1   -1    0    0    0  501 -0.00000000000E+00 -0.00000000000E+00 -0.81215877475E+03  0.81215877475E+03  0.00000000000E+00 0.  1.
         23    2    1    2    0    0 -0.10364105398E+03  0.41214366437E+03 -0.59635728385E+03  0.73793306654E+03  0.91100672574E+02 0.  0.
        254    2    1    2    0    0  0.10364105398E+03 -0.41214366437E+03  0.15618882614E+04  0.18519154605E+04  0.89971776887E+03 0.  0.
         23    2    4    4    0    0  0.47252135672E+03 -0.15537224598E+03  0.58875859554E+03  0.77639730326E+03  0.93483267560E+02 0.  0.
         23    2    4    4    0    0 -0.36888030274E+03 -0.25677141839E+03  0.97312966583E+03  0.10755181572E+04  0.88055215318E+02 0.  0.
          3    1    3    3  502    0 -0.47530597966E+02  0.54579512667E+02 -0.89184658595E+02  0.11485636367E+03  0.00000000000E+00 0. -1.
         -3    1    3    3    0  502 -0.56110456014E+02  0.35756415170E+03 -0.50717262525E+03  0.62307670287E+03  0.00000000000E+00 0.  1.
         11    1    5    5    0    0  0.87455603232E+02 -0.67695977757E+02  0.11353394862E+03  0.15849664170E+03  0.00000000000E+00 0.  1.
        -11    1    5    5    0    0  0.38506575348E+03 -0.87676268223E+02  0.47522464691E+03  0.61790066155E+03  0.00000000000E+00 0. -1.
          4    1    6    6  503    0 -0.35357594633E+03 -0.25409993086E+03  0.88823767830E+03  0.98921630488E+03  0.00000000000E+00 0. -1.
         -4    1    6    6    0  503 -0.15304356403E+02 -0.26714875265E+01  0.84891987533E+02  0.86301852343E+02  0.00000000000E+00 0.  1.
<mgrwt>
<rscale>  0 0.24031366E+04</rscale>
<asrwt>0</asrwt>
<pdfrwt beam="1">  1        1 0.27349073E+00 0.24031366E+04</pdfrwt>
<pdfrwt beam="2">  1       -1 0.12494750E+00 0.24031366E+04</pdfrwt>
<totfact> 0.21172279E+00</totfact>
</mgrwt>
</event>
<event>
12    2  0.3751044E-008  0.1618301E+04  0.7818608E-02  0.8809383E-01
         -1   -1    0    0    0  501 -0.00000000000E+00  0.00000000000E+00  0.28214300867E+03  0.28214300867E+03  0.00000000000E+00 0.  1.
          1   -1    0    0  501    0  0.00000000000E+00 -0.00000000000E+00 -0.23205421068E+04  0.23205421068E+04  0.00000000000E+00 0. -1.
         23    2    1    2    0    0  0.16036571940E+03  0.26622310248E+03 -0.14519735543E+04  0.14886651387E+04  0.10632397915E+03 0.  0.
        254    2    1    2    0    0 -0.16036571940E+03 -0.26622310248E+03 -0.58642554388E+03  0.11140199768E+04  0.89473665733E+03 0.  0.
         23    2    4    4    0    0 -0.24981605529E+03 -0.52728096795E+03 -0.57417197839E+03  0.82369243096E+03  0.91446593148E+02 0.  0.
         23    2    4    4    0    0  0.89450335897E+02  0.26105786547E+03 -0.12253565491E+02  0.29032754586E+03  0.89372044291E+02 0.  0.
          2    1    3    3  502    0  0.95719786920E+02  0.23951952205E+03 -0.11040263884E+04  0.11337575338E+04  0.00000000000E+00 0. -1.
         -2    1    3    3    0  502  0.64645932477E+02  0.26703580426E+02 -0.34794716585E+03  0.35490760490E+03  0.00000000000E+00 0.  1.
         11    1    5    5    0    0 -0.80174782342E+01 -0.14278239449E+02  0.38473671406E+00  0.16379746681E+02  0.00000000000E+00 0. -1.
        -11    1    5    5    0    0 -0.24179857706E+03 -0.51300272850E+03 -0.57455671510E+03  0.80731268427E+03  0.00000000000E+00 0.  1.
          3    1    6    6  503    0 -0.17235708502E+02  0.56831542085E+02 -0.75552849300E+01  0.59866319025E+02  0.00000000000E+00 0. -1.
         -3    1    6    6    0  503  0.10668604440E+03  0.20422632339E+03 -0.46982805614E+01  0.23046122683E+03  0.00000000000E+00 0.  1.
<mgrwt>
<rscale>  0 0.16183012E+04</rscale>
<asrwt>0</asrwt>
<pdfrwt beam="1">  1        1 0.35700648E+00 0.16183012E+04</pdfrwt>
<pdfrwt beam="2">  1       -1 0.43406617E-01 0.16183012E+04</pdfrwt>
<totfact> 0.90531367E+00</totfact>
</mgrwt>
</event>
<event>
12    2  0.3751044E-008  0.2809783E+04  0.7818608E-02  0.8300238E-01
          1   -1    0    0  501    0  0.00000000000E+00  0.00000000000E+00  0.13778031048E+04  0.13778031048E+04  0.00000000000E+00 0. -1.
         -1   -1    0    0    0  501 -0.00000000000E+00 -0.00000000000E+00 -0.14325122110E+04  0.14325122110E+04  0.00000000000E+00 0.  1.
         23    2    1    2    0    0 -0.91184036347E+02 -0.12170892552E+04  0.25717916931E+03  0.12496997866E+04  0.77379893237E+02 0.  0.
        254    2    1    2    0    0  0.91184036347E+02  0.12170892552E+04 -0.31188827551E+03  0.15606155293E+04  0.92120885277E+03 0.  0.
         23    2    4    4    0    0 -0.53104328529E+02  0.49941638472E+02  0.23322669984E+03  0.26122068803E+03  0.92343474991E+02 0.  0.
         23    2    4    4    0    0  0.14428836488E+03  0.11671476167E+04 -0.54511497535E+03  0.12993948413E+04  0.90685863487E+02 0.  0.
          2    1    3    3  502    0 -0.60253724683E+02 -0.79095881293E+03  0.12928573901E+03  0.80371708791E+03  0.00000000000E+00 0. -1.
         -2    1    3    3    0  502 -0.30930311665E+02 -0.42613044224E+03  0.12789343030E+03  0.44598269865E+03  0.00000000000E+00 0.  1.
         11    1    5    5    0    0 -0.80124505210E+01  0.20804461779E+02  0.41379765198E+00  0.22297897250E+02  0.00000000000E+00 0.  1.
        -11    1    5    5    0    0 -0.45091878008E+02  0.29137176693E+02  0.23281290219E+03  0.23892279078E+03  0.00000000000E+00 0. -1.
          2    1    6    6  503    0  0.25490055863E+02  0.32576047247E+03 -0.11027247180E+03  0.34486177870E+03  0.00000000000E+00 0.  1.
         -2    1    6    6    0  503  0.11879830901E+03  0.84138714423E+03 -0.43484250355E+03  0.95453306259E+03  0.00000000000E+00 0. -1.
<mgrwt>
<rscale>  0 0.28097827E+04</rscale>
<asrwt>0</asrwt>
<pdfrwt beam="1">  1        1 0.21196971E+00 0.28097827E+04</pdfrwt>
<pdfrwt beam="2">  1       -1 0.22038649E+00 0.28097827E+04</pdfrwt>
<totfact> 0.75368045E-01</totfact>
</mgrwt>
</event>
<event>
12    2  0.3751044E-008  0.3445156E+04  0.7818608E-02  0.8126912E-01
         -2   -1    0    0    0  501 -0.00000000000E+00  0.00000000000E+00  0.16800554768E+04  0.16800554768E+04  0.00000000000E+00 0.  1.
          2   -1    0    0  501    0  0.00000000000E+00 -0.00000000000E+00 -0.17661771937E+04  0.17661771937E+04  0.00000000000E+00 0. -1.
         23    2    1    2    0    0  0.68011419278E+03 -0.10983326367E+04  0.90760139084E+03  0.15814006709E+04  0.90542262084E+02 0.  0.
        254    2    1    2    0    0 -0.68011419278E+03  0.10983326367E+04 -0.99372310778E+03  0.18648319995E+04  0.90621348225E+03 0.  0.
         23    2    4    4    0    0 -0.81666108083E+03  0.98563441221E+03 -0.58236383770E+03  0.14091555501E+04  0.90339413202E+02 0.  0.
         23    2    4    4    0    0  0.13654688804E+03  0.11269822453E+03 -0.41135927008E+03  0.45567644939E+03  0.84134624285E+02 0.  0.
          2    1    3    3  502    0  0.36243022168E+01 -0.12535640632E+02  0.34232162448E+00  0.13053544986E+02  0.00000000000E+00 0. -1.
         -2    1    3    3    0  502  0.67648989056E+03 -0.10857969961E+04  0.90725906922E+03  0.15683471259E+04  0.00000000000E+00 0.  1.
         11    1    5    5    0    0 -0.38051046688E+03  0.38938168577E+03 -0.24424810247E+03  0.59671052293E+03  0.00000000000E+00 0.  1.
        -11    1    5    5    0    0 -0.43615061394E+03  0.59625272644E+03 -0.33811573523E+03  0.81244502721E+03  0.00000000000E+00 0. -1.
          4    1    6    6  503    0  0.56181335020E+02  0.15757576755E+02 -0.66090591265E+02  0.88162406294E+02  0.00000000000E+00 0. -1.
         -4    1    6    6    0  503  0.80365553024E+02  0.96940647773E+02 -0.34526867881E+03  0.36751404310E+03  0.00000000000E+00 0.  1.
<mgrwt>
<rscale>  0 0.34451564E+04</rscale>
<asrwt>0</asrwt>
<pdfrwt beam="1">  1        2 0.27171957E+00 0.34451564E+04</pdfrwt>
<pdfrwt beam="2">  1       -2 0.25847007E+00 0.34451564E+04</pdfrwt>
<totfact> 0.42399254E-01</totfact>
</mgrwt>
</event>
<event>
12    2  0.3751044E-008  0.2072698E+04  0.7818608E-02  0.8573366E-01
          4   -1    0    0  501    0  0.00000000000E+00  0.00000000000E+00  0.17596804500E+04  0.17596804500E+04  0.00000000000E+00 0. -1.
         -4   -1    0    0    0  501 -0.00000000000E+00 -0.00000000000E+00 -0.61034901601E+03  0.61034901601E+03  0.00000000000E+00 0.  1.
         23    2    1    2    0    0 -0.32298620859E+03 -0.71140784634E+02  0.13482259455E+04  0.13909590934E+04  0.87595075751E+02 0.  0.
        254    2    1    2    0    0  0.32298620859E+03  0.71140784634E+02 -0.19889451148E+03  0.97907037262E+03  0.89979923631E+03 0.  0.
         23    2    4    4    0    0  0.34486389307E+03 -0.81793619830E+02 -0.50527857609E+03  0.62390469769E+03  0.91265170532E+02 0.  0.
         23    2    4    4    0    0 -0.21877684485E+02  0.15293440446E+03  0.30638406460E+03  0.35516567493E+03  0.91672768362E+02 0.  0.
          4    1    3    3  502    0 -0.45466155691E+01  0.93534808158E+01  0.18057732111E+02  0.20838450171E+02  0.00000000000E+00 0.  1.
         -4    1    3    3    0  502 -0.31843959302E+03 -0.80494265450E+02  0.13301682134E+04  0.13701206433E+04  0.00000000000E+00 0. -1.
         11    1    5    5    0    0  0.14462764716E+03  0.58838943561E+01 -0.16530280874E+03  0.21971981047E+03  0.00000000000E+00 0. -1.
        -11    1    5    5    0    0  0.20023624592E+03 -0.87677514186E+02 -0.33997576735E+03  0.40418488722E+03  0.00000000000E+00 0.  1.
          4    1    6    6  503    0 -0.86115820723E+01  0.18944954925E+01 -0.40346056759E+01  0.96967263506E+01  0.00000000000E+00 0. -1.
         -4    1    6    6    0  503 -0.13266102413E+02  0.15103990897E+03  0.31041867028E+03  0.34546894858E+03  0.00000000000E+00 0.  1.
<mgrwt>
<rscale>  0 0.20726980E+04</rscale>
<asrwt>0</asrwt>
<pdfrwt beam="1">  1        4 0.27072007E+00 0.20726980E+04</pdfrwt>
<pdfrwt beam="2">  1       -4 0.93899849E-01 0.20726980E+04</pdfrwt>
<totfact> 0.83183302E-02</totfact>
</mgrwt>
</event>
<event>
12    2  0.3751044E-008  0.2298381E+04  0.7818608E-02  0.8478560E-01
          2   -1    0    0  501    0  0.00000000000E+00  0.00000000000E+00  0.12693298020E+04  0.12693298020E+04  0.00000000000E+00 0. -1.
         -2   -1    0    0    0  501 -0.00000000000E+00 -0.00000000000E+00 -0.10404224080E+04  0.10404224080E+04  0.00000000000E+00 0.  1.
         23    2    1    2    0    0 -0.44720291214E+03 -0.36718176772E+03 -0.68817791886E+03  0.90385342422E+03  0.92462258653E+02 0.  0.
        254    2    1    2    0    0  0.44720291214E+03  0.36718176772E+03  0.91708531283E+03  0.14058987858E+04  0.89481452246E+03 0.  0.
         23    2    4    4    0    0  0.38852338200E+03  0.42438446135E+03  0.10633743146E+04  0.12124329863E+04  0.90422474292E+02 0.  0.
         23    2    4    4    0    0  0.58679530147E+02 -0.57202693632E+02 -0.14628900178E+03  0.19346579947E+03  0.96504446030E+02 0.  0.
          2    1    3    3  502    0 -0.36946342432E+03 -0.25457629709E+03 -0.54220835804E+03  0.70377710710E+03  0.00000000000E+00 0.  1.
         -2    1    3    3    0  502 -0.77739487827E+02 -0.11260547063E+03 -0.14596956083E+03  0.20007631712E+03  0.00000000000E+00 0. -1.
         11    1    5    5    0    0  0.73737844880E+02  0.41524771116E+02  0.19477302013E+03  0.21236314594E+03  0.00000000000E+00 0. -1.
        -11    1    5    5    0    0  0.31478553712E+03  0.38285969024E+03  0.86860129449E+03  0.10000698403E+04  0.00000000000E+00 0.  1.
          3    1    6    6  503    0  0.28931721459E+02  0.21798108421E+02 -0.73743825658E+02  0.82160537121E+02  0.00000000000E+00 0. -1.
         -3    1    6    6    0  503  0.29747808688E+02 -0.79000802053E+02 -0.72545176125E+02  0.11130526235E+03  0.00000000000E+00 0.  1.
<mgrwt>
<rscale>  0 0.22983813E+04</rscale>
<asrwt>0</asrwt>
<pdfrwt beam="1">  1        2 0.19528151E+00 0.22983813E+04</pdfrwt>
<pdfrwt beam="2">  1       -2 0.16006499E+00 0.22983813E+04</pdfrwt>
<totfact> 0.39312811E+00</totfact>
</mgrwt>
</event>
<event>
12    2  0.3751044E-008  0.2382330E+04  0.7818608E-02  0.8446149E-01
          2   -1    0    0  501    0  0.00000000000E+00  0.00000000000E+00  0.17665170317E+04  0.17665170317E+04  0.00000000000E+00 0.  1.
         -2   -1    0    0    0  501 -0.00000000000E+00 -0.00000000000E+00 -0.80320441969E+03  0.80320441969E+03  0.00000000000E+00 0. -1.
         23    2    1    2    0    0 -0.25875561762E+03 -0.16511719504E+03  0.14639417351E+04  0.14984646846E+04  0.89737670345E+02 0.  0.
        254    2    1    2    0    0  0.25875561762E+03  0.16511719504E+03 -0.50062912309E+03  0.10712567668E+04  0.89595947664E+03 0.  0.
         23    2    4    4    0    0  0.13925199495E+03 -0.27469711861E+03  0.76529650983E+02  0.33037915204E+03  0.91891085278E+02 0.  0.
         23    2    4    4    0    0  0.11950362266E+03  0.43981431364E+03 -0.57715877407E+03  0.74087761476E+03  0.89831193046E+02 0.  0.
          3    1    3    3  502    0 -0.14027977480E+03 -0.50534221095E+02  0.55389723065E+03  0.57361508422E+03  0.00000000000E+00 0. -1.
         -3    1    3    3    0  502 -0.11847584282E+03 -0.11458297394E+03  0.91004450446E+03  0.92484960039E+03  0.00000000000E+00 0.  1.
         11    1    5    5    0    0  0.16982798924E+02 -0.73274460794E+02 -0.16577852302E+02  0.77021991995E+02  0.00000000000E+00 0. -1.
        -11    1    5    5    0    0  0.12226919603E+03 -0.20142265782E+03  0.93107503285E+02  0.25335716005E+03  0.00000000000E+00 0.  1.
          3    1    6    6  503    0  0.69495765338E+02  0.38061788586E+03 -0.47428928222E+03  0.61208656223E+03  0.00000000000E+00 0. -1.
         -3    1    6    6    0  503  0.50007857325E+02  0.59196427785E+02 -0.10286949185E+03  0.12879105253E+03  0.00000000000E+00 0.  1.
<mgrwt>
<rscale>  0 0.23823302E+04</rscale>
<asrwt>0</asrwt>
<pdfrwt beam="1">  1        2 0.27177185E+00 0.23823302E+04</pdfrwt>
<pdfrwt beam="2">  1       -2 0.12356991E+00 0.23823302E+04</pdfrwt>
<totfact> 0.40031116E+00</totfact>
</mgrwt>
</event>
<event>
12    2  0.3751044E-008  0.1751834E+04  0.7818608E-02  0.8732342E-01
          1   -1    0    0  501    0  0.00000000000E+00  0.00000000000E+00  0.20800921688E+04  0.20800921688E+04  0.00000000000E+00 0. -1.
         -1   -1    0    0    0  501 -0.00000000000E+00 -0.00000000000E+00 -0.36884436014E+03  0.36884436014E+03  0.00000000000E+00 0.  1.
         23    2    1    2    0    0 -0.97549566506E+02 -0.15261041168E+03  0.14057039493E+04  0.14202755648E+04  0.91505361032E+02 0.  0.
        254    2    1    2    0    0  0.97549566506E+02  0.15261041168E+03  0.30554385936E+03  0.10286609642E+04  0.96539135771E+03 0.  0.
         23    2    4    4    0    0 -0.38039198043E+03  0.12843972309E+03 -0.65785956583E+02  0.41494774954E+03  0.81602827883E+02 0.  0.
         23    2    4    4    0    0  0.47794154694E+03  0.24170688588E+02  0.37132981595E+03  0.61371321464E+03  0.98720479831E+02 0.  0.
          4    1    3    3  502    0 -0.89393149127E+02 -0.13280870461E+03  0.13643022347E+04  0.13736629407E+04  0.00000000000E+00 0. -1.
         -4    1    3    3    0  502 -0.81564173798E+01 -0.19801707070E+02  0.41401714634E+02  0.46612624063E+02  0.00000000000E+00 0.  1.
         11    1    5    5    0    0 -0.13902441537E+03  0.65621988599E+02 -0.61285583424E+02  0.16549911236E+03  0.00000000000E+00 0. -1.
        -11    1    5    5    0    0 -0.24136756506E+03  0.62817734488E+02 -0.45003731588E+01  0.24944863718E+03  0.00000000000E+00 0.  1.
          3    1    6    6  503    0  0.19131842999E+03 -0.21297838072E+02  0.19565402308E+03  0.27447556596E+03  0.00000000000E+00 0. -1.
         -3    1    6    6    0  503  0.28662311694E+03  0.45468526660E+02  0.17567579287E+03  0.33923764868E+03  0.00000000000E+00 0.  1.
<mgrwt>
<rscale>  0 0.17518336E+04</rscale>
<asrwt>0</asrwt>
<pdfrwt beam="1">  1        1 0.32001417E+00 0.17518336E+04</pdfrwt>
<pdfrwt beam="2">  1       -1 0.56745287E-01 0.17518336E+04</pdfrwt>
<totfact> 0.78332238E+00</totfact>
</mgrwt>
</event>
<event>
12    2  0.3751044E-008  0.1609458E+04  0.7818608E-02  0.8814759E-01
          2   -1    0    0  501    0  0.00000000000E+00  0.00000000000E+00  0.12307087033E+04  0.12307087033E+04  0.00000000000E+00 0. -1.
         -2   -1    0    0    0  501 -0.00000000000E+00 -0.00000000000E+00 -0.52619179496E+03  0.52619179496E+03  0.00000000000E+00 0.  1.
         23    2    1    2    0    0  0.16581331558E+03 -0.44377554218E+03 -0.52762963737E+02  0.48595947032E+03  0.94561561921E+02 0.  0.
        254    2    1    2    0    0 -0.16581331558E+03  0.44377554218E+03  0.75727987212E+03  0.12709410280E+04  0.90409485368E+03 0.  0.
         23    2    4    4    0    0  0.34333442388E+02  0.23778993161E+03  0.90052722524E+03  0.93650653267E+03  0.91500631084E+02 0.  0.
         23    2    4    4    0    0 -0.20014675797E+03  0.20598561057E+03 -0.14324735312E+03  0.33443449532E+03  0.94009738845E+02 0.  0.
          3    1    3    3  502    0  0.23091573696E+02 -0.24582158849E+02 -0.25529093247E+02  0.42299384291E+02  0.00000000000E+00 0. -1.
         -3    1    3    3    0  502  0.14272174188E+03 -0.41919338333E+03 -0.27233870490E+02  0.44366008603E+03  0.00000000000E+00 0.  1.
         11    1    5    5    0    0  0.17452289814E+02  0.54429506980E+02  0.38205396910E+03  0.38630608196E+03  0.00000000000E+00 0.  1.
        -11    1    5    5    0    0  0.16881152574E+02  0.18336042463E+03  0.51847325614E+03  0.55020045071E+03  0.00000000000E+00 0. -1.
          1    1    6    6  503    0 -0.17879256003E+03  0.20528206585E+03 -0.15148361686E+03  0.31153618130E+03  0.00000000000E+00 0. -1.
         -1    1    6    6    0  503 -0.21354197932E+02  0.70354472668E+00  0.82362637439E+01  0.22898314020E+02  0.00000000000E+00 0.  1.
<mgrwt>
<rscale>  0 0.16094581E+04</rscale>
<asrwt>0</asrwt>
<pdfrwt beam="1">  1        2 0.18933980E+00 0.16094581E+04</pdfrwt>
<pdfrwt beam="2">  1       -2 0.80952584E-01 0.16094581E+04</pdfrwt>
<totfact> 0.23422550E+01</totfact>
</mgrwt>
</event>
<event>
12    2  0.3751044E-008  0.3410396E+04  0.7818608E-02  0.8135359E-01
         -2   -1    0    0    0  501 -0.00000000000E+00  0.00000000000E+00  0.30351371188E+04  0.30351371188E+04  0.00000000000E+00 0.  1.
          2   -1    0    0  501    0  0.00000000000E+00 -0.00000000000E+00 -0.95801303854E+03  0.95801303854E+03  0.00000000000E+00 0. -1.
         23    2    1    2    0    0 -0.72314795134E+03 -0.58544397847E+03 -0.52961825329E+03  0.10744036659E+04  0.90333447085E+02 0.  0.
        254    2    1    2    0    0  0.72314795134E+03  0.58544397847E+03  0.26067423335E+04  0.29187464914E+04  0.92643827434E+03 0.  0.
         23    2    4    4    0    0  0.67483293740E+03 -0.28652363250E+02  0.11930125317E+04  0.13739867005E+04  0.91324153311E+02 0.  0.
         23    2    4    4    0    0  0.48315013942E+02  0.61409634172E+03  0.14137298019E+04  0.15447597909E+04  0.90566006690E+02 0.  0.
          3    1    3    3  502    0 -0.51447047325E+03 -0.45047458880E+03 -0.35333951030E+03  0.76971165546E+03  0.00000000000E+00 0. -1.
         -3    1    3    3    0  502 -0.20867747809E+03 -0.13496938967E+03 -0.17627874299E+03  0.30469201046E+03  0.00000000000E+00 0.  1.
         11    1    5    5    0    0  0.43013436836E+03 -0.57581112954E+02  0.79975156925E+03  0.90990863933E+03  0.00000000000E+00 0. -1.
        -11    1    5    5    0    0  0.24469856904E+03  0.28928749704E+02  0.39326096244E+03  0.46407806114E+03  0.00000000000E+00 0.  1.
          4    1    6    6  503    0  0.63790075665E+02  0.55676999883E+03  0.12294814012E+04  0.13511796776E+04  0.00000000000E+00 0. -1.
         -4    1    6    6    0  503 -0.15475061723E+02  0.57326342897E+02  0.18424840067E+03  0.19358011333E+03  0.00000000000E+00 0.  1.
<mgrwt>
<rscale>  0 0.34103964E+04</rscale>
<asrwt>0</asrwt>
<pdfrwt beam="1">  1        2 0.14738662E+00 0.34103964E+04</pdfrwt>
<pdfrwt beam="2">  1       -2 0.46694417E+00 0.34103964E+04</pdfrwt>
<totfact> 0.59526274E-02</totfact>
</mgrwt>
</event>
<event>
12    2  0.3751044E-008  0.2249386E+04  0.7818608E-02  0.8498149E-01
          1   -1    0    0  501    0  0.00000000000E+00  0.00000000000E+00  0.23463623198E+04  0.23463623198E+04  0.00000000000E+00 0. -1.
         -1   -1    0    0    0  501 -0.00000000000E+00 -0.00000000000E+00 -0.53910449534E+03  0.53910449534E+03  0.00000000000E+00 0.  1.
         23    2    1    2    0    0  0.88071164306E+03 -0.30385205408E+03  0.69587210826E+03  0.11663540306E+04  0.90358533671E+02 0.  0.
        254    2    1    2    0    0 -0.88071164306E+03  0.30385205408E+03  0.11113857162E+04  0.17191127845E+04  0.92314218127E+03 0.  0.
         23    2    4    4    0    0 -0.41465109239E+03 -0.27266033275E+03  0.20560602395E+03  0.54500507055E+03  0.92073364055E+02 0.  0.
         23    2    4    4    0    0 -0.46606055066E+03  0.57651238683E+03  0.90577969225E+03  0.11741077140E+04  0.92266484196E+02 0.  0.
          2    1    3    3  502    0  0.11543330694E+03 -0.62519262860E+02  0.12767850518E+03  0.18312647887E+03  0.00000000000E+00 0. -1.
         -2    1    3    3    0  502  0.76527833612E+03 -0.24133279122E+03  0.56819360307E+03  0.98322755170E+03  0.00000000000E+00 0.  1.
         11    1    5    5    0    0 -0.29783989426E+02 -0.35471603430E+02 -0.43952256792E+01  0.46525677693E+02  0.00000000000E+00 0. -1.
        -11    1    5    5    0    0 -0.38486710297E+03 -0.23718872932E+03  0.21000124962E+03  0.49847939286E+03  0.00000000000E+00 0.  1.
          1    1    6    6  503    0 -0.24410777415E+03  0.22913248130E+03  0.40127138547E+03  0.52259833925E+03  0.00000000000E+00 0. -1.
         -1    1    6    6    0  503 -0.22195277652E+03  0.34737990553E+03  0.50450830678E+03  0.65150937474E+03  0.00000000000E+00 0.  1.
<mgrwt>
<rscale>  0 0.22493861E+04</rscale>
<asrwt>0</asrwt>
<pdfrwt beam="1">  1        1 0.36097881E+00 0.22493861E+04</pdfrwt>
<pdfrwt beam="2">  1       -1 0.82939155E-01 0.22493861E+04</pdfrwt>
<totfact> 0.22667488E+00</totfact>
</mgrwt>
</event>
<event>
12    2  0.3751044E-008  0.1730231E+04  0.7818608E-02  0.8744308E-01
         -1   -1    0    0    0  501 -0.00000000000E+00  0.00000000000E+00  0.57536118580E+03  0.57536118580E+03  0.00000000000E+00 0.  1.
          1   -1    0    0  501    0  0.00000000000E+00 -0.00000000000E+00 -0.13007918542E+04  0.13007918542E+04  0.00000000000E+00 0. -1.
         23    2    1    2    0    0  0.37421779846E+03 -0.48472213759E+03 -0.12261078805E+03  0.63340179562E+03  0.10568783277E+03 0.  0.
        254    2    1    2    0    0 -0.37421779846E+03  0.48472213759E+03 -0.60281988038E+03  0.12427512444E+04  0.89779971928E+03 0.  0.
         23    2    4    4    0    0 -0.24097003828E+03  0.71132008621E+03 -0.25740694481E+03  0.79920400702E+03  0.91792620702E+02 0.  0.
         23    2    4    4    0    0 -0.13324776018E+03 -0.22659794862E+03 -0.34541293557E+03  0.44354723739E+03  0.91227516820E+02 0.  0.
          2    1    3    3  502    0  0.35941265071E+03 -0.42256256323E+03 -0.12787216691E+03  0.56928715461E+03  0.00000000000E+00 0. -1.
         -2    1    3    3    0  502  0.14805147752E+02 -0.62159574357E+02  0.52613788613E+01  0.64114641009E+02  0.00000000000E+00 0.  1.
         11    1    5    5    0    0 -0.21543770872E+03  0.69096276745E+03 -0.24989975915E+03  0.76569761784E+03  0.00000000000E+00 0. -1.
        -11    1    5    5    0    0 -0.25532329560E+02  0.20357318759E+02 -0.75071856653E+01  0.33506389188E+02  0.00000000000E+00 0.  1.
          2    1    6    6  503    0 -0.25390405260E+02  0.11162960223E+01 -0.42707311396E+02  0.49697416862E+02  0.00000000000E+00 0.  1.
         -2    1    6    6    0  503 -0.10785735492E+03 -0.22771424464E+03 -0.30270562417E+03  0.39384982052E+03  0.00000000000E+00 0. -1.
<mgrwt>
<rscale>  0 0.17302314E+04</rscale>
<asrwt>0</asrwt>
<pdfrwt beam="1">  1        1 0.20012182E+00 0.17302314E+04</pdfrwt>
<pdfrwt beam="2">  1       -1 0.88517106E-01 0.17302314E+04</pdfrwt>
<totfact> 0.10744950E+01</totfact>
</mgrwt>
</event>
<event>
12    2  0.3751044E-008  0.1986933E+04  0.7818608E-02  0.8612755E-01
         -1   -1    0    0    0  501 -0.00000000000E+00  0.00000000000E+00  0.16689962981E+04  0.16689962981E+04  0.00000000000E+00 0.  1.
          1   -1    0    0  501    0  0.00000000000E+00 -0.00000000000E+00 -0.59135862547E+03  0.59135862547E+03  0.00000000000E+00 0. -1.
         23    2    1    2    0    0 -0.65939176892E+03  0.40496096640E+03  0.55066528741E+03  0.95399142005E+03  0.89869246950E+02 0.  0.
        254    2    1    2    0    0  0.65939176892E+03 -0.40496096640E+03  0.52697238523E+03  0.13063635035E+04  0.91109539531E+03 0.  0.
         23    2    4    4    0    0  0.32993813763E+03 -0.62534040938E+03  0.10258192727E+03  0.72007270235E+03  0.89843433797E+02 0.  0.
         23    2    4    4    0    0  0.32945363129E+03  0.22037944298E+03  0.42439045795E+03  0.58629080119E+03  0.80764154813E+02 0.  0.
          2    1    3    3  502    0 -0.53114862208E+03  0.32588084194E+03  0.48496071807E+03  0.78962274534E+03  0.00000000000E+00 0.  1.
         -2    1    3    3    0  502 -0.12824314684E+03  0.79080124456E+02  0.65704569343E+02  0.16436867471E+03  0.00000000000E+00 0. -1.
         11    1    5    5    0    0  0.26543295808E+03 -0.52696700924E+03  0.53008247287E+02  0.59241772285E+03  0.00000000000E+00 0. -1.
        -11    1    5    5    0    0  0.64505179544E+02 -0.98373400139E+02  0.49573679988E+02  0.12765497950E+03  0.00000000000E+00 0.  1.
          4    1    6    6  503    0  0.32256302918E+03  0.20114458969E+03  0.41772071773E+03  0.56479788578E+03  0.00000000000E+00 0. -1.
         -4    1    6    6    0  503  0.68906021115E+01  0.19234853287E+02  0.66697402211E+01  0.21492915415E+02  0.00000000000E+00 0.  1.
<mgrwt>
<rscale>  0 0.19869327E+04</rscale>
<asrwt>0</asrwt>
<pdfrwt beam="1">  1        1 0.90978251E-01 0.19869327E+04</pdfrwt>
<pdfrwt beam="2">  1       -1 0.25676866E+00 0.19869327E+04</pdfrwt>
<totfact> 0.20456763E+00</totfact>
</mgrwt>
</event>
<event>
12    2  0.3751044E-008  0.2060009E+04  0.7818608E-02  0.8579067E-01
          2   -1    0    0  501    0  0.00000000000E+00  0.00000000000E+00  0.80863465598E+03  0.80863465598E+03  0.00000000000E+00 0. -1.
         -2   -1    0    0    0  501 -0.00000000000E+00 -0.00000000000E+00 -0.13119753824E+04  0.13119753824E+04  0.00000000000E+00 0.  1.
         23    2    1    2    0    0 -0.17635663538E+03 -0.67923320046E+03  0.24406679572E+03  0.75025995200E+03  0.10422087774E+03 0.  0.
        254    2    1    2    0    0  0.17635663538E+03  0.67923320046E+03 -0.74740752218E+03  0.13703500864E+04  0.90927550923E+03 0.  0.
         23    2    4    4    0    0  0.45808426045E+02  0.39800958443E+03 -0.91782840560E+03  0.10055146082E+04  0.90225295202E+02 0.  0.
         23    2    4    4    0    0  0.13054820933E+03  0.28122361602E+03  0.17042088342E+03  0.36483547826E+03  0.89062290137E+02 0.  0.
          1    1    3    3  502    0 -0.10110896523E+03 -0.31932849936E+03  0.16825864536E+03  0.37483954580E+03  0.00000000000E+00 0. -1.
         -1    1    3    3    0  502 -0.75247670141E+02 -0.35990470109E+03  0.75808150361E+02  0.37542040620E+03  0.00000000000E+00 0.  1.
         11    1    5    5    0    0  0.71494087797E+02  0.32212293963E+03 -0.75915430100E+03  0.82776194981E+03  0.00000000000E+00 0. -1.
        -11    1    5    5    0    0 -0.25685661752E+02  0.75886644800E+02 -0.15867410460E+03  0.17775265835E+03  0.00000000000E+00 0.  1.
          2    1    6    6  503    0  0.48517025622E+02  0.48845390282E+02  0.71595378214E+02  0.99326089768E+02  0.00000000000E+00 0.  1.
         -2    1    6    6    0  503  0.82031183709E+02  0.23237822574E+03  0.98825505203E+02  0.26550938849E+03  0.00000000000E+00 0. -1.
<mgrwt>
<rscale>  0 0.20600085E+04</rscale>
<asrwt>0</asrwt>
<pdfrwt beam="1">  1        2 0.12440533E+00 0.20600085E+04</pdfrwt>
<pdfrwt beam="2">  1       -2 0.20184237E+00 0.20600085E+04</pdfrwt>
<totfact> 0.40588195E+00</totfact>
</mgrwt>
</event>
<event>
12    2  0.3751044E-008  0.2093441E+04  0.7818608E-02  0.8564138E-01
         -1   -1    0    0    0  501 -0.00000000000E+00  0.00000000000E+00  0.33000245361E+03  0.33000245361E+03  0.00000000000E+00 0.  1.
          1   -1    0    0  501    0  0.00000000000E+00 -0.00000000000E+00 -0.33200484411E+04  0.33200484411E+04  0.00000000000E+00 0. -1.
         23    2    1    2    0    0  0.69678253027E+02  0.47480312480E+03  0.34206851415E+00  0.48829900272E+03  0.90237092059E+02 0.  0.
        254    2    1    2    0    0 -0.69678253027E+02 -0.47480312480E+03 -0.29903880560E+04  0.31617518920E+04  0.90772310464E+03 0.  0.
         23    2    4    4    0    0 -0.42706141839E+03 -0.48179786896E+03 -0.17059934098E+04  0.18257159192E+04  0.91183669973E+02 0.  0.
         23    2    4    4    0    0  0.35738316536E+03  0.69947441601E+01 -0.12843946462E+04  0.13360359728E+04  0.86895685051E+02 0.  0.
          4    1    3    3  502    0  0.69285793951E+02  0.41339897761E+03 -0.29152363735E+02  0.42017745804E+03  0.00000000000E+00 0.  1.
         -4    1    3    3    0  502  0.39245907534E+00  0.61404147191E+02  0.29494432249E+02  0.68121544683E+02  0.00000000000E+00 0. -1.
         11    1    5    5    0    0 -0.33915031902E+02 -0.85683620409E+01 -0.87442738934E+02  0.94180034026E+02  0.00000000000E+00 0. -1.
        -11    1    5    5    0    0 -0.39314638649E+03 -0.47322950692E+03 -0.16185506709E+04  0.17315358852E+04  0.00000000000E+00 0.  1.
          1    1    6    6  503    0  0.12615303540E+02 -0.14064282619E+02 -0.34997938749E+02  0.39771920317E+02  0.00000000000E+00 0. -1.
         -1    1    6    6    0  503  0.34476786182E+03  0.21059026779E+02 -0.12493967075E+04  0.12962640525E+04  0.00000000000E+00 0.  1.
<mgrwt>
<rscale>  0 0.20934413E+04</rscale>
<asrwt>0</asrwt>
<pdfrwt beam="1">  1        1 0.51077667E+00 0.20934413E+04</pdfrwt>
<pdfrwt beam="2">  1       -1 0.50769610E-01 0.20934413E+04</pdfrwt>
<totfact> 0.12400922E+00</totfact>
</mgrwt>
</event>
<event>
12    2  0.3751044E-008  0.1396791E+04  0.7818608E-02  0.8956145E-01
          2   -1    0    0  501    0  0.00000000000E+00  0.00000000000E+00  0.17214615606E+04  0.17214615606E+04  0.00000000000E+00 0.  1.
         -2   -1    0    0    0  501 -0.00000000000E+00 -0.00000000000E+00 -0.28333851674E+03  0.28333851674E+03  0.00000000000E+00 0. -1.
         23    2    1    2    0    0 -0.72541599733E+01 -0.18309271793E+03 -0.89980295536E+02  0.22328005750E+03  0.90454211052E+02 0.  0.
        254    2    1    2    0    0  0.72541599733E+01  0.18309271793E+03  0.15281033394E+04  0.17815200199E+04  0.89729493426E+03 0.  0.
         23    2    4    4    0    0  0.30522952865E+03 -0.21705739836E+03  0.46665565817E+03  0.60516720050E+03  0.90448095144E+02 0.  0.
         23    2    4    4    0    0 -0.29797536868E+03  0.40015011629E+03  0.10614476813E+04  0.11763528194E+04  0.90693658505E+02 0.  0.
          1    1    3    3  502    0  0.15167106902E+02 -0.13962925365E+03 -0.10118955716E+03  0.17310602556E+03  0.00000000000E+00 0. -1.
         -1    1    3    3    0  502 -0.22421266875E+02 -0.43463464277E+02  0.11209261620E+02  0.50174031942E+02  0.00000000000E+00 0.  1.
         11    1    5    5    0    0  0.28566292865E+00 -0.21501794383E+02  0.15184743887E+02  0.26324612284E+02  0.00000000000E+00 0.  1.
        -11    1    5    5    0    0  0.30494386572E+03 -0.19555560398E+03  0.45147091428E+03  0.57884258822E+03  0.00000000000E+00 0. -1.
          2    1    6    6  503    0 -0.15842859199E+03  0.25874388882E+03  0.72004247114E+03  0.78135086806E+03  0.00000000000E+00 0. -1.
         -2    1    6    6    0  503 -0.13954677669E+03  0.14140622747E+03  0.34140521013E+03  0.39500195133E+03  0.00000000000E+00 0.  1.
<mgrwt>
<rscale>  0 0.13967911E+04</rscale>
<asrwt>0</asrwt>
<pdfrwt beam="1">  1        2 0.26484023E+00 0.13967911E+04</pdfrwt>
<pdfrwt beam="2">  1       -2 0.43590542E-01 0.13967911E+04</pdfrwt>
<totfact> 0.46348634E+01</totfact>
</mgrwt>
</event>
<event>
12    2  0.3751044E-008  0.2125831E+04  0.7818608E-02  0.8549949E-01
         -2   -1    0    0    0  501 -0.00000000000E+00  0.00000000000E+00  0.37410146092E+03  0.37410146092E+03  0.00000000000E+00 0.  1.
          2   -1    0    0  501    0  0.00000000000E+00 -0.00000000000E+00 -0.30200080224E+04  0.30200080224E+04  0.00000000000E+00 0. -1.
         23    2    1    2    0    0  0.37168276654E+03  0.67222837176E+03 -0.43315175158E+03  0.88644411808E+03  0.90131414336E+02 0.  0.
        254    2    1    2    0    0 -0.37168276654E+03 -0.67222837176E+03 -0.22127548099E+04  0.25076653653E+04  0.89557951769E+03 0.  0.
         23    2    4    4    0    0 -0.53843511207E+03 -0.58945541276E+03 -0.21425542562E+04  0.22883369892E+04  0.92614155688E+02 0.  0.
         23    2    4    4    0    0  0.16675234553E+03 -0.82772958998E+02 -0.70200553773E+02  0.21932837610E+03  0.92299032122E+02 0.  0.
          4    1    3    3  502    0  0.19665890968E+02  0.32864769381E+02 -0.47306407220E+02  0.60866546625E+02  0.00000000000E+00 0. -1.
         -4    1    3    3    0  502  0.35201687557E+03  0.63936360238E+03 -0.38584534436E+03  0.82557757146E+03  0.00000000000E+00 0.  1.
         11    1    5    5    0    0 -0.81134806027E+02 -0.14382819823E+03 -0.42956765830E+03  0.46021492850E+03  0.00000000000E+00 0. -1.
        -11    1    5    5    0    0 -0.45730030604E+03 -0.44562721453E+03 -0.17129865979E+04  0.18281220607E+04  0.00000000000E+00 0.  1.
          3    1    6    6  503    0  0.33616778599E+02 -0.65383437916E+02 -0.24138788294E+02  0.77380636191E+02  0.00000000000E+00 0. -1.
         -3    1    6    6    0  503  0.13313556693E+03 -0.17389521083E+02 -0.46061765479E+02  0.14194773991E+03  0.00000000000E+00 0.  1.
<mgrwt>
<rscale>  0 0.21258310E+04</rscale>
<asrwt>0</asrwt>
<pdfrwt beam="1">  1        2 0.46461662E+00 0.21258310E+04</pdfrwt>
<pdfrwt beam="2">  1       -2 0.57554071E-01 0.21258310E+04</pdfrwt>
<totfact> 0.44056326E+00</totfact>
</mgrwt>
</event>
<event>
12    2  0.3751044E-008  0.1785587E+04  0.7818608E-02  0.8714002E-01
          1   -1    0    0  501    0  0.00000000000E+00  0.00000000000E+00  0.22382955629E+04  0.22382955629E+04  0.00000000000E+00 0. -1.
         -1   -1    0    0    0  501 -0.00000000000E+00 -0.00000000000E+00 -0.35611046688E+03  0.35611046688E+03  0.00000000000E+00 0.  1.
         23    2    1    2    0    0  0.28082931849E+02  0.39295422115E+03 -0.47376171322E+02  0.40771600982E+03  0.93734583115E+02 0.  0.
        254    2    1    2    0    0 -0.28082931849E+02 -0.39295422115E+03  0.19295612674E+04  0.21866900200E+04  0.95037092129E+03 0.  0.
         23    2    4    4    0    0  0.22525654575E+03 -0.16996955395E+03  0.85689178700E+02  0.31001459171E+03  0.95583738439E+02 0.  0.
         23    2    4    4    0    0 -0.25333947760E+03 -0.22298466720E+03  0.18438720887E+04  0.18766754283E+04  0.90240406905E+02 0.  0.
          1    1    3    3  502    0  0.11800958114E+02  0.13917098719E+00 -0.13855338350E+01  0.11882831522E+02  0.00000000000E+00 0. -1.
         -1    1    3    3    0  502  0.16281973735E+02  0.39281505016E+03 -0.45990637487E+02  0.39583317829E+03  0.00000000000E+00 0.  1.
         11    1    5    5    0    0  0.22326752677E+02  0.92087839628E+01  0.20219172828E+02  0.31497627482E+02  0.00000000000E+00 0.  1.
        -11    1    5    5    0    0  0.20292979307E+03 -0.17917833792E+03  0.65470005873E+02  0.27851696423E+03  0.00000000000E+00 0. -1.
          3    1    6    6  503    0 -0.15458689524E+03 -0.17739401733E+03  0.10992602729E+04  0.11241614177E+04  0.00000000000E+00 0. -1.
         -3    1    6    6    0  503 -0.98752582361E+02 -0.45590649861E+02  0.74461181579E+03  0.75251401056E+03  0.00000000000E+00 0.  1.
<mgrwt>
<rscale>  0 0.17855873E+04</rscale>
<asrwt>0</asrwt>
<pdfrwt beam="1">  1        1 0.34435316E+00 0.17855873E+04</pdfrwt>
<pdfrwt beam="2">  1       -1 0.54786227E-01 0.17855873E+04</pdfrwt>
<totfact> 0.65272626E+00</totfact>
</mgrwt>
</event>
<event>
12    2  0.3751044E-008  0.2294781E+04  0.7818608E-02  0.8479982E-01
          2   -1    0    0  501    0  0.00000000000E+00  0.00000000000E+00  0.19186805562E+04  0.19186805562E+04  0.00000000000E+00 0.  1.
         -2   -1    0    0    0  501 -0.00000000000E+00 -0.00000000000E+00 -0.68615110348E+03  0.68615110348E+03  0.00000000000E+00 0. -1.
         23    2    1    2    0    0 -0.35681794752E+03  0.88412876242E+03  0.49516839367E+03  0.10782209463E+04  0.91465593705E+02 0.  0.
        254    2    1    2    0    0  0.35681794752E+03 -0.88412876242E+03  0.73736105906E+03  0.15266107133E+04  0.93692914483E+03 0.  0.
         23    2    4    4    0    0  0.50101602364E+02 -0.17262334397E+03  0.71860569785E+03  0.74626833559E+03  0.90627204914E+02 0.  0.
         23    2    4    4    0    0  0.30671634516E+03 -0.71150541846E+03  0.18755361209E+02  0.78034237775E+03  0.90926267169E+02 0.  0.
          2    1    3    3  502    0 -0.16035536036E+03  0.51200912440E+03  0.29413435222E+03  0.61186779799E+03  0.00000000000E+00 0. -1.
         -2    1    3    3    0  502 -0.19646258716E+03  0.37211963803E+03  0.20103404145E+03  0.46635314835E+03  0.00000000000E+00 0.  1.
         11    1    5    5    0    0  0.35062316780E+01 -0.14735405823E+03  0.49590596925E+03  0.51734731320E+03  0.00000000000E+00 0. -1.
        -11    1    5    5    0    0  0.46595370686E+02 -0.25269285741E+02  0.22269972860E+03  0.22892102238E+03  0.00000000000E+00 0.  1.
          4    1    6    6  503    0  0.17845266256E+03 -0.34010794635E+03  0.44092616743E+02  0.38660435434E+03  0.00000000000E+00 0. -1.
         -4    1    6    6    0  503  0.12826368260E+03 -0.37139747210E+03 -0.25337255534E+02  0.39373802341E+03  0.00000000000E+00 0.  1.
<mgrwt>
<rscale>  0 0.22947808E+04</rscale>
<asrwt>0</asrwt>
<pdfrwt beam="1">  1        2 0.29518162E+00 0.22947808E+04</pdfrwt>
<pdfrwt beam="2">  1       -2 0.10556171E+00 0.22947808E+04</pdfrwt>
<totfact> 0.48801193E+00</totfact>
</mgrwt>
</event>
<event>
12    2  0.3751044E-008  0.1574618E+04  0.7818608E-02  0.8836294E-01
         -1   -1    0    0    0  501 -0.00000000000E+00  0.00000000000E+00  0.23270014017E+03  0.23270014017E+03  0.00000000000E+00 0.  1.
          1   -1    0    0  501    0  0.00000000000E+00 -0.00000000000E+00 -0.26637536702E+04  0.26637536702E+04  0.00000000000E+00 0. -1.
         23    2    1    2    0    0  0.18541310354E+03  0.45420424735E+03 -0.12543904953E+04  0.13502780728E+04  0.95267214014E+02 0.  0.
        254    2    1    2    0    0 -0.18541310354E+03 -0.45420424735E+03 -0.11766630347E+04  0.15461757375E+04  0.87489656343E+03 0.  0.
         23    2    4    4    0    0 -0.90584282488E+02 -0.14396492753E+03  0.10552643749E+03  0.22052868375E+03  0.92550844157E+02 0.  0.
         23    2    4    4    0    0 -0.94828821048E+02 -0.31023931982E+03 -0.12821894722E+04  0.13256470538E+04  0.89940689319E+02 0.  0.
          1    1    3    3  502    0  0.43767337843E+02  0.23102042608E+03 -0.56769847663E+03  0.61446527770E+03  0.00000000000E+00 0. -1.
         -1    1    3    3    0  502  0.14164576569E+03  0.22318382127E+03 -0.68669201864E+03  0.73581279513E+03  0.00000000000E+00 0.  1.
         11    1    5    5    0    0 -0.11035296102E+02 -0.30645983533E+02  0.70579993388E+02  0.77733451830E+02  0.00000000000E+00 0.  1.
        -11    1    5    5    0    0 -0.79548986386E+02 -0.11331894400E+03  0.34946444105E+02  0.14279523192E+03  0.00000000000E+00 0. -1.
          3    1    6    6  503    0 -0.41381907167E+02 -0.84693828975E+02 -0.53798807091E+03  0.54618373405E+03  0.00000000000E+00 0. -1.
         -3    1    6    6    0  503 -0.53446913880E+02 -0.22554549084E+03 -0.74420140133E+03  0.77946331971E+03  0.00000000000E+00 0.  1.
<mgrwt>
<rscale>  0 0.15746185E+04</rscale>
<asrwt>0</asrwt>
<pdfrwt beam="1">  1        1 0.40980829E+00 0.15746185E+04</pdfrwt>
<pdfrwt beam="2">  1       -1 0.35800019E-01 0.15746185E+04</pdfrwt>
<totfact> 0.74793836E+00</totfact>
</mgrwt>
</event>
<event>
12    2  0.3751044E-008  0.1641081E+04  0.7818608E-02  0.8795701E-01
          1   -1    0    0  501    0  0.00000000000E+00  0.00000000000E+00  0.47006288714E+03  0.47006288714E+03  0.00000000000E+00 0. -1.
         -1   -1    0    0    0  501 -0.00000000000E+00 -0.00000000000E+00 -0.14323326619E+04  0.14323326619E+04  0.00000000000E+00 0.  1.
         23    2    1    2    0    0  0.52640929758E+03 -0.13330020758E+03 -0.55979076187E+03  0.78531825976E+03  0.92105255613E+02 0.  0.
        254    2    1    2    0    0 -0.52640929758E+03  0.13330020758E+03 -0.40247901288E+03  0.11170772893E+04  0.88937990785E+03 0.  0.
         23    2    4    4    0    0 -0.42008116371E+03 -0.29869209828E+03 -0.40688419927E+03  0.66302181702E+03  0.91422232280E+02 0.  0.
         23    2    4    4    0    0 -0.10632813388E+03  0.43199230586E+03  0.44051863848E+01  0.45405547226E+03  0.90685951773E+02 0.  0.
          1    1    3    3  502    0  0.28166000555E+03 -0.74358444852E+02 -0.36507778028E+03  0.46705815773E+03  0.00000000000E+00 0. -1.
         -1    1    3    3    0  502  0.24474929203E+03 -0.58941762728E+02 -0.19471298159E+03  0.31826010203E+03  0.00000000000E+00 0.  1.
         11    1    5    5    0    0 -0.38800915073E+03 -0.30130987053E+03 -0.37962883965E+03  0.62085166909E+03  0.00000000000E+00 0. -1.
        -11    1    5    5    0    0 -0.32072012979E+02  0.26177722469E+01 -0.27255359620E+02  0.42170147926E+02  0.00000000000E+00 0.  1.
          3    1    6    6  503    0 -0.99421122557E+02  0.38199798074E+03  0.32908843489E+02  0.39609343453E+03  0.00000000000E+00 0. -1.
         -3    1    6    6    0  503 -0.69070113196E+01  0.49994325121E+02 -0.28503657104E+02  0.57962037731E+02  0.00000000000E+00 0.  1.
<mgrwt>
<rscale>  0 0.16410807E+04</rscale>
<asrwt>0</asrwt>
<pdfrwt beam="1">  1        1 0.72317369E-01 0.16410807E+04</pdfrwt>
<pdfrwt beam="2">  1       -1 0.22035887E+00 0.16410807E+04</pdfrwt>
<totfact> 0.50493181E+00</totfact>
</mgrwt>
</event>
<event>
12    2  0.3751044E-008  0.1626676E+04  0.7818608E-02  0.8804325E-01
         -1   -1    0    0    0  501 -0.00000000000E+00  0.00000000000E+00  0.39966058515E+03  0.39966058515E+03  0.00000000000E+00 0.  1.
          1   -1    0    0  501    0  0.00000000000E+00 -0.00000000000E+00 -0.16552022355E+04  0.16552022355E+04  0.00000000000E+00 0. -1.
         23    2    1    2    0    0  0.21004602103E+03 -0.46382474083E+03 -0.72847933809E+03  0.89325851953E+03  0.89307981334E+02 0.  0.
        254    2    1    2    0    0 -0.21004602103E+03  0.46382474083E+03 -0.52706231222E+03  0.11616043011E+04  0.90126419555E+03 0.  0.
         23    2    4    4    0    0  0.21065898314E+03  0.45145021352E+02 -0.50891012098E+03  0.56018575383E+03  0.91669446555E+02 0.  0.
         23    2    4    4    0    0 -0.42070500417E+03  0.41867971948E+03 -0.18152191243E+02  0.60141854725E+03  0.95338129303E+02 0.  0.
          4    1    3    3  502    0  0.10648164707E+03 -0.14204572863E+03 -0.28246510567E+03  0.33361934312E+03  0.00000000000E+00 0.  1.
         -4    1    3    3    0  502  0.10356437396E+03 -0.32177901220E+03 -0.44601423242E+03  0.55963917641E+03  0.00000000000E+00 0. -1.
         11    1    5    5    0    0  0.19240914493E+03  0.57128584510E+02 -0.38308105028E+03  0.43247664134E+03  0.00000000000E+00 0. -1.
        -11    1    5    5    0    0  0.18249838206E+02 -0.11983563158E+02 -0.12582907069E+03  0.12770911249E+03  0.00000000000E+00 0.  1.
          4    1    6    6  503    0 -0.33678285303E+03  0.36952066549E+03  0.10326016391E+02  0.50007483334E+03  0.00000000000E+00 0. -1.
         -4    1    6    6    0  503 -0.83922151141E+02  0.49159053983E+02 -0.28478207635E+02  0.10134371392E+03  0.00000000000E+00 0.  1.
<mgrwt>
<rscale>  0 0.16266765E+04</rscale>
<asrwt>0</asrwt>
<pdfrwt beam="1">  1        1 0.25464650E+00 0.16266765E+04</pdfrwt>
<pdfrwt beam="2">  1       -1 0.61486244E-01 0.16266765E+04</pdfrwt>
<totfact> 0.13136110E+01</totfact>
</mgrwt>
</event>
<event>
12    2  0.3751044E-008  0.1137486E+04  0.7818608E-02  0.9169406E-01
          1   -1    0    0  501    0  0.00000000000E+00  0.00000000000E+00  0.17413784438E+04  0.17413784438E+04  0.00000000000E+00 0. -1.
         -1   -1    0    0    0  501 -0.00000000000E+00 -0.00000000000E+00 -0.18575437128E+03  0.18575437128E+03  0.00000000000E+00 0.  1.
         23    2    1    2    0    0 -0.17614654987E+03 -0.78033561390E+02  0.43774796053E+03  0.48693655035E+03  0.91471762772E+02 0.  0.
        254    2    1    2    0    0  0.17614654987E+03  0.78033561390E+02  0.11178761120E+04  0.14401962647E+04  0.88735643088E+03 0.  0.
         23    2    4    4    0    0 -0.49189343088E+02  0.23757859862E+03 -0.25362964915E+02  0.26038421185E+03  0.91068522552E+02 0.  0.
         23    2    4    4    0    0  0.22533589296E+03 -0.15954503723E+03  0.11432390769E+04  0.11798120529E+04  0.93434520179E+02 0.  0.
          1    1    3    3  502    0 -0.17791956815E+03 -0.74101067843E+02  0.44116855035E+03  0.48143123165E+03  0.00000000000E+00 0. -1.
         -1    1    3    3    0  502  0.17730182786E+01 -0.39324935470E+01 -0.34205898208E+01  0.55053187042E+01  0.00000000000E+00 0.  1.
         11    1    5    5    0    0 -0.63451113645E+02  0.23448028746E+03 -0.30696980895E+02  0.24484557105E+03  0.00000000000E+00 0.  1.
        -11    1    5    5    0    0  0.14261770557E+02  0.30983111599E+01  0.53340159797E+01  0.15538640801E+02  0.00000000000E+00 0. -1.
          4    1    6    6  503    0  0.19233550213E+03 -0.16756484368E+03  0.95213992578E+03  0.98571870251E+03  0.00000000000E+00 0.  1.
         -4    1    6    6    0  503  0.33000390830E+02  0.80198064497E+01  0.19109915114E+03  0.19409335037E+03  0.00000000000E+00 0. -1.
<mgrwt>
<rscale>  0 0.11374861E+04</rscale>
<asrwt>0</asrwt>
<pdfrwt beam="1">  1        1 0.26790436E+00 0.11374861E+04</pdfrwt>
<pdfrwt beam="2">  1       -1 0.28577597E-01 0.11374861E+04</pdfrwt>
<totfact> 0.49359393E+01</totfact>
</mgrwt>
</event>
<event>
12    2  0.3751044E-008  0.2538907E+04  0.7818608E-02  0.8389254E-01
         -2   -1    0    0    0  501 -0.00000000000E+00  0.00000000000E+00  0.72629078087E+03  0.72629078087E+03  0.00000000000E+00 0.  1.
          2   -1    0    0  501    0  0.00000000000E+00 -0.00000000000E+00 -0.22188249542E+04  0.22188249542E+04  0.00000000000E+00 0. -1.
         23    2    1    2    0    0  0.47034618204E+03  0.10022536614E+04 -0.73208645913E+03  0.13303714925E+04  0.90552701720E+02 0.  0.
        254    2    1    2    0    0 -0.47034618204E+03 -0.10022536614E+04 -0.76044771421E+03  0.16147442425E+04  0.89631484980E+03 0.  0.
         23    2    4    4    0    0  0.23657502652E+03 -0.46635891475E+03 -0.31888913070E+03  0.61948231137E+03  0.92788339142E+02 0.  0.
         23    2    4    4    0    0 -0.70692120856E+03 -0.53589474666E+03 -0.44155858351E+03  0.99526193116E+03  0.93013731959E+02 0.  0.
          1    1    3    3  502    0  0.36467064689E+03  0.84958787572E+03 -0.62584219647E+03  0.11164509367E+04  0.00000000000E+00 0. -1.
         -1    1    3    3    0  502  0.10567553515E+03  0.15266578568E+03 -0.10624426266E+03  0.21392055581E+03  0.00000000000E+00 0.  1.
         11    1    5    5    0    0  0.78754241935E+02 -0.18632978587E+03 -0.74054821242E+02  0.21541851423E+03  0.00000000000E+00 0.  1.
        -11    1    5    5    0    0  0.15782078459E+03 -0.28002912888E+03 -0.24483430946E+03  0.40406379714E+03  0.00000000000E+00 0. -1.
          2    1    6    6  503    0 -0.46061560219E+03 -0.37157363106E+03 -0.24892443573E+03  0.64202575570E+03  0.00000000000E+00 0. -1.
         -2    1    6    6    0  503 -0.24630560637E+03 -0.16432111560E+03 -0.19263414778E+03  0.35323617546E+03  0.00000000000E+00 0.  1.
<mgrwt>
<rscale>  0 0.25389069E+04</rscale>
<asrwt>0</asrwt>
<pdfrwt beam="1">  1        2 0.34135769E+00 0.25389069E+04</pdfrwt>
<pdfrwt beam="2">  1       -2 0.11173704E+00 0.25389069E+04</pdfrwt>
<totfact> 0.28332729E+00</totfact>
</mgrwt>
</event>
<event>
12    2  0.3751044E-008  0.1319140E+04  0.7818608E-02  0.9014523E-01
          2   -1    0    0  501    0  0.00000000000E+00  0.00000000000E+00  0.18378240247E+04  0.18378240247E+04  0.00000000000E+00 0.  1.
         -2   -1    0    0    0  501 -0.00000000000E+00 -0.00000000000E+00 -0.23671070387E+03  0.23671070387E+03  0.00000000000E+00 0. -1.
         23    2    1    2    0    0 -0.27784998264E+03 -0.10678635714E+03  0.72192020616E+03  0.78686754971E+03  0.96890751848E+02 0.  0.
        254    2    1    2    0    0  0.27784998264E+03  0.10678635714E+03  0.87919311465E+03  0.12876671788E+04  0.89246977076E+03 0.  0.
         23    2    4    4    0    0 -0.27830383858E+02  0.27020738768E+03 -0.50725430507E+02  0.29110716011E+03  0.91562802199E+02 0.  0.
         23    2    4    4    0    0  0.30568036650E+03 -0.16342103054E+03  0.92991854515E+03  0.99656001874E+03  0.90754893160E+02 0.  0.
          2    1    3    3  502    0 -0.14730182901E+03 -0.37788646892E+02  0.25236079993E+03  0.29463839533E+03  0.00000000000E+00 0. -1.
         -2    1    3    3    0  502 -0.13054815364E+03 -0.68997710244E+02  0.46955940624E+03  0.49222915438E+03  0.00000000000E+00 0.  1.
         11    1    5    5    0    0 -0.33407332118E+02  0.28474892372E+02  0.70237076914E+00  0.43901738685E+02  0.00000000000E+00 0. -1.
        -11    1    5    5    0    0  0.55769482595E+01  0.24173249531E+03 -0.51427801277E+02  0.24720542143E+03  0.00000000000E+00 0.  1.
          2    1    6    6  503    0  0.85501614323E+02 -0.49015137801E+02  0.16276595514E+03  0.19027812785E+03  0.00000000000E+00 0. -1.
         -2    1    6    6    0  503  0.22017875218E+03 -0.11440589274E+03  0.76715259001E+03  0.80628189088E+03  0.00000000000E+00 0.  1.
<mgrwt>
<rscale>  0 0.13191401E+04</rscale>
<asrwt>0</asrwt>
<pdfrwt beam="1">  1        2 0.28274215E+00 0.13191401E+04</pdfrwt>
<pdfrwt beam="2">  1       -2 0.36417032E-01 0.13191401E+04</pdfrwt>
<totfact> 0.57136118E+01</totfact>
</mgrwt>
</event>
<event>
12    2  0.3751044E-008  0.3312223E+04  0.7818608E-02  0.8159792E-01
         -1   -1    0    0    0  501 -0.00000000000E+00  0.00000000000E+00  0.16503356515E+04  0.16503356515E+04  0.00000000000E+00 0.  1.
          1   -1    0    0  501    0  0.00000000000E+00 -0.00000000000E+00 -0.16619070767E+04  0.16619070767E+04  0.00000000000E+00 0. -1.
         23    2    1    2    0    0 -0.99347031273E+03 -0.77384658774E+02 -0.11700144280E+04  0.15393329335E+04  0.87409785155E+02 0.  0.
        254    2    1    2    0    0  0.99347031273E+03  0.77384658774E+02  0.11584430028E+04  0.17729097947E+04  0.89902575147E+03 0.  0.
         23    2    4    4    0    0 -0.10801834715E+03  0.11377357000E+02  0.41758994512E+03  0.44097151196E+03  0.90978593738E+02 0.  0.
         23    2    4    4    0    0  0.11014886599E+04  0.66007301774E+02  0.74085305765E+03  0.13319382827E+04  0.86960360350E+02 0.  0.
          3    1    3    3  502    0 -0.83767470533E+03 -0.63548596280E+02 -0.10323392246E+04  0.13309626631E+04  0.00000000000E+00 0. -1.
         -3    1    3    3    0  502 -0.15579560740E+03 -0.13836062494E+02 -0.13767520342E+03  0.20837027031E+03  0.00000000000E+00 0.  1.
         11    1    5    5    0    0 -0.37281215966E+02 -0.25741352020E+02  0.63640470913E+02  0.78119240944E+02  0.00000000000E+00 0. -1.
        -11    1    5    5    0    0 -0.70737131189E+02  0.37118709019E+02  0.35394947421E+03  0.36285227102E+03  0.00000000000E+00 0.  1.
          1    1    6    6  503    0  0.32125123888E+03  0.13327536913E+02  0.26382973294E+03  0.41591598876E+03  0.00000000000E+00 0. -1.
         -1    1    6    6    0  503  0.78023742101E+03  0.52679764862E+02  0.47702332470E+03  0.91602229399E+03  0.00000000000E+00 0.  1.
<mgrwt>
<rscale>  0 0.33122225E+04</rscale>
<asrwt>0</asrwt>
<pdfrwt beam="1">  1        1 0.25567801E+00 0.33122225E+04</pdfrwt>
<pdfrwt beam="2">  1       -1 0.25389779E+00 0.33122225E+04</pdfrwt>
<totfact> 0.27576034E-01</totfact>
</mgrwt>
</event>
<event>
12    2  0.3751044E-008  0.1704066E+04  0.7818608E-02  0.8759049E-01
         -1   -1    0    0    0  501 -0.00000000000E+00  0.00000000000E+00  0.38940190234E+03  0.38940190234E+03  0.00000000000E+00 0.  1.
          1   -1    0    0  501    0  0.00000000000E+00 -0.00000000000E+00 -0.18642957983E+04  0.18642957983E+04  0.00000000000E+00 0. -1.
         23    2    1    2    0    0  0.19808252198E+03  0.22422131922E+03  0.16722929264E+03  0.35465184067E+03  0.91106565422E+02 0.  0.
        254    2    1    2    0    0 -0.19808252198E+03 -0.22422131922E+03 -0.16421231886E+04  0.18990458600E+04  0.90570123455E+03 0.  0.
         23    2    4    4    0    0 -0.47799821883E+03  0.11933549958E+03 -0.89778349923E+03  0.10281486637E+04  0.91384925341E+02 0.  0.
         23    2    4    4    0    0  0.27991569685E+03 -0.34355681881E+03 -0.74433968934E+03  0.87089719622E+03  0.89645235074E+02 0.  0.
          2    1    3    3  502    0  0.15302586659E+03  0.20417961336E+03  0.10668088977E+03  0.27656290893E+03  0.00000000000E+00 0.  1.
         -2    1    3    3    0  502  0.45056655387E+02  0.20041705867E+02  0.60548402869E+02  0.78088931730E+02  0.00000000000E+00 0. -1.
         11    1    5    5    0    0 -0.39456771953E+03  0.92354814654E+02 -0.80019796781E+03  0.89695589901E+03  0.00000000000E+00 0. -1.
        -11    1    5    5    0    0 -0.83430499301E+02  0.26980684929E+02 -0.97585531426E+02  0.13119276473E+03  0.00000000000E+00 0.  1.
          3    1    6    6  503    0  0.27551717116E+03 -0.32519933860E+03 -0.73545374398E+03  0.85003325285E+03  0.00000000000E+00 0. -1.
         -3    1    6    6    0  503  0.43985256915E+01 -0.18357480208E+02 -0.88859453596E+01  0.20863943366E+02  0.00000000000E+00 0.  1.
<mgrwt>
<rscale>  0 0.17040661E+04</rscale>
<asrwt>0</asrwt>
<pdfrwt beam="1">  1        1 0.28681474E+00 0.17040661E+04</pdfrwt>
<pdfrwt beam="2">  1       -1 0.59907985E-01 0.17040661E+04</pdfrwt>
<totfact> 0.99019024E+00</totfact>
</mgrwt>
</event>
<event>
12    2  0.3751044E-008  0.2351609E+04  0.7818608E-02  0.8457846E-01
         -2   -1    0    0    0  501 -0.00000000000E+00  0.00000000000E+00  0.55654026208E+03  0.55654026208E+03  0.00000000000E+00 0.  1.
          2   -1    0    0  501    0  0.00000000000E+00 -0.00000000000E+00 -0.24841270508E+04  0.24841270508E+04  0.00000000000E+00 0. -1.
         23    2    1    2    0    0  0.41470259593E+03 -0.90011010167E+03 -0.71303625063E+03  0.12241750018E+04  0.89483529974E+02 0.  0.
        254    2    1    2    0    0 -0.41470259593E+03  0.90011010167E+03 -0.12145505381E+04  0.18164923110E+04  0.91778803017E+03 0.  0.
         23    2    4    4    0    0 -0.61726732366E+03  0.77677942778E+03 -0.62890791862E+03  0.11782142352E+04  0.90875660059E+02 0.  0.
         23    2    4    4    0    0  0.20256472772E+03  0.12333067390E+03 -0.58564261945E+03  0.63827807586E+03  0.90436167411E+02 0.  0.
          3    1    3    3  502    0  0.10256374039E+03 -0.16809933715E+03 -0.10868862669E+03  0.22492204330E+03  0.00000000000E+00 0. -1.
         -3    1    3    3    0  502  0.31213885554E+03 -0.73201076453E+03 -0.60434762394E+03  0.99925295850E+03  0.00000000000E+00 0.  1.
         11    1    5    5    0    0 -0.36389643613E+03  0.40993178000E+03 -0.30654878359E+03  0.62804206643E+03  0.00000000000E+00 0. -1.
        -11    1    5    5    0    0 -0.25337088752E+03  0.36684764778E+03 -0.32235913502E+03  0.55017216874E+03  0.00000000000E+00 0.  1.
          2    1    6    6  503    0  0.20169117777E+03  0.94487940185E+02 -0.48726934045E+03  0.53575993894E+03  0.00000000000E+00 0.  1.
         -2    1    6    6    0  503  0.87354994707E+00  0.28842733713E+02 -0.98373278997E+02  0.10251813692E+03  0.00000000000E+00 0. -1.
<mgrwt>
<rscale>  0 0.23516094E+04</rscale>
<asrwt>0</asrwt>
<pdfrwt beam="1">  1        2 0.38217339E+00 0.23516094E+04</pdfrwt>
<pdfrwt beam="2">  1       -2 0.85621579E-01 0.23516094E+04</pdfrwt>
<totfact> 0.38037266E+00</totfact>
</mgrwt>
</event>
<event>
12    2  0.3751044E-008  0.1469357E+04  0.7818608E-02  0.8905090E-01
         -2   -1    0    0    0  501 -0.00000000000E+00  0.00000000000E+00  0.22957434804E+03  0.22957434804E+03  0.00000000000E+00 0. -1.
          2   -1    0    0  501    0  0.00000000000E+00 -0.00000000000E+00 -0.23511022696E+04  0.23511022696E+04  0.00000000000E+00 0.  1.
         23    2    1    2    0    0 -0.71102857046E+01 -0.40503451014E+03 -0.10240701805E+04  0.11051959538E+04  0.92923900168E+02 0.  0.
        254    2    1    2    0    0  0.71102857046E+01  0.40503451014E+03 -0.10974577410E+04  0.14754806638E+04  0.89918084123E+03 0.  0.
         23    2    4    4    0    0  0.67655679667E+02 -0.95105414558E+02  0.96738635047E+02  0.17673795888E+03  0.90860396923E+02 0.  0.
         23    2    4    4    0    0 -0.60545393962E+02  0.50013992470E+03 -0.11941963761E+04  0.12987427049E+04  0.82595035297E+02 0.  0.
          2    1    3    3  502    0 -0.21121256110E+02 -0.25806218437E+03 -0.75667928426E+03  0.79975354810E+03  0.00000000000E+00 0. -1.
         -2    1    3    3    0  502  0.14010970406E+02 -0.14697232577E+03 -0.26739089623E+03  0.30544240573E+03  0.00000000000E+00 0.  1.
         11    1    5    5    0    0  0.32589600206E+02 -0.37484518690E+02  0.97342782717E+02  0.10928306607E+03  0.00000000000E+00 0.  1.
        -11    1    5    5    0    0  0.35066079461E+02 -0.57620895869E+02 -0.60414766961E+00  0.67454892809E+02  0.00000000000E+00 0. -1.
          1    1    6    6  503    0  0.42897961155E+01  0.75809355601E+02 -0.12060521033E+03  0.14251693761E+03  0.00000000000E+00 0. -1.
         -1    1    6    6    0  503 -0.64835190078E+02  0.42433056910E+03 -0.10735911658E+04  0.11562257673E+04  0.00000000000E+00 0.  1.
<mgrwt>
<rscale>  0 0.14693574E+04</rscale>
<asrwt>0</asrwt>
<pdfrwt beam="1">  1        2 0.36170804E+00 0.14693574E+04</pdfrwt>
<pdfrwt beam="2">  1       -2 0.35319131E-01 0.14693574E+04</pdfrwt>
<totfact> 0.30975338E+01</totfact>
</mgrwt>
</event>
<event>
12    2  0.3751044E-008  0.2110809E+04  0.7818608E-02  0.8556497E-01
         -2   -1    0    0    0  501 -0.00000000000E+00  0.00000000000E+00  0.36244456912E+03  0.36244456912E+03  0.00000000000E+00 0.  1.
          2   -1    0    0  501    0  0.00000000000E+00 -0.00000000000E+00 -0.30732380602E+04  0.30732380602E+04  0.00000000000E+00 0. -1.
         23    2    1    2    0    0  0.83317599853E+02 -0.97157716334E+02  0.27156359346E+03  0.31682067536E+03  0.10122801370E+03 0.  0.
        254    2    1    2    0    0 -0.83317599853E+02  0.97157716334E+02 -0.29823570845E+04  0.31188619540E+04  0.90358434240E+03 0.  0.
         23    2    4    4    0    0  0.18681483850E+03  0.41049965765E+03 -0.19361416496E+04  0.19901044687E+04  0.91986717021E+02 0.  0.
         23    2    4    4    0    0 -0.27013243835E+03 -0.31334194132E+03 -0.10462154349E+04  0.11287574853E+04  0.91498731320E+02 0.  0.
          4    1    3    3  502    0  0.10662530330E+03 -0.86073288673E+02  0.23563635251E+03  0.27258403649E+03  0.00000000000E+00 0.  1.
         -4    1    3    3    0  502 -0.23307703447E+02 -0.11084427661E+02  0.35927240948E+02  0.44236638872E+02  0.00000000000E+00 0. -1.
         11    1    5    5    0    0  0.83021964871E+00  0.83540613995E+02 -0.31441345077E+03  0.32532374872E+03  0.00000000000E+00 0.  1.
        -11    1    5    5    0    0  0.18598461885E+03  0.32695904366E+03 -0.16217281988E+04  0.16647807200E+04  0.00000000000E+00 0. -1.
          2    1    6    6  503    0 -0.25051359455E+03 -0.31665355570E+03 -0.99353584376E+03  0.10724458067E+04  0.00000000000E+00 0. -1.
         -2    1    6    6    0  503 -0.19618843796E+02  0.33116143855E+01 -0.52679591176E+02  0.56311678613E+02  0.00000000000E+00 0.  1.
<mgrwt>
<rscale>  0 0.21108088E+04</rscale>
<asrwt>0</asrwt>
<pdfrwt beam="1">  1        2 0.47280583E+00 0.21108088E+04</pdfrwt>
<pdfrwt beam="2">  1       -2 0.55760706E-01 0.21108088E+04</pdfrwt>
<totfact> 0.43628471E+00</totfact>
</mgrwt>
</event>
<event>
12    2  0.3751044E-008  0.2417552E+04  0.7818608E-02  0.8432961E-01
         -1   -1    0    0    0  501 -0.00000000000E+00  0.00000000000E+00  0.93989882998E+03  0.93989882998E+03  0.00000000000E+00 0. -1.
          1   -1    0    0  501    0  0.00000000000E+00 -0.00000000000E+00 -0.15545712733E+04  0.15545712733E+04  0.00000000000E+00 0.  1.
         23    2    1    2    0    0  0.52801095764E+03  0.71655425426E+03 -0.80682183398E+03  0.12047406824E+04  0.90515574981E+02 0.  0.
        254    2    1    2    0    0 -0.52801095764E+03 -0.71655425426E+03  0.19214939062E+03  0.12897294209E+04  0.91336466991E+03 0.  0.
         23    2    4    4    0    0 -0.69282440387E+03 -0.63322685097E+03 -0.81674929336E+02  0.94626388158E+03  0.88105846002E+02 0.  0.
         23    2    4    4    0    0  0.16481344624E+03 -0.83327403291E+02  0.27382431995E+03  0.34346553937E+03  0.94243781420E+02 0.  0.
          1    1    3    3  502    0  0.14292942473E+03  0.23472490299E+03 -0.20380472234E+03  0.34214173289E+03  0.00000000000E+00 0. -1.
         -1    1    3    3    0  502  0.38508153291E+03  0.48182935127E+03 -0.60301711165E+03  0.86259894950E+03  0.00000000000E+00 0.  1.
         11    1    5    5    0    0 -0.33333188188E+03 -0.35434079072E+03 -0.17745107045E+02  0.48680841023E+03  0.00000000000E+00 0.  1.
        -11    1    5    5    0    0 -0.35949252200E+03 -0.27888606025E+03 -0.63929822291E+02  0.45945547134E+03  0.00000000000E+00 0. -1.
          2    1    6    6  503    0  0.16875386572E+03 -0.94842752091E+02  0.24551623725E+03  0.31265194318E+03  0.00000000000E+00 0. -1.
         -2    1    6    6    0  503 -0.39404194889E+01  0.11515348800E+02  0.28308082698E+02  0.30813596184E+02  0.00000000000E+00 0.  1.
<mgrwt>
<rscale>  0 0.24175523E+04</rscale>
<asrwt>0</asrwt>
<pdfrwt beam="1">  1        1 0.23916481E+00 0.24175523E+04</pdfrwt>
<pdfrwt beam="2">  1       -1 0.14459982E+00 0.24175523E+04</pdfrwt>
<totfact> 0.20653315E+00</totfact>
</mgrwt>
</event>
<event>
12    2  0.3751044E-008  0.2200706E+04  0.7818608E-02  0.8518134E-01
          2   -1    0    0  501    0  0.00000000000E+00  0.00000000000E+00  0.15409249453E+04  0.15409249453E+04  0.00000000000E+00 0. -1.
         -2   -1    0    0    0  501 -0.00000000000E+00 -0.00000000000E+00 -0.78574682590E+03  0.78574682590E+03  0.00000000000E+00 0.  1.
         23    2    1    2    0    0  0.64270580156E+03  0.34671237254E+03  0.90407902082E+03  0.11657101834E+04  0.90780719681E+02 0.  0.
        254    2    1    2    0    0 -0.64270580156E+03 -0.34671237254E+03 -0.14890090138E+03  0.11609615879E+04  0.89015735321E+03 0.  0.
         23    2    4    4    0    0 -0.82566938936E+03 -0.21735415825E+03 -0.25550551699E+03  0.89614978710E+03  0.93960635817E+02 0.  0.
         23    2    4    4    0    0  0.18296358780E+03 -0.12935821430E+03  0.10660461561E+03  0.26481180078E+03  0.92474448887E+02 0.  0.
          4    1    3    3  502    0  0.81639773556E+02  0.81154546704E+02  0.13765951211E+03  0.17944707953E+03  0.00000000000E+00 0.  1.
         -4    1    3    3    0  502  0.56106602801E+03  0.26555782584E+03  0.76641950872E+03  0.98626310383E+03  0.00000000000E+00 0. -1.
         11    1    5    5    0    0 -0.47382894991E+03 -0.10131566238E+03 -0.18708578031E+03  0.51940333693E+03  0.00000000000E+00 0.  1.
        -11    1    5    5    0    0 -0.35184043945E+03 -0.11603849586E+03 -0.68419736681E+02  0.37674645017E+03  0.00000000000E+00 0. -1.
          4    1    6    6  503    0  0.17614145704E+03 -0.99111791834E+02  0.11519889882E+03  0.23263651144E+03  0.00000000000E+00 0.  1.
         -4    1    6    6    0  503  0.68221307633E+01 -0.30246422463E+02 -0.85942832124E+01  0.32175289336E+02  0.00000000000E+00 0. -1.
<mgrwt>
<rscale>  0 0.22007061E+04</rscale>
<asrwt>0</asrwt>
<pdfrwt beam="1">  1        2 0.23706538E+00 0.22007061E+04</pdfrwt>
<pdfrwt beam="2">  1       -2 0.12088413E+00 0.22007061E+04</pdfrwt>
<totfact> 0.57369054E+00</totfact>
</mgrwt>
</event>
<event>
12    2  0.3751044E-008  0.2982101E+04  0.7818608E-02  0.8248861E-01
         -2   -1    0    0    0  501 -0.00000000000E+00  0.00000000000E+00  0.16168140557E+04  0.16168140557E+04  0.00000000000E+00 0.  1.
          2   -1    0    0  501    0  0.00000000000E+00 -0.00000000000E+00 -0.13750696782E+04  0.13750696782E+04  0.00000000000E+00 0. -1.
         23    2    1    2    0    0  0.62465254226E+03  0.76925851739E+03 -0.81495874203E+03  0.12862297616E+04  0.90993315089E+02 0.  0.
        254    2    1    2    0    0 -0.62465254226E+03 -0.76925851739E+03  0.10567031195E+04  0.17056539722E+04  0.90038021136E+03 0.  0.
         23    2    4    4    0    0 -0.50439350978E+03 -0.10424889558E+02  0.19307286022E+03  0.54614289212E+03  0.80457679676E+02 0.  0.
         23    2    4    4    0    0 -0.12025903248E+03 -0.75883362784E+03  0.86363025928E+03  0.11595110801E+04  0.91203127608E+02 0.  0.
          3    1    3    3  502    0  0.49829108690E+03  0.61086221870E+03 -0.69379769445E+03  0.10501437513E+04  0.00000000000E+00 0. -1.
         -3    1    3    3    0  502  0.12636145536E+03  0.15839629870E+03 -0.12116104758E+03  0.23608601037E+03  0.00000000000E+00 0.  1.
         11    1    5    5    0    0 -0.33612194139E+03  0.29959582878E+02  0.13744951457E+03  0.36437330465E+03  0.00000000000E+00 0.  1.
        -11    1    5    5    0    0 -0.16827156840E+03 -0.40384472436E+02  0.55623345654E+02  0.18176958746E+03  0.00000000000E+00 0. -1.
          2    1    6    6  503    0 -0.24538524133E+02 -0.30795757298E+02  0.42233464078E+02  0.57742387569E+02  0.00000000000E+00 0. -1.
         -2    1    6    6    0  503 -0.95720508343E+02 -0.72803787054E+03  0.82139679520E+03  0.11017686925E+04  0.00000000000E+00 0.  1.
<mgrwt>
<rscale>  0 0.29821013E+04</rscale>
<asrwt>0</asrwt>
<pdfrwt beam="1">  1        2 0.21154918E+00 0.29821013E+04</pdfrwt>
<pdfrwt beam="2">  1       -2 0.24874062E+00 0.29821013E+04</pdfrwt>
<totfact> 0.83876109E-01</totfact>
</mgrwt>
</event>
<event>
12    2  0.3751044E-008  0.1373085E+04  0.7818608E-02  0.8973535E-01
         -2   -1    0    0    0  501 -0.00000000000E+00  0.00000000000E+00  0.25198386846E+03  0.25198386846E+03  0.00000000000E+00 0.  1.
          2   -1    0    0  501    0  0.00000000000E+00 -0.00000000000E+00 -0.18705197305E+04  0.18705197305E+04  0.00000000000E+00 0. -1.
         23    2    1    2    0    0 -0.30417307419E+03 -0.51325781703E+02 -0.80303031805E+03  0.86483314083E+03  0.89011655638E+02 0.  0.
        254    2    1    2    0    0  0.30417307419E+03  0.51325781703E+02 -0.81550554394E+03  0.12576704581E+04  0.90638297315E+03 0.  0.
         23    2    4    4    0    0  0.40215556615E+03 -0.14505291146E+03 -0.90446423973E+03  0.10044916023E+04  0.90434349630E+02 0.  0.
         23    2    4    4    0    0 -0.97982491962E+02  0.19637869317E+03  0.88958695786E+02  0.25317885581E+03  0.89558492682E+02 0.  0.
          1    1    3    3  502    0 -0.98286561463E+01  0.12955831808E+02 -0.78344910048E+02  0.80014879803E+02  0.00000000000E+00 0. -1.
         -1    1    3    3    0  502 -0.29434441804E+03 -0.64281613511E+02 -0.72468540800E+03  0.78481826103E+03  0.00000000000E+00 0.  1.
         11    1    5    5    0    0  0.68929703299E+02  0.47575097634E+01 -0.18706969463E+03  0.19942168524E+03  0.00000000000E+00 0. -1.
        -11    1    5    5    0    0  0.33322586285E+03 -0.14981042123E+03 -0.71739454510E+03  0.80506991704E+03  0.00000000000E+00 0.  1.
          4    1    6    6  503    0 -0.40701603348E+02  0.77468535800E+02  0.83689006317E+02  0.12108610297E+03  0.00000000000E+00 0. -1.
         -4    1    6    6    0  503 -0.57280888614E+02  0.11891015737E+03  0.52696894691E+01  0.13209275284E+03  0.00000000000E+00 0.  1.
<mgrwt>
<rscale>  0 0.13730853E+04</rscale>
<asrwt>0</asrwt>
<pdfrwt beam="1">  1        2 0.28777227E+00 0.13730853E+04</pdfrwt>
<pdfrwt beam="2">  1       -2 0.38766749E-01 0.13730853E+04</pdfrwt>
<totfact> 0.48359487E+01</totfact>
</mgrwt>
</event>
<event>
12    2  0.3751044E-008  0.2536067E+04  0.7818608E-02  0.8390248E-01
         -1   -1    0    0    0  501 -0.00000000000E+00  0.00000000000E+00  0.64302712910E+03  0.64302712910E+03  0.00000000000E+00 0.  1.
          1   -1    0    0  501    0  0.00000000000E+00 -0.00000000000E+00 -0.25005309823E+04  0.25005309823E+04  0.00000000000E+00 0. -1.
         23    2    1    2    0    0  0.30091534007E+03 -0.21214183570E+03 -0.21056104507E+04  0.21395396228E+04  0.92088146744E+02 0.  0.
        254    2    1    2    0    0 -0.30091534007E+03  0.21214183570E+03  0.24810659750E+03  0.10040184887E+04  0.90052320433E+03 0.  0.
         23    2    4    4    0    0 -0.20559420105E+03  0.13553556504E+03 -0.32100690799E+03  0.41444066733E+03  0.89870834358E+02 0.  0.
         23    2    4    4    0    0 -0.95321139020E+02  0.76606270655E+02  0.56911350549E+03  0.58957782134E+03  0.93579832451E+02 0.  0.
          1    1    3    3  502    0  0.16459112243E+03 -0.16934334563E+03 -0.12589107388E+04  0.12808683205E+04  0.00000000000E+00 0. -1.
         -1    1    3    3    0  502  0.13632421764E+03 -0.42798490064E+02 -0.84669971196E+03  0.85867130224E+03  0.00000000000E+00 0.  1.
         11    1    5    5    0    0 -0.64221141647E+02  0.21088762828E+01 -0.11112315398E+03  0.12836338163E+03  0.00000000000E+00 0.  1.
        -11    1    5    5    0    0 -0.14137305940E+03  0.13342668876E+03 -0.20988375401E+03  0.28607728570E+03  0.00000000000E+00 0. -1.
          3    1    6    6  503    0 -0.10830970929E+03  0.49848114366E+02  0.50524943016E+03  0.51912697320E+03  0.00000000000E+00 0. -1.
         -3    1    6    6    0  503  0.12988570271E+02  0.26758156289E+02  0.63864075335E+02  0.70450848143E+02  0.00000000000E+00 0.  1.
<mgrwt>
<rscale>  0 0.25360672E+04</rscale>
<asrwt>0</asrwt>
<pdfrwt beam="1">  1        1 0.38469708E+00 0.25360672E+04</pdfrwt>
<pdfrwt beam="2">  1       -1 0.98927250E-01 0.25360672E+04</pdfrwt>
<totfact> 0.11706970E+00</totfact>
</mgrwt>
</event>
<event>
12    2  0.3751044E-008  0.1146875E+04  0.7818608E-02  0.9160672E-01
          1   -1    0    0  501    0  0.00000000000E+00  0.00000000000E+00  0.72134135527E+03  0.72134135527E+03  0.00000000000E+00 0. -1.
         -1   -1    0    0    0  501 -0.00000000000E+00 -0.00000000000E+00 -0.45585955183E+03  0.45585955183E+03  0.00000000000E+00 0.  1.
         23    2    1    2    0    0  0.15320669704E+03  0.44890656500E+02  0.17560422266E+03  0.25713799989E+03  0.98972950410E+02 0.  0.
        254    2    1    2    0    0 -0.15320669704E+03 -0.44890656500E+02  0.89877580772E+02  0.92006290721E+03  0.90163757167E+03 0.  0.
         23    2    4    4    0    0 -0.23724472014E+03  0.22169849146E+02 -0.36411771043E+03  0.44481509238E+03  0.92207374520E+02 0.  0.
         23    2    4    4    0    0  0.84038023101E+02 -0.67060505646E+02  0.45399529120E+03  0.47524781483E+03  0.90494532053E+02 0.  0.
          2    1    3    3  502    0  0.60622331515E+02  0.29583900173E+02  0.14244645246E+03  0.15761112285E+03  0.00000000000E+00 0. -1.
         -2    1    3    3    0  502  0.92584365521E+02  0.15306756328E+02  0.33157770200E+02  0.99526877037E+02  0.00000000000E+00 0.  1.
         11    1    5    5    0    0 -0.15679716543E+03 -0.11689921998E+02 -0.16771976495E+03  0.22989546520E+03  0.00000000000E+00 0. -1.
        -11    1    5    5    0    0 -0.80447554708E+02  0.33859771144E+02 -0.19639794547E+03  0.21491962718E+03  0.00000000000E+00 0.  1.
          3    1    6    6  503    0  0.93320004389E+01  0.21880392904E+02  0.62031678876E+02  0.66436187504E+02  0.00000000000E+00 0. -1.
         -3    1    6    6    0  503  0.74706022662E+02 -0.88940898551E+02  0.39196361232E+03  0.40881162733E+03  0.00000000000E+00 0.  1.
<mgrwt>
<rscale>  0 0.11468746E+04</rscale>
<asrwt>0</asrwt>
<pdfrwt beam="1">  1        1 0.11097559E+00 0.11468746E+04</pdfrwt>
<pdfrwt beam="2">  1       -1 0.70132239E-01 0.11468746E+04</pdfrwt>
<totfact> 0.53140597E+01</totfact>
</mgrwt>
</event>
<event>
12    2  0.3751044E-008  0.3226885E+04  0.7818608E-02  0.8181753E-01
          1   -1    0    0  501    0  0.00000000000E+00  0.00000000000E+00  0.40865128467E+04  0.40865128467E+04  0.00000000000E+00 0. -1.
         -1   -1    0    0    0  501 -0.00000000000E+00 -0.00000000000E+00 -0.63702142501E+03  0.63702142501E+03  0.00000000000E+00 0.  1.
         23    2    1    2    0    0  0.80993685119E+03 -0.19109661375E+02 -0.23304530439E+03  0.84807622918E+03  0.92521859703E+02 0.  0.
        254    2    1    2    0    0 -0.80993685119E+03  0.19109661375E+02  0.36825367261E+04  0.38754580426E+04  0.89539679385E+03 0.  0.
         23    2    4    4    0    0  0.14148567621E+03  0.14280404747E+03  0.43371842538E+03  0.48678723990E+03  0.91863767973E+02 0.  0.
         23    2    4    4    0    0 -0.95142252741E+03 -0.12369438610E+03  0.32488183007E+04  0.33886708027E+04  0.88115440601E+02 0.  0.
          1    1    3    3  502    0  0.81366633650E+02  0.49019204893E+01 -0.52920345469E+02  0.97186011651E+02  0.00000000000E+00 0. -1.
         -1    1    3    3    0  502  0.72857021754E+03 -0.24011581864E+02 -0.18012495892E+03  0.75089021753E+03  0.00000000000E+00 0.  1.
         11    1    5    5    0    0 -0.11854430511E+02  0.10033242422E+02  0.55268462329E+02  0.57409027204E+02  0.00000000000E+00 0. -1.
        -11    1    5    5    0    0  0.15334010672E+03  0.13277080505E+03  0.37844996305E+03  0.42937821269E+03  0.00000000000E+00 0.  1.
          4    1    6    6  503    0 -0.21676577410E+03 -0.60606997811E+02  0.82788558622E+03  0.85793656693E+03  0.00000000000E+00 0. -1.
         -4    1    6    6    0  503 -0.73465675331E+03 -0.63087388284E+02  0.24209327145E+04  0.25307342357E+04  0.00000000000E+00 0.  1.
<mgrwt>
<rscale>  0 0.32268847E+04</rscale>
<asrwt>0</asrwt>
<pdfrwt beam="1">  1        1 0.62869427E+00 0.32268847E+04</pdfrwt>
<pdfrwt beam="2">  1       -1 0.98003299E-01 0.32268847E+04</pdfrwt>
<totfact> 0.66813275E-02</totfact>
</mgrwt>
</event>
<event>
12    2  0.3751044E-008  0.1573949E+04  0.7818608E-02  0.8836714E-01
          2   -1    0    0  501    0  0.00000000000E+00  0.00000000000E+00  0.25745015618E+04  0.25745015618E+04  0.00000000000E+00 0.  1.
         -2   -1    0    0    0  501 -0.00000000000E+00 -0.00000000000E+00 -0.24056265876E+03  0.24056265876E+03  0.00000000000E+00 0. -1.
         23    2    1    2    0    0  0.32013832182E+03  0.18210336930E+03  0.14536631547E+04  0.15026715240E+04  0.96098696389E+02 0.  0.
        254    2    1    2    0    0 -0.32013832182E+03 -0.18210336930E+03  0.88027574830E+03  0.13123926965E+04  0.90102109558E+03 0.  0.
         23    2    4    4    0    0 -0.17190396570E+03  0.52473773694E+02  0.98224125406E+03  0.10027719830E+04  0.91920064925E+02 0.  0.
         23    2    4    4    0    0 -0.14823435612E+03 -0.23457714299E+03 -0.10196550577E+03  0.30962071355E+03  0.92022614297E+02 0.  0.
          2    1    3    3  502    0  0.10564088410E+03  0.43368313049E+02  0.63130961553E+03  0.64155485941E+03  0.00000000000E+00 0. -1.
         -2    1    3    3    0  502  0.21449743772E+03  0.13873505625E+03  0.82235353919E+03  0.86111666459E+03  0.00000000000E+00 0.  1.
         11    1    5    5    0    0 -0.63549985698E+02 -0.94616870785E+01  0.52087843141E+03  0.52482612788E+03  0.00000000000E+00 0. -1.
        -11    1    5    5    0    0 -0.10835398000E+03  0.61935460773E+02  0.46136282266E+03  0.47794585510E+03  0.00000000000E+00 0.  1.
          1    1    6    6  503    0 -0.88272932587E+01 -0.69431477367E+02  0.15113731721E+01  0.70006681142E+02  0.00000000000E+00 0. -1.
         -1    1    6    6    0  503 -0.13940706286E+03 -0.16514566563E+03 -0.10347687894E+03  0.23961403241E+03  0.00000000000E+00 0.  1.
<mgrwt>
<rscale>  0 0.15739491E+04</rscale>
<asrwt>0</asrwt>
<pdfrwt beam="1">  1        2 0.39607714E+00 0.15739491E+04</pdfrwt>
<pdfrwt beam="2">  1       -2 0.37009642E-01 0.15739491E+04</pdfrwt>
<totfact> 0.20880996E+01</totfact>
</mgrwt>
</event>
<event>
12    2  0.3751044E-008  0.1523141E+04  0.7818608E-02  0.8869208E-01
          2   -1    0    0  501    0  0.00000000000E+00  0.00000000000E+00  0.96247319643E+03  0.96247319643E+03  0.00000000000E+00 0.  1.
         -2   -1    0    0    0  501 -0.00000000000E+00 -0.00000000000E+00 -0.60260374406E+03  0.60260374406E+03  0.00000000000E+00 0. -1.
         23    2    1    2    0    0 -0.10046211167E+03 -0.73739534915E+02  0.60456635926E+03  0.62385372903E+03  0.90348423247E+02 0.  0.
        254    2    1    2    0    0  0.10046211167E+03  0.73739534915E+02 -0.24469690689E+03  0.94122321146E+03  0.90027462624E+03 0.  0.
         23    2    4    4    0    0 -0.25762677014E+03  0.34455196667E+03 -0.19408810613E+03  0.48063043834E+03  0.90817481174E+02 0.  0.
         23    2    4    4    0    0  0.35808888181E+03 -0.27081243176E+03 -0.50608800759E+02  0.46059277312E+03  0.89540110949E+02 0.  0.
          3    1    3    3  502    0  0.15100446662E+01  0.10632699014E+02  0.97979422445E+01  0.14537337976E+02  0.00000000000E+00 0. -1.
         -3    1    3    3    0  502 -0.10197215634E+03 -0.84372233929E+02  0.59476841701E+03  0.60931639105E+03  0.00000000000E+00 0.  1.
         11    1    5    5    0    0 -0.19620377669E+03  0.24755528253E+03 -0.18355732230E+03  0.36533933605E+03  0.00000000000E+00 0. -1.
        -11    1    5    5    0    0 -0.61422993445E+02  0.96996684145E+02 -0.10530783830E+02  0.11529110229E+03  0.00000000000E+00 0.  1.
          3    1    6    6  503    0  0.29875693363E+03 -0.21757548382E+03 -0.68362664470E+01  0.36965055267E+03  0.00000000000E+00 0. -1.
         -3    1    6    6    0  503  0.59331948179E+02 -0.53236947935E+02 -0.43772534312E+02  0.90942220449E+02  0.00000000000E+00 0.  1.
<mgrwt>
<rscale>  0 0.15231414E+04</rscale>
<asrwt>0</asrwt>
<pdfrwt beam="1">  1        2 0.14807280E+00 0.15231414E+04</pdfrwt>
<pdfrwt beam="2">  1       -2 0.92708268E-01 0.15231414E+04</pdfrwt>
<totfact> 0.25359430E+01</totfact>
</mgrwt>
</event>
<event>
12    2  0.3751044E-008  0.2631978E+04  0.7818608E-02  0.8357419E-01
         -2   -1    0    0    0  501 -0.00000000000E+00  0.00000000000E+00  0.70868304114E+03  0.70868304114E+03  0.00000000000E+00 0.  1.
          2   -1    0    0  501    0  0.00000000000E+00 -0.00000000000E+00 -0.24437266256E+04  0.24437266256E+04  0.00000000000E+00 0. -1.
         23    2    1    2    0    0 -0.23406233590E+03 -0.55043131128E+03 -0.19646038476E+04  0.20565267089E+04  0.10896798120E+03 0.  0.
        254    2    1    2    0    0  0.23406233590E+03  0.55043131128E+03  0.22956026312E+03  0.10958829578E+04  0.88910164625E+03 0.  0.
         23    2    4    4    0    0 -0.17585893664E+03 -0.12113685970E+03  0.19558277243E+03  0.30328922387E+03  0.90173322390E+02 0.  0.
         23    2    4    4    0    0  0.40992127254E+03  0.67156817098E+03  0.33977490694E+02  0.79259373397E+03  0.89504744575E+02 0.  0.
          2    1    3    3  502    0 -0.16555577323E+03 -0.26814420260E+03 -0.11124064987E+04  0.11561826178E+04  0.00000000000E+00 0. -1.
         -2    1    3    3    0  502 -0.68506562666E+02 -0.28228710868E+03 -0.85219734889E+03  0.90034409106E+03  0.00000000000E+00 0.  1.
         11    1    5    5    0    0 -0.76928951950E+02 -0.99318912243E+02  0.77097829376E+02  0.14739872887E+03  0.00000000000E+00 0. -1.
        -11    1    5    5    0    0 -0.98929984689E+02 -0.21817947458E+02  0.11848494305E+03  0.15589049500E+03  0.00000000000E+00 0.  1.
          1    1    6    6  503    0  0.22345890360E+03  0.44508691565E+03  0.81956832692E+01  0.49809980255E+03  0.00000000000E+00 0. -1.
         -1    1    6    6    0  503  0.18646236894E+03  0.22648125533E+03  0.25781807425E+02  0.29449393141E+03  0.00000000000E+00 0.  1.
<mgrwt>
<rscale>  0 0.26319784E+04</rscale>
<asrwt>0</asrwt>
<pdfrwt beam="1">  1        2 0.37595793E+00 0.26319784E+04</pdfrwt>
<pdfrwt beam="2">  1       -2 0.10902816E+00 0.26319784E+04</pdfrwt>
<totfact> 0.22215405E+00</totfact>
</mgrwt>
</event>
<event>
12    2  0.3751044E-008  0.1427752E+04  0.7818608E-02  0.8933972E-01
          2   -1    0    0  501    0  0.00000000000E+00  0.00000000000E+00  0.59345758979E+03  0.59345758979E+03  0.00000000000E+00 0. -1.
         -2   -1    0    0    0  501 -0.00000000000E+00 -0.00000000000E+00 -0.85872851991E+03  0.85872851991E+03  0.00000000000E+00 0.  1.
         23    2    1    2    0    0 -0.21723609183E+03  0.22904657758E+03  0.20833349166E+03  0.38878927408E+03  0.90002231082E+02 0.  0.
        254    2    1    2    0    0  0.21723609183E+03 -0.22904657758E+03 -0.47360442178E+03  0.10633968356E+04  0.89825265230E+03 0.  0.
         23    2    4    4    0    0 -0.24715072758E+03  0.18000886496E+03 -0.23225444105E+03  0.39361630004E+03  0.86631360776E+02 0.  0.
         23    2    4    4    0    0  0.46438681941E+03 -0.40905544253E+03 -0.24134998074E+03  0.66978053557E+03  0.85875954263E+02 0.  0.
          2    1    3    3  502    0 -0.17434288673E+03  0.12327241378E+03  0.12447331903E+03  0.24715407604E+03  0.00000000000E+00 0. -1.
         -2    1    3    3    0  502 -0.42893205100E+02  0.10577416380E+03  0.83860172633E+02  0.14163519804E+03  0.00000000000E+00 0.  1.
         11    1    5    5    0    0 -0.57619130662E+02  0.88526511244E+02 -0.97279161014E+02  0.14359715380E+03  0.00000000000E+00 0. -1.
        -11    1    5    5    0    0 -0.18953159691E+03  0.91482353713E+02 -0.13497528003E+03  0.25001914624E+03  0.00000000000E+00 0.  1.
          3    1    6    6  503    0  0.27289323029E+03 -0.25481924859E+03 -0.10154269728E+03  0.38692955944E+03  0.00000000000E+00 0. -1.
         -3    1    6    6    0  503  0.19149358911E+03 -0.15423619394E+03 -0.13980728345E+03  0.28285097613E+03  0.00000000000E+00 0.  1.
<mgrwt>
<rscale>  0 0.14277520E+04</rscale>
<asrwt>0</asrwt>
<pdfrwt beam="1">  1        2 0.91301168E-01 0.14277520E+04</pdfrwt>
<pdfrwt beam="2">  1       -2 0.13211208E+00 0.14277520E+04</pdfrwt>
<totfact> 0.20342769E+01</totfact>
</mgrwt>
</event>
<event>
12    2  0.3751044E-008  0.1180233E+04  0.7818608E-02  0.9130337E-01
         -2   -1    0    0    0  501 -0.00000000000E+00  0.00000000000E+00  0.12004954410E+04  0.12004954410E+04  0.00000000000E+00 0.  1.
          2   -1    0    0  501    0  0.00000000000E+00 -0.00000000000E+00 -0.29007792467E+03  0.29007792467E+03  0.00000000000E+00 0. -1.
         23    2    1    2    0    0  0.32000346222E+01 -0.23204535304E+03  0.15779521549E+03  0.29502675251E+03  0.91028394333E+02 0.  0.
        254    2    1    2    0    0 -0.32000346222E+01  0.23204535304E+03  0.75262230079E+03  0.11955466131E+04  0.89946433526E+03 0.  0.
         23    2    4    4    0    0  0.40026097710E+03  0.32131912131E+02  0.56450115532E+03  0.69849582229E+03  0.89406654312E+02 0.  0.
         23    2    4    4    0    0 -0.40346101172E+03  0.19991344091E+03  0.18812114547E+03  0.49705079083E+03  0.94465609899E+02 0.  0.
          1    1    3    3  502    0  0.29145476862E+02 -0.49233460208E+02  0.90554098462E+01  0.57925753107E+02  0.00000000000E+00 0. -1.
         -1    1    3    3    0  502 -0.25945442240E+02 -0.18281189283E+03  0.14873980564E+03  0.23710099940E+03  0.00000000000E+00 0.  1.
         11    1    5    5    0    0  0.19173912285E+03  0.27749925282E+02  0.19938643051E+03  0.27800880968E+03  0.00000000000E+00 0.  1.
        -11    1    5    5    0    0  0.20852185425E+03  0.43819868491E+01  0.36511472481E+03  0.42048701262E+03  0.00000000000E+00 0. -1.
          1    1    6    6  503    0 -0.32405664092E+03  0.18040821622E+03  0.11763708549E+03  0.38909936377E+03  0.00000000000E+00 0. -1.
         -1    1    6    6    0  503 -0.79404370806E+02  0.19505224689E+02  0.70484059980E+02  0.10795142706E+03  0.00000000000E+00 0.  1.
<mgrwt>
<rscale>  0 0.11802326E+04</rscale>
<asrwt>0</asrwt>
<pdfrwt beam="1">  1        2 0.44627374E-01 0.11802326E+04</pdfrwt>
<pdfrwt beam="2">  1       -2 0.18469160E+00 0.11802326E+04</pdfrwt>
<totfact> 0.18943183E+01</totfact>
</mgrwt>
</event>
<event>
12    2  0.3751044E-008  0.2001984E+04  0.7818608E-02  0.8605694E-01
         -2   -1    0    0    0  501 -0.00000000000E+00  0.00000000000E+00  0.12404308102E+04  0.12404308102E+04  0.00000000000E+00 0.  1.
          2   -1    0    0  501    0  0.00000000000E+00 -0.00000000000E+00 -0.80777163951E+03  0.80777163951E+03  0.00000000000E+00 0. -1.
         23    2    1    2    0    0 -0.76723715439E+02  0.72093870157E+03  0.44398737419E+03  0.85505146001E+03  0.91373250415E+02 0.  0.
        254    2    1    2    0    0  0.76723715439E+02 -0.72093870157E+03 -0.11328203454E+02  0.11931509897E+04  0.94754515259E+03 0.  0.
         23    2    4    4    0    0  0.45442324096E+03 -0.20695002924E+03 -0.15960443348E+03  0.53206416698E+03  0.91048921334E+02 0.  0.
         23    2    4    4    0    0 -0.37769952552E+03 -0.51398867232E+03  0.14827623003E+03  0.66108682276E+03  0.90601655504E+02 0.  0.
          1    1    3    3  502    0 -0.63707303223E+02  0.46065736878E+03  0.23527342808E+03  0.52116927946E+03  0.00000000000E+00 0. -1.
         -1    1    3    3    0  502 -0.13016412217E+02  0.26028133279E+03  0.20871394611E+03  0.33388218055E+03  0.00000000000E+00 0.  1.
         11    1    5    5    0    0  0.25518740434E+03 -0.10916715657E+03 -0.41452548934E+02  0.28063569484E+03  0.00000000000E+00 0. -1.
        -11    1    5    5    0    0  0.19923583662E+03 -0.97782872668E+02 -0.11815188455E+03  0.25142847214E+03  0.00000000000E+00 0.  1.
          1    1    6    6  503    0 -0.31122619852E+03 -0.41467500412E+03  0.83509463357E+02  0.52515801065E+03  0.00000000000E+00 0. -1.
         -1    1    6    6    0  503 -0.66473327000E+02 -0.99313668207E+02  0.64766766674E+02  0.13592881211E+03  0.00000000000E+00 0.  1.
<mgrwt>
<rscale>  0 0.20019838E+04</rscale>
<asrwt>0</asrwt>
<pdfrwt beam="1">  1        2 0.12427256E+00 0.20019838E+04</pdfrwt>
<pdfrwt beam="2">  1       -2 0.19083551E+00 0.20019838E+04</pdfrwt>
<totfact> 0.48307292E+00</totfact>
</mgrwt>
</event>
<event>
12    2  0.3751044E-008  0.1587950E+04  0.7818608E-02  0.8827985E-01
          1   -1    0    0  501    0  0.00000000000E+00  0.00000000000E+00  0.22423268031E+04  0.22423268031E+04  0.00000000000E+00 0. -1.
         -1   -1    0    0    0  501 -0.00000000000E+00 -0.00000000000E+00 -0.28113481440E+03  0.28113481440E+03  0.00000000000E+00 0.  1.
         23    2    1    2    0    0  0.97069979603E+01  0.45469799008E+03  0.11235425677E+04  0.12155832222E+04  0.91924863272E+02 0.  0.
        254    2    1    2    0    0 -0.97069979603E+01 -0.45469799008E+03  0.83764942101E+03  0.13078783954E+04  0.89556957107E+03 0.  0.
         23    2    4    4    0    0 -0.16095571179E+03 -0.19331436797E+03  0.93992294796E+03  0.97726935675E+03  0.91230814570E+02 0.  0.
         23    2    4    4    0    0  0.15124871383E+03 -0.26138362210E+03 -0.10227352695E+03  0.33060903864E+03  0.87435066076E+02 0.  0.
          2    1    3    3  502    0 -0.26841485982E+02  0.26519640773E+03  0.56702997515E+03  0.62655613696E+03  0.00000000000E+00 0. -1.
         -2    1    3    3    0  502  0.36548483942E+02  0.18950158234E+03  0.55651259259E+03  0.58902708520E+03  0.00000000000E+00 0.  1.
         11    1    5    5    0    0  0.24038873556E+01 -0.47057755326E+02  0.20432329572E+03  0.20968600379E+03  0.00000000000E+00 0.  1.
        -11    1    5    5    0    0 -0.16335959914E+03 -0.14625661265E+03  0.73559965224E+03  0.76758335297E+03  0.00000000000E+00 0. -1.
          1    1    6    6  503    0  0.13607498731E+03 -0.15227255638E+03 -0.64785120772E+02  0.21424389250E+03  0.00000000000E+00 0. -1.
         -1    1    6    6    0  503  0.15173726512E+02 -0.10911106573E+03 -0.37488406174E+02  0.11636514615E+03  0.00000000000E+00 0.  1.
<mgrwt>
<rscale>  0 0.15879498E+04</rscale>
<asrwt>0</asrwt>
<pdfrwt beam="1">  1        1 0.34497334E+00 0.15879498E+04</pdfrwt>
<pdfrwt beam="2">  1       -1 0.43251511E-01 0.15879498E+04</pdfrwt>
<totfact> 0.10333996E+01</totfact>
</mgrwt>
</event>
<event>
12    2  0.3751044E-008  0.2135541E+04  0.7818608E-02  0.8545747E-01
          1   -1    0    0  501    0  0.00000000000E+00  0.00000000000E+00  0.13226789687E+04  0.13226789687E+04  0.00000000000E+00 0.  1.
         -1   -1    0    0    0  501 -0.00000000000E+00 -0.00000000000E+00 -0.86198842702E+03  0.86198842702E+03  0.00000000000E+00 0. -1.
         23    2    1    2    0    0 -0.85617648200E+03  0.14078889536E+03  0.94869439815E+02  0.87766613720E+03  0.91858349597E+02 0.  0.
        254    2    1    2    0    0  0.85617648200E+03 -0.14078889536E+03  0.36582110187E+03  0.13070012585E+04  0.90640362411E+03 0.  0.
         23    2    4    4    0    0  0.25556725833E+03 -0.26297872567E+03  0.54367346183E+03  0.66210240119E+03  0.91248687011E+02 0.  0.
         23    2    4    4    0    0  0.60060922367E+03  0.12218983031E+03 -0.17785235996E+03  0.64489885732E+03  0.92743086173E+02 0.  0.
          3    1    3    3  502    0 -0.85284948059E+03  0.13380893935E+03  0.98929433922E+02  0.86893273715E+03  0.00000000000E+00 0. -1.
         -3    1    3    3    0  502 -0.33270014085E+01  0.69799560113E+01 -0.40599941067E+01  0.87334000503E+01  0.00000000000E+00 0.  1.
         11    1    5    5    0    0  0.16410024297E+02  0.61939340883E+01  0.20257690751E+02  0.26796039847E+02  0.00000000000E+00 0. -1.
        -11    1    5    5    0    0  0.23915723403E+03 -0.26917265976E+03  0.52341577108E+03  0.63530636135E+03  0.00000000000E+00 0.  1.
          3    1    6    6  503    0  0.16823323571E+03 -0.13276722476E+01 -0.25746754812E+02  0.17019717886E+03  0.00000000000E+00 0. -1.
         -3    1    6    6    0  503  0.43237598797E+03  0.12351750256E+03 -0.15210560515E+03  0.47470167846E+03  0.00000000000E+00 0.  1.
<mgrwt>
<rscale>  0 0.21355411E+04</rscale>
<asrwt>0</asrwt>
<pdfrwt beam="1">  1        1 0.20348907E+00 0.21355411E+04</pdfrwt>
<pdfrwt beam="2">  1       -1 0.13261360E+00 0.21355411E+04</pdfrwt>
<totfact> 0.38525435E+00</totfact>
</mgrwt>
</event>
<event>
12    2  0.3751044E-008  0.2290911E+04  0.7818608E-02  0.8481513E-01
          2   -1    0    0  501    0  0.00000000000E+00  0.00000000000E+00  0.11791160061E+04  0.11791160061E+04  0.00000000000E+00 0. -1.
         -2   -1    0    0    0  501 -0.00000000000E+00 -0.00000000000E+00 -0.11127560416E+04  0.11127560416E+04  0.00000000000E+00 0.  1.
         23    2    1    2    0    0  0.76184892673E+03  0.14102940642E+03  0.61110313421E+03  0.99099387778E+03  0.91207151659E+02 0.  0.
        254    2    1    2    0    0 -0.76184892673E+03 -0.14102940642E+03 -0.54474316973E+03  0.13008781699E+04  0.89175995163E+03 0.  0.
         23    2    4    4    0    0 -0.19070341760E+03 -0.28368144042E+03 -0.60687002044E+03  0.70144544228E+03  0.83015261694E+02 0.  0.
         23    2    4    4    0    0 -0.57114550913E+03  0.14265203399E+03  0.62126850710E+02  0.59943272762E+03  0.94355995914E+02 0.  0.
          3    1    3    3  502    0  0.74696337946E+03  0.13742523506E+03  0.61237642751E+03  0.97562537608E+03  0.00000000000E+00 0. -1.
         -3    1    3    3    0  502  0.14885547264E+02  0.36041713617E+01 -0.12732932908E+01  0.15368501696E+02  0.00000000000E+00 0.  1.
         11    1    5    5    0    0 -0.18769301142E+03 -0.25429650070E+03 -0.50836646439E+03  0.59860825163E+03  0.00000000000E+00 0. -1.
        -11    1    5    5    0    0 -0.30104061804E+01 -0.29384939716E+02 -0.98503556044E+02  0.10283719065E+03  0.00000000000E+00 0.  1.
          1    1    6    6  503    0 -0.26308875070E+03  0.10779824129E+03  0.53396541328E+02  0.28928764611E+03  0.00000000000E+00 0. -1.
         -1    1    6    6    0  503 -0.30805675843E+03  0.34853792701E+02  0.87303093825E+01  0.31014508151E+03  0.00000000000E+00 0.  1.
<mgrwt>
<rscale>  0 0.22909111E+04</rscale>
<asrwt>0</asrwt>
<pdfrwt beam="1">  1        2 0.18140246E+00 0.22909111E+04</pdfrwt>
<pdfrwt beam="2">  1       -2 0.17119324E+00 0.22909111E+04</pdfrwt>
<totfact> 0.36970585E+00</totfact>
</mgrwt>
</event>
<event>
12    2  0.3751044E-008  0.1546958E+04  0.7818608E-02  0.8853813E-01
          1   -1    0    0  501    0  0.00000000000E+00  0.00000000000E+00  0.58171088539E+03  0.58171088539E+03  0.00000000000E+00 0. -1.
         -1   -1    0    0    0  501 -0.00000000000E+00 -0.00000000000E+00 -0.10284652881E+04  0.10284652881E+04  0.00000000000E+00 0.  1.
         23    2    1    2    0    0  0.56438605322E+02  0.48864977407E+03 -0.17747640960E+03  0.53217895179E+03  0.98755470179E+02 0.  0.
        254    2    1    2    0    0 -0.56438605322E+02 -0.48864977407E+03 -0.26927799315E+03  0.10779972217E+04  0.92065381909E+03 0.  0.
         23    2    4    4    0    0 -0.24557818349E+03 -0.69898196720E+03 -0.18716097318E+03  0.76962149514E+03  0.91671048974E+02 0.  0.
         23    2    4    4    0    0  0.18913957817E+03  0.21033219313E+03 -0.82117019962E+02  0.30837572659E+03  0.91317973510E+02 0.  0.
          2    1    3    3  502    0  0.19759162538E+02  0.24493986449E+03 -0.37014614723E+02  0.24850763253E+03  0.00000000000E+00 0. -1.
         -2    1    3    3    0  502  0.36679442784E+02  0.24370990958E+03 -0.14046179488E+03  0.28367131926E+03  0.00000000000E+00 0.  1.
         11    1    5    5    0    0 -0.20393130236E+03 -0.47187764187E+03 -0.10594487018E+03  0.52486264917E+03  0.00000000000E+00 0. -1.
        -11    1    5    5    0    0 -0.41646881130E+02 -0.22710432534E+03 -0.81216103007E+02  0.24475884597E+03  0.00000000000E+00 0.  1.
          2    1    6    6  503    0  0.90336732054E+02  0.37848372645E+02 -0.35716658871E+02  0.10425403681E+03  0.00000000000E+00 0. -1.
         -2    1    6    6    0  503  0.98802846114E+02  0.17248382049E+03 -0.46400361091E+02  0.20412168978E+03  0.00000000000E+00 0.  1.
<mgrwt>
<rscale>  0 0.15469576E+04</rscale>
<asrwt>0</asrwt>
<pdfrwt beam="1">  1        1 0.89493982E-01 0.15469576E+04</pdfrwt>
<pdfrwt beam="2">  1       -1 0.15822543E+00 0.15469576E+04</pdfrwt>
<totfact> 0.10404005E+01</totfact>
</mgrwt>
</event>
<event>
12    2  0.3751044E-008  0.1302154E+04  0.7818608E-02  0.9027859E-01
         -2   -1    0    0    0  501 -0.00000000000E+00  0.00000000000E+00  0.11626230370E+04  0.11626230370E+04  0.00000000000E+00 0.  1.
          2   -1    0    0  501    0  0.00000000000E+00 -0.00000000000E+00 -0.36460769820E+03  0.36460769820E+03  0.00000000000E+00 0. -1.
         23    2    1    2    0    0 -0.25429988155E+03  0.22551619050E+03  0.12833801054E+03  0.37476784728E+03  0.91947335295E+02 0.  0.
        254    2    1    2    0    0  0.25429988155E+03 -0.22551619050E+03  0.66967732831E+03  0.11524628880E+04  0.87417218107E+03 0.  0.
         23    2    4    4    0    0  0.32726245658E+01 -0.51532478160E+03  0.50132459451E+03  0.72392122110E+03  0.84647768398E+02 0.  0.
         23    2    4    4    0    0  0.25102725699E+03  0.28980859110E+03  0.16835273380E+03  0.42854166687E+03  0.91113193543E+02 0.  0.
          4    1    3    3  502    0 -0.22615112729E+03  0.18732806266E+03  0.74406648278E+02  0.30293973781E+03  0.00000000000E+00 0.  1.
         -4    1    3    3    0  502 -0.28148754263E+02  0.38188127837E+02  0.53931362264E+02  0.71828109469E+02  0.00000000000E+00 0. -1.
         11    1    5    5    0    0 -0.25815969547E+02 -0.44347032727E+03  0.41521817365E+03  0.60806128571E+03  0.00000000000E+00 0. -1.
        -11    1    5    5    0    0  0.29088594113E+02 -0.71854454326E+02  0.86106420858E+02  0.11585993538E+03  0.00000000000E+00 0.  1.
          2    1    6    6  503    0  0.17352518388E+03  0.14533355585E+03  0.12665195295E+03  0.25937145001E+03  0.00000000000E+00 0.  1.
         -2    1    6    6    0  503  0.77502073111E+02  0.14447503526E+03  0.41700780853E+02  0.16917021686E+03  0.00000000000E+00 0. -1.
<mgrwt>
<rscale>  0 0.13021541E+04</rscale>
<asrwt>0</asrwt>
<pdfrwt beam="1">  1        2 0.56093492E-01 0.13021541E+04</pdfrwt>
<pdfrwt beam="2">  1       -2 0.17886508E+00 0.13021541E+04</pdfrwt>
<totfact> 0.15952799E+01</totfact>
</mgrwt>
</event>
<event>
12    2  0.3751044E-008  0.1618574E+04  0.7818608E-02  0.8809218E-01
         -2   -1    0    0    0  501 -0.00000000000E+00  0.00000000000E+00  0.13896621508E+03  0.13896621508E+03  0.00000000000E+00 0.  1.
          2   -1    0    0  501    0  0.00000000000E+00 -0.00000000000E+00 -0.47129812512E+04  0.47129812512E+04  0.00000000000E+00 0. -1.
         23    2    1    2    0    0 -0.44216507023E+03  0.12639975456E+02 -0.58180758820E+03  0.73614414750E+03  0.87968277816E+02 0.  0.
        254    2    1    2    0    0  0.44216507023E+03 -0.12639975456E+02 -0.39922074479E+04  0.41158033188E+04  0.89802390463E+03 0.  0.
         23    2    4    4    0    0 -0.20195097585E+03  0.48841291373E+02 -0.21308593724E+04  0.21429845637E+04  0.93013478052E+02 0.  0.
         23    2    4    4    0    0  0.64411604607E+03 -0.61481266828E+02 -0.18613480756E+04  0.19728187551E+04  0.93443860121E+02 0.  0.
          3    1    3    3  502    0 -0.22302079819E+03  0.25243368846E+02 -0.35889128571E+03  0.42329476616E+03  0.00000000000E+00 0. -1.
         -3    1    3    3    0  502 -0.21914427203E+03 -0.12603393391E+02 -0.22291630249E+03  0.31284938134E+03  0.00000000000E+00 0.  1.
         11    1    5    5    0    0 -0.96510177532E+01 -0.36993601820E+01 -0.18114517109E+02  0.20855769933E+02  0.00000000000E+00 0. -1.
        -11    1    5    5    0    0 -0.19229995809E+03  0.52540651555E+02 -0.21127448553E+04  0.21221287938E+04  0.00000000000E+00 0.  1.
          3    1    6    6  503    0  0.38913716356E+03 -0.78202991645E+02 -0.11925386443E+04  0.12568579307E+04  0.00000000000E+00 0. -1.
         -3    1    6    6    0  503  0.25497888251E+03  0.16721724816E+02 -0.66880943129E+03  0.71596082434E+03  0.00000000000E+00 0.  1.
<mgrwt>
<rscale>  0 0.16185737E+04</rscale>
<asrwt>0</asrwt>
<pdfrwt beam="1">  1        2 0.72507384E+00 0.16185737E+04</pdfrwt>
<pdfrwt beam="2">  1       -2 0.21379423E-01 0.16185737E+04</pdfrwt>
<totfact> 0.14002655E+00</totfact>
</mgrwt>
</event>
<event>
12    2  0.3751044E-008  0.2027173E+04  0.7818608E-02  0.8594021E-01
         -2   -1    0    0    0  501 -0.00000000000E+00  0.00000000000E+00  0.78569467205E+03  0.78569467205E+03  0.00000000000E+00 0.  1.
          2   -1    0    0  501    0  0.00000000000E+00 -0.00000000000E+00 -0.13075784117E+04  0.13075784117E+04  0.00000000000E+00 0. -1.
         23    2    1    2    0    0  0.99002932830E+01  0.12064105440E+03 -0.10016727221E+04  0.10126793272E+04  0.86711577803E+02 0.  0.
        254    2    1    2    0    0 -0.99002932830E+01 -0.12064105440E+03  0.47978898248E+03  0.10805937565E+04  0.96064203485E+03 0.  0.
         23    2    4    4    0    0 -0.11405488130E+03  0.12318702190E+03  0.69896762272E+03  0.72462570373E+03  0.91340651368E+02 0.  0.
         23    2    4    4    0    0  0.10415458802E+03 -0.24382807630E+03 -0.21917864024E+03  0.35596805279E+03  0.91507755274E+02 0.  0.
          1    1    3    3  502    0 -0.36707252481E+01  0.75922519608E+02 -0.86306100716E+03  0.86640175744E+03  0.00000000000E+00 0. -1.
         -1    1    3    3    0  502  0.13571018531E+02  0.44718534793E+02 -0.13861171497E+03  0.14627756980E+03  0.00000000000E+00 0.  1.
         11    1    5    5    0    0 -0.97539124680E+01  0.75987064560E+02  0.28601026652E+03  0.29609296740E+03  0.00000000000E+00 0.  1.
        -11    1    5    5    0    0 -0.10430096884E+03  0.47199957336E+02  0.41295735620E+03  0.42853273634E+03  0.00000000000E+00 0. -1.
          4    1    6    6  503    0  0.82010987517E+02 -0.23139756186E+03 -0.22125248893E+03  0.33048948178E+03  0.00000000000E+00 0. -1.
         -4    1    6    6    0  503  0.22143600505E+02 -0.12430514438E+02  0.20738486930E+01  0.25478571014E+02  0.00000000000E+00 0.  1.
<mgrwt>
<rscale>  0 0.20271728E+04</rscale>
<asrwt>0</asrwt>
<pdfrwt beam="1">  1        2 0.20116591E+00 0.20271728E+04</pdfrwt>
<pdfrwt beam="2">  1       -2 0.12087610E+00 0.20271728E+04</pdfrwt>
<totfact> 0.79119592E+00</totfact>
</mgrwt>
</event>
<event>
12    2  0.3751044E-008  0.1399105E+04  0.7818608E-02  0.8954467E-01
          2   -1    0    0  501    0  0.00000000000E+00  0.00000000000E+00  0.16922699874E+04  0.16922699874E+04  0.00000000000E+00 0. -1.
         -2   -1    0    0    0  501 -0.00000000000E+00 -0.00000000000E+00 -0.28918175461E+03  0.28918175461E+03  0.00000000000E+00 0.  1.
         23    2    1    2    0    0  0.39907881344E+03 -0.16383010335E+02  0.34773846696E+03  0.53824244444E+03  0.96179962726E+02 0.  0.
        254    2    1    2    0    0 -0.39907881344E+03  0.16383010335E+02  0.10553497658E+04  0.14432092976E+04  0.89975421423E+03 0.  0.
         23    2    4    4    0    0 -0.41700159561E+03 -0.20168295928E+03  0.13267178256E+03  0.49066217670E+03  0.92634890562E+02 0.  0.
         23    2    4    4    0    0  0.17922782174E+02  0.21806596962E+03  0.92267798329E+03  0.95254712090E+03  0.90207335953E+02 0.  0.
          4    1    3    3  502    0  0.19918620013E+02 -0.19085919216E+02  0.69889862099E+01  0.28458209076E+02  0.00000000000E+00 0. -1.
         -4    1    3    3    0  502  0.37916019342E+03  0.27029088811E+01  0.34074948075E+03  0.50978423536E+03  0.00000000000E+00 0.  1.
         11    1    5    5    0    0 -0.65785008319E+02 -0.21513437237E+02  0.54894288117E+02  0.88339561744E+02  0.00000000000E+00 0.  1.
        -11    1    5    5    0    0 -0.35121658729E+03 -0.18016952204E+03  0.77777494441E+02  0.40232261495E+03  0.00000000000E+00 0. -1.
          3    1    6    6  503    0 -0.13918945533E+02  0.19588689085E+03  0.80628278751E+03  0.82985380910E+03  0.00000000000E+00 0. -1.
         -3    1    6    6    0  503  0.31841727707E+02  0.22179078764E+02  0.11639519578E+03  0.12269331180E+03  0.00000000000E+00 0.  1.
<mgrwt>
<rscale>  0 0.13991049E+04</rscale>
<asrwt>0</asrwt>
<pdfrwt beam="1">  1        2 0.26034922E+00 0.13991049E+04</pdfrwt>
<pdfrwt beam="2">  1       -2 0.44489502E-01 0.13991049E+04</pdfrwt>
<totfact> 0.46185979E+01</totfact>
</mgrwt>
</event>
<event>
12    2  0.3751044E-008  0.1835426E+04  0.7818608E-02  0.8687684E-01
          2   -1    0    0  501    0  0.00000000000E+00  0.00000000000E+00  0.96833996339E+03  0.96833996339E+03  0.00000000000E+00 0. -1.
         -2   -1    0    0    0  501 -0.00000000000E+00 -0.00000000000E+00 -0.86973266342E+03  0.86973266342E+03  0.00000000000E+00 0.  1.
         23    2    1    2    0    0 -0.19380965424E+03 -0.23526903135E+03 -0.58907021734E+03  0.66925192919E+03  0.89334901232E+02 0.  0.
        254    2    1    2    0    0  0.19380965424E+03  0.23526903135E+03  0.68767751731E+03  0.11688206976E+04  0.89461039352E+03 0.  0.
         23    2    4    4    0    0 -0.31240684016E+03  0.82997279269E+02  0.56738329489E+02  0.34072667804E+03  0.91590659719E+02 0.  0.
         23    2    4    4    0    0  0.50621649440E+03  0.15227175208E+03  0.63093918782E+03  0.82809401959E+03  0.90629028779E+02 0.  0.
          3    1    3    3  502    0 -0.70574366532E+02 -0.78373995189E+02 -0.12145623684E+03  0.16085658768E+03  0.00000000000E+00 0. -1.
         -3    1    3    3    0  502 -0.12323528771E+03 -0.15689503616E+03 -0.46761398050E+03  0.50839534151E+03  0.00000000000E+00 0.  1.
         11    1    5    5    0    0 -0.28334266134E+03  0.45332990364E+02  0.59584029034E+02  0.29306722824E+03  0.00000000000E+00 0. -1.
        -11    1    5    5    0    0 -0.29064178817E+02  0.37664288905E+02 -0.28456995459E+01  0.47659449797E+02  0.00000000000E+00 0.  1.
          2    1    6    6  503    0  0.26346713619E+03  0.35952652072E+02  0.34177079556E+03  0.43302979313E+03  0.00000000000E+00 0. -1.
         -2    1    6    6    0  503  0.24274935821E+03  0.11631910001E+03  0.28916839226E+03  0.39506422645E+03  0.00000000000E+00 0.  1.
<mgrwt>
<rscale>  0 0.18354257E+04</rscale>
<asrwt>0</asrwt>
<pdfrwt beam="1">  1        2 0.14897538E+00 0.18354257E+04</pdfrwt>
<pdfrwt beam="2">  1       -2 0.13380503E+00 0.18354257E+04</pdfrwt>
<totfact> 0.10032576E+01</totfact>
</mgrwt>
</event>
<event>
12    2  0.3751044E-008  0.1318184E+04  0.7818608E-02  0.9015268E-01
         -2   -1    0    0    0  501 -0.00000000000E+00  0.00000000000E+00  0.22423494348E+03  0.22423494348E+03  0.00000000000E+00 0.  1.
          2   -1    0    0  501    0  0.00000000000E+00 -0.00000000000E+00 -0.19372648705E+04  0.19372648705E+04  0.00000000000E+00 0. -1.
         23    2    1    2    0    0 -0.18459092135E+03  0.17778439723E+03 -0.88096826040E+03  0.92187774093E+03  0.89846498197E+02 0.  0.
        254    2    1    2    0    0  0.18459092135E+03 -0.17778439723E+03 -0.83206166660E+03  0.12396220730E+04  0.88241439629E+03 0.  0.
         23    2    4    4    0    0 -0.32515763470E+03  0.18822821265E+02 -0.46634069431E+03  0.57601925531E+03  0.90789610156E+02 0.  0.
         23    2    4    4    0    0  0.50974855605E+03 -0.19660721849E+03 -0.36572097229E+03  0.66360281773E+03  0.90104835386E+02 0.  0.
          4    1    3    3  502    0 -0.10971624157E+03  0.15070795009E+03 -0.69533898474E+03  0.71989363352E+03  0.00000000000E+00 0. -1.
         -4    1    3    3    0  502 -0.74874679780E+02  0.27076447133E+02 -0.18562927567E+03  0.20198410741E+03  0.00000000000E+00 0.  1.
         11    1    5    5    0    0 -0.14430138009E+03  0.48335914924E+02 -0.17581925753E+03  0.23253313804E+03  0.00000000000E+00 0. -1.
        -11    1    5    5    0    0 -0.18085625461E+03 -0.29513093659E+02 -0.29052143677E+03  0.34348611727E+03  0.00000000000E+00 0.  1.
          3    1    6    6  503    0  0.26025715114E+03 -0.12340858493E+03 -0.23939752040E+03  0.37453255710E+03  0.00000000000E+00 0. -1.
         -3    1    6    6    0  503  0.24949140491E+03 -0.73198633562E+02 -0.12632345189E+03  0.28907026063E+03  0.00000000000E+00 0.  1.
<mgrwt>
<rscale>  0 0.13181843E+04</rscale>
<asrwt>0</asrwt>
<pdfrwt beam="1">  1        2 0.29804075E+00 0.13181843E+04</pdfrwt>
<pdfrwt beam="2">  1       -2 0.34497684E-01 0.13181843E+04</pdfrwt>
<totfact> 0.55850782E+01</totfact>
</mgrwt>
</event>
<event>
12    2  0.3751044E-008  0.1964169E+04  0.7818608E-02  0.8623558E-01
         -2   -1    0    0    0  501 -0.00000000000E+00  0.00000000000E+00  0.14751071718E+04  0.14751071718E+04  0.00000000000E+00 0.  1.
          2   -1    0    0  501    0  0.00000000000E+00 -0.00000000000E+00 -0.65384398160E+03  0.65384398160E+03  0.00000000000E+00 0. -1.
         23    2    1    2    0    0  0.27993068223E+03 -0.97532593924E+02  0.10792702831E+04  0.11234531611E+04  0.97205286036E+02 0.  0.
        254    2    1    2    0    0 -0.27993068223E+03  0.97532593924E+02 -0.25800709283E+03  0.10054979923E+04  0.92551864315E+03 0.  0.
         23    2    4    4    0    0 -0.54813770401E+03 -0.94582603851E+02  0.19455562575E+02  0.56510080194E+03  0.97773135019E+02 0.  0.
         23    2    4    4    0    0  0.26820702178E+03  0.19211519777E+03 -0.27746265541E+03  0.44039719035E+03  0.90116060603E+02 0.  0.
          3    1    3    3  502    0  0.12029530357E+03  0.66308448461E+01  0.45960904081E+03  0.47513724182E+03  0.00000000000E+00 0. -1.
         -3    1    3    3    0  502  0.15963537867E+03 -0.10416343877E+03  0.61966124224E+03  0.64831591931E+03  0.00000000000E+00 0.  1.
         11    1    5    5    0    0 -0.46735660327E+03 -0.89136305322E+02  0.50359805758E+02  0.47843869574E+03  0.00000000000E+00 0.  1.
        -11    1    5    5    0    0 -0.80781100740E+02 -0.54462985286E+01 -0.30904243182E+02  0.86662106200E+02  0.00000000000E+00 0. -1.
          1    1    6    6  503    0  0.47602682666E+02  0.65259103163E+02 -0.32168961493E+02  0.86946006384E+02  0.00000000000E+00 0. -1.
         -1    1    6    6    0  503  0.22060433911E+03  0.12685609461E+03 -0.24529369392E+03  0.35345118397E+03  0.00000000000E+00 0.  1.
<mgrwt>
<rscale>  0 0.19641690E+04</rscale>
<asrwt>0</asrwt>
<pdfrwt beam="1">  1        2 0.10059138E+00 0.19641690E+04</pdfrwt>
<pdfrwt beam="2">  1       -2 0.22693956E+00 0.19641690E+04</pdfrwt>
<totfact> 0.37144709E+00</totfact>
</mgrwt>
</event>
<event>
12    2  0.3751044E-008  0.1526696E+04  0.7818608E-02  0.8866892E-01
         -1   -1    0    0    0  501 -0.00000000000E+00  0.00000000000E+00  0.18615783995E+03  0.18615783995E+03  0.00000000000E+00 0.  1.
          1   -1    0    0  501    0  0.00000000000E+00 -0.00000000000E+00 -0.31301397308E+04  0.31301397308E+04  0.00000000000E+00 0. -1.
         23    2    1    2    0    0 -0.39407813971E+03 -0.26429132955E+03 -0.71398282304E+03  0.86207702698E+03  0.90872667945E+02 0.  0.
        254    2    1    2    0    0  0.39407813971E+03  0.26429132955E+03 -0.22299990678E+04  0.24542205438E+04  0.90838050837E+03 0.  0.
         23    2    4    4    0    0  0.38907248490E+03  0.50793235426E+03 -0.95617277800E+03  0.11541230684E+04  0.91438507924E+02 0.  0.
         23    2    4    4    0    0  0.50056548038E+01 -0.24364102472E+03 -0.12738262898E+04  0.13000974753E+04  0.90741518757E+02 0.  0.
          2    1    3    3  502    0 -0.36635391660E+03 -0.26650774546E+03 -0.64990483173E+03  0.79222336553E+03  0.00000000000E+00 0. -1.
         -2    1    3    3    0  502 -0.27724223112E+02  0.22164159135E+01 -0.64077991308E+02  0.69853661441E+02  0.00000000000E+00 0.  1.
         11    1    5    5    0    0  0.12175820106E+03  0.20676458915E+03 -0.41792271977E+03  0.48190876165E+03  0.00000000000E+00 0.  1.
        -11    1    5    5    0    0  0.26731428385E+03  0.30116776511E+03 -0.53825005822E+03  0.67221430680E+03  0.00000000000E+00 0. -1.
          1    1    6    6  503    0 -0.10756325696E+02 -0.24169735507E+03 -0.11439642297E+04  0.11692679200E+04  0.00000000000E+00 0. -1.
         -1    1    6    6    0  503  0.15761980500E+02 -0.19436696464E+01 -0.12986206009E+03  0.13082955527E+03  0.00000000000E+00 0.  1.
<mgrwt>
<rscale>  0 0.15266958E+04</rscale>
<asrwt>0</asrwt>
<pdfrwt beam="1">  1        1 0.48155992E+00 0.15266958E+04</pdfrwt>
<pdfrwt beam="2">  1       -1 0.28639670E-01 0.15266958E+04</pdfrwt>
<totfact> 0.51573534E+00</totfact>
</mgrwt>
</event>
<event>
12    2  0.3751044E-008  0.2828085E+04  0.7818608E-02  0.8294602E-01
         -2   -1    0    0    0  501 -0.00000000000E+00  0.00000000000E+00  0.14338635144E+04  0.14338635144E+04  0.00000000000E+00 0. -1.
          2   -1    0    0  501    0  0.00000000000E+00 -0.00000000000E+00 -0.13944955652E+04  0.13944955652E+04  0.00000000000E+00 0.  1.
         23    2    1    2    0    0 -0.81713528711E+03  0.94213342803E+03  0.19592279801E+03  0.12658044853E+04  0.92465012930E+02 0.  0.
        254    2    1    2    0    0  0.81713528711E+03 -0.94213342803E+03 -0.15655484881E+03  0.15625545942E+04  0.92830057928E+03 0.  0.
         23    2    4    4    0    0  0.82307616497E+03 -0.80861956208E+03  0.19620500520E+03  0.11743779038E+04  0.96680335789E+02 0.  0.
         23    2    4    4    0    0 -0.59408778531E+01 -0.13351386594E+03 -0.35275985401E+03  0.38817669040E+03  0.91544426054E+02 0.  0.
          1    1    3    3  502    0 -0.21395512742E+03  0.19001412420E+03  0.56289324306E+02  0.29163444923E+03  0.00000000000E+00 0. -1.
         -1    1    3    3    0  502 -0.60318015969E+03  0.75211930382E+03  0.13963347370E+03  0.97417003609E+03  0.00000000000E+00 0.  1.
         11    1    5    5    0    0  0.66955587942E+03 -0.64718826072E+03  0.19593552141E+03  0.95160309428E+03  0.00000000000E+00 0. -1.
        -11    1    5    5    0    0  0.15352028554E+03 -0.16143130136E+03  0.26948378416E+00  0.22277480951E+03  0.00000000000E+00 0.  1.
          1    1    6    6  503    0 -0.27447818951E+02 -0.64118832745E+02 -0.26611614376E+03  0.27510436101E+03  0.00000000000E+00 0. -1.
         -1    1    6    6    0  503  0.21506941097E+02 -0.69395033199E+02 -0.86643710249E+02  0.11307232939E+03  0.00000000000E+00 0.  1.
<mgrwt>
<rscale>  0 0.28280851E+04</rscale>
<asrwt>0</asrwt>
<pdfrwt beam="1">  1        2 0.21453778E+00 0.28280851E+04</pdfrwt>
<pdfrwt beam="2">  1       -2 0.22059439E+00 0.28280851E+04</pdfrwt>
<totfact> 0.12399679E+00</totfact>
</mgrwt>
</event>
<event>
12    2  0.3751044E-008  0.1660518E+04  0.7818608E-02  0.8784208E-01
         -2   -1    0    0    0  501 -0.00000000000E+00  0.00000000000E+00  0.30930452224E+03  0.30930452224E+03  0.00000000000E+00 0.  1.
          2   -1    0    0  501    0  0.00000000000E+00 -0.00000000000E+00 -0.22286451494E+04  0.22286451494E+04  0.00000000000E+00 0. -1.
         23    2    1    2    0    0 -0.14493888418E+03 -0.38705748643E+03 -0.13202454595E+04  0.13863587523E+04  0.90120690099E+02 0.  0.
        254    2    1    2    0    0  0.14493888418E+03  0.38705748643E+03 -0.59909516766E+03  0.11515909194E+04  0.89242694248E+03 0.  0.
         23    2    4    4    0    0  0.28006729875E+03 -0.16831331901E+03 -0.32323286778E+02  0.34125081207E+03  0.92952981028E+02 0.  0.
         23    2    4    4    0    0 -0.13512841457E+03  0.55537080544E+03 -0.56677188088E+03  0.81034010728E+03  0.93403985687E+02 0.  0.
          1    1    3    3  502    0 -0.11129638136E+03 -0.34625479573E+03 -0.12194583353E+04  0.12725399403E+04  0.00000000000E+00 0. -1.
         -1    1    3    3    0  502 -0.33642502821E+02 -0.40802690702E+02 -0.10078712421E+03  0.11381881203E+03  0.00000000000E+00 0.  1.
         11    1    5    5    0    0  0.11218041507E+03 -0.19186789534E+02 -0.25294066587E+02  0.11658631233E+03  0.00000000000E+00 0. -1.
        -11    1    5    5    0    0  0.16788688368E+03 -0.14912652948E+03 -0.70292201915E+01  0.22466449974E+03  0.00000000000E+00 0.  1.
          3    1    6    6  503    0 -0.71020032052E+01 -0.11081278509E+01 -0.26484301435E+01  0.76603249987E+01  0.00000000000E+00 0. -1.
         -3    1    6    6    0  503 -0.12802641137E+03  0.55647893329E+03 -0.56412345074E+03  0.80267978228E+03  0.00000000000E+00 0.  1.
<mgrwt>
<rscale>  0 0.16605180E+04</rscale>
<asrwt>0</asrwt>
<pdfrwt beam="1">  1        2 0.34286849E+00 0.16605180E+04</pdfrwt>
<pdfrwt beam="2">  1       -2 0.47585311E-01 0.16605180E+04</pdfrwt>
<totfact> 0.19888075E+01</totfact>
</mgrwt>
</event>
<event>
12    2  0.3751044E-008  0.1351146E+04  0.7818608E-02  0.8989961E-01
         -4   -1    0    0    0  501 -0.00000000000E+00  0.00000000000E+00  0.45466246314E+03  0.45466246314E+03  0.00000000000E+00 0.  1.
          4   -1    0    0  501    0  0.00000000000E+00 -0.00000000000E+00 -0.10038189435E+04  0.10038189435E+04  0.00000000000E+00 0. -1.
         23    2    1    2    0    0  0.11263286924E+03 -0.22025036225E+03  0.14137555129E+03  0.29891185040E+03  0.90359628737E+02 0.  0.
        254    2    1    2    0    0 -0.11263286924E+03  0.22025036225E+03 -0.69053203162E+03  0.11595695562E+04  0.89809280349E+03 0.  0.
         23    2    4    4    0    0  0.91804371417E+02  0.33862153728E+03  0.59855881214E+02  0.36746039069E+03  0.91388314870E+02 0.  0.
         23    2    4    4    0    0 -0.20443724066E+03 -0.11837117503E+03 -0.75038791283E+03  0.79210916551E+03  0.92458584872E+02 0.  0.
          2    1    3    3  502    0 -0.84760211072E+01 -0.50175641297E+02  0.48852857671E+02  0.70541049156E+02  0.00000000000E+00 0. -1.
         -2    1    3    3    0  502  0.12110889035E+03 -0.17007472095E+03  0.92522693615E+02  0.22837080125E+03  0.00000000000E+00 0.  1.
         11    1    5    5    0    0  0.79891302566E+02  0.14552936581E+03  0.51499662042E+02  0.17382068844E+03  0.00000000000E+00 0. -1.
        -11    1    5    5    0    0  0.11913068850E+02  0.19309217146E+03  0.83562191719E+01  0.19363970225E+03  0.00000000000E+00 0.  1.
          1    1    6    6  503    0 -0.16124586562E+03 -0.13043946161E+03 -0.64656750343E+03  0.67901709758E+03  0.00000000000E+00 0. -1.
         -1    1    6    6    0  503 -0.43191375036E+02  0.12068286584E+02 -0.10382040941E+03  0.11309206793E+03  0.00000000000E+00 0.  1.
<mgrwt>
<rscale>  0 0.13511459E+04</rscale>
<asrwt>0</asrwt>
<pdfrwt beam="1">  1        4 0.15443368E+00 0.13511459E+04</pdfrwt>
<pdfrwt beam="2">  1       -4 0.69948072E-01 0.13511459E+04</pdfrwt>
<totfact> 0.10079758E+00</totfact>
</mgrwt>
</event>
<event>
12    2  0.3751044E-008  0.1518317E+04  0.7818608E-02  0.8872363E-01
          2   -1    0    0  501    0  0.00000000000E+00  0.00000000000E+00  0.29120038336E+04  0.29120038336E+04  0.00000000000E+00 0. -1.
         -2   -1    0    0    0  501 -0.00000000000E+00 -0.00000000000E+00 -0.19791230790E+03  0.19791230790E+03  0.00000000000E+00 0.  1.
         23    2    1    2    0    0  0.48070200281E+03 -0.15594455482E+03  0.73526651049E+03  0.89679679650E+03  0.90744328106E+02 0.  0.
        254    2    1    2    0    0 -0.48070200281E+03  0.15594455482E+03  0.19788250152E+04  0.22131193450E+04  0.85249966255E+03 0.  0.
         23    2    4    4    0    0 -0.59990472962E+03 -0.16530146630E+03  0.11184907877E+04  0.12831663909E+04  0.91016949898E+02 0.  0.
         23    2    4    4    0    0  0.11920272680E+03  0.32124602112E+03  0.86033422753E+03  0.92995295412E+03  0.85024806015E+02 0.  0.
          3    1    3    3  502    0  0.24906605928E+03 -0.60643959082E+02  0.44360065520E+03  0.51234083670E+03  0.00000000000E+00 0. -1.
         -3    1    3    3    0  502  0.23163594354E+03 -0.95300595737E+02  0.29166585529E+03  0.38445595981E+03  0.00000000000E+00 0.  1.
         11    1    5    5    0    0 -0.46090310652E+03 -0.15798400425E+03  0.91476555216E+03  0.10364297538E+04  0.00000000000E+00 0. -1.
        -11    1    5    5    0    0 -0.13900162310E+03 -0.73174620486E+01  0.20372523554E+03  0.24673663707E+03  0.00000000000E+00 0.  1.
          1    1    6    6  503    0  0.12757162114E+03  0.24715240795E+03  0.66127504260E+03  0.71738658563E+03  0.00000000000E+00 0. -1.
         -1    1    6    6    0  503 -0.83688943306E+01  0.74093613169E+02  0.19905918493E+03  0.21256636848E+03  0.00000000000E+00 0.  1.
<mgrwt>
<rscale>  0 0.15183167E+04</rscale>
<asrwt>0</asrwt>
<pdfrwt beam="1">  1        2 0.44800056E+00 0.15183167E+04</pdfrwt>
<pdfrwt beam="2">  1       -2 0.30448049E-01 0.15183167E+04</pdfrwt>
<totfact> 0.19124392E+01</totfact>
</mgrwt>
</event>
<event>
12    2  0.3751044E-008  0.1403967E+04  0.7818608E-02  0.8950952E-01
         -2   -1    0    0    0  501 -0.00000000000E+00  0.00000000000E+00  0.36331837532E+03  0.36331837532E+03  0.00000000000E+00 0.  1.
          2   -1    0    0  501    0  0.00000000000E+00 -0.00000000000E+00 -0.13563335374E+04  0.13563335374E+04  0.00000000000E+00 0. -1.
         23    2    1    2    0    0  0.31605262888E+03  0.83693751337E+02  0.83481885842E+01  0.33940494119E+03  0.90730995900E+02 0.  0.
        254    2    1    2    0    0 -0.31605262888E+03 -0.83693751337E+02 -0.10013633507E+04  0.13802469715E+04  0.89188521356E+03 0.  0.
         23    2    4    4    0    0 -0.33621035086E+03  0.51705316050E+02 -0.11195866034E+04  0.11737617117E+04  0.92366409669E+02 0.  0.
         23    2    4    4    0    0  0.20157721986E+02 -0.13539906739E+03  0.11822325269E+03  0.20648525987E+03  0.99600119795E+02 0.  0.
          4    1    3    3  502    0  0.23844385365E+03  0.72674399596E+02 -0.31870612307E+02  0.25130216001E+03  0.00000000000E+00 0.  1.
         -4    1    3    3    0  502  0.77608775231E+02  0.11019351741E+02  0.40218800891E+02  0.88102781175E+02  0.00000000000E+00 0. -1.
         11    1    5    5    0    0 -0.21670705230E+03  0.77241143835E+02 -0.71133616156E+03  0.74761438961E+03  0.00000000000E+00 0. -1.
        -11    1    5    5    0    0 -0.11950329856E+03 -0.25535827785E+02 -0.40825044180E+03  0.42614732206E+03  0.00000000000E+00 0.  1.
          4    1    6    6  503    0  0.20926561635E+02 -0.14120941667E+03  0.71980362112E+02  0.15987242685E+03  0.00000000000E+00 0. -1.
         -4    1    6    6    0  503 -0.76883964889E+00  0.58103492825E+01  0.46242890576E+02  0.46612833019E+02  0.00000000000E+00 0.  1.
<mgrwt>
<rscale>  0 0.14039671E+04</rscale>
<asrwt>0</asrwt>
<pdfrwt beam="1">  1        2 0.20866670E+00 0.14039671E+04</pdfrwt>
<pdfrwt beam="2">  1       -2 0.55895134E-01 0.14039671E+04</pdfrwt>
<totfact> 0.44840087E+01</totfact>
</mgrwt>
</event>
<event>
12    2  0.3751044E-008  0.1624806E+04  0.7818608E-02  0.8805452E-01
         -3   -1    0    0    0  501 -0.00000000000E+00  0.00000000000E+00  0.14857363322E+04  0.14857363322E+04  0.00000000000E+00 0.  1.
          3   -1    0    0  501    0  0.00000000000E+00 -0.00000000000E+00 -0.44422345137E+03  0.44422345137E+03  0.00000000000E+00 0. -1.
         23    2    1    2    0    0 -0.34204960808E+03  0.40227337616E+03  0.14613059643E+03  0.55537843624E+03  0.90935431338E+02 0.  0.
        254    2    1    2    0    0  0.34204960808E+03 -0.40227337616E+03  0.89538228444E+03  0.13745813474E+04  0.89941238690E+03 0.  0.
         23    2    4    4    0    0  0.43108307864E+03  0.10637249071E+03  0.65868533556E+03  0.79930156203E+03  0.88706754607E+02 0.  0.
         23    2    4    4    0    0 -0.89033470556E+02 -0.50864586687E+03  0.23669694888E+03  0.57527978534E+03  0.90960480725E+02 0.  0.
          1    1    3    3  502    0  0.26340830548E+01  0.13227658032E+02  0.13210894144E+02  0.18879540637E+02  0.00000000000E+00 0. -1.
         -1    1    3    3    0  502 -0.34468369114E+03  0.38904571813E+03  0.13291970229E+03  0.53649889560E+03  0.00000000000E+00 0.  1.
         11    1    5    5    0    0  0.25676261691E+03  0.18122501376E+02  0.37486326458E+03  0.45472841745E+03  0.00000000000E+00 0.  1.
        -11    1    5    5    0    0  0.17432046173E+03  0.88249989336E+02  0.28382207097E+03  0.34457314458E+03  0.00000000000E+00 0. -1.
          4    1    6    6  503    0  0.64248568931E+01 -0.67858173302E+02  0.60296842467E+02  0.91003954208E+02  0.00000000000E+00 0. -1.
         -4    1    6    6    0  503 -0.95458327450E+02 -0.44078769357E+03  0.17640010641E+03  0.48427583114E+03  0.00000000000E+00 0.  1.
<mgrwt>
<rscale>  0 0.16248064E+04</rscale>
<asrwt>0</asrwt>
<pdfrwt beam="1">  1        3 0.68342070E-01 0.16248064E+04</pdfrwt>
<pdfrwt beam="2">  1       -3 0.22857482E+00 0.16248064E+04</pdfrwt>
<totfact> 0.50390882E-01</totfact>
</mgrwt>
</event>
<event>
12    2  0.3751044E-008  0.1280209E+04  0.7818608E-02  0.9045409E-01
          2   -1    0    0  501    0  0.00000000000E+00  0.00000000000E+00  0.32215496605E+04  0.32215496605E+04  0.00000000000E+00 0. -1.
         -2   -1    0    0    0  501 -0.00000000000E+00 -0.00000000000E+00 -0.12718524430E+03  0.12718524430E+03  0.00000000000E+00 0.  1.
         23    2    1    2    0    0 -0.24263210817E+03  0.15615350389E+03  0.50318589683E+03  0.58731873465E+03  0.92157433833E+02 0.  0.
        254    2    1    2    0    0  0.24263210817E+03 -0.15615350389E+03  0.25911785194E+04  0.27614161701E+04  0.90992246306E+03 0.  0.
         23    2    4    4    0    0  0.53974110598E+03 -0.19618791055E+03  0.20950591469E+04  0.21742320626E+04  0.90565310455E+02 0.  0.
         23    2    4    4    0    0 -0.29710899781E+03  0.40034406652E+02  0.49611937249E+03  0.58718410752E+03  0.93670881673E+02 0.  0.
          2    1    3    3  502    0 -0.88449576070E+02  0.86350848820E+01  0.16579478562E+03  0.18811114570E+03  0.00000000000E+00 0. -1.
         -2    1    3    3    0  502 -0.15418253210E+03  0.14751841901E+03  0.33739111120E+03  0.39920758894E+03  0.00000000000E+00 0.  1.
         11    1    5    5    0    0  0.26051401798E+03 -0.53287299648E+02  0.87629434192E+03  0.91575043737E+03  0.00000000000E+00 0.  1.
        -11    1    5    5    0    0  0.27922708800E+03 -0.14290061090E+03  0.12187648050E+04  0.12584816253E+04  0.00000000000E+00 0. -1.
          2    1    6    6  503    0 -0.16870611618E+03  0.63064117657E+02  0.24351041816E+03  0.30287977867E+03  0.00000000000E+00 0. -1.
         -2    1    6    6    0  503 -0.12840288163E+03 -0.23029711005E+02  0.25260895432E+03  0.28430432885E+03  0.00000000000E+00 0.  1.
<mgrwt>
<rscale>  0 0.12802087E+04</rscale>
<asrwt>0</asrwt>
<pdfrwt beam="1">  1        2 0.49562296E+00 0.12802087E+04</pdfrwt>
<pdfrwt beam="2">  1       -2 0.19566963E-01 0.12802087E+04</pdfrwt>
<totfact> 0.27807439E+01</totfact>
</mgrwt>
</event>
<event>
12    2  0.3751044E-008  0.1489629E+04  0.7818608E-02  0.8891379E-01
         -1   -1    0    0    0  501 -0.00000000000E+00  0.00000000000E+00  0.40543889326E+03  0.40543889326E+03  0.00000000000E+00 0.  1.
          1   -1    0    0  501    0  0.00000000000E+00 -0.00000000000E+00 -0.13682660537E+04  0.13682660537E+04  0.00000000000E+00 0. -1.
         23    2    1    2    0    0  0.20228779209E+03  0.31135313948E+03 -0.64941760091E+03  0.75254721478E+03  0.81993669333E+02 0.  0.
        254    2    1    2    0    0 -0.20228779209E+03 -0.31135313948E+03 -0.31340955958E+03  0.10211577322E+04  0.89815167636E+03 0.  0.
         23    2    4    4    0    0  0.28745909761E+03 -0.36120180469E+03 -0.14241273905E+03  0.49191176846E+03  0.92716358821E+02 0.  0.
         23    2    4    4    0    0 -0.48974688970E+03  0.49848665209E+02 -0.17099682052E+03  0.52924596377E+03  0.92328068032E+02 0.  0.
          3    1    3    3  502    0  0.14795519676E+03  0.25694710327E+03 -0.56691666964E+03  0.63977110316E+03  0.00000000000E+00 0. -1.
         -3    1    3    3    0  502  0.54332595327E+02  0.54406036212E+02 -0.82500931270E+02  0.11277611162E+03  0.00000000000E+00 0.  1.
         11    1    5    5    0    0  0.16501558782E+03 -0.26633942494E+03 -0.11951769139E+03  0.33533760907E+03  0.00000000000E+00 0.  1.
        -11    1    5    5    0    0  0.12244350979E+03 -0.94862379755E+02 -0.22895047664E+02  0.15657415939E+03  0.00000000000E+00 0. -1.
          3    1    6    6  503    0 -0.33431306576E+03  0.21480244783E+02 -0.15891370662E+03  0.37078321564E+03  0.00000000000E+00 0. -1.
         -3    1    6    6    0  503 -0.15543382394E+03  0.28368420426E+02 -0.12083113905E+02  0.15846274813E+03  0.00000000000E+00 0.  1.
<mgrwt>
<rscale>  0 0.14896285E+04</rscale>
<asrwt>0</asrwt>
<pdfrwt beam="1">  1        1 0.21050248E+00 0.14896285E+04</pdfrwt>
<pdfrwt beam="2">  1       -1 0.62375213E-01 0.14896285E+04</pdfrwt>
<totfact> 0.20415386E+01</totfact>
</mgrwt>
</event>
<event>
12    2  0.3751044E-008  0.1801728E+04  0.7818608E-02  0.8705381E-01
         -2   -1    0    0    0  501 -0.00000000000E+00  0.00000000000E+00  0.42361265296E+03  0.42361265296E+03  0.00000000000E+00 0.  1.
          2   -1    0    0  501    0  0.00000000000E+00 -0.00000000000E+00 -0.19157965515E+04  0.19157965515E+04  0.00000000000E+00 0. -1.
         23    2    1    2    0    0  0.72696290828E+02  0.53831891528E+02  0.30445944047E+03  0.32985865231E+03  0.89042441376E+02 0.  0.
        254    2    1    2    0    0 -0.72696290828E+02 -0.53831891528E+02 -0.17966433390E+04  0.20095505522E+04  0.89564697892E+03 0.  0.
         23    2    4    4    0    0 -0.10296621086E+03  0.13696460425E+03  0.61585183432E+01  0.19416814738E+03  0.91115304493E+02 0.  0.
         23    2    4    4    0    0  0.30269920028E+02 -0.19079649577E+03 -0.18028018574E+04  0.18153824048E+04  0.90549256603E+02 0.  0.
          4    1    3    3  502    0  0.45015218793E+02 -0.31464125175E+01  0.48789985729E+02  0.66458502407E+02  0.00000000000E+00 0. -1.
         -4    1    3    3    0  502  0.27681072035E+02  0.56978304045E+02  0.25566945474E+03  0.26340014990E+03  0.00000000000E+00 0.  1.
         11    1    5    5    0    0 -0.30472579314E+02  0.22090633842E+01  0.25678615562E+02  0.39910516762E+02  0.00000000000E+00 0.  1.
        -11    1    5    5    0    0 -0.72493631543E+02  0.13475554086E+03 -0.19520097218E+02  0.15425763061E+03  0.00000000000E+00 0. -1.
          1    1    6    6  503    0 -0.61487871184E+01 -0.82573638527E+02 -0.11237930764E+04  0.11268394260E+04  0.00000000000E+00 0. -1.
         -1    1    6    6    0  503  0.36418707146E+02 -0.10822285725E+03 -0.67900878097E+03  0.68854297883E+03  0.00000000000E+00 0.  1.
<mgrwt>
<rscale>  0 0.18017277E+04</rscale>
<asrwt>0</asrwt>
<pdfrwt beam="1">  1        2 0.29473793E+00 0.18017277E+04</pdfrwt>
<pdfrwt beam="2">  1       -2 0.65171178E-01 0.18017277E+04</pdfrwt>
<totfact> 0.15247734E+01</totfact>
</mgrwt>
</event>
<event>
12    2  0.3751044E-008  0.1570427E+04  0.7818608E-02  0.8838924E-01
         -1   -1    0    0    0  501 -0.00000000000E+00  0.00000000000E+00  0.16787934599E+04  0.16787934599E+04  0.00000000000E+00 0.  1.
          1   -1    0    0  501    0  0.00000000000E+00 -0.00000000000E+00 -0.36726413093E+03  0.36726413093E+03  0.00000000000E+00 0. -1.
         23    2    1    2    0    0  0.24353371207E+03 -0.25912177341E+02  0.10456780406E+04  0.10776578304E+04  0.89015307765E+02 0.  0.
        254    2    1    2    0    0 -0.24353371207E+03  0.25912177341E+02  0.26585128841E+03  0.96839976045E+03  0.89841030640E+03 0.  0.
         23    2    4    4    0    0 -0.38811050187E+03  0.29729610861E+03 -0.71868303454E+02  0.50289971086E+03  0.93425522674E+02 0.  0.
         23    2    4    4    0    0  0.14457678980E+03 -0.27138393126E+03  0.33771959186E+03  0.46550004959E+03  0.89911551796E+02 0.  0.
          1    1    3    3  502    0  0.17810012229E+02 -0.29619561062E+02  0.15621415411E+03  0.15999180254E+03  0.00000000000E+00 0. -1.
         -1    1    3    3    0  502  0.22572369985E+03  0.37073837204E+01  0.88946388644E+03  0.91766602784E+03  0.00000000000E+00 0.  1.
         11    1    5    5    0    0 -0.37705861086E+02  0.12260156147E+02  0.15966977949E+02  0.42743277527E+02  0.00000000000E+00 0.  1.
        -11    1    5    5    0    0 -0.35040464078E+03  0.28503595246E+03 -0.87835281403E+02  0.46015643333E+03  0.00000000000E+00 0. -1.
          3    1    6    6  503    0  0.98374454576E+02 -0.24818309420E+03  0.26399344028E+03  0.37545295054E+03  0.00000000000E+00 0. -1.
         -3    1    6    6    0  503  0.46202335219E+02 -0.23200837064E+02  0.73726151578E+02  0.90047099047E+02  0.00000000000E+00 0.  1.
<mgrwt>
<rscale>  0 0.15704275E+04</rscale>
<asrwt>0</asrwt>
<pdfrwt beam="1">  1        1 0.56502175E-01 0.15704275E+04</pdfrwt>
<pdfrwt beam="2">  1       -1 0.25827591E+00 0.15704275E+04</pdfrwt>
<totfact> 0.39827337E+00</totfact>
</mgrwt>
</event>
<event>
12    2  0.3751044E-008  0.2279658E+04  0.7818608E-02  0.8485985E-01
          1   -1    0    0  501    0  0.00000000000E+00  0.00000000000E+00  0.59869097703E+03  0.59869097703E+03  0.00000000000E+00 0. -1.
         -1   -1    0    0    0  501 -0.00000000000E+00 -0.00000000000E+00 -0.21700855388E+04  0.21700855388E+04  0.00000000000E+00 0.  1.
         23    2    1    2    0    0  0.64618471345E+03  0.27822180315E+03  0.44918062142E+02  0.71096349073E+03  0.92137924903E+02 0.  0.
        254    2    1    2    0    0 -0.64618471345E+03 -0.27822180315E+03 -0.16163126239E+04  0.20578130251E+04  0.10616806923E+04 0.  0.
         23    2    4    4    0    0 -0.29453825936E+03  0.27672302533E+03 -0.13664007847E+03  0.43621339492E+03  0.91012064499E+02 0.  0.
         23    2    4    4    0    0 -0.35164645409E+03 -0.55494482848E+03 -0.14796725455E+04  0.16215996302E+04  0.92387918922E+02 0.  0.
          3    1    3    3  502    0  0.64209996699E+03  0.26645193803E+03  0.36942506947E+02  0.69617077769E+03  0.00000000000E+00 0. -1.
         -3    1    3    3    0  502  0.40847464559E+01  0.11769865111E+02  0.79755551952E+01  0.14792713038E+02  0.00000000000E+00 0.  1.
         11    1    5    5    0    0 -0.29326740939E+03  0.27230102389E+03 -0.14583143244E+03  0.42593476932E+03  0.00000000000E+00 0.  1.
        -11    1    5    5    0    0 -0.12708499670E+01  0.44220014419E+01  0.91913539726E+01  0.10278625601E+02  0.00000000000E+00 0. -1.
          4    1    6    6  503    0 -0.13486516781E+03 -0.24483931084E+03 -0.52704293535E+03  0.59658122441E+03  0.00000000000E+00 0.  1.
         -4    1    6    6    0  503 -0.21678128627E+03 -0.31010551764E+03 -0.95262961010E+03  0.10250184058E+04  0.00000000000E+00 0. -1.
<mgrwt>
<rscale>  0 0.22796584E+04</rscale>
<asrwt>0</asrwt>
<pdfrwt beam="1">  1        1 0.92106304E-01 0.22796584E+04</pdfrwt>
<pdfrwt beam="2">  1       -1 0.33385931E+00 0.22796584E+04</pdfrwt>
<totfact> 0.61814794E-01</totfact>
</mgrwt>
</event>
<event>
12    2  0.3751044E-008  0.1465185E+04  0.7818608E-02  0.8907941E-01
         -1   -1    0    0    0  501 -0.00000000000E+00  0.00000000000E+00  0.55262624370E+03  0.55262624370E+03  0.00000000000E+00 0.  1.
          1   -1    0    0  501    0  0.00000000000E+00 -0.00000000000E+00 -0.97116557243E+03  0.97116557243E+03  0.00000000000E+00 0. -1.
         23    2    1    2    0    0  0.23992519452E+02 -0.62202187783E+02  0.32979474426E+03  0.34806266037E+03  0.89097076540E+02 0.  0.
        254    2    1    2    0    0 -0.23992519452E+02  0.62202187783E+02 -0.74833407299E+03  0.11757291558E+04  0.90437293731E+03 0.  0.
         23    2    4    4    0    0 -0.40902818508E+02  0.95250749901E+01  0.19866363235E+03  0.22274697543E+03  0.91570784783E+02 0.  0.
         23    2    4    4    0    0  0.16910299056E+02  0.52677112793E+02 -0.94699770535E+03  0.95298218033E+03  0.91156709366E+02 0.  0.
          2    1    3    3  502    0  0.42001650944E+02 -0.61052341546E+02  0.31796216219E+03  0.32648348148E+03  0.00000000000E+00 0.  1.
         -2    1    3    3    0  502 -0.18009131491E+02 -0.11498462366E+01  0.11832582070E+02  0.21579178897E+02  0.00000000000E+00 0. -1.
         11    1    5    5    0    0 -0.56075637570E+02 -0.53403577135E+01  0.59358529792E+02  0.81831727395E+02  0.00000000000E+00 0. -1.
        -11    1    5    5    0    0  0.15172819062E+02  0.14865432704E+02  0.13930510256E+03  0.14091524803E+03  0.00000000000E+00 0.  1.
          1    1    6    6  503    0  0.45756330164E+02  0.60036182623E+02 -0.74283419323E+03  0.74665964375E+03  0.00000000000E+00 0. -1.
         -1    1    6    6    0  503 -0.28846031109E+02 -0.73590698301E+01 -0.20416351212E+03  0.20632253658E+03  0.00000000000E+00 0.  1.
<mgrwt>
<rscale>  0 0.14651847E+04</rscale>
<asrwt>0</asrwt>
<pdfrwt beam="1">  1        1 0.14941009E+00 0.14651847E+04</pdfrwt>
<pdfrwt beam="2">  1       -1 0.85019422E-01 0.14651847E+04</pdfrwt>
<totfact> 0.21169689E+01</totfact>
</mgrwt>
</event>
<event>
12    2  0.3751044E-008  0.1504603E+04  0.7818608E-02  0.8881398E-01
         -1   -1    0    0    0  501 -0.00000000000E+00  0.00000000000E+00  0.51944880867E+03  0.51944880867E+03  0.00000000000E+00 0.  1.
          1   -1    0    0  501    0  0.00000000000E+00 -0.00000000000E+00 -0.10895351125E+04  0.10895351125E+04  0.00000000000E+00 0. -1.
         23    2    1    2    0    0 -0.36516044447E+03 -0.23407611540E+03  0.10581123270E+02  0.44345712421E+03  0.91697779890E+02 0.  0.
        254    2    1    2    0    0  0.36516044447E+03  0.23407611540E+03 -0.58066742708E+03  0.11655267969E+04  0.91276737205E+03 0.  0.
         23    2    4    4    0    0 -0.46403477362E+02  0.37794545599E+03 -0.60144787542E+03  0.71762440927E+03  0.90825081991E+02 0.  0.
         23    2    4    4    0    0  0.41156392183E+03 -0.14386934059E+03  0.20780448340E+02  0.44790238766E+03  0.10050608401E+03 0.  0.
          2    1    3    3  502    0  0.30936957574E+01 -0.91435449671E+01 -0.64434517804E+01  0.11605750249E+02  0.00000000000E+00 0. -1.
         -2    1    3    3    0  502 -0.36825414023E+03 -0.22493257043E+03  0.17024575050E+02  0.43185137396E+03  0.00000000000E+00 0.  1.
         11    1    5    5    0    0 -0.70033419438E+02  0.27928035490E+03 -0.47571082761E+03  0.55606023772E+03  0.00000000000E+00 0. -1.
        -11    1    5    5    0    0  0.23629942075E+02  0.98665101093E+02 -0.12573704780E+03  0.16156417154E+03  0.00000000000E+00 0.  1.
          4    1    6    6  503    0  0.15651108837E+03 -0.79213194457E+02 -0.35152557617E+02  0.17890263627E+03  0.00000000000E+00 0.  1.
         -4    1    6    6    0  503  0.25505283347E+03 -0.64656146134E+02  0.55933005957E+02  0.26899975139E+03  0.00000000000E+00 0. -1.
<mgrwt>
<rscale>  0 0.15046032E+04</rscale>
<asrwt>0</asrwt>
<pdfrwt beam="1">  1        1 0.16762078E+00 0.15046032E+04</pdfrwt>
<pdfrwt beam="2">  1       -1 0.79915202E-01 0.15046032E+04</pdfrwt>
<totfact> 0.19523338E+01</totfact>
</mgrwt>
</event>
<event>
12    2  0.3751044E-008  0.1690247E+04  0.7818608E-02  0.8766946E-01
          2   -1    0    0  501    0  0.00000000000E+00  0.00000000000E+00  0.26585008339E+04  0.26585008339E+04  0.00000000000E+00 0. -1.
         -2   -1    0    0    0  501 -0.00000000000E+00 -0.00000000000E+00 -0.26866047523E+03  0.26866047523E+03  0.00000000000E+00 0.  1.
         23    2    1    2    0    0  0.50150380995E+03 -0.31612616731E+03  0.66579837023E+03  0.89619726710E+03  0.91870815354E+02 0.  0.
        254    2    1    2    0    0 -0.50150380995E+03  0.31612616731E+03  0.17240419885E+04  0.20309640421E+04  0.89501527196E+03 0.  0.
         23    2    4    4    0    0 -0.10139538937E+03 -0.16715712141E+03  0.11664569551E+04  0.11862495949E+04  0.91344102140E+02 0.  0.
         23    2    4    4    0    0 -0.40010842057E+03  0.48328328872E+03  0.55758503337E+03  0.84471444718E+03  0.94825853381E+02 0.  0.
          3    1    3    3  502    0  0.49275480934E+02 -0.30312954324E+02  0.29667897462E+02  0.65016400708E+02  0.00000000000E+00 0. -1.
         -3    1    3    3    0  502  0.45222832901E+03 -0.28581321299E+03  0.63613047277E+03  0.83118086640E+03  0.00000000000E+00 0.  1.
         11    1    5    5    0    0 -0.59025758968E+00 -0.70700799180E+02  0.27513781894E+03  0.28407705085E+03  0.00000000000E+00 0.  1.
        -11    1    5    5    0    0 -0.10080513179E+03 -0.96456322234E+02  0.89131913617E+03  0.90217254402E+03  0.00000000000E+00 0. -1.
          4    1    6    6  503    0 -0.17240626406E+03  0.20482825343E+03  0.17645256535E+03  0.32064628660E+03  0.00000000000E+00 0. -1.
         -4    1    6    6    0  503 -0.22770215651E+03  0.27845503529E+03  0.38113246802E+03  0.52406816058E+03  0.00000000000E+00 0.  1.
<mgrwt>
<rscale>  0 0.16902474E+04</rscale>
<asrwt>0</asrwt>
<pdfrwt beam="1">  1        2 0.40900011E+00 0.16902474E+04</pdfrwt>
<pdfrwt beam="2">  1       -2 0.41332383E-01 0.16902474E+04</pdfrwt>
<totfact> 0.14879653E+01</totfact>
</mgrwt>
</event>
<event>
12    2  0.3751044E-008  0.2818044E+04  0.7818608E-02  0.8297688E-01
         -2   -1    0    0    0  501 -0.00000000000E+00  0.00000000000E+00  0.61422997799E+03  0.61422997799E+03  0.00000000000E+00 0.  1.
          2   -1    0    0  501    0  0.00000000000E+00 -0.00000000000E+00 -0.32322459068E+04  0.32322459068E+04  0.00000000000E+00 0. -1.
         23    2    1    2    0    0  0.90574729229E+03 -0.46468131922E+03 -0.15731384918E+03  0.10341041499E+04  0.91196818312E+02 0.  0.
        254    2    1    2    0    0 -0.90574729229E+03  0.46468131922E+03 -0.24607020797E+04  0.28123717350E+04  0.90447397139E+03 0.  0.
         23    2    4    4    0    0 -0.70207400354E+03  0.23456145618E+03 -0.23622815090E+04  0.24772265543E+04  0.91381016176E+02 0.  0.
         23    2    4    4    0    0 -0.20367328876E+03  0.23011986304E+03 -0.98420570641E+02  0.33514518071E+03  0.90541280705E+02 0.  0.
          3    1    3    3  502    0  0.88389141084E+03 -0.45893305558E+03 -0.16641479316E+03  0.10097412832E+04  0.00000000000E+00 0. -1.
         -3    1    3    3    0  502  0.21855881452E+02 -0.57482636365E+01  0.91009439847E+01  0.24362866627E+02  0.00000000000E+00 0.  1.
         11    1    5    5    0    0 -0.45660946314E+02  0.20902345821E+02 -0.25042844305E+03  0.25541385078E+03  0.00000000000E+00 0.  1.
        -11    1    5    5    0    0 -0.65641305722E+03  0.21365911036E+03 -0.21118530660E+04  0.22218127035E+04  0.00000000000E+00 0. -1.
          3    1    6    6  503    0 -0.17868605534E+03  0.15721109627E+03 -0.99759094681E+02  0.25806183781E+03  0.00000000000E+00 0. -1.
         -3    1    6    6    0  503 -0.24987233411E+02  0.72908766774E+02  0.13385240398E+01  0.77083342900E+02  0.00000000000E+00 0.  1.
<mgrwt>
<rscale>  0 0.28180435E+04</rscale>
<asrwt>0</asrwt>
<pdfrwt beam="1">  1        2 0.49726860E+00 0.28180435E+04</pdfrwt>
<pdfrwt beam="2">  1       -2 0.94496920E-01 0.28180435E+04</pdfrwt>
<totfact> 0.10123214E+00</totfact>
</mgrwt>
</event>
<event>
12    2  0.3751044E-008  0.1432334E+04  0.7818608E-02  0.8930741E-01
          2   -1    0    0  501    0  0.00000000000E+00  0.00000000000E+00  0.17302785039E+04  0.17302785039E+04  0.00000000000E+00 0. -1.
         -2   -1    0    0    0  501 -0.00000000000E+00 -0.00000000000E+00 -0.29642332548E+03  0.29642332548E+03  0.00000000000E+00 0.  1.
         23    2    1    2    0    0 -0.22014171678E+03  0.36611625403E+01 -0.68707638791E+02  0.26337625568E+03  0.12716341003E+03 0.  0.
        254    2    1    2    0    0  0.22014171678E+03 -0.36611625403E+01  0.15025628172E+04  0.17633255736E+04  0.89618428885E+03 0.  0.
         23    2    4    4    0    0 -0.12007407412E+03  0.35640955525E+03  0.88974251350E+03  0.97045373165E+03  0.93237066614E+02 0.  0.
         23    2    4    4    0    0  0.34021579090E+03 -0.36007071779E+03  0.61282030366E+03  0.79287184200E+03  0.87745809409E+02 0.  0.
          2    1    3    3  502    0 -0.12932793429E+03  0.64024793875E+02 -0.28122104086E+02  0.14702292867E+03  0.00000000000E+00 0. -1.
         -2    1    3    3    0  502 -0.90813782492E+02 -0.60363631335E+02 -0.40585534705E+02  0.11635332701E+03  0.00000000000E+00 0.  1.
         11    1    5    5    0    0 -0.12422162777E+03  0.33262416313E+03  0.76482447369E+03  0.84322376761E+03  0.00000000000E+00 0.  1.
        -11    1    5    5    0    0  0.41475536507E+01  0.23785392119E+02  0.12491803981E+03  0.12722996404E+03  0.00000000000E+00 0. -1.
          1    1    6    6  503    0  0.31329404803E+02 -0.73802412941E+02  0.75049275151E+02  0.10982131606E+03  0.00000000000E+00 0. -1.
         -1    1    6    6    0  503  0.30888638609E+03 -0.28626830485E+03  0.53777102851E+03  0.68305052594E+03  0.00000000000E+00 0.  1.
<mgrwt>
<rscale>  0 0.14323336E+04</rscale>
<asrwt>0</asrwt>
<pdfrwt beam="1">  1        2 0.26619669E+00 0.14323336E+04</pdfrwt>
<pdfrwt beam="2">  1       -2 0.45603590E-01 0.14323336E+04</pdfrwt>
<totfact> 0.41765426E+01</totfact>
</mgrwt>
</event>
<event>
12    2  0.3751044E-008  0.1782956E+04  0.7818608E-02  0.8715416E-01
         -1   -1    0    0    0  501 -0.00000000000E+00  0.00000000000E+00  0.96265092681E+03  0.96265092681E+03  0.00000000000E+00 0.  1.
          1   -1    0    0  501    0  0.00000000000E+00 -0.00000000000E+00 -0.82556742496E+03  0.82556742496E+03  0.00000000000E+00 0. -1.
         23    2    1    2    0    0  0.49485181068E+03  0.37666561758E+03  0.27677996966E+03  0.68340113960E+03  0.60619006926E+02 0.  0.
        254    2    1    2    0    0 -0.49485181068E+03 -0.37666561758E+03 -0.13969646781E+03  0.11048172122E+04  0.90241380043E+03 0.  0.
         23    2    4    4    0    0 -0.61706014496E+03  0.23302611316E+02 -0.23417559631E+03  0.66667653937E+03  0.91176554254E+02 0.  0.
         23    2    4    4    0    0  0.12220833428E+03 -0.39996822890E+03  0.94479128500E+02  0.43814067281E+03  0.90174732328E+02 0.  0.
          2    1    3    3  502    0  0.44654476934E+03  0.34486040338E+03  0.26896455268E+03  0.62503828638E+03  0.00000000000E+00 0.  1.
         -2    1    3    3    0  502  0.48307041336E+02  0.31805214205E+02  0.78154169831E+01  0.58362853219E+02  0.00000000000E+00 0. -1.
         11    1    5    5    0    0 -0.59126470773E+03  0.13526754753E+02 -0.24037639564E+03  0.63840249004E+03  0.00000000000E+00 0.  1.
        -11    1    5    5    0    0 -0.25795437224E+02  0.97758565636E+01  0.62007993302E+01  0.28274049329E+02  0.00000000000E+00 0. -1.
          2    1    6    6  503    0  0.86372463952E+02 -0.15007077974E+03  0.16590129657E+02  0.17394445626E+03  0.00000000000E+00 0. -1.
         -2    1    6    6    0  503  0.35835870327E+02 -0.24989744916E+03  0.77888998843E+02  0.26419621655E+03  0.00000000000E+00 0.  1.
<mgrwt>
<rscale>  0 0.17829562E+04</rscale>
<asrwt>0</asrwt>
<pdfrwt beam="1">  1        1 0.12701037E+00 0.17829562E+04</pdfrwt>
<pdfrwt beam="2">  1       -1 0.14810014E+00 0.17829562E+04</pdfrwt>
<totfact> 0.71698327E+00</totfact>
</mgrwt>
</event>
<event>
12    2  0.3751044E-008  0.2640592E+04  0.7818608E-02  0.8354542E-01
         -1   -1    0    0    0  501 -0.00000000000E+00  0.00000000000E+00  0.10514874113E+04  0.10514874113E+04  0.00000000000E+00 0.  1.
          1   -1    0    0  501    0  0.00000000000E+00 -0.00000000000E+00 -0.16578239965E+04  0.16578239965E+04  0.00000000000E+00 0. -1.
         23    2    1    2    0    0 -0.54492081169E+03  0.74009641118E+02  0.79180849008E+03  0.96860832339E+03  0.93942967797E+02 0.  0.
        254    2    1    2    0    0  0.54492081169E+03 -0.74009641118E+02 -0.13981450752E+04  0.17407030844E+04  0.87910264407E+03 0.  0.
         23    2    4    4    0    0  0.58343832017E+03 -0.15140733657E+03 -0.14743280720E+04  0.15952873679E+04  0.89297632928E+02 0.  0.
         23    2    4    4    0    0 -0.38517508474E+02  0.77397695450E+02  0.76182996758E+02  0.14541571657E+03  0.88701070517E+02 0.  0.
          1    1    3    3  502    0 -0.16550647136E+03  0.36766760512E+02  0.17627440139E+03  0.24457483789E+03  0.00000000000E+00 0. -1.
         -1    1    3    3    0  502 -0.37941434033E+03  0.37242880606E+02  0.61553408868E+03  0.72403348550E+03  0.00000000000E+00 0.  1.
         11    1    5    5    0    0  0.50385400848E+03 -0.13358053586E+03 -0.13440080993E+04  0.14415513839E+04  0.00000000000E+00 0. -1.
        -11    1    5    5    0    0  0.79584311690E+02 -0.17826800703E+02 -0.13031997272E+03  0.15373598401E+03  0.00000000000E+00 0.  1.
          4    1    6    6  503    0 -0.61615186020E+02  0.47280253375E+02  0.74194479426E+02  0.10740891157E+03  0.00000000000E+00 0. -1.
         -4    1    6    6    0  503  0.23097677546E+02  0.30117442075E+02  0.19885173318E+01  0.38006805001E+02  0.00000000000E+00 0.  1.
<mgrwt>
<rscale>  0 0.26405916E+04</rscale>
<asrwt>0</asrwt>
<pdfrwt beam="1">  1        1 0.25504985E+00 0.26405916E+04</pdfrwt>
<pdfrwt beam="2">  1       -1 0.16176729E+00 0.26405916E+04</pdfrwt>
<totfact> 0.12667434E+00</totfact>
</mgrwt>
</event>
<event>
12    2  0.3751044E-008  0.1107882E+04  0.7818608E-02  0.9197543E-01
          1   -1    0    0  501    0  0.00000000000E+00  0.00000000000E+00  0.14776370972E+04  0.14776370972E+04  0.00000000000E+00 0. -1.
         -1   -1    0    0    0  501 -0.00000000000E+00 -0.00000000000E+00 -0.20766321503E+03  0.20766321503E+03  0.00000000000E+00 0.  1.
         23    2    1    2    0    0  0.37255767711E+01 -0.13560797961E+03  0.48986207014E+02  0.16632993401E+03  0.82840777488E+02 0.  0.
        254    2    1    2    0    0 -0.37255767711E+01  0.13560797961E+03  0.12209876752E+04  0.15189703782E+04  0.89334019441E+03 0.  0.
         23    2    4    4    0    0 -0.91964597633E+02 -0.60414993438E+02 -0.10502591235E+03  0.17253870185E+03  0.81435267065E+02 0.  0.
         23    2    4    4    0    0  0.88239020862E+02  0.19602297305E+03  0.13260135875E+04  0.13464316764E+04  0.91406203878E+02 0.  0.
          4    1    3    3  502    0  0.69091419071E+01 -0.19270162664E+01  0.30508607200E+02  0.31340465007E+02  0.00000000000E+00 0. -1.
         -4    1    3    3    0  502 -0.31835651360E+01 -0.13368096334E+03  0.18477599814E+02  0.13498946901E+03  0.00000000000E+00 0.  1.
         11    1    5    5    0    0 -0.93645868371E+02 -0.25922930036E+02 -0.54706443047E+02  0.11150938021E+03  0.00000000000E+00 0. -1.
        -11    1    5    5    0    0  0.16812707371E+01 -0.34492063401E+02 -0.50319469299E+02  0.61029321637E+02  0.00000000000E+00 0.  1.
          3    1    6    6  503    0  0.10076245666E+03  0.19424035323E+03  0.12854405370E+04  0.13039324222E+04  0.00000000000E+00 0. -1.
         -3    1    6    6    0  503 -0.12523435797E+02  0.17826198197E+01  0.40573050499E+02  0.42499254162E+02  0.00000000000E+00 0.  1.
<mgrwt>
<rscale>  0 0.11078824E+04</rscale>
<asrwt>0</asrwt>
<pdfrwt beam="1">  1        1 0.22732878E+00 0.11078824E+04</pdfrwt>
<pdfrwt beam="2">  1       -1 0.31948188E-01 0.11078824E+04</pdfrwt>
<totfact> 0.61640238E+01</totfact>
</mgrwt>
</event>
<event>
12    2  0.3751044E-008  0.1367689E+04  0.7818608E-02  0.8977545E-01
         -2   -1    0    0    0  501 -0.00000000000E+00  0.00000000000E+00  0.15830636262E+03  0.15830636262E+03  0.00000000000E+00 0.  1.
          2   -1    0    0  501    0  0.00000000000E+00 -0.00000000000E+00 -0.29540397085E+04  0.29540397085E+04  0.00000000000E+00 0. -1.
         23    2    1    2    0    0 -0.28386775545E+02 -0.25753721881E+03 -0.14452383635E+03  0.31045409332E+03  0.91451499079E+02 0.  0.
        254    2    1    2    0    0  0.28386775545E+02  0.25753721881E+03 -0.26512095096E+04  0.28018919778E+04  0.86865157791E+03 0.  0.
         23    2    4    4    0    0 -0.11270044511E+03 -0.29279036760E+03 -0.83008702922E+03  0.89205226175E+03  0.91022919722E+02 0.  0.
         23    2    4    4    0    0  0.14108722066E+03  0.55032758641E+03 -0.18211224803E+04  0.19098397161E+04  0.90744678001E+02 0.  0.
          3    1    3    3  502    0  0.17315384027E+02 -0.99466388741E+01 -0.24291809079E+02  0.31445987617E+02  0.00000000000E+00 0. -1.
         -3    1    3    3    0  502 -0.45702159573E+02 -0.24759057994E+03 -0.12023202727E+03  0.27900810570E+03  0.00000000000E+00 0.  1.
         11    1    5    5    0    0 -0.78318283940E+02 -0.22370855605E+03 -0.71688409405E+03  0.75505104195E+03  0.00000000000E+00 0. -1.
        -11    1    5    5    0    0 -0.34382161169E+02 -0.69081811546E+02 -0.11320293517E+03  0.13700121979E+03  0.00000000000E+00 0.  1.
          2    1    6    6  503    0  0.14478335058E+03  0.53291419056E+03 -0.17964704095E+04  0.18794322774E+04  0.00000000000E+00 0. -1.
         -2    1    6    6    0  503 -0.36961299296E+01  0.17413395858E+02 -0.24652070832E+02  0.30407438696E+02  0.00000000000E+00 0.  1.
<mgrwt>
<rscale>  0 0.13676890E+04</rscale>
<asrwt>0</asrwt>
<pdfrwt beam="1">  1        2 0.45446763E+00 0.13676890E+04</pdfrwt>
<pdfrwt beam="2">  1       -2 0.24354826E-01 0.13676890E+04</pdfrwt>
<totfact> 0.27548624E+01</totfact>
</mgrwt>
</event>
<event>
12    2  0.3751044E-008  0.1238596E+04  0.7818608E-02  0.9079729E-01
         -1   -1    0    0    0  501 -0.00000000000E+00  0.00000000000E+00  0.19655839172E+04  0.19655839172E+04  0.00000000000E+00 0.  1.
          1   -1    0    0  501    0  0.00000000000E+00 -0.00000000000E+00 -0.19512254564E+03  0.19512254564E+03  0.00000000000E+00 0. -1.
         23    2    1    2    0    0 -0.18454660187E+03  0.17593961561E+03  0.19928315701E+03  0.33596104668E+03  0.90243291244E+02 0.  0.
        254    2    1    2    0    0  0.18454660187E+03 -0.17593961561E+03  0.15711782145E+04  0.18247454161E+04  0.89223464138E+03 0.  0.
         23    2    4    4    0    0  0.12185550264E+02  0.25134382468E+03  0.11268452974E+03  0.29245386475E+03  0.97515403526E+02 0.  0.
         23    2    4    4    0    0  0.17236105160E+03 -0.42728344029E+03  0.14584936848E+04  0.15322915514E+04  0.91837353100E+02 0.  0.
          1    1    3    3  502    0 -0.17963653667E+03  0.15218720584E+03  0.14499938938E+03  0.27650507020E+03  0.00000000000E+00 0. -1.
         -1    1    3    3    0  502 -0.49100651975E+01  0.23752409774E+02  0.54283767633E+02  0.59455976477E+02  0.00000000000E+00 0.  1.
         11    1    5    5    0    0  0.37084915899E+02  0.57362235827E+02  0.33369484765E+01  0.68387515757E+02  0.00000000000E+00 0. -1.
        -11    1    5    5    0    0 -0.24899365634E+02  0.19398158885E+03  0.10934758127E+03  0.22406634899E+03  0.00000000000E+00 0.  1.
          4    1    6    6  503    0  0.16221922220E+03 -0.29396132627E+03  0.10161764156E+04  0.10702069170E+04  0.00000000000E+00 0.  1.
         -4    1    6    6    0  503  0.10141829398E+02 -0.13332211402E+03  0.44231726912E+03  0.46208463441E+03  0.00000000000E+00 0. -1.
<mgrwt>
<rscale>  0 0.12385956E+04</rscale>
<asrwt>0</asrwt>
<pdfrwt beam="1">  1        1 0.30018854E-01 0.12385956E+04</pdfrwt>
<pdfrwt beam="2">  1       -1 0.30239751E+00 0.12385956E+04</pdfrwt>
<totfact> 0.48611322E+00</totfact>
</mgrwt>
</event>
<event>
12    2  0.3751044E-008  0.1740276E+04  0.7818608E-02  0.8738721E-01
         -2   -1    0    0    0  501 -0.00000000000E+00  0.00000000000E+00  0.31278967997E+03  0.31278967997E+03  0.00000000000E+00 0.  1.
          2   -1    0    0  501    0  0.00000000000E+00 -0.00000000000E+00 -0.24206058425E+04  0.24206058425E+04  0.00000000000E+00 0. -1.
         23    2    1    2    0    0 -0.38130287536E+03  0.25371470631E+03 -0.87356906216E+02  0.47495881621E+03  0.90507530490E+02 0.  0.
        254    2    1    2    0    0  0.38130287536E+03 -0.25371470631E+03 -0.20204592563E+04  0.22584367062E+04  0.89917613116E+03 0.  0.
         23    2    4    4    0    0  0.60105035738E+03 -0.15071229466E+03 -0.82803372504E+03  0.10381867997E+04  0.90643551049E+02 0.  0.
         23    2    4    4    0    0 -0.21974748202E+03 -0.10300241165E+03 -0.11924255312E+04  0.12202499066E+04  0.90734416087E+02 0.  0.
          3    1    3    3  502    0 -0.22250983822E+03  0.14058446469E+03 -0.48404633096E+01  0.26324522769E+03  0.00000000000E+00 0. -1.
         -3    1    3    3    0  502 -0.15879303713E+03  0.11313024162E+03 -0.82516442907E+02  0.21171358851E+03  0.00000000000E+00 0.  1.
         11    1    5    5    0    0  0.57128619732E+03 -0.14522784165E+03 -0.81350736442E+03  0.10046159849E+04  0.00000000000E+00 0. -1.
        -11    1    5    5    0    0  0.29764160060E+02 -0.54844530050E+01 -0.14526360622E+02  0.33570814732E+02  0.00000000000E+00 0.  1.
          2    1    6    6  503    0 -0.14958319383E+03 -0.11115005630E+03 -0.92974813336E+03  0.94824103390E+03  0.00000000000E+00 0. -1.
         -2    1    6    6    0  503 -0.70164288196E+02  0.81476446425E+01 -0.26267739787E+03  0.27200887265E+03  0.00000000000E+00 0.  1.
<mgrwt>
<rscale>  0 0.17402764E+04</rscale>
<asrwt>0</asrwt>
<pdfrwt beam="1">  1        2 0.37240090E+00 0.17402764E+04</pdfrwt>
<pdfrwt beam="2">  1       -2 0.48121489E-01 0.17402764E+04</pdfrwt>
<totfact> 0.15029384E+01</totfact>
</mgrwt>
</event>
<event>
12    2  0.3751044E-008  0.1875456E+04  0.7818608E-02  0.8667171E-01
         -1   -1    0    0    0  501 -0.00000000000E+00  0.00000000000E+00  0.37397413273E+03  0.37397413273E+03  0.00000000000E+00 0.  1.
          1   -1    0    0  501    0  0.00000000000E+00 -0.00000000000E+00 -0.23513217154E+04  0.23513217154E+04  0.00000000000E+00 0. -1.
         23    2    1    2    0    0 -0.39172834621E+03  0.19897609300E+03 -0.15916705440E+04  0.16536831246E+04  0.90610005763E+02 0.  0.
        254    2    1    2    0    0  0.39172834621E+03 -0.19897609300E+03 -0.38567703867E+03  0.10716127235E+04  0.89808934313E+03 0.  0.
         23    2    4    4    0    0  0.18193680424E+03 -0.47019857136E+03  0.44003278770E+02  0.51433847681E+03  0.91761009900E+02 0.  0.
         23    2    4    4    0    0  0.20979154197E+03  0.27122247836E+03 -0.42968031744E+03  0.55727424671E+03  0.91407259020E+02 0.  0.
          4    1    3    3  502    0 -0.30823494612E+03  0.19510126878E+03 -0.12735122550E+04  0.13247289348E+04  0.00000000000E+00 0. -1.
         -4    1    3    3    0  502 -0.83493400096E+02  0.38748242168E+01 -0.31815828899E+03  0.32895418978E+03  0.00000000000E+00 0.  1.
         11    1    5    5    0    0  0.60650366744E+02 -0.92355928400E+02 -0.20273564752E+02  0.11233477611E+03  0.00000000000E+00 0. -1.
        -11    1    5    5    0    0  0.12128643749E+03 -0.37784264296E+03  0.64276843523E+02  0.40200370069E+03  0.00000000000E+00 0.  1.
          3    1    6    6  503    0  0.31108495509E+02  0.20052177570E+02 -0.13547751069E+02  0.39412813616E+02  0.00000000000E+00 0. -1.
         -3    1    6    6    0  503  0.17868304646E+03  0.25117030079E+03 -0.41613256637E+03  0.51786143310E+03  0.00000000000E+00 0.  1.
<mgrwt>
<rscale>  0 0.18754557E+04</rscale>
<asrwt>0</asrwt>
<pdfrwt beam="1">  1        1 0.36174180E+00 0.18754557E+04</pdfrwt>
<pdfrwt beam="2">  1       -1 0.57534482E-01 0.18754557E+04</pdfrwt>
<totfact> 0.49254702E+00</totfact>
</mgrwt>
</event>
<event>
12    2  0.3751044E-008  0.1734049E+04  0.7818608E-02  0.8742180E-01
          2   -1    0    0  501    0  0.00000000000E+00  0.00000000000E+00  0.83572758910E+03  0.83572758910E+03  0.00000000000E+00 0. -1.
         -2   -1    0    0    0  501 -0.00000000000E+00 -0.00000000000E+00 -0.89949335987E+03  0.89949335987E+03  0.00000000000E+00 0.  1.
         23    2    1    2    0    0  0.46743020872E+03  0.21810235609E+03  0.33835312957E+03  0.62215292586E+03  0.80819459980E+02 0.  0.
        254    2    1    2    0    0 -0.46743020872E+03 -0.21810235609E+03 -0.40211890033E+03  0.11130680231E+04  0.90064486692E+03 0.  0.
         23    2    4    4    0    0 -0.37034816349E+03  0.10598386574E+03 -0.59420841418E+03  0.71389420968E+03  0.90393368902E+02 0.  0.
         23    2    4    4    0    0 -0.97082045226E+02 -0.32408622183E+03  0.19208951384E+03  0.39917381343E+03  0.89356305371E+02 0.  0.
          3    1    3    3  502    0  0.37646133935E+03  0.13827271686E+03  0.26230745406E+03  0.47921569748E+03  0.00000000000E+00 0. -1.
         -3    1    3    3    0  502  0.90968869368E+02  0.79829639232E+02  0.76045675504E+02  0.14293722838E+03  0.00000000000E+00 0.  1.
         11    1    5    5    0    0 -0.36166938808E+03  0.10069921966E+03 -0.59517297866E+03  0.70368739767E+03  0.00000000000E+00 0. -1.
        -11    1    5    5    0    0 -0.86787754118E+01  0.52846460830E+01  0.96456447998E+00  0.10206812015E+02  0.00000000000E+00 0.  1.
          2    1    6    6  503    0 -0.53948977413E+02 -0.28891526350E+03  0.15481648112E+03  0.33219070498E+03  0.00000000000E+00 0. -1.
         -2    1    6    6    0  503 -0.43133067813E+02 -0.35170958333E+02  0.37273032727E+02  0.66983108450E+02  0.00000000000E+00 0.  1.
<mgrwt>
<rscale>  0 0.17340489E+04</rscale>
<asrwt>0</asrwt>
<pdfrwt beam="1">  1        2 0.12857348E+00 0.17340489E+04</pdfrwt>
<pdfrwt beam="2">  1       -2 0.13838359E+00 0.17340489E+04</pdfrwt>
<totfact> 0.11406839E+01</totfact>
</mgrwt>
</event>
<event>
12    2  0.3751044E-008  0.1258093E+04  0.7818608E-02  0.9063474E-01
         -1   -1    0    0    0  501 -0.00000000000E+00  0.00000000000E+00  0.57961224614E+03  0.57961224614E+03  0.00000000000E+00 0.  1.
          1   -1    0    0  501    0  0.00000000000E+00 -0.00000000000E+00 -0.68269683316E+03  0.68269683316E+03  0.00000000000E+00 0. -1.
         23    2    1    2    0    0 -0.16257355155E+03 -0.20527091967E+03 -0.15228424649E+03  0.31634587047E+03  0.91202565248E+02 0.  0.
        254    2    1    2    0    0  0.16257355155E+03  0.20527091967E+03  0.49199659473E+02  0.94596320883E+03  0.90766705120E+03 0.  0.
         23    2    4    4    0    0  0.14379187309E+03  0.25385750337E+03  0.44332848553E+03  0.53867081705E+03  0.92229974913E+02 0.  0.
         23    2    4    4    0    0  0.18781678455E+02 -0.48586583694E+02 -0.39412882606E+03  0.40729239178E+03  0.88522049831E+02 0.  0.
          2    1    3    3  502    0 -0.16681934107E+03 -0.15936445037E+03 -0.11987567585E+03  0.25999211191E+03  0.00000000000E+00 0. -1.
         -2    1    3    3    0  502  0.42457895202E+01 -0.45906469304E+02 -0.32408570644E+02  0.56353758559E+02  0.00000000000E+00 0.  1.
         11    1    5    5    0    0  0.12905985293E+03  0.20294889241E+03  0.41212291849E+03  0.47716873171E+03  0.00000000000E+00 0.  1.
        -11    1    5    5    0    0  0.14732020164E+02  0.50908610956E+02  0.31205567040E+02  0.61502085346E+02  0.00000000000E+00 0. -1.
          3    1    6    6  503    0  0.71875855139E+01 -0.47362836452E+02 -0.82162031997E+02  0.95107829142E+02  0.00000000000E+00 0. -1.
         -3    1    6    6    0  503  0.11594092941E+02 -0.12237472412E+01 -0.31196679406E+03  0.31218456263E+03  0.00000000000E+00 0.  1.
<mgrwt>
<rscale>  0 0.12580929E+04</rscale>
<asrwt>0</asrwt>
<pdfrwt beam="1">  1        1 0.10503028E+00 0.12580929E+04</pdfrwt>
<pdfrwt beam="2">  1       -1 0.89171115E-01 0.12580929E+04</pdfrwt>
<totfact> 0.34402578E+01</totfact>
</mgrwt>
</event>
<event>
12    2  0.3751044E-008  0.1302933E+04  0.7818608E-02  0.9027242E-01
         -2   -1    0    0    0  501 -0.00000000000E+00  0.00000000000E+00  0.17191919984E+03  0.17191919984E+03  0.00000000000E+00 0.  1.
          2   -1    0    0  501    0  0.00000000000E+00 -0.00000000000E+00 -0.24686524939E+04  0.24686524939E+04  0.00000000000E+00 0. -1.
         23    2    1    2    0    0 -0.16435715408E+03 -0.99201199769E+02 -0.48970981646E+02  0.21765851520E+03  0.90127243720E+02 0.  0.
        254    2    1    2    0    0  0.16435715408E+03  0.99201199769E+02 -0.22477623124E+04  0.24229131785E+04  0.88386577345E+03 0.  0.
         23    2    4    4    0    0  0.15692890530E+02  0.47655196434E+03 -0.11098049984E+04  0.12113006565E+04  0.90741967117E+02 0.  0.
         23    2    4    4    0    0  0.14866426355E+03 -0.37735076457E+03 -0.11379573140E+04  0.12116125220E+04  0.92538597793E+02 0.  0.
          2    1    3    3  502    0 -0.10582495057E+03 -0.73166484102E+02  0.12008300225E+02  0.12921475858E+03  0.00000000000E+00 0.  1.
         -2    1    3    3    0  502 -0.58532203509E+02 -0.26034715667E+02 -0.60979281872E+02  0.88443756620E+02  0.00000000000E+00 0. -1.
         11    1    5    5    0    0  0.53315986788E+02  0.31602427229E+03 -0.73221367444E+03  0.79928142738E+03  0.00000000000E+00 0. -1.
        -11    1    5    5    0    0 -0.37623096258E+02  0.16052769206E+03 -0.37759132393E+03  0.41201922916E+03  0.00000000000E+00 0.  1.
          2    1    6    6  503    0  0.14841799771E+03 -0.36669373852E+03 -0.11325682012E+04  0.11996678417E+04  0.00000000000E+00 0. -1.
         -2    1    6    6    0  503  0.24626584246E+00 -0.10657026050E+02 -0.53891128289E+01  0.11944680330E+02  0.00000000000E+00 0.  1.
<mgrwt>
<rscale>  0 0.13029332E+04</rscale>
<asrwt>0</asrwt>
<pdfrwt beam="1">  1        2 0.37979265E+00 0.13029332E+04</pdfrwt>
<pdfrwt beam="2">  1       -2 0.26449110E-01 0.13029332E+04</pdfrwt>
<totfact> 0.46250875E+01</totfact>
</mgrwt>
</event>
<event>
12    2  0.3751044E-008  0.1954284E+04  0.7818608E-02  0.8628298E-01
          1   -1    0    0  501    0  0.00000000000E+00  0.00000000000E+00  0.23492696194E+04  0.23492696194E+04  0.00000000000E+00 0. -1.
         -1   -1    0    0    0  501 -0.00000000000E+00 -0.00000000000E+00 -0.40642693690E+03  0.40642693690E+03  0.00000000000E+00 0.  1.
         23    2    1    2    0    0  0.14837960171E+03  0.64914508285E+03  0.23482742267E+03  0.71182563369E+03  0.90255025119E+02 0.  0.
        254    2    1    2    0    0 -0.14837960171E+03 -0.64914508285E+03  0.17080152598E+04  0.20438709226E+04  0.90370701871E+03 0.  0.
         23    2    4    4    0    0  0.26286586222E+03  0.53748168367E+02  0.61238082543E+03  0.67496358443E+03  0.92618776897E+02 0.  0.
         23    2    4    4    0    0 -0.41124546393E+03 -0.70289325121E+03  0.10956344344E+04  0.13689073382E+04  0.10154177692E+03 0.  0.
          3    1    3    3  502    0  0.29253197630E+01  0.33325596958E+02 -0.74349783367E+01  0.34269984114E+02  0.00000000000E+00 0. -1.
         -3    1    3    3    0  502  0.14545428195E+03  0.61581948589E+03  0.24226240100E+03  0.67755564958E+03  0.00000000000E+00 0.  1.
         11    1    5    5    0    0  0.11016150767E+02 -0.14340037305E+02  0.16527340699E+02  0.24497861911E+02  0.00000000000E+00 0. -1.
        -11    1    5    5    0    0  0.25184971145E+03  0.68088205673E+02  0.59585348473E+03  0.65046572252E+03  0.00000000000E+00 0.  1.
          2    1    6    6  503    0 -0.17954792364E+03 -0.25952738946E+03  0.49749230198E+03  0.58914388166E+03  0.00000000000E+00 0. -1.
         -2    1    6    6    0  503 -0.23169754029E+03 -0.44336586175E+03  0.59814213242E+03  0.77976345652E+03  0.00000000000E+00 0.  1.
<mgrwt>
<rscale>  0 0.19542840E+04</rscale>
<asrwt>0</asrwt>
<pdfrwt beam="1">  1        1 0.36142609E+00 0.19542840E+04</pdfrwt>
<pdfrwt beam="2">  1       -1 0.62527223E-01 0.19542840E+04</pdfrwt>
<totfact> 0.41611638E+00</totfact>
</mgrwt>
</event>
<event>
12    2  0.3751044E-008  0.1552599E+04  0.7818608E-02  0.8850209E-01
          1   -1    0    0  501    0  0.00000000000E+00  0.00000000000E+00  0.72935764016E+03  0.72935764016E+03  0.00000000000E+00 0. -1.
         -1   -1    0    0    0  501 -0.00000000000E+00 -0.00000000000E+00 -0.82626257149E+03  0.82626257149E+03  0.00000000000E+00 0.  1.
         23    2    1    2    0    0 -0.46081091389E+02  0.18294209165E+03 -0.51098910730E+03  0.55223365967E+03  0.90889334989E+02 0.  0.
        254    2    1    2    0    0  0.46081091389E+02 -0.18294209165E+03  0.41408417596E+03  0.10033865520E+04  0.89427489736E+03 0.  0.
         23    2    4    4    0    0  0.42111323578E+03 -0.26776719402E+03  0.16340214313E+03  0.53293592237E+03  0.91020928532E+02 0.  0.
         23    2    4    4    0    0 -0.37503214439E+03  0.84825102377E+02  0.25068203283E+03  0.47045062961E+03  0.10314022494E+03 0.  0.
          2    1    3    3  502    0  0.20203821403E+00 -0.95575345465E+01 -0.43685380911E+02  0.44719121093E+02  0.00000000000E+00 0. -1.
         -2    1    3    3    0  502 -0.46283129603E+02  0.19249962619E+03 -0.46730372638E+03  0.50751453857E+03  0.00000000000E+00 0.  1.
         11    1    5    5    0    0  0.12030378835E+03 -0.12348805407E+03  0.38106059847E+02  0.17656265966E+03  0.00000000000E+00 0. -1.
        -11    1    5    5    0    0  0.30080944743E+03 -0.14427913995E+03  0.12529608328E+03  0.35637326271E+03  0.00000000000E+00 0.  1.
          4    1    6    6  503    0 -0.14885780532E+03  0.75144331749E+02  0.70173777265E+02  0.18091344841E+03  0.00000000000E+00 0. -1.
         -4    1    6    6    0  503 -0.22617433907E+03  0.96807706277E+01  0.18050825557E+03  0.28953718120E+03  0.00000000000E+00 0.  1.
<mgrwt>
<rscale>  0 0.15525990E+04</rscale>
<asrwt>0</asrwt>
<pdfrwt beam="1">  1        1 0.11220887E+00 0.15525990E+04</pdfrwt>
<pdfrwt beam="2">  1       -1 0.12711732E+00 0.15525990E+04</pdfrwt>
<totfact> 0.13224903E+01</totfact>
</mgrwt>
</event>
<event>
12    2  0.3751044E-008  0.1418364E+04  0.7818608E-02  0.8940632E-01
         -1   -1    0    0    0  501 -0.00000000000E+00  0.00000000000E+00  0.79063145229E+03  0.79063145229E+03  0.00000000000E+00 0.  1.
          1   -1    0    0  501    0  0.00000000000E+00 -0.00000000000E+00 -0.63612363167E+03  0.63612363167E+03  0.00000000000E+00 0. -1.
         23    2    1    2    0    0 -0.75393425581E+02 -0.17797545520E+02  0.46010017227E+03  0.47493248124E+03  0.88700462025E+02 0.  0.
        254    2    1    2    0    0  0.75393425581E+02  0.17797545520E+02 -0.30559235165E+03  0.95182260272E+03  0.89809724440E+03 0.  0.
         23    2    4    4    0    0  0.24501655762E+03  0.29234604635E+02  0.25136494392E+03  0.36371886240E+03  0.90660356350E+02 0.  0.
         23    2    4    4    0    0 -0.16962313204E+03 -0.11437059114E+02 -0.55695729558E+03  0.58810374032E+03  0.82229964329E+02 0.  0.
          1    1    3    3  502    0  0.19433388563E+02 -0.89810503192E+01  0.61734317767E+02  0.65340966063E+02  0.00000000000E+00 0. -1.
         -1    1    3    3    0  502 -0.94826814145E+02 -0.88164952011E+01  0.39836585450E+03  0.40959151518E+03  0.00000000000E+00 0.  1.
         11    1    5    5    0    0  0.20697505649E+02  0.31762624288E+02  0.45698133348E+02  0.59376514155E+02  0.00000000000E+00 0.  1.
        -11    1    5    5    0    0  0.22431905197E+03 -0.25280196538E+01  0.20566681058E+03  0.30434234824E+03  0.00000000000E+00 0. -1.
          3    1    6    6  503    0 -0.75882043145E+02  0.34943430096E+02 -0.22203389803E+03  0.23723022500E+03  0.00000000000E+00 0. -1.
         -3    1    6    6    0  503 -0.93741088896E+02 -0.46380489211E+02 -0.33492339755E+03  0.35087351532E+03  0.00000000000E+00 0.  1.
<mgrwt>
<rscale>  0 0.14183643E+04</rscale>
<asrwt>0</asrwt>
<pdfrwt beam="1">  1        1 0.97865174E-01 0.14183643E+04</pdfrwt>
<pdfrwt beam="2">  1       -1 0.12163561E+00 0.14183643E+04</pdfrwt>
<totfact> 0.18339200E+01</totfact>
</mgrwt>
</event>
<event>
12    2  0.3751044E-008  0.1848195E+04  0.7818608E-02  0.8681081E-01
         -2   -1    0    0    0  501 -0.00000000000E+00  0.00000000000E+00  0.64237487886E+03  0.64237487886E+03  0.00000000000E+00 0.  1.
          2   -1    0    0  501    0  0.00000000000E+00 -0.00000000000E+00 -0.13293741537E+04  0.13293741537E+04  0.00000000000E+00 0. -1.
         23    2    1    2    0    0  0.23902683808E+03  0.10962017822E+03  0.43337655114E+03  0.51463672505E+03  0.88799273045E+02 0.  0.
        254    2    1    2    0    0 -0.23902683808E+03 -0.10962017822E+03 -0.11203758260E+04  0.14571123075E+04  0.89374709647E+03 0.  0.
         23    2    4    4    0    0  0.13132166590E+03 -0.30200202851E+02 -0.10475729840E+04  0.10602323180E+04  0.92336228439E+02 0.  0.
         23    2    4    4    0    0 -0.37034850398E+03 -0.79419975372E+02 -0.72802841962E+02  0.39687998951E+03  0.93530344746E+02 0.  0.
          1    1    3    3  502    0  0.64478007211E+01  0.11610226530E+02  0.75838668332E+02  0.76992695164E+02  0.00000000000E+00 0. -1.
         -1    1    3    3    0  502  0.23257903736E+03  0.98009951693E+02  0.35753788281E+03  0.43764402988E+03  0.00000000000E+00 0.  1.
         11    1    5    5    0    0  0.21524381440E+02 -0.33110549863E+02 -0.12364568512E+03  0.12979931802E+03  0.00000000000E+00 0. -1.
        -11    1    5    5    0    0  0.10979728446E+03  0.29103470119E+01 -0.92392729890E+03  0.93043299998E+03  0.00000000000E+00 0.  1.
          4    1    6    6  503    0 -0.19899416622E+03 -0.85899438069E+02 -0.21043671313E+02  0.21776186019E+03  0.00000000000E+00 0.  1.
         -4    1    6    6    0  503 -0.17135433776E+03  0.64794626966E+01 -0.51759170648E+02  0.17911812933E+03  0.00000000000E+00 0. -1.
<mgrwt>
<rscale>  0 0.18481954E+04</rscale>
<asrwt>0</asrwt>
<pdfrwt beam="1">  1        2 0.20451910E+00 0.18481954E+04</pdfrwt>
<pdfrwt beam="2">  1       -2 0.98826906E-01 0.18481954E+04</pdfrwt>
<totfact> 0.12697418E+01</totfact>
</mgrwt>
</event>
<event>
12    2  0.3751044E-008  0.2006426E+04  0.7818608E-02  0.8603622E-01
          2   -1    0    0  501    0  0.00000000000E+00  0.00000000000E+00  0.96419280116E+03  0.96419280116E+03  0.00000000000E+00 0. -1.
         -2   -1    0    0    0  501 -0.00000000000E+00 -0.00000000000E+00 -0.10438119770E+04  0.10438119770E+04  0.00000000000E+00 0.  1.
         23    2    1    2    0    0 -0.59081942528E+03 -0.23933736619E+03  0.43697731257E+03  0.77827662769E+03  0.91735322322E+02 0.  0.
        254    2    1    2    0    0  0.59081942528E+03  0.23933736619E+03 -0.51659648843E+03  0.12297281505E+04  0.91597457614E+03 0.  0.
         23    2    4    4    0    0  0.65264297108E+03  0.36143823353E+03 -0.66765926684E+03  0.10063630376E+04  0.10206479525E+03 0.  0.
         23    2    4    4    0    0 -0.61823545804E+02 -0.12210086734E+03  0.15106277841E+03  0.22336511293E+03  0.91330378471E+02 0.  0.
          1    1    3    3  502    0 -0.38697790473E+03 -0.20135376535E+03  0.28257750155E+03  0.51975502110E+03  0.00000000000E+00 0. -1.
         -1    1    3    3    0  502 -0.20384152055E+03 -0.37983600836E+02  0.15439981101E+03  0.25852160659E+03  0.00000000000E+00 0.  1.
         11    1    5    5    0    0  0.40038437773E+02  0.16840150837E+01 -0.18993560300E+02  0.44347127742E+02  0.00000000000E+00 0. -1.
        -11    1    5    5    0    0  0.61260453331E+03  0.35975421844E+03 -0.64866570654E+03  0.96201590983E+03  0.00000000000E+00 0.  1.
          3    1    6    6  503    0  0.49302872277E+01  0.65152549254E+01 -0.56425979865E+01  0.99295111122E+01  0.00000000000E+00 0. -1.
         -3    1    6    6    0  503 -0.66753833031E+02 -0.12861612227E+03  0.15670537640E+03  0.21343560182E+03  0.00000000000E+00 0.  1.
<mgrwt>
<rscale>  0 0.20064257E+04</rscale>
<asrwt>0</asrwt>
<pdfrwt beam="1">  1        2 0.14833735E+00 0.20064257E+04</pdfrwt>
<pdfrwt beam="2">  1       -2 0.16058646E+00 0.20064257E+04</pdfrwt>
<totfact> 0.61525402E+00</totfact>
</mgrwt>
</event>
<event>
12    2  0.3751044E-008  0.4261649E+04  0.7818608E-02  0.7953748E-01
         -2   -1    0    0    0  501 -0.00000000000E+00  0.00000000000E+00  0.22618439245E+04  0.22618439245E+04  0.00000000000E+00 0.  1.
          2   -1    0    0  501    0  0.00000000000E+00 -0.00000000000E+00 -0.20073949278E+04  0.20073949278E+04  0.00000000000E+00 0. -1.
         23    2    1    2    0    0 -0.59885818621E+03  0.13685844993E+04  0.15106095512E+04  0.21264795507E+04  0.91210769551E+02 0.  0.
        254    2    1    2    0    0  0.59885818621E+03 -0.13685844993E+04 -0.12561605545E+04  0.21427593017E+04  0.88420779654E+03 0.  0.
         23    2    4    4    0    0  0.61845432242E+03 -0.35599786974E+03 -0.53247674003E+03  0.89442538259E+03  0.85117883977E+02 0.  0.
         23    2    4    4    0    0 -0.19596136218E+02 -0.10125866295E+04 -0.72368381445E+03  0.12483339191E+04  0.94358991984E+02 0.  0.
          3    1    3    3  502    0 -0.61138098360E+02  0.17633710578E+03  0.15276427461E+03  0.24118367594E+03  0.00000000000E+00 0. -1.
         -3    1    3    3    0  502 -0.53772008784E+03  0.11922473935E+04  0.13578452766E+04  0.18852958747E+04  0.00000000000E+00 0.  1.
         11    1    5    5    0    0  0.16442390262E+03 -0.11269117651E+03 -0.10653488610E+03  0.22601814744E+03  0.00000000000E+00 0.  1.
        -11    1    5    5    0    0  0.45403041980E+03 -0.24330669323E+03 -0.42594185392E+03  0.66840723515E+03  0.00000000000E+00 0. -1.
          3    1    6    6  503    0 -0.53202754888E+02 -0.78093155028E+03 -0.57055525097E+03  0.96861649467E+03  0.00000000000E+00 0. -1.
         -3    1    6    6    0  503  0.33606618669E+02 -0.23165507927E+03 -0.15312856349E+03  0.27971742442E+03  0.00000000000E+00 0.  1.
<mgrwt>
<rscale>  0 0.42616495E+04</rscale>
<asrwt>0</asrwt>
<pdfrwt beam="1">  1        2 0.30882999E+00 0.42616495E+04</pdfrwt>
<pdfrwt beam="2">  1       -2 0.34797599E+00 0.42616495E+04</pdfrwt>
<totfact> 0.81894842E-02</totfact>
</mgrwt>
</event>
<event>
12    2  0.3751044E-008  0.2924779E+04  0.7818608E-02  0.8265543E-01
         -2   -1    0    0    0  501 -0.00000000000E+00  0.00000000000E+00  0.92361688688E+03  0.92361688688E+03  0.00000000000E+00 0.  1.
          2   -1    0    0  501    0  0.00000000000E+00 -0.00000000000E+00 -0.23154431963E+04  0.23154431963E+04  0.00000000000E+00 0. -1.
         23    2    1    2    0    0 -0.89284993842E+03  0.77090573673E+03 -0.11965733196E+04  0.16823854552E+04  0.84595765136E+02 0.  0.
        254    2    1    2    0    0  0.89284993842E+03 -0.77090573673E+03 -0.19525298987E+03  0.15566746279E+04  0.99681267035E+03 0.  0.
         23    2    4    4    0    0  0.93036123565E+03 -0.72944124771E+03  0.15026198010E+03  0.11951897127E+04  0.90792202106E+02 0.  0.
         23    2    4    4    0    0 -0.37511297228E+02 -0.41464489014E+02 -0.34551496997E+03  0.36148491526E+03  0.90356782939E+02 0.  0.
          2    1    3    3  502    0 -0.28549982260E+03  0.23757177414E+03 -0.43291107093E+03  0.57040555038E+03  0.00000000000E+00 0. -1.
         -2    1    3    3    0  502 -0.60735011582E+03  0.53333396258E+03 -0.76366224863E+03  0.11119799049E+04  0.00000000000E+00 0.  1.
         11    1    5    5    0    0  0.84944212603E+03 -0.66619078674E+03  0.16278192090E+03  0.10917234282E+04  0.00000000000E+00 0.  1.
        -11    1    5    5    0    0  0.80919109617E+02 -0.63250460975E+02 -0.12519940806E+02  0.10346628452E+03  0.00000000000E+00 0. -1.
          1    1    6    6  503    0 -0.17909339229E+02 -0.20923836735E+02 -0.18360635347E+02  0.33100820317E+02  0.00000000000E+00 0. -1.
         -1    1    6    6    0  503 -0.19601957999E+02 -0.20540652279E+02 -0.32715433462E+03  0.32838409495E+03  0.00000000000E+00 0.  1.
<mgrwt>
<rscale>  0 0.29247786E+04</rscale>
<asrwt>0</asrwt>
<pdfrwt beam="1">  1        2 0.35622203E+00 0.29247786E+04</pdfrwt>
<pdfrwt beam="2">  1       -2 0.14209491E+00 0.29247786E+04</pdfrwt>
<totfact> 0.13220917E+00</totfact>
</mgrwt>
</event>
<event>
12    2  0.3751044E-008  0.1155432E+04  0.7818608E-02  0.9152787E-01
         -2   -1    0    0    0  501 -0.00000000000E+00  0.00000000000E+00  0.30696107645E+03  0.30696107645E+03  0.00000000000E+00 0.  1.
          2   -1    0    0  501    0  0.00000000000E+00 -0.00000000000E+00 -0.10872894706E+04  0.10872894706E+04  0.00000000000E+00 0. -1.
         23    2    1    2    0    0  0.72573018387E+02 -0.15814155574E+03 -0.27411471397E+03  0.33868987176E+03  0.96417623716E+02 0.  0.
        254    2    1    2    0    0 -0.72573018387E+02  0.15814155574E+03 -0.50621368017E+03  0.10555606753E+04  0.90976945133E+03 0.  0.
         23    2    4    4    0    0  0.18389086306E+03  0.28997246190E+03 -0.63445412484E+03  0.72716784603E+03  0.91329960029E+02 0.  0.
         23    2    4    4    0    0 -0.25646388145E+03 -0.13183090616E+03  0.12824044467E+03  0.32839282926E+03  0.90791675569E+02 0.  0.
          3    1    3    3  502    0  0.71796979843E+02 -0.68620687610E+02 -0.19663795666E+03  0.22029546314E+03  0.00000000000E+00 0. -1.
         -3    1    3    3    0  502  0.77603854383E+00 -0.89520868129E+02 -0.77476757315E+02  0.11839440861E+03  0.00000000000E+00 0.  1.
         11    1    5    5    0    0  0.14839031335E+03  0.27300864775E+03 -0.51585291003E+03  0.60221062066E+03  0.00000000000E+00 0. -1.
        -11    1    5    5    0    0  0.35500549708E+02  0.16963814156E+02 -0.11860121481E+03  0.12495722538E+03  0.00000000000E+00 0.  1.
          1    1    6    6  503    0 -0.11956344879E+03 -0.11988262276E+02  0.57017463614E+02  0.13300424007E+03  0.00000000000E+00 0. -1.
         -1    1    6    6    0  503 -0.13690043266E+03 -0.11984264389E+03  0.71222981057E+02  0.19538858919E+03  0.00000000000E+00 0.  1.
<mgrwt>
<rscale>  0 0.11554316E+04</rscale>
<asrwt>0</asrwt>
<pdfrwt beam="1">  1        2 0.16727531E+00 0.11554316E+04</pdfrwt>
<pdfrwt beam="2">  1       -2 0.47224780E-01 0.11554316E+04</pdfrwt>
<totfact> 0.93261829E+01</totfact>
</mgrwt>
</event>
<event>
12    2  0.3751044E-008  0.1278016E+04  0.7818608E-02  0.9047183E-01
         -2   -1    0    0    0  501 -0.00000000000E+00  0.00000000000E+00  0.35357878238E+03  0.35357878238E+03  0.00000000000E+00 0. -1.
          2   -1    0    0  501    0  0.00000000000E+00 -0.00000000000E+00 -0.11548513559E+04  0.11548513559E+04  0.00000000000E+00 0.  1.
         23    2    1    2    0    0  0.23034541690E+03 -0.47544607558E+02 -0.44772254881E+03  0.51363230081E+03  0.89683660353E+02 0.  0.
        254    2    1    2    0    0 -0.23034541690E+03  0.47544607558E+02 -0.35355002466E+03  0.99479783742E+03  0.89961414873E+03 0.  0.
         23    2    4    4    0    0 -0.47732552978E+02  0.43728497270E+03 -0.32354272809E+02  0.45025150689E+03  0.90460358865E+02 0.  0.
         23    2    4    4    0    0 -0.18261286392E+03 -0.38974036514E+03 -0.32119575185E+03  0.54454633053E+03  0.90105409383E+02 0.  0.
          4    1    3    3  502    0  0.42655670277E+02 -0.25161225484E+02 -0.38040461299E+02  0.62447339179E+02  0.00000000000E+00 0. -1.
         -4    1    3    3    0  502  0.18768974662E+03 -0.22383382074E+02 -0.40968208751E+03  0.45118496164E+03  0.00000000000E+00 0.  1.
         11    1    5    5    0    0  0.24801018562E+02  0.62290517908E+02 -0.81604560100E+01  0.67541040748E+02  0.00000000000E+00 0. -1.
        -11    1    5    5    0    0 -0.72533571540E+02  0.37499445479E+03 -0.24193816799E+02  0.38271046614E+03  0.00000000000E+00 0.  1.
          4    1    6    6  503    0 -0.34352855063E+02 -0.94073488250E+02 -0.12427988782E+03  0.15961024516E+03  0.00000000000E+00 0. -1.
         -4    1    6    6    0  503 -0.14826000885E+03 -0.29566687689E+03 -0.19691586403E+03  0.38493608537E+03  0.00000000000E+00 0.  1.
<mgrwt>
<rscale>  0 0.12780155E+04</rscale>
<asrwt>0</asrwt>
<pdfrwt beam="1">  1        2 0.17766944E+00 0.12780155E+04</pdfrwt>
<pdfrwt beam="2">  1       -2 0.54396736E-01 0.12780155E+04</pdfrwt>
<totfact> 0.62963087E+01</totfact>
</mgrwt>
</event>
<event>
12    2  0.3751044E-008  0.2145499E+04  0.7818608E-02  0.8541461E-01
          2   -1    0    0  501    0  0.00000000000E+00  0.00000000000E+00  0.11671532290E+04  0.11671532290E+04  0.00000000000E+00 0. -1.
         -2   -1    0    0    0  501 -0.00000000000E+00 -0.00000000000E+00 -0.98598174089E+03  0.98598174089E+03  0.00000000000E+00 0.  1.
         23    2    1    2    0    0  0.60130198068E+03 -0.40337427138E+03  0.55398916855E+03  0.91629359239E+03  0.91733711381E+02 0.  0.
        254    2    1    2    0    0 -0.60130198068E+03  0.40337427138E+03 -0.37281768040E+03  0.12368413775E+04  0.93086448832E+03 0.  0.
         23    2    4    4    0    0  0.97015969450E+02  0.29939642026E+03  0.14334592945E+03  0.35767872265E+03  0.91300045765E+02 0.  0.
         23    2    4    4    0    0 -0.69831795013E+03  0.10397785113E+03 -0.51616360984E+03  0.87916265490E+03  0.89681372926E+02 0.  0.
          3    1    3    3  502    0  0.38035800106E+03 -0.23629869063E+03  0.39377367424E+03  0.59629437922E+03  0.00000000000E+00 0. -1.
         -3    1    3    3    0  502  0.22094397961E+03 -0.16707558075E+03  0.16021549431E+03  0.31999921317E+03  0.00000000000E+00 0.  1.
         11    1    5    5    0    0  0.87256490220E+02  0.14269419246E+03  0.99701609536E+02  0.19471964100E+03  0.00000000000E+00 0. -1.
        -11    1    5    5    0    0  0.97594792298E+01  0.15670222780E+03  0.43644319911E+02  0.16295908165E+03  0.00000000000E+00 0.  1.
          1    1    6    6  503    0 -0.50422210907E+03  0.10071393929E+03 -0.33535023833E+03  0.61387540689E+03  0.00000000000E+00 0. -1.
         -1    1    6    6    0  503 -0.19409584106E+03  0.32639118312E+01 -0.18081337151E+03  0.26528724801E+03  0.00000000000E+00 0.  1.
<mgrwt>
<rscale>  0 0.21454993E+04</rscale>
<asrwt>0</asrwt>
<pdfrwt beam="1">  1        2 0.17956203E+00 0.21454993E+04</pdfrwt>
<pdfrwt beam="2">  1       -2 0.15168950E+00 0.21454993E+04</pdfrwt>
<totfact> 0.52932021E+00</totfact>
</mgrwt>
</event>
<event>
12    2  0.3751044E-008  0.1586095E+04  0.7818608E-02  0.8829136E-01
         -2   -1    0    0    0  501 -0.00000000000E+00  0.00000000000E+00  0.91692002696E+03  0.91692002696E+03  0.00000000000E+00 0.  1.
          2   -1    0    0  501    0  0.00000000000E+00 -0.00000000000E+00 -0.68590957025E+03  0.68590957025E+03  0.00000000000E+00 0. -1.
         23    2    1    2    0    0 -0.26590618569E+03 -0.42074510008E+03  0.49122875739E+02  0.50854881690E+03  0.92066842130E+02 0.  0.
        254    2    1    2    0    0  0.26590618569E+03  0.42074510008E+03  0.18188758098E+03  0.10942807803E+04  0.95741046329E+03 0.  0.
         23    2    4    4    0    0 -0.38905032074E+02  0.66847735251E+03  0.10967013080E+03  0.68474060979E+03  0.92014090080E+02 0.  0.
         23    2    4    4    0    0  0.30481121777E+03 -0.24773225243E+03  0.72217450173E+02  0.40954017052E+03  0.90700847803E+02 0.  0.
          2    1    3    3  502    0  0.57029041196E+01 -0.70128252517E+01 -0.55677211703E+01  0.10616136418E+02  0.00000000000E+00 0.  1.
         -2    1    3    3    0  502 -0.27160908981E+03 -0.41373227482E+03  0.54690596910E+02  0.49793268048E+03  0.00000000000E+00 0. -1.
         11    1    5    5    0    0 -0.37521316416E+01  0.32779692695E+03  0.97103055731E+01  0.32796218355E+03  0.00000000000E+00 0.  1.
        -11    1    5    5    0    0 -0.35152900432E+02  0.34068042556E+03  0.99959825231E+02  0.35677842624E+03  0.00000000000E+00 0. -1.
          1    1    6    6  503    0  0.28290932359E+03 -0.25028541943E+03  0.55320135896E+02  0.38176012625E+03  0.00000000000E+00 0. -1.
         -1    1    6    6    0  503  0.21901894176E+02  0.25531670045E+01  0.16897314277E+02  0.27780044277E+02  0.00000000000E+00 0.  1.
<mgrwt>
<rscale>  0 0.15860949E+04</rscale>
<asrwt>0</asrwt>
<pdfrwt beam="1">  1        2 0.10552455E+00 0.15860949E+04</pdfrwt>
<pdfrwt beam="2">  1       -2 0.14106462E+00 0.15860949E+04</pdfrwt>
<totfact> 0.14204526E+01</totfact>
</mgrwt>
</event>
<event>
12    2  0.3751044E-008  0.1303347E+04  0.7818608E-02  0.9026915E-01
         -1   -1    0    0    0  501 -0.00000000000E+00  0.00000000000E+00  0.65115140422E+03  0.65115140422E+03  0.00000000000E+00 0.  1.
          1   -1    0    0  501    0  0.00000000000E+00 -0.00000000000E+00 -0.65219640505E+03  0.65219640505E+03  0.00000000000E+00 0. -1.
         23    2    1    2    0    0 -0.26176107902E+03 -0.84663371976E+02 -0.83511086996E+02  0.30316487661E+03  0.96166999073E+02 0.  0.
        254    2    1    2    0    0  0.26176107902E+03  0.84663371976E+02  0.82466086166E+02  0.10001829327E+04  0.95805975513E+03 0.  0.
         23    2    4    4    0    0  0.47627337754E+03  0.58372015905E+02 -0.28400016771E+03  0.56477347787E+03  0.89829636826E+02 0.  0.
         23    2    4    4    0    0 -0.21451229851E+03  0.26291356072E+02  0.36646625387E+03  0.43540945480E+03  0.92612723132E+02 0.  0.
          1    1    3    3  502    0 -0.25789246689E+03 -0.59485717159E+02 -0.67706751887E+02  0.27318726045E+03  0.00000000000E+00 0. -1.
         -1    1    3    3    0  502 -0.38686121366E+01 -0.25177654818E+02 -0.15804335109E+02  0.29977616153E+02  0.00000000000E+00 0.  1.
         11    1    5    5    0    0  0.44243931105E+02  0.33375442763E+02 -0.31982355754E+02  0.63986847858E+02  0.00000000000E+00 0. -1.
        -11    1    5    5    0    0  0.43202944643E+03  0.24996573141E+02 -0.25201781196E+03  0.50078663001E+03  0.00000000000E+00 0.  1.
          1    1    6    6  503    0 -0.12819425622E+02 -0.18214314068E+02  0.74591733004E+02  0.77846165884E+02  0.00000000000E+00 0. -1.
         -1    1    6    6    0  503 -0.20169287289E+03  0.44505670140E+02  0.29187452087E+03  0.35756328892E+03  0.00000000000E+00 0.  1.
<mgrwt>
<rscale>  0 0.13033474E+04</rscale>
<asrwt>0</asrwt>
<pdfrwt beam="1">  1        1 0.10033791E+00 0.13033474E+04</pdfrwt>
<pdfrwt beam="2">  1       -1 0.10017714E+00 0.13033474E+04</pdfrwt>
<totfact> 0.28271335E+01</totfact>
</mgrwt>
</event>
<event>
12    2  0.3751044E-008  0.2351577E+04  0.7818608E-02  0.8457858E-01
         -1   -1    0    0    0  501 -0.00000000000E+00  0.00000000000E+00  0.67011178528E+03  0.67011178528E+03  0.00000000000E+00 0. -1.
          1   -1    0    0  501    0  0.00000000000E+00 -0.00000000000E+00 -0.20630573099E+04  0.20630573099E+04  0.00000000000E+00 0.  1.
         23    2    1    2    0    0 -0.71989412474E+03  0.69877596871E+03 -0.63145636318E+03  0.11884598020E+04  0.84641344512E+02 0.  0.
        254    2    1    2    0    0  0.71989412474E+03 -0.69877596871E+03 -0.76148916146E+03  0.15447092931E+04  0.89427381267E+03 0.  0.
         23    2    4    4    0    0  0.92148572553E+03 -0.57680973399E+03 -0.63282985287E+03  0.12614745352E+04  0.94862893851E+02 0.  0.
         23    2    4    4    0    0 -0.20159160079E+03 -0.12196623472E+03 -0.12865930858E+03  0.28323475797E+03  0.90298253109E+02 0.  0.
          3    1    3    3  502    0 -0.26446371868E+03  0.20928361920E+03 -0.18721593973E+03  0.38573371625E+03  0.00000000000E+00 0. -1.
         -3    1    3    3    0  502 -0.45543040607E+03  0.48949234951E+03 -0.44424042344E+03  0.80272608580E+03  0.00000000000E+00 0.  1.
         11    1    5    5    0    0  0.41325417172E+02 -0.27185164970E+02 -0.77389518356E+01  0.50067101717E+02  0.00000000000E+00 0.  1.
        -11    1    5    5    0    0  0.88016030836E+03 -0.54962456902E+03 -0.62509090104E+03  0.12114074335E+04  0.00000000000E+00 0. -1.
          1    1    6    6  503    0 -0.13840197741E+03 -0.74119830177E+02 -0.35579359653E+02  0.16098058085E+03  0.00000000000E+00 0. -1.
         -1    1    6    6    0  503 -0.63189623381E+02 -0.47846404542E+02 -0.93079948929E+02  0.12225417712E+03  0.00000000000E+00 0.  1.
<mgrwt>
<rscale>  0 0.23515774E+04</rscale>
<asrwt>0</asrwt>
<pdfrwt beam="1">  1        1 0.31739342E+00 0.23515774E+04</pdfrwt>
<pdfrwt beam="2">  1       -1 0.10309412E+00 0.23515774E+04</pdfrwt>
<totfact> 0.21582354E+00</totfact>
</mgrwt>
</event>
<event>
12    2  0.3751044E-008  0.1117743E+04  0.7818608E-02  0.9188069E-01
          1   -1    0    0  501    0  0.00000000000E+00  0.00000000000E+00  0.20606894686E+04  0.20606894686E+04  0.00000000000E+00 0. -1.
         -1   -1    0    0    0  501 -0.00000000000E+00 -0.00000000000E+00 -0.15156943327E+03  0.15156943327E+03  0.00000000000E+00 0.  1.
         23    2    1    2    0    0 -0.53425959784E+02  0.56776467440E+02  0.57113646538E+03  0.58385506202E+03  0.92800705381E+02 0.  0.
        254    2    1    2    0    0  0.53425959784E+02 -0.56776467440E+02  0.13379835700E+04  0.16284038399E+04  0.92488979440E+03 0.  0.
         23    2    4    4    0    0  0.23728887271E+02  0.41155458388E+03  0.42989036895E+03  0.60241040457E+03  0.90290257568E+02 0.  0.
         23    2    4    4    0    0  0.29697072513E+02 -0.46833105132E+03  0.90809320102E+03  0.10259934353E+04  0.88393313154E+02 0.  0.
          4    1    3    3  502    0 -0.49622926373E+02 -0.24963917441E+01  0.39182534615E+03  0.39496299660E+03  0.00000000000E+00 0. -1.
         -4    1    3    3    0  502 -0.38030334115E+01  0.59272859184E+02  0.17931111923E+03  0.18889206542E+03  0.00000000000E+00 0.  1.
         11    1    5    5    0    0 -0.11605082159E+02  0.26083729259E+03  0.31772660795E+03  0.41124319877E+03  0.00000000000E+00 0.  1.
        -11    1    5    5    0    0  0.35333969430E+02  0.15071729129E+03  0.11216376100E+03  0.19116720580E+03  0.00000000000E+00 0. -1.
          3    1    6    6  503    0 -0.13213334881E+01 -0.25494072815E+03  0.57777101275E+03  0.63151869645E+03  0.00000000000E+00 0. -1.
         -3    1    6    6    0  503  0.31018406001E+02 -0.21339032317E+03  0.33032218826E+03  0.39447473885E+03  0.00000000000E+00 0.  1.
<mgrwt>
<rscale>  0 0.11177433E+04</rscale>
<asrwt>0</asrwt>
<pdfrwt beam="1">  1        1 0.31702913E+00 0.11177433E+04</pdfrwt>
<pdfrwt beam="2">  1       -1 0.23318376E-01 0.11177433E+04</pdfrwt>
<totfact> 0.42705057E+01</totfact>
</mgrwt>
</event>
<event>
12    2  0.3751044E-008  0.1687799E+04  0.7818608E-02  0.8768354E-01
          2   -1    0    0  501    0  0.00000000000E+00  0.00000000000E+00  0.87386955090E+03  0.87386955090E+03  0.00000000000E+00 0. -1.
         -2   -1    0    0    0  501 -0.00000000000E+00 -0.00000000000E+00 -0.81495767909E+03  0.81495767909E+03  0.00000000000E+00 0.  1.
         23    2    1    2    0    0  0.16646809526E+03  0.48131718085E+03  0.34492880194E+03  0.62281030652E+03  0.97667518513E+02 0.  0.
        254    2    1    2    0    0 -0.16646809526E+03 -0.48131718085E+03 -0.28601693013E+03  0.10660169235E+04  0.89174466160E+03 0.  0.
         23    2    4    4    0    0  0.32891563364E+03 -0.31311731274E+03 -0.26750771792E+03  0.53483261319E+03  0.90871334248E+02 0.  0.
         23    2    4    4    0    0 -0.49538372890E+03 -0.16819986811E+03 -0.18509212213E+02  0.53118431029E+03  0.90099645262E+02 0.  0.
          1    1    3    3  502    0  0.16838583766E+03  0.47798027259E+03  0.35040351509E+03  0.61611813372E+03  0.00000000000E+00 0. -1.
         -1    1    3    3    0  502 -0.19177424039E+01  0.33369082653E+01 -0.54747131500E+01  0.66921727992E+01  0.00000000000E+00 0.  1.
         11    1    5    5    0    0  0.85615369203E+01 -0.43267745678E+02 -0.29649279786E+02  0.53145813780E+02  0.00000000000E+00 0.  1.
        -11    1    5    5    0    0  0.32035409672E+03 -0.26984956707E+03 -0.23785843813E+03  0.48168679941E+03  0.00000000000E+00 0. -1.
          4    1    6    6  503    0 -0.44479191146E+03 -0.16871427605E+03 -0.37390052775E+02  0.47718169233E+03  0.00000000000E+00 0. -1.
         -4    1    6    6    0  503 -0.50591817436E+02  0.51440794023E+00  0.18880840562E+02  0.54002617967E+02  0.00000000000E+00 0.  1.
<mgrwt>
<rscale>  0 0.16877994E+04</rscale>
<asrwt>0</asrwt>
<pdfrwt beam="1">  1        2 0.13444147E+00 0.16877994E+04</pdfrwt>
<pdfrwt beam="2">  1       -2 0.12537810E+00 0.16877994E+04</pdfrwt>
<totfact> 0.13846034E+01</totfact>
</mgrwt>
</event>
<event>
12    2  0.3751044E-008  0.1940627E+04  0.7818608E-02  0.8634894E-01
          3   -1    0    0  501    0  0.00000000000E+00  0.00000000000E+00  0.14780486650E+04  0.14780486650E+04  0.00000000000E+00 0. -1.
         -3   -1    0    0    0  501 -0.00000000000E+00 -0.00000000000E+00 -0.63699424364E+03  0.63699424364E+03  0.00000000000E+00 0.  1.
         23    2    1    2    0    0 -0.37621117351E+03 -0.42205496384E+03  0.83846526055E+03  0.10153630381E+04  0.90955299502E+02 0.  0.
        254    2    1    2    0    0  0.37621117351E+03  0.42205496384E+03  0.25891607764E+01  0.10996798705E+04  0.94319874585E+03 0.  0.
         23    2    4    4    0    0  0.22305450374E+02  0.65718723306E+03  0.25169612127E+02  0.66420903543E+03  0.90263729998E+02 0.  0.
         23    2    4    4    0    0  0.35390572314E+03 -0.23513226923E+03 -0.22580451350E+02  0.43547083503E+03  0.92674303236E+02 0.  0.
          3    1    3    3  502    0 -0.22275521869E+03 -0.21709403865E+03  0.38879695670E+03  0.49790840785E+03  0.00000000000E+00 0. -1.
         -3    1    3    3    0  502 -0.15345595482E+03 -0.20496092519E+03  0.44966830385E+03  0.51745463029E+03  0.00000000000E+00 0.  1.
         11    1    5    5    0    0  0.56731525473E+02  0.35081958740E+03  0.17899551038E+02  0.35582754645E+03  0.00000000000E+00 0.  1.
        -11    1    5    5    0    0 -0.34426075099E+02  0.30636764567E+03  0.72700610888E+01  0.30838148898E+03  0.00000000000E+00 0. -1.
          2    1    6    6  503    0  0.29058887131E+03 -0.15126074685E+03  0.17439706625E+01  0.32760455904E+03  0.00000000000E+00 0. -1.
         -2    1    6    6    0  503  0.63316851823E+02 -0.83871522378E+02 -0.24324422013E+02  0.10786627599E+03  0.00000000000E+00 0.  1.
<mgrwt>
<rscale>  0 0.19406272E+04</rscale>
<asrwt>0</asrwt>
<pdfrwt beam="1">  1        3 0.22739210E+00 0.19406272E+04</pdfrwt>
<pdfrwt beam="2">  1       -3 0.97999115E-01 0.19406272E+04</pdfrwt>
<totfact> 0.22393276E-01</totfact>
</mgrwt>
</event>
<event>
12    2  0.3751044E-008  0.2072135E+04  0.7818608E-02  0.8573618E-01
         -2   -1    0    0    0  501 -0.00000000000E+00  0.00000000000E+00  0.51336136624E+03  0.51336136624E+03  0.00000000000E+00 0.  1.
          2   -1    0    0  501    0  0.00000000000E+00 -0.00000000000E+00 -0.20909945012E+04  0.20909945012E+04  0.00000000000E+00 0. -1.
         23    2    1    2    0    0 -0.13132939816E+03  0.55727155731E+03 -0.15807860469E+04  0.16836552697E+04  0.89507214702E+02 0.  0.
        254    2    1    2    0    0  0.13132939816E+03 -0.55727155731E+03  0.31529119294E+01  0.92070059781E+03  0.72102749639E+03 0.  0.
         23    2    4    4    0    0  0.35997351209E+03 -0.22176426322E+03 -0.17797712112E+03  0.46714759691E+03  0.88264963614E+02 0.  0.
         23    2    4    4    0    0 -0.22864411394E+03 -0.33550729409E+03  0.18113003305E+03  0.45355300091E+03  0.89771713438E+02 0.  0.
          4    1    3    3  502    0 -0.58773586807E+02  0.39205229776E+03 -0.10096050146E+04  0.10846481568E+04  0.00000000000E+00 0. -1.
         -4    1    3    3    0  502 -0.72555811350E+02  0.16521925955E+03 -0.57118103235E+03  0.59900711281E+03  0.00000000000E+00 0.  1.
         11    1    5    5    0    0  0.22512795251E+03 -0.13196895492E+03 -0.15500044513E+03  0.30351859589E+03  0.00000000000E+00 0.  1.
        -11    1    5    5    0    0  0.13484555959E+03 -0.89795308303E+02 -0.22976675994E+02  0.16362900102E+03  0.00000000000E+00 0. -1.
          1    1    6    6  503    0 -0.13015276547E+03 -0.12031173721E+03  0.99168903476E+02  0.20309881311E+03  0.00000000000E+00 0. -1.
         -1    1    6    6    0  503 -0.98491348466E+02 -0.21519555688E+03  0.81961129574E+02  0.25045418780E+03  0.00000000000E+00 0.  1.
<mgrwt>
<rscale>  0 0.20721349E+04</rscale>
<asrwt>0</asrwt>
<pdfrwt beam="1">  1        2 0.32169146E+00 0.20721349E+04</pdfrwt>
<pdfrwt beam="2">  1       -2 0.78978672E-01 0.20721349E+04</pdfrwt>
<totfact> 0.78112356E+00</totfact>
</mgrwt>
</event>
<event>
12    2  0.3751044E-008  0.1922675E+04  0.7818608E-02  0.8643651E-01
          2   -1    0    0  501    0  0.00000000000E+00  0.00000000000E+00  0.39303195498E+04  0.39303195498E+04  0.00000000000E+00 0. -1.
         -2   -1    0    0    0  501 -0.00000000000E+00 -0.00000000000E+00 -0.23513855199E+03  0.23513855199E+03  0.00000000000E+00 0.  1.
         23    2    1    2    0    0 -0.29079709362E+03 -0.68211108471E+03  0.16633083683E+04  0.18234289452E+04  0.91977762199E+02 0.  0.
        254    2    1    2    0    0  0.29079709362E+03  0.68211108471E+03  0.20318726296E+04  0.23420291566E+04  0.89819580606E+03 0.  0.
         23    2    4    4    0    0  0.33219473856E+03  0.41092995381E+03  0.19757388714E+04  0.20472995131E+04  0.93136656813E+02 0.  0.
         23    2    4    4    0    0 -0.41397644938E+02  0.27118113090E+03  0.56133758122E+02  0.29472964352E+03  0.91986918665E+02 0.  0.
          2    1    3    3  502    0 -0.12207105650E+03 -0.32864266784E+03  0.89070886009E+03  0.95721973413E+03  0.00000000000E+00 0. -1.
         -2    1    3    3    0  502 -0.16872603713E+03 -0.35346841687E+03  0.77259950816E+03  0.86620921107E+03  0.00000000000E+00 0.  1.
         11    1    5    5    0    0  0.21238419854E+03  0.20972790641E+03  0.98313679209E+03  0.10274486822E+04  0.00000000000E+00 0. -1.
        -11    1    5    5    0    0  0.11981054002E+03  0.20120204740E+03  0.99260207935E+03  0.10198508309E+04  0.00000000000E+00 0.  1.
          1    1    6    6  503    0 -0.41815579475E+02  0.40255528740E+02  0.17252701720E+02  0.60553331845E+02  0.00000000000E+00 0. -1.
         -1    1    6    6    0  503  0.41793453641E+00  0.23092560216E+03  0.38881056402E+02  0.23417631167E+03  0.00000000000E+00 0.  1.
<mgrwt>
<rscale>  0 0.19226749E+04</rscale>
<asrwt>0</asrwt>
<pdfrwt beam="1">  1        2 0.60466450E+00 0.19226749E+04</pdfrwt>
<pdfrwt beam="2">  1       -2 0.36175165E-01 0.19226749E+04</pdfrwt>
<totfact> 0.26443585E+00</totfact>
</mgrwt>
</event>
<event>
12    2  0.3751044E-008  0.2582156E+04  0.7818608E-02  0.8374288E-01
          2   -1    0    0  501    0  0.00000000000E+00  0.00000000000E+00  0.99254498183E+03  0.99254498183E+03  0.00000000000E+00 0. -1.
         -2   -1    0    0    0  501 -0.00000000000E+00 -0.00000000000E+00 -0.16794023079E+04  0.16794023079E+04  0.00000000000E+00 0.  1.
         23    2    1    2    0    0 -0.14880343016E+03  0.98474965967E+01 -0.14639088967E+04  0.14751792734E+04  0.10433214634E+03 0.  0.
        254    2    1    2    0    0  0.14880343016E+03 -0.98474965967E+01  0.77705157056E+03  0.11967680164E+04  0.89788925141E+03 0.  0.
         23    2    4    4    0    0  0.31537782097E+03 -0.19602214639E+03  0.84130636900E+03  0.92394816219E+03  0.89420065128E+02 0.  0.
         23    2    4    4    0    0 -0.16657439081E+03  0.18617464980E+03 -0.64254798440E+02  0.27281985423E+03  0.88847992874E+02 0.  0.
          1    1    3    3  502    0 -0.10301963580E+02  0.12442502216E+02 -0.25975794166E+02  0.30589020867E+02  0.00000000000E+00 0. -1.
         -1    1    3    3    0  502 -0.13850146658E+03 -0.25950056194E+01 -0.14379331025E+04  0.14445902525E+04  0.00000000000E+00 0.  1.
         11    1    5    5    0    0  0.12425614718E+03 -0.10190863025E+03  0.45861669360E+03  0.48595702555E+03  0.00000000000E+00 0.  1.
        -11    1    5    5    0    0  0.19112167380E+03 -0.94113516140E+02  0.38268967540E+03  0.43799113664E+03  0.00000000000E+00 0. -1.
          1    1    6    6  503    0 -0.15065488275E+03  0.14291709012E+03 -0.19498728272E+02  0.20857226265E+03  0.00000000000E+00 0. -1.
         -1    1    6    6    0  503 -0.15919508061E+02  0.43257559680E+02 -0.44756070168E+02  0.64247591576E+02  0.00000000000E+00 0.  1.
<mgrwt>
<rscale>  0 0.25821559E+04</rscale>
<asrwt>0</asrwt>
<pdfrwt beam="1">  1        2 0.15269923E+00 0.25821559E+04</pdfrwt>
<pdfrwt beam="2">  1       -2 0.25836958E+00 0.25821559E+04</pdfrwt>
<totfact> 0.12879625E+00</totfact>
</mgrwt>
</event>
<event>
12    2  0.3751044E-008  0.1080447E+04  0.7818608E-02  0.9224461E-01
         -1   -1    0    0    0  501 -0.00000000000E+00  0.00000000000E+00  0.87634108910E+02  0.87634108910E+02  0.00000000000E+00 0.  1.
          1   -1    0    0  501    0  0.00000000000E+00 -0.00000000000E+00 -0.33302290780E+04  0.33302290780E+04  0.00000000000E+00 0. -1.
         23    2    1    2    0    0 -0.12658768831E+02 -0.86510359994E+01 -0.52867364058E+02  0.10893485263E+03  0.94004037584E+02 0.  0.
        254    2    1    2    0    0  0.12658768831E+02  0.86510359994E+01 -0.31897276050E+04  0.33089283343E+04  0.88000536491E+03 0.  0.
         23    2    4    4    0    0 -0.82621158561E+02  0.42242197223E+03 -0.14092782061E+04  0.14762751511E+04  0.89759016305E+02 0.  0.
         23    2    4    4    0    0  0.95279927392E+02 -0.41377093623E+03 -0.17804493989E+04  0.18326531832E+04  0.91285133352E+02 0.  0.
          3    1    3    3  502    0 -0.39722116829E+02 -0.23143853598E+02  0.20509089214E+01  0.46018374071E+02  0.00000000000E+00 0. -1.
         -3    1    3    3    0  502  0.27063347998E+02  0.14492817599E+02 -0.54918272979E+02  0.62916478555E+02  0.00000000000E+00 0.  1.
         11    1    5    5    0    0 -0.45757852217E+02  0.12727042544E+03 -0.57072327131E+03  0.58652927859E+03  0.00000000000E+00 0.  1.
        -11    1    5    5    0    0 -0.36863306344E+02  0.29515154679E+03 -0.83855493479E+03  0.88974587247E+03  0.00000000000E+00 0. -1.
          3    1    6    6  503    0  0.10920339101E+03 -0.37920022481E+03 -0.15637098152E+04  0.16127326429E+04  0.00000000000E+00 0. -1.
         -3    1    6    6    0  503 -0.13923463623E+02 -0.34570711414E+02 -0.21673958370E+03  0.21992054035E+03  0.00000000000E+00 0.  1.
<mgrwt>
<rscale>  0 0.10804474E+04</rscale>
<asrwt>0</asrwt>
<pdfrwt beam="1">  1        1 0.51234291E+00 0.10804474E+04</pdfrwt>
<pdfrwt beam="2">  1       -1 0.13482171E-01 0.10804474E+04</pdfrwt>
<totfact> 0.13559349E+01</totfact>
</mgrwt>
</event>
<event>
12    2  0.3751044E-008  0.1039740E+04  0.7818608E-02  0.9266002E-01
         -1   -1    0    0    0  501 -0.00000000000E+00  0.00000000000E+00  0.20536517337E+03  0.20536517337E+03  0.00000000000E+00 0.  1.
          1   -1    0    0  501    0  0.00000000000E+00 -0.00000000000E+00 -0.13160199253E+04  0.13160199253E+04  0.00000000000E+00 0. -1.
         23    2    1    2    0    0 -0.15435238625E+02  0.40432428468E+02 -0.17675834756E+02  0.94117941182E+02  0.81686742222E+02 0.  0.
        254    2    1    2    0    0  0.15435238625E+02 -0.40432428468E+02 -0.10929789172E+04  0.14272671575E+04  0.91685091349E+03 0.  0.
         23    2    4    4    0    0  0.36679052773E+03  0.39598161817E+02 -0.95930311783E+03  0.10319782910E+04  0.92808488566E+02 0.  0.
         23    2    4    4    0    0 -0.35135528911E+03 -0.80030590284E+02 -0.13367579934E+03  0.39528886648E+03  0.92350604071E+02 0.  0.
          4    1    3    3  502    0 -0.34334529986E+02  0.49205285615E+01 -0.35931684982E+02  0.49941541189E+02  0.00000000000E+00 0. -1.
         -4    1    3    3    0  502  0.18899291361E+02  0.35511899906E+02  0.18255850226E+02  0.44176399993E+02  0.00000000000E+00 0.  1.
         11    1    5    5    0    0  0.31660026774E+03  0.46148840746E+02 -0.89284750439E+03  0.94844193873E+03  0.00000000000E+00 0. -1.
        -11    1    5    5    0    0  0.50190259997E+02 -0.65506789297E+01 -0.66455613438E+02  0.83536352269E+02  0.00000000000E+00 0.  1.
          4    1    6    6  503    0 -0.27435290337E+03 -0.21778028302E+02 -0.92824647814E+02  0.29044829720E+03  0.00000000000E+00 0.  1.
         -4    1    6    6    0  503 -0.77002385733E+02 -0.58252561982E+02 -0.40851151527E+02  0.10484056928E+03  0.00000000000E+00 0. -1.
<mgrwt>
<rscale>  0 0.10397397E+04</rscale>
<asrwt>0</asrwt>
<pdfrwt beam="1">  1        1 0.20246460E+00 0.10397397E+04</pdfrwt>
<pdfrwt beam="2">  1       -1 0.31594643E-01 0.10397397E+04</pdfrwt>
<totfact> 0.82006834E+01</totfact>
</mgrwt>
</event>
<event>
12    2  0.3751044E-008  0.2426544E+04  0.7818608E-02  0.8429632E-01
          2   -1    0    0  501    0  0.00000000000E+00  0.00000000000E+00  0.12822304485E+04  0.12822304485E+04  0.00000000000E+00 0. -1.
         -2   -1    0    0    0  501 -0.00000000000E+00 -0.00000000000E+00 -0.11480221924E+04  0.11480221924E+04  0.00000000000E+00 0.  1.
         23    2    1    2    0    0 -0.37506801512E+03  0.16587621702E+03  0.10191237506E+04  0.11023520397E+04  0.91519753027E+02 0.  0.
        254    2    1    2    0    0  0.37506801512E+03 -0.16587621702E+03 -0.88491549448E+03  0.13279006012E+04  0.90114018826E+03 0.  0.
         23    2    4    4    0    0  0.22489609053E+03 -0.15097003060E+03 -0.10493429048E+04  0.10872054287E+04  0.86746242524E+02 0.  0.
         23    2    4    4    0    0  0.15017192459E+03 -0.14906186416E+02  0.16442741031E+03  0.24069517252E+03  0.90133187473E+02 0.  0.
          3    1    3    3  502    0 -0.97501097420E+02  0.57776941533E+02  0.39244794313E+03  0.40848503894E+03  0.00000000000E+00 0. -1.
         -3    1    3    3    0  502 -0.27756691770E+03  0.10809927548E+03  0.62667580743E+03  0.69386700079E+03  0.00000000000E+00 0.  1.
         11    1    5    5    0    0  0.17413753222E+02  0.10487270245E+02 -0.10501508442E+03  0.10696443144E+03  0.00000000000E+00 0.  1.
        -11    1    5    5    0    0  0.20748233730E+03 -0.16145730085E+03 -0.94432782037E+03  0.98024099721E+03  0.00000000000E+00 0. -1.
          3    1    6    6  503    0  0.11466073558E+03 -0.46751925232E+02  0.14067503556E+03  0.18740942460E+03  0.00000000000E+00 0. -1.
         -3    1    6    6    0  503  0.35511189005E+02  0.31845738816E+02  0.23752374750E+02  0.53285747922E+02  0.00000000000E+00 0.  1.
<mgrwt>
<rscale>  0 0.24265441E+04</rscale>
<asrwt>0</asrwt>
<pdfrwt beam="1">  1        2 0.19726622E+00 0.24265441E+04</pdfrwt>
<pdfrwt beam="2">  1       -2 0.17661880E+00 0.24265441E+04</pdfrwt>
<totfact> 0.29082467E+00</totfact>
</mgrwt>
</event>
<event>
12    2  0.3751044E-008  0.2274366E+04  0.7818608E-02  0.8488097E-01
          1   -1    0    0  501    0  0.00000000000E+00  0.00000000000E+00  0.19495159731E+04  0.19495159731E+04  0.00000000000E+00 0. -1.
         -1   -1    0    0    0  501 -0.00000000000E+00 -0.00000000000E+00 -0.66333665026E+03  0.66333665026E+03  0.00000000000E+00 0.  1.
         23    2    1    2    0    0  0.79486180156E+02 -0.94129735483E+03  0.76087090133E+03  0.12163075369E+04  0.90115108221E+02 0.  0.
        254    2    1    2    0    0 -0.79486180156E+02  0.94129735483E+03  0.52530842146E+03  0.13965450864E+04  0.88432487116E+03 0.  0.
         23    2    4    4    0    0  0.11289648612E+03  0.16898664652E+03  0.55234706449E+03  0.59558462443E+03  0.91277937803E+02 0.  0.
         23    2    4    4    0    0 -0.19238266628E+03  0.77231070831E+03 -0.27038643029E+02  0.80096046200E+03  0.85625072372E+02 0.  0.
          4    1    3    3  502    0  0.21760211557E+02 -0.68173373613E+03  0.52266805481E+03  0.85931152052E+03  0.00000000000E+00 0. -1.
         -4    1    3    3    0  502  0.57725968599E+02 -0.25956361870E+03  0.23820284651E+03  0.35699601635E+03  0.00000000000E+00 0.  1.
         11    1    5    5    0    0  0.91814890893E+02  0.10657002889E+03  0.25699038796E+03  0.29296963111E+03  0.00000000000E+00 0. -1.
        -11    1    5    5    0    0  0.21081595228E+02  0.62416617622E+02  0.29535667653E+03  0.30261499333E+03  0.00000000000E+00 0.  1.
          3    1    6    6  503    0 -0.13214726227E+03  0.36137661204E+03 -0.38245950158E+00  0.38478058803E+03  0.00000000000E+00 0. -1.
         -3    1    6    6    0  503 -0.60235404009E+02  0.41093409627E+03 -0.26656183527E+02  0.41617987397E+03  0.00000000000E+00 0.  1.
<mgrwt>
<rscale>  0 0.22743662E+04</rscale>
<asrwt>0</asrwt>
<pdfrwt beam="1">  1        1 0.29992553E+00 0.22743662E+04</pdfrwt>
<pdfrwt beam="2">  1       -1 0.10205179E+00 0.22743662E+04</pdfrwt>
<totfact> 0.26565240E+00</totfact>
</mgrwt>
</event>
<event>
12    2  0.3751044E-008  0.1218403E+04  0.7818608E-02  0.9096899E-01
          1   -1    0    0  501    0  0.00000000000E+00  0.00000000000E+00  0.64149596492E+03  0.64149596492E+03  0.00000000000E+00 0. -1.
         -1   -1    0    0    0  501 -0.00000000000E+00 -0.00000000000E+00 -0.57853288196E+03  0.57853288196E+03  0.00000000000E+00 0.  1.
         23    2    1    2    0    0 -0.63653609752E+02 -0.85923347534E+02  0.24458317820E+03  0.28287218280E+03  0.93600945836E+02 0.  0.
        254    2    1    2    0    0  0.63653609752E+02  0.85923347534E+02 -0.18162009523E+03  0.93715666407E+03  0.91314957719E+03 0.  0.
         23    2    4    4    0    0  0.22998930954E+03  0.12545712467E+03 -0.49550868745E+03  0.56792720805E+03  0.91530768975E+02 0.  0.
         23    2    4    4    0    0 -0.16633569979E+03 -0.39533777134E+02  0.31388859221E+03  0.36922945602E+03  0.92595131149E+02 0.  0.
          2    1    3    3  502    0  0.65425622036E+01  0.16493199973E+02  0.25819231068E+02  0.31328317198E+02  0.00000000000E+00 0. -1.
         -2    1    3    3    0  502 -0.70196171956E+02 -0.10241654751E+03  0.21876394713E+03  0.25154386560E+03  0.00000000000E+00 0.  1.
         11    1    5    5    0    0  0.91966816840E+02  0.60851528101E+02 -0.30271908253E+03  0.32217952573E+03  0.00000000000E+00 0.  1.
        -11    1    5    5    0    0  0.13802249270E+03  0.64605596567E+02 -0.19278960492E+03  0.24574768232E+03  0.00000000000E+00 0. -1.
          1    1    6    6  503    0 -0.62079936122E+02 -0.48558512958E+02  0.76671847191E+02  0.10995644502E+03  0.00000000000E+00 0. -1.
         -1    1    6    6    0  503 -0.10425576367E+03  0.90247358245E+01  0.23721674502E+03  0.25927301100E+03  0.00000000000E+00 0.  1.
<mgrwt>
<rscale>  0 0.12184031E+04</rscale>
<asrwt>0</asrwt>
<pdfrwt beam="1">  1        1 0.98691687E-01 0.12184031E+04</pdfrwt>
<pdfrwt beam="2">  1       -1 0.89005059E-01 0.12184031E+04</pdfrwt>
<totfact> 0.38021794E+01</totfact>
</mgrwt>
</event>
<event>
12    2  0.3751044E-008  0.1292198E+04  0.7818608E-02  0.9035775E-01
         -1   -1    0    0    0  501 -0.00000000000E+00  0.00000000000E+00  0.52329066887E+03  0.52329066887E+03  0.00000000000E+00 0.  1.
          1   -1    0    0  501    0  0.00000000000E+00 -0.00000000000E+00 -0.79772835631E+03  0.79772835631E+03  0.00000000000E+00 0. -1.
         23    2    1    2    0    0 -0.13883222975E+03 -0.20194631436E+03 -0.28591485835E+03  0.38800332146E+03  0.93501707710E+02 0.  0.
        254    2    1    2    0    0  0.13883222975E+03  0.20194631436E+03  0.11477170908E+02  0.93301570372E+03  0.90018324581E+03 0.  0.
         23    2    4    4    0    0  0.16839905939E+03 -0.20764557744E+03  0.30841208064E+03  0.41791192105E+03  0.89763206455E+02 0.  0.
         23    2    4    4    0    0 -0.29566829647E+02  0.40959189179E+03 -0.29693490973E+03  0.51510378267E+03  0.92313872580E+02 0.  0.
          1    1    3    3  502    0 -0.74663741062E+02 -0.16913836542E+03 -0.16802531675E+03  0.24982987803E+03  0.00000000000E+00 0. -1.
         -1    1    3    3    0  502 -0.64168488685E+02 -0.32807948939E+02 -0.11788954159E+03  0.13817344344E+03  0.00000000000E+00 0.  1.
         11    1    5    5    0    0  0.96722868564E+02 -0.92263824378E+02  0.21462336070E+03  0.25284602736E+03  0.00000000000E+00 0. -1.
        -11    1    5    5    0    0  0.71676190830E+02 -0.11538175306E+03  0.93788719938E+02  0.16506589369E+03  0.00000000000E+00 0.  1.
          2    1    6    6  503    0 -0.21791083622E+02  0.39101534664E+03 -0.25155020981E+03  0.46545178127E+03  0.00000000000E+00 0. -1.
         -2    1    6    6    0  503 -0.77757460248E+01  0.18576545149E+02 -0.45384699926E+02  0.49652001403E+02  0.00000000000E+00 0.  1.
<mgrwt>
<rscale>  0 0.12921978E+04</rscale>
<asrwt>0</asrwt>
<pdfrwt beam="1">  1        1 0.12272744E+00 0.12921978E+04</pdfrwt>
<pdfrwt beam="2">  1       -1 0.80506257E-01 0.12921978E+04</pdfrwt>
<totfact> 0.33619085E+01</totfact>
</mgrwt>
</event>
<event>
12    2  0.3751044E-008  0.2046140E+04  0.7818608E-02  0.8585347E-01
         -1   -1    0    0    0  501 -0.00000000000E+00  0.00000000000E+00  0.31837205831E+03  0.31837205831E+03  0.00000000000E+00 0.  1.
          1   -1    0    0  501    0  0.00000000000E+00 -0.00000000000E+00 -0.32875770940E+04  0.32875770940E+04  0.00000000000E+00 0. -1.
         23    2    1    2    0    0  0.24520571714E+03  0.66245150763E+03 -0.19189807676E+04  0.20470734869E+04  0.95156874359E+02 0.  0.
        254    2    1    2    0    0 -0.24520571714E+03 -0.66245150763E+03 -0.10502242681E+04  0.15588756654E+04  0.91002993536E+03 0.  0.
         23    2    4    4    0    0  0.16153016802E+03 -0.26833936577E+03  0.38689731473E+02  0.32817626615E+03  0.90026418025E+02 0.  0.
         23    2    4    4    0    0 -0.40673588516E+03 -0.39411214186E+03 -0.10889139996E+04  0.12306993993E+04  0.90160147757E+02 0.  0.
          1    1    3    3  502    0  0.19298993364E+03  0.39160963150E+03 -0.12068733233E+04  0.12834120291E+04  0.00000000000E+00 0. -1.
         -1    1    3    3    0  502  0.52215783497E+02  0.27084187613E+03 -0.71210744431E+03  0.76366145782E+03  0.00000000000E+00 0.  1.
         11    1    5    5    0    0  0.42388179149E+01  0.26752146620E+01  0.12811936094E+02  0.13757545467E+02  0.00000000000E+00 0. -1.
        -11    1    5    5    0    0  0.15729135010E+03 -0.27101458043E+03  0.25877795379E+02  0.31441872068E+03  0.00000000000E+00 0.  1.
          4    1    6    6  503    0 -0.32758115026E+03 -0.26606179865E+03 -0.77092027809E+03  0.87887221248E+03  0.00000000000E+00 0.  1.
         -4    1    6    6    0  503 -0.79154734893E+02 -0.12805034322E+03 -0.31799372151E+03  0.35182718680E+03  0.00000000000E+00 0. -1.
<mgrwt>
<rscale>  0 0.20461405E+04</rscale>
<asrwt>0</asrwt>
<pdfrwt beam="1">  1        1 0.50578108E+00 0.20461405E+04</pdfrwt>
<pdfrwt beam="2">  1       -1 0.48980318E-01 0.20461405E+04</pdfrwt>
<totfact> 0.14118236E+00</totfact>
</mgrwt>
</event>
<event>
12    2  0.3751044E-008  0.1944329E+04  0.7818608E-02  0.8633100E-01
         -2   -1    0    0    0  501 -0.00000000000E+00  0.00000000000E+00  0.35620690502E+03  0.35620690502E+03  0.00000000000E+00 0.  1.
          2   -1    0    0  501    0  0.00000000000E+00 -0.00000000000E+00 -0.26532445957E+04  0.26532445957E+04  0.00000000000E+00 0. -1.
         23    2    1    2    0    0  0.23695402862E+03  0.20058578992E+02 -0.20197646220E+04  0.20354553526E+04  0.84141584438E+02 0.  0.
        254    2    1    2    0    0 -0.23695402862E+03 -0.20058578992E+02 -0.27727306874E+03  0.97399614809E+03  0.90290563381E+03 0.  0.
         23    2    4    4    0    0 -0.42769582930E+03 -0.10357984612E+03  0.16320845532E+03  0.47811542381E+03  0.91130958951E+02 0.  0.
         23    2    4    4    0    0  0.19074180067E+03  0.83521267130E+02 -0.44048152405E+03  0.49588072428E+03  0.92279375214E+02 0.  0.
          3    1    3    3  502    0  0.59116232459E+02 -0.30222193869E+02 -0.45602499779E+03  0.46083284231E+03  0.00000000000E+00 0.  1.
         -3    1    3    3    0  502  0.17783779617E+03  0.50280772861E+02 -0.15637396242E+04  0.15746225103E+04  0.00000000000E+00 0. -1.
         11    1    5    5    0    0 -0.13289678590E+03 -0.64189514669E+01  0.85444036620E+02  0.15812476730E+03  0.00000000000E+00 0. -1.
        -11    1    5    5    0    0 -0.29479904340E+03 -0.97160894655E+02  0.77764418695E+02  0.31999065651E+03  0.00000000000E+00 0.  1.
          1    1    6    6  503    0  0.73536523077E+01  0.32849933110E+02 -0.10426276945E+03  0.10956239957E+03  0.00000000000E+00 0. -1.
         -1    1    6    6    0  503  0.18338814837E+03  0.50671334020E+02 -0.33621875461E+03  0.38631832470E+03  0.00000000000E+00 0.  1.
<mgrwt>
<rscale>  0 0.19443292E+04</rscale>
<asrwt>0</asrwt>
<pdfrwt beam="1">  1        2 0.40819147E+00 0.19443292E+04</pdfrwt>
<pdfrwt beam="2">  1       -2 0.54801063E-01 0.19443292E+04</pdfrwt>
<totfact> 0.82857218E+00</totfact>
</mgrwt>
</event>
<event>
12    2  0.3751044E-008  0.1156456E+04  0.7818608E-02  0.9151848E-01
          2   -1    0    0  501    0  0.00000000000E+00  0.00000000000E+00  0.46805555176E+03  0.46805555176E+03  0.00000000000E+00 0.  1.
         -2   -1    0    0    0  501 -0.00000000000E+00 -0.00000000000E+00 -0.71433366376E+03  0.71433366376E+03  0.00000000000E+00 0. -1.
         23    2    1    2    0    0 -0.11001775795E+03 -0.16665170317E+03 -0.14967448697E+03  0.27028107252E+03  0.10379166092E+03 0.  0.
        254    2    1    2    0    0  0.11001775795E+03  0.16665170317E+03 -0.96603625017E+02  0.91210814300E+03  0.88472159854E+03 0.  0.
         23    2    4    4    0    0  0.70178398326E+02  0.44869563448E+03  0.18785011157E+03  0.49965431311E+03  0.90077678710E+02 0.  0.
         23    2    4    4    0    0  0.39839359628E+02 -0.28204393131E+03 -0.28445373659E+03  0.41245382989E+03  0.89823603614E+02 0.  0.
          4    1    3    3  502    0 -0.10998223859E+02 -0.10211840160E+03 -0.44002882331E+02  0.11173800843E+03  0.00000000000E+00 0.  1.
         -4    1    3    3    0  502 -0.99019534095E+02 -0.64533301565E+02 -0.10567160464E+03  0.15854306409E+03  0.00000000000E+00 0. -1.
         11    1    5    5    0    0  0.38830954093E+02  0.41560406818E+03  0.16973182513E+03  0.45060345864E+03  0.00000000000E+00 0. -1.
        -11    1    5    5    0    0  0.31347444234E+02  0.33091566301E+02  0.18118286445E+02  0.49050854467E+02  0.00000000000E+00 0.  1.
          1    1    6    6  503    0  0.43033307785E+02 -0.28011268343E+03 -0.25033152565E+03  0.37812809170E+03  0.00000000000E+00 0. -1.
         -1    1    6    6    0  503 -0.31939481572E+01 -0.19312478848E+01 -0.34122210937E+02  0.34325738192E+02  0.00000000000E+00 0.  1.
<mgrwt>
<rscale>  0 0.11564564E+04</rscale>
<asrwt>0</asrwt>
<pdfrwt beam="1">  1        2 0.72008547E-01 0.11564564E+04</pdfrwt>
<pdfrwt beam="2">  1       -2 0.10989749E+00 0.11564564E+04</pdfrwt>
<totfact> 0.43311644E+01</totfact>
</mgrwt>
</event>
<event>
12    2  0.3751044E-008  0.1182789E+04  0.7818608E-02  0.9128056E-01
          2   -1    0    0  501    0  0.00000000000E+00  0.00000000000E+00  0.37439981276E+04  0.37439981276E+04  0.00000000000E+00 0. -1.
         -2   -1    0    0    0  501 -0.00000000000E+00 -0.00000000000E+00 -0.93415457471E+02  0.93415457471E+02  0.00000000000E+00 0.  1.
         23    2    1    2    0    0 -0.12969909967E+03 -0.64164749188E+02  0.17780598818E+03  0.24713026175E+03  0.92300733191E+02 0.  0.
        254    2    1    2    0    0  0.12969909967E+03  0.64164749188E+02  0.34727766819E+04  0.35902833233E+04  0.89945399412E+03 0.  0.
         23    2    4    4    0    0  0.32311310741E+03  0.37875391102E+03  0.23767469139E+04  0.24301085394E+04  0.92978575088E+02 0.  0.
         23    2    4    4    0    0 -0.19341400774E+03 -0.31458916184E+03  0.10960297681E+04  0.11601747839E+04  0.91372630334E+02 0.  0.
          1    1    3    3  502    0 -0.47900252751E+02  0.48565301352E+01  0.11092718874E+03  0.12092502347E+03  0.00000000000E+00 0. -1.
         -1    1    3    3    0  502 -0.81798846915E+02 -0.69021279323E+02  0.66878799445E+02  0.12620523829E+03  0.00000000000E+00 0.  1.
         11    1    5    5    0    0  0.55626788873E+02  0.12008433721E+03  0.72345204862E+03  0.73545730967E+03  0.00000000000E+00 0. -1.
        -11    1    5    5    0    0  0.26748631854E+03  0.25866957381E+03  0.16532948652E+04  0.16946512297E+04  0.00000000000E+00 0.  1.
          3    1    6    6  503    0 -0.27685511466E+01  0.15522706552E+01  0.64399965497E+02  0.64478135640E+02  0.00000000000E+00 0. -1.
         -3    1    6    6    0  503 -0.19064545660E+03 -0.31614143249E+03  0.10316298026E+04  0.10956966483E+04  0.00000000000E+00 0.  1.
<mgrwt>
<rscale>  0 0.11827887E+04</rscale>
<asrwt>0</asrwt>
<pdfrwt beam="1">  1        2 0.57599960E+00 0.11827887E+04</pdfrwt>
<pdfrwt beam="2">  1       -2 0.14371612E-01 0.11827887E+04</pdfrwt>
<totfact> 0.20874018E+01</totfact>
</mgrwt>
</event>
<event>
12    2  0.3751044E-008  0.1579538E+04  0.7818608E-02  0.8833218E-01
          2   -1    0    0  501    0  0.00000000000E+00  0.00000000000E+00  0.27496761796E+04  0.27496761796E+04  0.00000000000E+00 0.  1.
         -2   -1    0    0    0  501 -0.00000000000E+00 -0.00000000000E+00 -0.22683937547E+03  0.22683937547E+03  0.00000000000E+00 0. -1.
         23    2    1    2    0    0 -0.10357281588E+03 -0.36848550625E+03  0.15336485038E+04  0.15833814234E+04  0.92250214580E+02 0.  0.
        254    2    1    2    0    0  0.10357281588E+03  0.36848550625E+03  0.98918830033E+03  0.13931341317E+04  0.90322772265E+03 0.  0.
         23    2    4    4    0    0  0.45645441244E+03  0.53897873215E+02  0.66056816959E+03  0.81008727628E+03  0.92927268015E+02 0.  0.
         23    2    4    4    0    0 -0.35288159656E+03  0.31458763304E+03  0.32862013074E+03  0.58304685545E+03  0.91987201658E+02 0.  0.
          1    1    3    3  502    0 -0.43256155533E+02 -0.25430133982E+03  0.87672604382E+03  0.91388665727E+03  0.00000000000E+00 0. -1.
         -1    1    3    3    0  502 -0.60316660347E+02 -0.11418416644E+03  0.65692245999E+03  0.66949476609E+03  0.00000000000E+00 0.  1.
         11    1    5    5    0    0  0.22547513841E+03  0.38610580877E+01  0.39287455402E+03  0.45299487967E+03  0.00000000000E+00 0. -1.
        -11    1    5    5    0    0  0.23097927403E+03  0.50036815127E+02  0.26769361557E+03  0.35709239661E+03  0.00000000000E+00 0.  1.
          1    1    6    6  503    0 -0.17632999603E+03  0.21616415609E+03  0.17711376755E+03  0.33043682684E+03  0.00000000000E+00 0. -1.
         -1    1    6    6    0  503 -0.17655160053E+03  0.98423476945E+02  0.15150636319E+03  0.25261002860E+03  0.00000000000E+00 0.  1.
<mgrwt>
<rscale>  0 0.15795377E+04</rscale>
<asrwt>0</asrwt>
<pdfrwt beam="1">  1        2 0.42302708E+00 0.15795377E+04</pdfrwt>
<pdfrwt beam="2">  1       -2 0.34898367E-01 0.15795377E+04</pdfrwt>
<totfact> 0.18420964E+01</totfact>
</mgrwt>
</event>
<event>
12    2  0.3751044E-008  0.1771577E+04  0.7818608E-02  0.8721562E-01
          2   -1    0    0  501    0  0.00000000000E+00  0.00000000000E+00  0.12536776264E+04  0.12536776264E+04  0.00000000000E+00 0. -1.
         -2   -1    0    0    0  501 -0.00000000000E+00 -0.00000000000E+00 -0.62585552910E+03  0.62585552910E+03  0.00000000000E+00 0.  1.
         23    2    1    2    0    0 -0.44012460951E+03 -0.16418408538E+02 -0.27463831476E+03  0.52674958451E+03  0.89775747315E+02 0.  0.
        254    2    1    2    0    0  0.44012460951E+03  0.16418408538E+02  0.90246041207E+03  0.13527835710E+04  0.90642669785E+03 0.  0.
         23    2    4    4    0    0  0.58740235960E+03  0.11386698942E+03  0.22357967768E+03  0.64540201950E+03  0.92459024275E+02 0.  0.
         23    2    4    4    0    0 -0.14727775008E+03 -0.97448580881E+02  0.67888073439E+03  0.70738155150E+03  0.91228538789E+02 0.  0.
          3    1    3    3  502    0 -0.20109334693E+02  0.17236030541E+02 -0.27865169274E+02  0.38443903929E+02  0.00000000000E+00 0. -1.
         -3    1    3    3    0  502 -0.42001527482E+03 -0.33654439079E+02 -0.24677314549E+03  0.48830568058E+03  0.00000000000E+00 0.  1.
         11    1    5    5    0    0  0.23821130650E+03  0.64104808607E+01  0.11264470066E+03  0.26358025228E+03  0.00000000000E+00 0.  1.
        -11    1    5    5    0    0  0.34919105310E+03  0.10745650856E+03  0.11093497702E+03  0.38182176722E+03  0.00000000000E+00 0. -1.
          1    1    6    6  503    0 -0.40350398236E+02 -0.79482238885E+02  0.26798250105E+03  0.28241848701E+03  0.00000000000E+00 0. -1.
         -1    1    6    6    0  503 -0.10692735185E+03 -0.17966341996E+02  0.41089823334E+03  0.42496306449E+03  0.00000000000E+00 0.  1.
<mgrwt>
<rscale>  0 0.17715768E+04</rscale>
<asrwt>0</asrwt>
<pdfrwt beam="1">  1        2 0.19287348E+00 0.17715768E+04</pdfrwt>
<pdfrwt beam="2">  1       -2 0.96285466E-01 0.17715768E+04</pdfrwt>
<totfact> 0.15041692E+01</totfact>
</mgrwt>
</event>
<event>
12    2  0.3751044E-008  0.1678960E+04  0.7818608E-02  0.8773456E-01
          1   -1    0    0  501    0  0.00000000000E+00  0.00000000000E+00  0.11090946173E+04  0.11090946173E+04  0.00000000000E+00 0. -1.
         -1   -1    0    0    0  501 -0.00000000000E+00 -0.00000000000E+00 -0.63540735531E+03  0.63540735531E+03  0.00000000000E+00 0.  1.
         23    2    1    2    0    0 -0.27502124544E+03 -0.17818764391E+02 -0.37639309457E+03  0.47559855555E+03  0.92563656969E+02 0.  0.
        254    2    1    2    0    0  0.27502124544E+03  0.17818764391E+02  0.85008035660E+03  0.12689034171E+04  0.90084686570E+03 0.  0.
         23    2    4    4    0    0  0.50682626525E+03  0.15285587116E+03  0.82525859620E+03  0.98461338122E+03  0.90410062297E+02 0.  0.
         23    2    4    4    0    0 -0.23180501981E+03 -0.13503710677E+03  0.24821760393E+02  0.28429003588E+03  0.90753056702E+02 0.  0.
          4    1    3    3  502    0 -0.51459002536E+02  0.13345125860E+01 -0.21638416112E+02  0.55839331279E+02  0.00000000000E+00 0. -1.
         -4    1    3    3    0  502 -0.22356224291E+03 -0.19153276977E+02 -0.35475467846E+03  0.41975922427E+03  0.00000000000E+00 0.  1.
         11    1    5    5    0    0  0.11111397669E+03 -0.10934528269E+01  0.14438609455E+03  0.18219455468E+03  0.00000000000E+00 0.  1.
        -11    1    5    5    0    0  0.39571228856E+03  0.15394932399E+03  0.68087250165E+03  0.80241882654E+03  0.00000000000E+00 0. -1.
          4    1    6    6  503    0 -0.58433735427E+02 -0.50035528848E+02 -0.31541677970E+02  0.83144049891E+02  0.00000000000E+00 0. -1.
         -4    1    6    6    0  503 -0.17337128438E+03 -0.85001577922E+02  0.56363438363E+02  0.20114598599E+03  0.00000000000E+00 0.  1.
<mgrwt>
<rscale>  0 0.16789602E+04</rscale>
<asrwt>0</asrwt>
<pdfrwt beam="1">  1        1 0.17062994E+00 0.16789602E+04</pdfrwt>
<pdfrwt beam="2">  1       -1 0.97754978E-01 0.16789602E+04</pdfrwt>
<totfact> 0.11944132E+01</totfact>
</mgrwt>
</event>
<event>
12    2  0.3751044E-008  0.2215194E+04  0.7818608E-02  0.8512130E-01
         -2   -1    0    0    0  501 -0.00000000000E+00  0.00000000000E+00  0.12414131273E+04  0.12414131273E+04  0.00000000000E+00 0.  1.
          2   -1    0    0  501    0  0.00000000000E+00 -0.00000000000E+00 -0.98820563053E+03  0.98820563053E+03  0.00000000000E+00 0. -1.
         23    2    1    2    0    0  0.31924205998E+03 -0.14759785010E+03  0.96508827035E+03  0.10312066750E+04  0.91056130206E+02 0.  0.
        254    2    1    2    0    0 -0.31924205998E+03  0.14759785010E+03 -0.71188077360E+03  0.11984120828E+04  0.89761721581E+03 0.  0.
         23    2    4    4    0    0  0.12655574477E+03 -0.18287067048E+03  0.55031431706E+02  0.24781468825E+03  0.94475513134E+02 0.  0.
         23    2    4    4    0    0 -0.44579780475E+03  0.33046852057E+03 -0.76691220531E+03  0.95059739453E+03  0.86809849838E+02 0.  0.
          2    1    3    3  502    0  0.93459420172E+02 -0.72928264515E+02  0.42198404517E+03  0.43831920944E+03  0.00000000000E+00 0. -1.
         -2    1    3    3    0  502  0.22578263980E+03 -0.74669585583E+02  0.54310422518E+03  0.59288746559E+03  0.00000000000E+00 0.  1.
         11    1    5    5    0    0  0.13127655172E+03 -0.18986546832E+03  0.59346282817E+02  0.23833675834E+03  0.00000000000E+00 0.  1.
        -11    1    5    5    0    0 -0.47208069533E+01  0.69947978459E+01 -0.43148511109E+01  0.94779299061E+01  0.00000000000E+00 0. -1.
          3    1    6    6  503    0 -0.98998253189E+02  0.12058358076E+03 -0.22711142425E+03  0.27553702675E+03  0.00000000000E+00 0. -1.
         -3    1    6    6    0  503 -0.34679955156E+03  0.20988493982E+03 -0.53980078105E+03  0.67506036778E+03  0.00000000000E+00 0.  1.
<mgrwt>
<rscale>  0 0.22151943E+04</rscale>
<asrwt>0</asrwt>
<pdfrwt beam="1">  1        2 0.15203164E+00 0.22151943E+04</pdfrwt>
<pdfrwt beam="2">  1       -2 0.19098664E+00 0.22151943E+04</pdfrwt>
<totfact> 0.35714910E+00</totfact>
</mgrwt>
</event>
<event>
12    2  0.3751044E-008  0.1024578E+04  0.7818608E-02  0.9281991E-01
         -2   -1    0    0    0  501 -0.00000000000E+00  0.00000000000E+00  0.56795820179E+03  0.56795820179E+03  0.00000000000E+00 0.  1.
          2   -1    0    0  501    0  0.00000000000E+00 -0.00000000000E+00 -0.46207629102E+03  0.46207629102E+03  0.00000000000E+00 0. -1.
         23    2    1    2    0    0  0.30447388808E+01 -0.66127776219E+02 -0.30047063444E+02  0.11744383547E+03  0.92239228350E+02 0.  0.
        254    2    1    2    0    0 -0.30447388808E+01  0.66127776219E+02  0.13592897422E+03  0.91259065734E+03  0.89997937121E+03 0.  0.
         23    2    4    4    0    0 -0.36206105284E+03 -0.32711948677E+02 -0.18031498592E+03  0.41579388871E+03  0.90624423721E+02 0.  0.
         23    2    4    4    0    0  0.35901631396E+03  0.98839724896E+02  0.31624396015E+03  0.49679676862E+03  0.90193026794E+02 0.  0.
          4    1    3    3  502    0 -0.31126957649E+02  0.61266217114E+01  0.89324657652E+00  0.31736743304E+02  0.00000000000E+00 0.  1.
         -4    1    3    3    0  502  0.34171696530E+02 -0.72254397931E+02 -0.30940310021E+02  0.85707092170E+02  0.00000000000E+00 0. -1.
         11    1    5    5    0    0 -0.23306358784E+02 -0.19913724659E+02 -0.36199270818E+02  0.47435535175E+02  0.00000000000E+00 0. -1.
        -11    1    5    5    0    0 -0.33875469405E+03 -0.12798224017E+02 -0.14411571511E+03  0.36835835354E+03  0.00000000000E+00 0.  1.
          3    1    6    6  503    0  0.41904844412E+02  0.40513554344E+02  0.29595754706E+02  0.65370274340E+02  0.00000000000E+00 0. -1.
         -3    1    6    6    0  503  0.31711146954E+03  0.58326170552E+02  0.28664820544E+03  0.43142649428E+03  0.00000000000E+00 0.  1.
<mgrwt>
<rscale>  0 0.10245780E+04</rscale>
<asrwt>0</asrwt>
<pdfrwt beam="1">  1        2 0.71088660E-01 0.10245780E+04</pdfrwt>
<pdfrwt beam="2">  1       -2 0.87378185E-01 0.10245780E+04</pdfrwt>
<totfact> 0.76142718E+01</totfact>
</mgrwt>
</event>
<event>
12    2  0.3751044E-008  0.1057723E+04  0.7818608E-02  0.9247406E-01
          2   -1    0    0  501    0  0.00000000000E+00  0.00000000000E+00  0.16475308859E+04  0.16475308859E+04  0.00000000000E+00 0. -1.
         -2   -1    0    0    0  501 -0.00000000000E+00 -0.00000000000E+00 -0.16976596305E+03  0.16976596305E+03  0.00000000000E+00 0.  1.
         23    2    1    2    0    0  0.15362877253E+02 -0.69666454773E+02  0.37869893737E+03  0.39622069422E+03  0.92133166898E+02 0.  0.
        254    2    1    2    0    0 -0.15362877253E+02  0.69666454773E+02  0.10990659855E+04  0.14210761547E+04  0.89801000229E+03 0.  0.
         23    2    4    4    0    0 -0.34418887384E+03  0.29642333101E+03  0.75735779784E+03  0.88732740733E+03  0.86176109312E+02 0.  0.
         23    2    4    4    0    0  0.32882599659E+03 -0.22675687623E+03  0.34170818762E+03  0.53374874739E+03  0.92617616592E+02 0.  0.
          4    1    3    3  502    0  0.14126247302E+02 -0.83034102316E+02  0.37161697773E+03  0.38104250570E+03  0.00000000000E+00 0. -1.
         -4    1    3    3    0  502  0.12366299504E+01  0.13367647543E+02  0.70819596435E+01  0.15178188524E+02  0.00000000000E+00 0.  1.
         11    1    5    5    0    0 -0.88264881708E+02  0.10730504793E+03  0.29453438068E+03  0.32566173256E+03  0.00000000000E+00 0.  1.
        -11    1    5    5    0    0 -0.25592399213E+03  0.18911828308E+03  0.46282341716E+03  0.56166567477E+03  0.00000000000E+00 0. -1.
          3    1    6    6  503    0  0.81365884634E+02 -0.42698535361E+02  0.13186452226E+03  0.16072281834E+03  0.00000000000E+00 0. -1.
         -3    1    6    6    0  503  0.24746011195E+03 -0.18405834087E+03  0.20984366536E+03  0.37302592905E+03  0.00000000000E+00 0.  1.
<mgrwt>
<rscale>  0 0.10577233E+04</rscale>
<asrwt>0</asrwt>
<pdfrwt beam="1">  1        2 0.25346628E+00 0.10577233E+04</pdfrwt>
<pdfrwt beam="2">  1       -2 0.26117842E-01 0.10577233E+04</pdfrwt>
<totfact> 0.13828012E+02</totfact>
</mgrwt>
</event>
<event>
12    2  0.3751044E-008  0.2977326E+04  0.7818608E-02  0.8250235E-01
          2   -1    0    0  501    0  0.00000000000E+00  0.00000000000E+00  0.11888886410E+04  0.11888886410E+04  0.00000000000E+00 0.  1.
         -2   -1    0    0    0  501 -0.00000000000E+00 -0.00000000000E+00 -0.18640238718E+04  0.18640238718E+04  0.00000000000E+00 0. -1.
         23    2    1    2    0    0 -0.30074575627E+03  0.12997808795E+04 -0.53325328412E+03  0.14395639079E+04  0.90037965047E+02 0.  0.
        254    2    1    2    0    0  0.30074575627E+03 -0.12997808795E+04 -0.14188194676E+03  0.16133486049E+04  0.89603844193E+03 0.  0.
         23    2    4    4    0    0 -0.20964723592E+03 -0.94922759012E+03 -0.25613411822E+02  0.97692004348E+03  0.93443796490E+02 0.  0.
         23    2    4    4    0    0  0.51039299219E+03 -0.35055328943E+03 -0.11626853494E+03  0.63642856144E+03  0.90190500593E+02 0.  0.
          1    1    3    3  502    0 -0.24169700058E+03  0.11464780394E+04 -0.44730745031E+03  0.12541583991E+04  0.00000000000E+00 0. -1.
         -1    1    3    3    0  502 -0.59048755688E+02  0.15330284013E+03 -0.85945833805E+02  0.18540550879E+03  0.00000000000E+00 0.  1.
         11    1    5    5    0    0 -0.68829126411E+02 -0.50315802361E+03  0.84303424280E+01  0.50791388644E+03  0.00000000000E+00 0.  1.
        -11    1    5    5    0    0 -0.14081810951E+03 -0.44606956651E+03 -0.34043754250E+02  0.46900615704E+03  0.00000000000E+00 0. -1.
          3    1    6    6  503    0  0.39278176454E+03 -0.31167747574E+03 -0.83783825731E+02  0.50837003540E+03  0.00000000000E+00 0. -1.
         -3    1    6    6    0  503  0.11761122765E+03 -0.38875813683E+02 -0.32484709209E+02  0.12805852604E+03  0.00000000000E+00 0.  1.
<mgrwt>
<rscale>  0 0.29773255E+04</rscale>
<asrwt>0</asrwt>
<pdfrwt beam="1">  1        2 0.18290594E+00 0.29773255E+04</pdfrwt>
<pdfrwt beam="2">  1       -2 0.28677291E+00 0.29773255E+04</pdfrwt>
<totfact> 0.63154682E-01</totfact>
</mgrwt>
</event>
<event>
12    2  0.3751044E-008  0.2961310E+04  0.7818608E-02  0.8254866E-01
         -2   -1    0    0    0  501 -0.00000000000E+00  0.00000000000E+00  0.15028567918E+04  0.15028567918E+04  0.00000000000E+00 0.  1.
          2   -1    0    0  501    0  0.00000000000E+00 -0.00000000000E+00 -0.14587808702E+04  0.14587808702E+04  0.00000000000E+00 0. -1.
         23    2    1    2    0    0 -0.59266469494E+03 -0.68998705454E+03  0.10099597999E+04  0.13622424066E+04  0.91389282629E+02 0.  0.
        254    2    1    2    0    0  0.59266469494E+03  0.68998705454E+03 -0.96588387822E+03  0.15993952554E+04  0.89319647375E+03 0.  0.
         23    2    4    4    0    0  0.30747959119E+03  0.85739180235E+03 -0.58158139606E+03  0.10845610822E+04  0.91495458662E+02 0.  0.
         23    2    4    4    0    0  0.28518510375E+03 -0.16740474781E+03 -0.38430248215E+03  0.51483417323E+03  0.89503827558E+02 0.  0.
          1    1    3    3  502    0 -0.82878131125E+02 -0.12561796701E+03  0.12714308132E+03  0.19701274421E+03  0.00000000000E+00 0. -1.
         -1    1    3    3    0  502 -0.50978656382E+03 -0.56436908753E+03  0.88281671853E+03  0.11652296624E+04  0.00000000000E+00 0.  1.
         11    1    5    5    0    0 -0.57896311615E+01  0.13834820929E+02 -0.48780984558E+01  0.15770794008E+02  0.00000000000E+00 0.  1.
        -11    1    5    5    0    0  0.31326922235E+03  0.84355698142E+03 -0.57670329761E+03  0.10687902882E+04  0.00000000000E+00 0. -1.
          3    1    6    6  503    0  0.62822590550E+02 -0.79377184122E+02 -0.88599554320E+02  0.13452619176E+03  0.00000000000E+00 0. -1.
         -3    1    6    6    0  503  0.22236251320E+03 -0.88027563691E+02 -0.29570292783E+03  0.38030798147E+03  0.00000000000E+00 0.  1.
<mgrwt>
<rscale>  0 0.29613097E+04</rscale>
<asrwt>0</asrwt>
<pdfrwt beam="1">  1        2 0.22442783E+00 0.29613097E+04</pdfrwt>
<pdfrwt beam="2">  1       -2 0.23120874E+00 0.29613097E+04</pdfrwt>
<totfact> 0.96655587E-01</totfact>
</mgrwt>
</event>
<event>
12    2  0.3751044E-008  0.1141594E+04  0.7818608E-02  0.9165573E-01
          1   -1    0    0  501    0  0.00000000000E+00  0.00000000000E+00  0.26466676737E+03  0.26466676737E+03  0.00000000000E+00 0. -1.
         -1   -1    0    0    0  501 -0.00000000000E+00 -0.00000000000E+00 -0.12310175444E+04  0.12310175444E+04  0.00000000000E+00 0.  1.
         23    2    1    2    0    0 -0.15594350703E+02 -0.16432412946E+03 -0.32389720412E+03  0.37507474078E+03  0.92336661372E+02 0.  0.
        254    2    1    2    0    0  0.15594350703E+02  0.16432412946E+03 -0.64245357286E+03  0.11206095709E+04  0.90320186775E+03 0.  0.
         23    2    4    4    0    0 -0.10050133138E+03 -0.83169972510E+02 -0.78376859569E+03  0.79928235290E+03  0.86840693943E+02 0.  0.
         23    2    4    4    0    0  0.11609568208E+03  0.24749410197E+03  0.14131502284E+03  0.32132721804E+03  0.92464628216E+02 0.  0.
          3    1    3    3  502    0  0.83521088809E+01 -0.62820786198E+02 -0.46159549666E+02  0.78402250776E+02  0.00000000000E+00 0. -1.
         -3    1    3    3    0  502 -0.23946459584E+02 -0.10150334326E+03 -0.27773765446E+03  0.29667249000E+03  0.00000000000E+00 0.  1.
         11    1    5    5    0    0 -0.48385147192E+02 -0.33017182820E+01 -0.43550737892E+03  0.43819938487E+03  0.00000000000E+00 0.  1.
        -11    1    5    5    0    0 -0.52116184183E+02 -0.79868254228E+02 -0.34826121678E+03  0.36108296803E+03  0.00000000000E+00 0. -1.
          2    1    6    6  503    0  0.97581403842E+01  0.11520030934E+03  0.33977642016E+02  0.12050233497E+03  0.00000000000E+00 0. -1.
         -2    1    6    6    0  503  0.10633754169E+03  0.13229379263E+03  0.10733738082E+03  0.20082488308E+03  0.00000000000E+00 0.  1.
<mgrwt>
<rscale>  0 0.11415944E+04</rscale>
<asrwt>0</asrwt>
<pdfrwt beam="1">  1        1 0.40717965E-01 0.11415944E+04</pdfrwt>
<pdfrwt beam="2">  1       -1 0.18938731E+00 0.11415944E+04</pdfrwt>
<totfact> 0.18316016E+01</totfact>
</mgrwt>
</event>
<event>
12    2  0.3751044E-008  0.1734434E+04  0.7818608E-02  0.8741966E-01
          2   -1    0    0  501    0  0.00000000000E+00  0.00000000000E+00  0.30306219810E+04  0.30306219810E+04  0.00000000000E+00 0. -1.
         -2   -1    0    0    0  501 -0.00000000000E+00 -0.00000000000E+00 -0.24815532890E+03  0.24815532890E+03  0.00000000000E+00 0.  1.
         23    2    1    2    0    0  0.56420597829E+03  0.44942717727E+02  0.15612950453E+04  0.16632329988E+04  0.91397790214E+02 0.  0.
        254    2    1    2    0    0 -0.56420597829E+03 -0.44942717727E+02  0.12211716068E+04  0.16155443111E+04  0.89351837925E+03 0.  0.
         23    2    4    4    0    0 -0.27432424078E+03 -0.33673868254E+03  0.15693701363E+03  0.47103433121E+03  0.92722087610E+02 0.  0.
         23    2    4    4    0    0 -0.28988173751E+03  0.29179596482E+03  0.10642345932E+04  0.11445099799E+04  0.90174929596E+02 0.  0.
          4    1    3    3  502    0  0.51196014952E+03  0.66037514243E+02  0.13800502814E+04  0.14734323626E+04  0.00000000000E+00 0. -1.
         -4    1    3    3    0  502  0.52245828765E+02 -0.21094796516E+02  0.18124476392E+03  0.18980063623E+03  0.00000000000E+00 0.  1.
         11    1    5    5    0    0  0.59487822382E+01 -0.65105435997E+01 -0.30016291372E+01  0.93158448656E+01  0.00000000000E+00 0.  1.
        -11    1    5    5    0    0 -0.28027302302E+03 -0.33022813894E+03  0.15993864277E+03  0.46171848635E+03  0.00000000000E+00 0. -1.
          4    1    6    6  503    0 -0.24051774076E+03  0.27993218590E+03  0.90440678569E+03  0.97681239054E+03  0.00000000000E+00 0. -1.
         -4    1    6    6    0  503 -0.49363996752E+02  0.11863778919E+02  0.15982780752E+03  0.16769758938E+03  0.00000000000E+00 0.  1.
<mgrwt>
<rscale>  0 0.17344336E+04</rscale>
<asrwt>0</asrwt>
<pdfrwt beam="1">  1        2 0.46624951E+00 0.17344336E+04</pdfrwt>
<pdfrwt beam="2">  1       -2 0.38177745E-01 0.17344336E+04</pdfrwt>
<totfact> 0.10287780E+01</totfact>
</mgrwt>
</event>
<event>
12    2  0.3751044E-008  0.2576783E+04  0.7818608E-02  0.8376131E-01
         -1   -1    0    0    0  501 -0.00000000000E+00  0.00000000000E+00  0.21110823974E+04  0.21110823974E+04  0.00000000000E+00 0.  1.
          1   -1    0    0  501    0  0.00000000000E+00 -0.00000000000E+00 -0.78630392312E+03  0.78630392312E+03  0.00000000000E+00 0. -1.
         23    2    1    2    0    0  0.40883268759E+03  0.10430660030E+04  0.74715803450E+03  0.13497872195E+04  0.92463810630E+02 0.  0.
        254    2    1    2    0    0 -0.40883268759E+03 -0.10430660030E+04  0.57762043981E+03  0.15475991010E+04  0.89793471476E+03 0.  0.
         23    2    4    4    0    0  0.17601264711E+03 -0.69591266655E+03  0.44228325496E+03  0.84796530164E+03  0.90309377985E+02 0.  0.
         23    2    4    4    0    0 -0.58484533470E+03 -0.34715333647E+03  0.13533718485E+03  0.69963379941E+03  0.92799758254E+02 0.  0.
          3    1    3    3  502    0  0.14238134518E+03  0.43073049207E+03  0.34836140065E+03  0.57197628422E+03  0.00000000000E+00 0. -1.
         -3    1    3    3    0  502  0.26645134241E+03  0.61233551096E+03  0.39879663385E+03  0.77781093527E+03  0.00000000000E+00 0.  1.
         11    1    5    5    0    0  0.94488718334E+01 -0.31795609918E+01  0.12151274894E+02  0.15717641953E+02  0.00000000000E+00 0. -1.
        -11    1    5    5    0    0  0.16656377528E+03 -0.69273310556E+03  0.43013198007E+03  0.83224765969E+03  0.00000000000E+00 0.  1.
          1    1    6    6  503    0 -0.93638027174E+02 -0.62570545331E+02  0.58070372095E+02  0.12670959471E+03  0.00000000000E+00 0. -1.
         -1    1    6    6    0  503 -0.49120730753E+03 -0.28458279114E+03  0.77266812751E+02  0.57292420470E+03  0.00000000000E+00 0.  1.
<mgrwt>
<rscale>  0 0.25767828E+04</rscale>
<asrwt>0</asrwt>
<pdfrwt beam="1">  1        1 0.12096984E+00 0.25767828E+04</pdfrwt>
<pdfrwt beam="2">  1       -1 0.32478190E+00 0.25767828E+04</pdfrwt>
<totfact> 0.45692027E-01</totfact>
</mgrwt>
</event>
<event>
12    2  0.3751044E-008  0.1533715E+04  0.7818608E-02  0.8862337E-01
          2   -1    0    0  501    0  0.00000000000E+00  0.00000000000E+00  0.22714684905E+04  0.22714684905E+04  0.00000000000E+00 0. -1.
         -2   -1    0    0    0  501 -0.00000000000E+00 -0.00000000000E+00 -0.25889451794E+03  0.25889451794E+03  0.00000000000E+00 0.  1.
         23    2    1    2    0    0 -0.26745890165E+03 -0.40616595046E+03  0.49460161309E+03  0.69799367963E+03  0.77842005075E+02 0.  0.
        254    2    1    2    0    0  0.26745890165E+03  0.40616595046E+03  0.15179723595E+04  0.18323693288E+04  0.90378771270E+03 0.  0.
         23    2    4    4    0    0  0.50022702652E+03  0.52682548013E+02  0.11726018285E+04  0.12792487052E+04  0.92085137499E+02 0.  0.
         23    2    4    4    0    0 -0.23276812487E+03  0.35348340245E+03  0.34537053097E+03  0.55312062363E+03  0.86776176778E+02 0.  0.
          3    1    3    3  502    0 -0.49333971201E+02 -0.10634508730E+03  0.16153897699E+03  0.19959448738E+03  0.00000000000E+00 0.  1.
         -3    1    3    3    0  502 -0.21812493045E+03 -0.29982086316E+03  0.33306263610E+03  0.49839919225E+03  0.00000000000E+00 0. -1.
         11    1    5    5    0    0  0.13358541962E+02 -0.14353645562E+02  0.53793278409E+02  0.57255520138E+02  0.00000000000E+00 0.  1.
        -11    1    5    5    0    0  0.48686848456E+03  0.67036193575E+02  0.11188085501E+04  0.12219931851E+04  0.00000000000E+00 0. -1.
          4    1    6    6  503    0 -0.13004815526E+03  0.14445600280E+03  0.11663706606E+03  0.22668097540E+03  0.00000000000E+00 0. -1.
         -4    1    6    6    0  503 -0.10271996961E+03  0.20902739965E+03  0.22873346492E+03  0.32643964823E+03  0.00000000000E+00 0.  1.
<mgrwt>
<rscale>  0 0.15337154E+04</rscale>
<asrwt>0</asrwt>
<pdfrwt beam="1">  1        2 0.34945668E+00 0.15337154E+04</pdfrwt>
<pdfrwt beam="2">  1       -2 0.39829927E-01 0.15337154E+04</pdfrwt>
<totfact> 0.27081048E+01</totfact>
</mgrwt>
</event>
<event>
12    2  0.3751044E-008  0.1565455E+04  0.7818608E-02  0.8842056E-01
          3   -1    0    0  501    0  0.00000000000E+00  0.00000000000E+00  0.48066690367E+03  0.48066690367E+03  0.00000000000E+00 0. -1.
         -3   -1    0    0    0  501 -0.00000000000E+00 -0.00000000000E+00 -0.12746095949E+04  0.12746095949E+04  0.00000000000E+00 0.  1.
         23    2    1    2    0    0  0.38541291665E+03  0.34378649239E+03 -0.32046383554E+03  0.61449180041E+03  0.90392666823E+02 0.  0.
        254    2    1    2    0    0 -0.38541291665E+03 -0.34378649239E+03 -0.47347885568E+03  0.11407846981E+04  0.90026397910E+03 0.  0.
         23    2    4    4    0    0  0.53594998807E+02  0.11122697183E+03  0.17353514188E+03  0.23148109151E+03  0.90692817253E+02 0.  0.
         23    2    4    4    0    0 -0.43900791546E+03 -0.45501346422E+03 -0.64701399755E+03  0.90930360663E+03  0.91873464845E+02 0.  0.
          4    1    3    3  502    0  0.14264157835E+03  0.77751508188E+02 -0.12290577880E+03  0.20370995892E+03  0.00000000000E+00 0.  1.
         -4    1    3    3    0  502  0.24277133830E+03  0.26603498420E+03 -0.19755805673E+03  0.41078184149E+03  0.00000000000E+00 0. -1.
         11    1    5    5    0    0  0.52770686033E+02  0.12356817428E+03  0.17306801096E+03  0.21910357235E+03  0.00000000000E+00 0. -1.
        -11    1    5    5    0    0  0.82431277375E+00 -0.12341202447E+02  0.46713092077E+00  0.12377519165E+02  0.00000000000E+00 0.  1.
          4    1    6    6  503    0 -0.33639148387E+03 -0.39747645888E+03 -0.51284169335E+03  0.73085796719E+03  0.00000000000E+00 0. -1.
         -4    1    6    6    0  503 -0.10261643159E+03 -0.57537005342E+02 -0.13417230421E+03  0.17844563943E+03  0.00000000000E+00 0.  1.
<mgrwt>
<rscale>  0 0.15654554E+04</rscale>
<asrwt>0</asrwt>
<pdfrwt beam="1">  1        3 0.73948756E-01 0.15654554E+04</pdfrwt>
<pdfrwt beam="2">  1       -3 0.19609378E+00 0.15654554E+04</pdfrwt>
<totfact> 0.67604585E-01</totfact>
</mgrwt>
</event>
<event>
12    2  0.3751044E-008  0.1558239E+04  0.7818608E-02  0.8846622E-01
          1   -1    0    0  501    0  0.00000000000E+00  0.00000000000E+00  0.21694914142E+04  0.21694914142E+04  0.00000000000E+00 0. -1.
         -1   -1    0    0    0  501 -0.00000000000E+00 -0.00000000000E+00 -0.27980162095E+03  0.27980162095E+03  0.00000000000E+00 0.  1.
         23    2    1    2    0    0  0.12545031973E+03  0.26593279150E+03  0.12892273228E+04  0.13255106222E+04  0.91723973890E+02 0.  0.
        254    2    1    2    0    0 -0.12545031973E+03 -0.26593279150E+03  0.60046247051E+03  0.11237824130E+04  0.90325727288E+03 0.  0.
         23    2    4    4    0    0 -0.29426991591E+03  0.13180470213E+03 -0.48157136026E+02  0.33910081206E+03  0.93289806910E+02 0.  0.
         23    2    4    4    0    0  0.16881959618E+03 -0.39773749363E+03  0.64861960653E+03  0.78468160096E+03  0.91228564649E+02 0.  0.
          1    1    3    3  502    0  0.12140434427E+03  0.26479605934E+03  0.11533415451E+04  0.11895598714E+04  0.00000000000E+00 0. -1.
         -1    1    3    3    0  502  0.40459754619E+01  0.11367321591E+01  0.13588577766E+03  0.13595075082E+03  0.00000000000E+00 0.  1.
         11    1    5    5    0    0 -0.17241329979E+03  0.86087451862E+02 -0.73962906437E+02  0.20641682790E+03  0.00000000000E+00 0. -1.
        -11    1    5    5    0    0 -0.12185661613E+03  0.45717250267E+02  0.25805770411E+02  0.13268398416E+03  0.00000000000E+00 0.  1.
          3    1    6    6  503    0  0.17296022032E+03 -0.35601628956E+03  0.61293838370E+03  0.72962750665E+03  0.00000000000E+00 0. -1.
         -3    1    6    6    0  503 -0.41406241321E+01 -0.41721204074E+02  0.35681222828E+02  0.55054094309E+02  0.00000000000E+00 0.  1.
<mgrwt>
<rscale>  0 0.15582390E+04</rscale>
<asrwt>0</asrwt>
<pdfrwt beam="1">  1        1 0.33376790E+00 0.15582390E+04</pdfrwt>
<pdfrwt beam="2">  1       -1 0.43046405E-01 0.15582390E+04</pdfrwt>
<totfact> 0.11716609E+01</totfact>
</mgrwt>
</event>
<event>
12    2  0.3751044E-008  0.2683751E+04  0.7818608E-02  0.8340296E-01
         -1   -1    0    0    0  501 -0.00000000000E+00  0.00000000000E+00  0.12299499478E+04  0.12299499478E+04  0.00000000000E+00 0.  1.
          1   -1    0    0  501    0  0.00000000000E+00 -0.00000000000E+00 -0.14639864103E+04  0.14639864103E+04  0.00000000000E+00 0. -1.
         23    2    1    2    0    0  0.58061552337E+03 -0.75768612849E+03 -0.81649534910E+03  0.12589995256E+04  0.84926410415E+02 0.  0.
        254    2    1    2    0    0 -0.58061552337E+03  0.75768612849E+03  0.58245888660E+03  0.14349368325E+04  0.89921226821E+03 0.  0.
         23    2    4    4    0    0 -0.60863756084E+03  0.84745462307E+02  0.18590349916E+03  0.64843542375E+03  0.91032488314E+02 0.  0.
         23    2    4    4    0    0  0.28022037478E+02  0.67294066618E+03  0.39655538744E+03  0.78650140871E+03  0.87714969083E+02 0.  0.
          1    1    3    3  502    0  0.70683054615E+02 -0.11380717486E+03 -0.15115835933E+03  0.20198271425E+03  0.00000000000E+00 0. -1.
         -1    1    3    3    0  502  0.50993246875E+03 -0.64387895363E+03 -0.66533698976E+03  0.10570168114E+04  0.00000000000E+00 0.  1.
         11    1    5    5    0    0 -0.43882245398E+03  0.41055957384E+02  0.16993370070E+03  0.47236447833E+03  0.00000000000E+00 0. -1.
        -11    1    5    5    0    0 -0.16981510686E+03  0.43689504923E+02  0.15969798453E+02  0.17607094542E+03  0.00000000000E+00 0.  1.
          1    1    6    6  503    0  0.44636116055E+02  0.63230858625E+03  0.38278970214E+03  0.74049610882E+03  0.00000000000E+00 0. -1.
         -1    1    6    6    0  503 -0.16614078576E+02  0.40632079931E+02  0.13765685306E+02  0.46005299895E+02  0.00000000000E+00 0.  1.
<mgrwt>
<rscale>  0 0.26837511E+04</rscale>
<asrwt>0</asrwt>
<pdfrwt beam="1">  1        1 0.22522868E+00 0.26837511E+04</pdfrwt>
<pdfrwt beam="2">  1       -1 0.18922307E+00 0.26837511E+04</pdfrwt>
<totfact> 0.10842996E+00</totfact>
</mgrwt>
</event>
<event>
12    2  0.3751044E-008  0.1593816E+04  0.7818608E-02  0.8824356E-01
         -1   -1    0    0    0  501 -0.00000000000E+00  0.00000000000E+00  0.71082004009E+03  0.71082004009E+03  0.00000000000E+00 0.  1.
          1   -1    0    0  501    0  0.00000000000E+00 -0.00000000000E+00 -0.89342164943E+03  0.89342164943E+03  0.00000000000E+00 0. -1.
         23    2    1    2    0    0 -0.43160624213E+03 -0.16369668171E+03  0.21178649391E+03  0.51653545382E+03  0.94206179196E+02 0.  0.
        254    2    1    2    0    0  0.43160624213E+03  0.16369668171E+03 -0.39438810325E+03  0.10877062357E+04  0.90248674635E+03 0.  0.
         23    2    4    4    0    0  0.18299671003E+03  0.52628950230E+03 -0.21480477725E+03  0.60413325571E+03  0.91473833530E+02 0.  0.
         23    2    4    4    0    0  0.24860953211E+03 -0.36259282058E+03 -0.17958332600E+03  0.48357297999E+03  0.91172380708E+02 0.  0.
          2    1    3    3  502    0 -0.21431741395E+03 -0.99453591600E+02  0.15618749815E+03  0.28322695031E+03  0.00000000000E+00 0. -1.
         -2    1    3    3    0  502 -0.21728882818E+03 -0.64243090113E+02  0.55598995765E+02  0.23330850351E+03  0.00000000000E+00 0.  1.
         11    1    5    5    0    0  0.12584169062E+03  0.22403594545E+03 -0.92520306417E+02  0.27310848220E+03  0.00000000000E+00 0. -1.
        -11    1    5    5    0    0  0.57155019404E+02  0.30225355685E+03 -0.12228447083E+03  0.33102477351E+03  0.00000000000E+00 0.  1.
          4    1    6    6  503    0  0.51105134954E+02 -0.87690876568E+02 -0.84255303814E+02  0.13191050327E+03  0.00000000000E+00 0. -1.
         -4    1    6    6    0  503  0.19750439715E+03 -0.27490194401E+03 -0.95328022188E+02  0.35166247672E+03  0.00000000000E+00 0.  1.
<mgrwt>
<rscale>  0 0.15938156E+04</rscale>
<asrwt>0</asrwt>
<pdfrwt beam="1">  1        1 0.13744948E+00 0.15938156E+04</pdfrwt>
<pdfrwt beam="2">  1       -1 0.10935693E+00 0.15938156E+04</pdfrwt>
<totfact> 0.13691662E+01</totfact>
</mgrwt>
</event>
<event>
12    2  0.3751044E-008  0.3282234E+04  0.7818608E-02  0.8167431E-01
          1   -1    0    0  501    0  0.00000000000E+00  0.00000000000E+00  0.19271552084E+04  0.19271552084E+04  0.00000000000E+00 0. -1.
         -1   -1    0    0    0  501 -0.00000000000E+00 -0.00000000000E+00 -0.13975338399E+04  0.13975338399E+04  0.00000000000E+00 0.  1.
         23    2    1    2    0    0  0.12939522118E+04 -0.69022935522E+03  0.64234711327E+03  0.16036047376E+04  0.90606022267E+02 0.  0.
        254    2    1    2    0    0 -0.12939522118E+04  0.69022935522E+03 -0.11272574478E+03  0.17210843106E+04  0.89369750002E+03 0.  0.
         23    2    4    4    0    0 -0.10015137061E+04  0.23253654412E+03  0.24913190186E+03  0.10619567832E+04  0.92642090251E+02 0.  0.
         23    2    4    4    0    0 -0.29243850566E+03  0.45769281110E+03 -0.36185764664E+03  0.65912752745E+03  0.92223381463E+02 0.  0.
          4    1    3    3  502    0  0.38389200161E+02 -0.70144081779E+01  0.83928970818E+01  0.39917080711E+02  0.00000000000E+00 0. -1.
         -4    1    3    3    0  502  0.12555630116E+04 -0.68321494704E+03  0.63395421618E+03  0.15636876569E+04  0.00000000000E+00 0.  1.
         11    1    5    5    0    0 -0.63397951293E+03  0.19028088357E+03  0.14480999927E+03  0.67757418292E+03  0.00000000000E+00 0.  1.
        -11    1    5    5    0    0 -0.36753419321E+03  0.42255660549E+02  0.10432190259E+03  0.38438260027E+03  0.00000000000E+00 0. -1.
          4    1    6    6  503    0 -0.70395833511E+02  0.11561757184E+03 -0.44884649842E+02  0.14261005604E+03  0.00000000000E+00 0. -1.
         -4    1    6    6    0  503 -0.22204267215E+03  0.34207523926E+03 -0.31697299680E+03  0.51651747141E+03  0.00000000000E+00 0.  1.
<mgrwt>
<rscale>  0 0.32822338E+04</rscale>
<asrwt>0</asrwt>
<pdfrwt beam="1">  1        1 0.29648542E+00 0.32822338E+04</pdfrwt>
<pdfrwt beam="2">  1       -1 0.21500521E+00 0.32822338E+04</pdfrwt>
<totfact> 0.32992133E-01</totfact>
</mgrwt>
</event>
<event>
12    2  0.3751044E-008  0.1138019E+04  0.7818608E-02  0.9168908E-01
          2   -1    0    0  501    0  0.00000000000E+00  0.00000000000E+00  0.10485797347E+04  0.10485797347E+04  0.00000000000E+00 0. -1.
         -2   -1    0    0    0  501 -0.00000000000E+00 -0.00000000000E+00 -0.30877196636E+03  0.30877196636E+03  0.00000000000E+00 0.  1.
         23    2    1    2    0    0  0.88141332793E+02  0.22253630124E+02  0.36008001000E+03  0.38209607301E+03  0.89864769536E+02 0.  0.
        254    2    1    2    0    0 -0.88141332793E+02 -0.22253630124E+02  0.37972775833E+03  0.97525562804E+03  0.89368129162E+03 0.  0.
         23    2    4    4    0    0 -0.26746437132E+03 -0.38744790486E+03  0.17636478308E+03  0.51100112775E+03  0.91457897128E+02 0.  0.
         23    2    4    4    0    0  0.17932303853E+03  0.36519427474E+03  0.20336297525E+03  0.46425450029E+03  0.93016831201E+02 0.  0.
          3    1    3    3  502    0  0.85518608180E+02  0.41678635674E+02  0.34347601763E+03  0.35640751354E+03  0.00000000000E+00 0. -1.
         -3    1    3    3    0  502  0.26227246130E+01 -0.19425005550E+02  0.16603992368E+02  0.25688559468E+02  0.00000000000E+00 0.  1.
         11    1    5    5    0    0 -0.19129347062E+03 -0.25457329694E+03  0.74417249884E+02  0.32701480471E+03  0.00000000000E+00 0.  1.
        -11    1    5    5    0    0 -0.76170900698E+02 -0.13287460792E+03  0.10194753319E+03  0.18398632304E+03  0.00000000000E+00 0. -1.
          3    1    6    6  503    0  0.55082268475E+02  0.14623234139E+03  0.31429465417E+02  0.15939186072E+03  0.00000000000E+00 0. -1.
         -3    1    6    6    0  503  0.12424077005E+03  0.21896193335E+03  0.17193350983E+03  0.30486263957E+03  0.00000000000E+00 0.  1.
<mgrwt>
<rscale>  0 0.11380194E+04</rscale>
<asrwt>0</asrwt>
<pdfrwt beam="1">  1        2 0.16131996E+00 0.11380194E+04</pdfrwt>
<pdfrwt beam="2">  1       -2 0.47503380E-01 0.11380194E+04</pdfrwt>
<totfact> 0.97550104E+01</totfact>
</mgrwt>
</event>
<event>
12    2  0.3751044E-008  0.1018031E+04  0.7818608E-02  0.9288987E-01
          2   -1    0    0  501    0  0.00000000000E+00  0.00000000000E+00  0.82320681244E+03  0.82320681244E+03  0.00000000000E+00 0.  1.
         -2   -1    0    0    0  501 -0.00000000000E+00 -0.00000000000E+00 -0.31474093685E+03  0.31474093685E+03  0.00000000000E+00 0. -1.
         23    2    1    2    0    0 -0.18707367383E+02 -0.80182870287E+02  0.66749841147E+02  0.13969240887E+03  0.90989941865E+02 0.  0.
        254    2    1    2    0    0  0.18707367383E+02  0.80182870287E+02  0.44171603444E+03  0.99825534042E+03  0.89141539773E+03 0.  0.
         23    2    4    4    0    0  0.31307813729E+03  0.35401852914E+03  0.20900369716E+03  0.52477107776E+03  0.91406233999E+02 0.  0.
         23    2    4    4    0    0 -0.29437076990E+03 -0.27383565885E+03  0.23271233728E+03  0.47348426266E+03  0.91608934231E+02 0.  0.
          1    1    3    3  502    0 -0.54090312150E+02 -0.55871369912E+02  0.54788412542E+02  0.95126978262E+02  0.00000000000E+00 0. -1.
         -1    1    3    3    0  502  0.35382944768E+02 -0.24311500374E+02  0.11961428605E+02  0.44565430607E+02  0.00000000000E+00 0.  1.
         11    1    5    5    0    0  0.23277428678E+03  0.21678092336E+03  0.10584281368E+03  0.33523206667E+03  0.00000000000E+00 0. -1.
        -11    1    5    5    0    0  0.80303850506E+02  0.13723760578E+03  0.10316088348E+03  0.18953901109E+03  0.00000000000E+00 0.  1.
          1    1    6    6  503    0 -0.25171357747E+03 -0.22508449602E+03  0.23016600595E+03  0.40865528961E+03  0.00000000000E+00 0. -1.
         -1    1    6    6    0  503 -0.42657192435E+02 -0.48751162829E+02  0.25463313359E+01  0.64828973051E+02  0.00000000000E+00 0.  1.
<mgrwt>
<rscale>  0 0.10180312E+04</rscale>
<asrwt>0</asrwt>
<pdfrwt beam="1">  1        2 0.12664720E+00 0.10180312E+04</pdfrwt>
<pdfrwt beam="2">  1       -2 0.48421683E-01 0.10180312E+04</pdfrwt>
<totfact> 0.13355906E+02</totfact>
</mgrwt>
</event>
<event>
12    2  0.3751044E-008  0.2187149E+04  0.7818608E-02  0.8523796E-01
         -2   -1    0    0    0  501 -0.00000000000E+00  0.00000000000E+00  0.57182842036E+03  0.57182842036E+03  0.00000000000E+00 0.  1.
          2   -1    0    0  501    0  0.00000000000E+00 -0.00000000000E+00 -0.20913698968E+04  0.20913698968E+04  0.00000000000E+00 0. -1.
         23    2    1    2    0    0 -0.54332956337E+03 -0.24422966010E+03  0.19103298817E+03  0.63258225417E+03  0.93869933493E+02 0.  0.
        254    2    1    2    0    0  0.54332956337E+03  0.24422966010E+03 -0.17105744646E+04  0.20306160630E+04  0.91786788535E+03 0.  0.
         23    2    4    4    0    0 -0.19536493424E+03 -0.67690710582E+02 -0.71109457784E+03  0.74603954708E+03  0.90388148261E+02 0.  0.
         23    2    4    4    0    0  0.73869449762E+03  0.31192037068E+03 -0.99947988678E+03  0.12845765159E+04  0.90625066524E+02 0.  0.
          4    1    3    3  502    0 -0.39685802545E+03 -0.13661009136E+03  0.11209953820E+03  0.43442481039E+03  0.00000000000E+00 0. -1.
         -4    1    3    3    0  502 -0.14647153793E+03 -0.10761956875E+03  0.78933449972E+02  0.19815744378E+03  0.00000000000E+00 0.  1.
         11    1    5    5    0    0 -0.66846029359E+02 -0.57513518105E+02 -0.39382454450E+03  0.40357647139E+03  0.00000000000E+00 0. -1.
        -11    1    5    5    0    0 -0.12851890489E+03 -0.10177192477E+02 -0.31727003334E+03  0.34246307569E+03  0.00000000000E+00 0.  1.
          3    1    6    6  503    0  0.20209193024E+03  0.12252321904E+03 -0.25753742470E+03  0.34954057360E+03  0.00000000000E+00 0. -1.
         -3    1    6    6    0  503  0.53660256738E+03  0.18939715165E+03 -0.74194246208E+03  0.93503594231E+03  0.00000000000E+00 0.  1.
<mgrwt>
<rscale>  0 0.21871486E+04</rscale>
<asrwt>0</asrwt>
<pdfrwt beam="1">  1        2 0.32174921E+00 0.21871486E+04</pdfrwt>
<pdfrwt beam="2">  1       -2 0.87973605E-01 0.21871486E+04</pdfrwt>
<totfact> 0.60541223E+00</totfact>
</mgrwt>
</event>
<event>
12    2  0.3751044E-008  0.1506119E+04  0.7818608E-02  0.8880394E-01
         -2   -1    0    0    0  501 -0.00000000000E+00  0.00000000000E+00  0.16347391083E+04  0.16347391083E+04  0.00000000000E+00 0.  1.
          2   -1    0    0  501    0  0.00000000000E+00 -0.00000000000E+00 -0.34690474421E+03  0.34690474421E+03  0.00000000000E+00 0. -1.
         23    2    1    2    0    0 -0.15958147781E+03 -0.38821982208E+03  0.96447001875E+02  0.44015844062E+03  0.90865562032E+02 0.  0.
        254    2    1    2    0    0  0.15958147781E+03  0.38821982208E+03  0.11913873623E+04  0.15414854119E+04  0.88351148827E+03 0.  0.
         23    2    4    4    0    0 -0.31629539031E+03  0.32924713093E+03  0.41111171317E+03  0.62126955627E+03  0.92285284268E+02 0.  0.
         23    2    4    4    0    0  0.47587686812E+03  0.58972691153E+02  0.78027564909E+03  0.92021585565E+03  0.89613394705E+02 0.  0.
          3    1    3    3  502    0 -0.90721878385E+02 -0.31534088466E+03  0.86880102000E+02  0.33943848467E+03  0.00000000000E+00 0. -1.
         -3    1    3    3    0  502 -0.68859599426E+02 -0.72878937426E+02  0.95668998748E+01  0.10071995595E+03  0.00000000000E+00 0.  1.
         11    1    5    5    0    0 -0.15724191427E+03  0.22523855006E+03  0.26338795180E+03  0.38056620605E+03  0.00000000000E+00 0. -1.
        -11    1    5    5    0    0 -0.15905347604E+03  0.10400858087E+03  0.14772376136E+03  0.24070335022E+03  0.00000000000E+00 0.  1.
          1    1    6    6  503    0  0.35577592623E+03  0.34432062280E+02  0.64678185983E+03  0.73897824785E+03  0.00000000000E+00 0. -1.
         -1    1    6    6    0  503  0.12010094188E+03  0.24540628873E+02  0.13349378926E+03  0.18123760779E+03  0.00000000000E+00 0.  1.
<mgrwt>
<rscale>  0 0.15061192E+04</rscale>
<asrwt>0</asrwt>
<pdfrwt beam="1">  1        2 0.53369962E-01 0.15061192E+04</pdfrwt>
<pdfrwt beam="2">  1       -2 0.25149832E+00 0.15061192E+04</pdfrwt>
<totfact> 0.56745403E+00</totfact>
</mgrwt>
</event>
<event>
12    2  0.3751044E-008  0.1292954E+04  0.7818608E-02  0.9035172E-01
         -2   -1    0    0    0  501 -0.00000000000E+00  0.00000000000E+00  0.42709409247E+03  0.42709409247E+03  0.00000000000E+00 0.  1.
          2   -1    0    0  501    0  0.00000000000E+00 -0.00000000000E+00 -0.97854850805E+03  0.97854850805E+03  0.00000000000E+00 0. -1.
         23    2    1    2    0    0  0.30197957703E+02 -0.93877834454E+01 -0.47200926307E+03  0.48226793243E+03  0.93752691170E+02 0.  0.
        254    2    1    2    0    0 -0.30197957703E+02  0.93877834454E+01 -0.79445152511E+02  0.92337466809E+03  0.91940698186E+03 0.  0.
         23    2    4    4    0    0 -0.22094405087E+03 -0.20917631825E+03  0.30010700296E+03  0.43635738327E+03  0.88162049523E+02 0.  0.
         23    2    4    4    0    0  0.19074609317E+03  0.21856410170E+03 -0.37955215547E+03  0.48701728482E+03  0.94718838612E+02 0.  0.
          4    1    3    3  502    0  0.12157221285E+02 -0.14736540245E+02 -0.45898695982E+03  0.45938436296E+03  0.00000000000E+00 0. -1.
         -4    1    3    3    0  502  0.18040736418E+02  0.53487567996E+01 -0.13022303248E+02  0.22883569470E+02  0.00000000000E+00 0.  1.
         11    1    5    5    0    0 -0.22633057954E+03 -0.20100310080E+03  0.30054111720E+03  0.42655918803E+03  0.00000000000E+00 0.  1.
        -11    1    5    5    0    0  0.53865286759E+01 -0.81732174529E+01 -0.43411423989E+00  0.97981952360E+01  0.00000000000E+00 0. -1.
          1    1    6    6  503    0  0.14383151190E+03  0.10224060165E+03 -0.25623099710E+03  0.31111889739E+03  0.00000000000E+00 0. -1.
         -1    1    6    6    0  503  0.46914581266E+02  0.11632350005E+03 -0.12332115837E+03  0.17589838743E+03  0.00000000000E+00 0.  1.
<mgrwt>
<rscale>  0 0.12929537E+04</rscale>
<asrwt>0</asrwt>
<pdfrwt beam="1">  1        2 0.15054592E+00 0.12929537E+04</pdfrwt>
<pdfrwt beam="2">  1       -2 0.65706784E-01 0.12929537E+04</pdfrwt>
<totfact> 0.54406372E+01</totfact>
</mgrwt>
</event>
<event>
12    2  0.3751044E-008  0.2992677E+04  0.7818608E-02  0.8245825E-01
         -1   -1    0    0    0  501 -0.00000000000E+00  0.00000000000E+00  0.86969867939E+03  0.86969867939E+03  0.00000000000E+00 0.  1.
          1   -1    0    0  501    0  0.00000000000E+00 -0.00000000000E+00 -0.25744885771E+04  0.25744885771E+04  0.00000000000E+00 0. -1.
         23    2    1    2    0    0 -0.32629854975E+03 -0.11793664166E+04 -0.14643167100E+04  0.19104783708E+04  0.91259465244E+02 0.  0.
        254    2    1    2    0    0  0.32629854975E+03  0.11793664166E+04 -0.24047318778E+03  0.15337088857E+04  0.89278200247E+03 0.  0.
         23    2    4    4    0    0 -0.16481625164E+03  0.45304163019E+03 -0.40570682811E+03  0.63680340866E+03  0.92246601133E+02 0.  0.
         23    2    4    4    0    0  0.49111480139E+03  0.72632478642E+03  0.16523364032E+03  0.89690547707E+03  0.91628791266E+02 0.  0.
          2    1    3    3  502    0 -0.27489245963E+02 -0.17954554126E+03 -0.25668577721E+03  0.31445166282E+03  0.00000000000E+00 0. -1.
         -2    1    3    3    0  502 -0.29880930378E+03 -0.99982087535E+03 -0.12076309327E+04  0.15960267080E+04  0.00000000000E+00 0.  1.
         11    1    5    5    0    0 -0.13525252061E+03  0.43627124947E+03 -0.38066875290E+03  0.59458771168E+03  0.00000000000E+00 0. -1.
        -11    1    5    5    0    0 -0.29563731028E+02  0.16770380727E+02 -0.25038075202E+02  0.42215696984E+02  0.00000000000E+00 0.  1.
          1    1    6    6  503    0  0.14932998081E+03  0.19694850624E+03  0.86607747698E+02  0.26189513023E+03  0.00000000000E+00 0. -1.
         -1    1    6    6    0  503  0.34178482058E+03  0.52937628018E+03  0.78625892625E+02  0.63501034683E+03  0.00000000000E+00 0.  1.
<mgrwt>
<rscale>  0 0.29926773E+04</rscale>
<asrwt>0</asrwt>
<pdfrwt beam="1">  1        1 0.39607516E+00 0.29926773E+04</pdfrwt>
<pdfrwt beam="2">  1       -1 0.13379980E+00 0.29926773E+04</pdfrwt>
<totfact> 0.48230346E-01</totfact>
</mgrwt>
</event>
<event>
12    2  0.3751044E-008  0.2045816E+04  0.7818608E-02  0.8585495E-01
         -1   -1    0    0    0  501 -0.00000000000E+00  0.00000000000E+00  0.56759302705E+03  0.56759302705E+03  0.00000000000E+00 0.  1.
          1   -1    0    0  501    0  0.00000000000E+00 -0.00000000000E+00 -0.18434692455E+04  0.18434692455E+04  0.00000000000E+00 0. -1.
         23    2    1    2    0    0 -0.64882171112E+02  0.82004834385E+03 -0.43187231832E+03  0.93360933732E+03  0.91780787837E+02 0.  0.
        254    2    1    2    0    0  0.64882171112E+02 -0.82004834385E+03 -0.84400390013E+03  0.14774529352E+04  0.89097452828E+03 0.  0.
         23    2    4    4    0    0  0.20371004904E+02  0.18122243195E+03 -0.18029611643E+03  0.27193664451E+03  0.90478181603E+02 0.  0.
         23    2    4    4    0    0  0.44511166208E+02 -0.10012707758E+04 -0.66370778370E+03  0.12055162907E+04  0.90758441388E+02 0.  0.
          3    1    3    3  502    0 -0.86926816944E+02  0.68249269965E+03 -0.36985248354E+03  0.78111677498E+03  0.00000000000E+00 0. -1.
         -3    1    3    3    0  502  0.22044645832E+02  0.13755564420E+03 -0.62019834781E+02  0.15249256233E+03  0.00000000000E+00 0.  1.
         11    1    5    5    0    0  0.16970789678E+02  0.18595922149E+03 -0.18615464621E+03  0.26367099209E+03  0.00000000000E+00 0.  1.
        -11    1    5    5    0    0  0.34002152262E+01 -0.47367895424E+01  0.58585297864E+01  0.82656524250E+01  0.00000000000E+00 0. -1.
          4    1    6    6  503    0  0.97909508433E+01 -0.23525087949E+03 -0.20350888969E+03  0.31121488911E+03  0.00000000000E+00 0. -1.
         -4    1    6    6    0  503  0.34720215365E+02 -0.76601989630E+03 -0.46019889401E+03  0.89430140162E+03  0.00000000000E+00 0.  1.
<mgrwt>
<rscale>  0 0.20458155E+04</rscale>
<asrwt>0</asrwt>
<pdfrwt beam="1">  1        1 0.28361065E+00 0.20458155E+04</pdfrwt>
<pdfrwt beam="2">  1       -1 0.87322006E-01 0.20458155E+04</pdfrwt>
<totfact> 0.45394484E+00</totfact>
</mgrwt>
</event>
<event>
12    2  0.3751044E-008  0.2077789E+04  0.7818608E-02  0.8571091E-01
          2   -1    0    0  501    0  0.00000000000E+00  0.00000000000E+00  0.15688365638E+04  0.15688365638E+04  0.00000000000E+00 0. -1.
         -2   -1    0    0    0  501 -0.00000000000E+00 -0.00000000000E+00 -0.68796285570E+03  0.68796285570E+03  0.00000000000E+00 0.  1.
         23    2    1    2    0    0  0.56133149637E+03  0.24748465557E+03 -0.26680239034E+03  0.67492939893E+03  0.89467728782E+02 0.  0.
        254    2    1    2    0    0 -0.56133149637E+03 -0.24748465557E+03  0.11476760984E+04  0.15818700205E+04  0.89933899696E+03 0.  0.
         23    2    4    4    0    0 -0.53043937261E+03 -0.15786550768E+03  0.12788248714E+04  0.13964349383E+04  0.91378546426E+02 0.  0.
         23    2    4    4    0    0 -0.30892123762E+02 -0.89619147884E+02 -0.13114877296E+03  0.18543508224E+03  0.90555254384E+02 0.  0.
          4    1    3    3  502    0  0.46175532286E+03  0.16725347157E+03 -0.19617013694E+03  0.52884253286E+03  0.00000000000E+00 0.  1.
         -4    1    3    3    0  502  0.99576173515E+02  0.80231184000E+02 -0.70632253398E+02  0.14608686607E+03  0.00000000000E+00 0. -1.
         11    1    5    5    0    0 -0.36136571570E+03 -0.94705683218E+02  0.95910404165E+03  0.10292885454E+04  0.00000000000E+00 0. -1.
        -11    1    5    5    0    0 -0.16907365691E+03 -0.63159824464E+02  0.31972082971E+03  0.36714639293E+03  0.00000000000E+00 0.  1.
          4    1    6    6  503    0  0.38421980126E+01  0.17260421640E+02 -0.26604067685E+02  0.31944656175E+02  0.00000000000E+00 0.  1.
         -4    1    6    6    0  503 -0.34734321775E+02 -0.10687956952E+03 -0.10454470528E+03  0.15349042606E+03  0.00000000000E+00 0. -1.
<mgrwt>
<rscale>  0 0.20777885E+04</rscale>
<asrwt>0</asrwt>
<pdfrwt beam="1">  1        2 0.24135947E+00 0.20777885E+04</pdfrwt>
<pdfrwt beam="2">  1       -2 0.10584044E+00 0.20777885E+04</pdfrwt>
<totfact> 0.77300903E+00</totfact>
</mgrwt>
</event>
<event>
12    2  0.3751044E-008  0.1344191E+04  0.7818608E-02  0.8995237E-01
          2   -1    0    0  501    0  0.00000000000E+00  0.00000000000E+00  0.10572091936E+04  0.10572091936E+04  0.00000000000E+00 0. -1.
         -2   -1    0    0    0  501 -0.00000000000E+00 -0.00000000000E+00 -0.42726879178E+03  0.42726879178E+03  0.00000000000E+00 0.  1.
         23    2    1    2    0    0  0.50395842409E+02 -0.33840486363E+03  0.30161052443E+03  0.46519405179E+03  0.91536903548E+02 0.  0.
        254    2    1    2    0    0 -0.50395842409E+02  0.33840486363E+03  0.32832987743E+03  0.10192839336E+04  0.90226472628E+03 0.  0.
         23    2    4    4    0    0  0.21671536744E+03  0.27232837563E+03  0.54826584716E+03  0.65609449017E+03  0.93467888653E+02 0.  0.
         23    2    4    4    0    0 -0.26711120984E+03  0.66076487998E+02 -0.21993596973E+03  0.36318944346E+03  0.88432122943E+02 0.  0.
          2    1    3    3  502    0  0.31049324143E+02 -0.29210459594E+03  0.21120679267E+03  0.36179754666E+03  0.00000000000E+00 0. -1.
         -2    1    3    3    0  502  0.19346518267E+02 -0.46300267693E+02  0.90403731751E+02  0.10339650512E+03  0.00000000000E+00 0.  1.
         11    1    5    5    0    0  0.20619799883E+03  0.19993426280E+03  0.43716454527E+03  0.52307185339E+03  0.00000000000E+00 0. -1.
        -11    1    5    5    0    0  0.10517368608E+02  0.72394112831E+02  0.11110130189E+03  0.13302263678E+03  0.00000000000E+00 0.  1.
          1    1    6    6  503    0 -0.15809847177E+03  0.82126522060E+02 -0.12367754333E+03  0.21687790834E+03  0.00000000000E+00 0. -1.
         -1    1    6    6    0  503 -0.10901273807E+03 -0.16050034063E+02 -0.96258426402E+02  0.14631153512E+03  0.00000000000E+00 0.  1.
<mgrwt>
<rscale>  0 0.13441912E+04</rscale>
<asrwt>0</asrwt>
<pdfrwt beam="1">  1        2 0.16264757E+00 0.13441912E+04</pdfrwt>
<pdfrwt beam="2">  1       -2 0.65733660E-01 0.13441912E+04</pdfrwt>
<totfact> 0.48245392E+01</totfact>
</mgrwt>
</event>
<event>
12    2  0.3751044E-008  0.1549261E+04  0.7818608E-02  0.8852340E-01
          3   -1    0    0  501    0  0.00000000000E+00  0.00000000000E+00  0.34221181491E+03  0.34221181491E+03  0.00000000000E+00 0. -1.
         -3   -1    0    0    0  501 -0.00000000000E+00 -0.00000000000E+00 -0.17534521349E+04  0.17534521349E+04  0.00000000000E+00 0.  1.
         23    2    1    2    0    0  0.40758767120E+03  0.25283449865E+03 -0.58508273527E+03  0.76157158190E+03  0.87272411576E+02 0.  0.
        254    2    1    2    0    0 -0.40758767120E+03 -0.25283449865E+03 -0.82615758470E+03  0.13340923679E+04  0.93124277065E+03 0.  0.
         23    2    4    4    0    0  0.36836063191E+02  0.24281699000E+03  0.11982933800E+02  0.25995642344E+03  0.84360922255E+02 0.  0.
         23    2    4    4    0    0 -0.44442373439E+03 -0.49565148865E+03 -0.83814051850E+03  0.10741359444E+04  0.90031352938E+02 0.  0.
          3    1    3    3  502    0  0.11303347829E+03  0.10890547676E+03 -0.22815243351E+03  0.27693050211E+03  0.00000000000E+00 0. -1.
         -3    1    3    3    0  502  0.29455419292E+03  0.14392902189E+03 -0.35693030176E+03  0.48464107979E+03  0.00000000000E+00 0.  1.
         11    1    5    5    0    0  0.34873565910E+02  0.96874218887E+02  0.41563867567E+02  0.11103303550E+03  0.00000000000E+00 0. -1.
        -11    1    5    5    0    0  0.19624972805E+01  0.14594277111E+03 -0.29580933767E+02  0.14892338795E+03  0.00000000000E+00 0.  1.
          4    1    6    6  503    0 -0.36704988668E+03 -0.36593401675E+03 -0.68564062753E+03  0.85949775686E+03  0.00000000000E+00 0. -1.
         -4    1    6    6    0  503 -0.77373847714E+02 -0.12971747189E+03 -0.15249989097E+03  0.21463818759E+03  0.00000000000E+00 0.  1.
<mgrwt>
<rscale>  0 0.15492605E+04</rscale>
<asrwt>0</asrwt>
<pdfrwt beam="1">  1        3 0.52647972E-01 0.15492605E+04</pdfrwt>
<pdfrwt beam="2">  1       -3 0.26976187E+00 0.15492605E+04</pdfrwt>
<totfact> 0.50763614E-01</totfact>
</mgrwt>
</event>
<event>
12    2  0.3751044E-008  0.1812976E+04  0.7818608E-02  0.8699429E-01
          2   -1    0    0  501    0  0.00000000000E+00  0.00000000000E+00  0.15053894959E+04  0.15053894959E+04  0.00000000000E+00 0. -1.
         -2   -1    0    0    0  501 -0.00000000000E+00 -0.00000000000E+00 -0.54585236152E+03  0.54585236152E+03  0.00000000000E+00 0.  1.
         23    2    1    2    0    0  0.15776960163E+03 -0.56713462397E+03 -0.11207570283E+02  0.59587712253E+03  0.91711540243E+02 0.  0.
        254    2    1    2    0    0 -0.15776960163E+03  0.56713462397E+03  0.97074470467E+03  0.14553647349E+04  0.91060875298E+03 0.  0.
         23    2    4    4    0    0  0.29121605937E+02 -0.21942395034E+03  0.99159508145E+02  0.26308062252E+03  0.10190126582E+03 0.  0.
         23    2    4    4    0    0 -0.18689120757E+03  0.78655857431E+03  0.87158519652E+03  0.11922841124E+04  0.90983160625E+02 0.  0.
          1    1    3    3  502    0 -0.12241328612E+02 -0.35662171419E+02  0.14278756108E+01  0.37731676683E+02  0.00000000000E+00 0. -1.
         -1    1    3    3    0  502  0.17001093024E+03 -0.53147245255E+03 -0.12635445894E+02  0.55814544585E+03  0.00000000000E+00 0.  1.
         11    1    5    5    0    0 -0.30850369520E+02 -0.10897589278E+03  0.21318296929E+02  0.11524738734E+03  0.00000000000E+00 0.  1.
        -11    1    5    5    0    0  0.59971975457E+02 -0.11044805756E+03  0.77841211215E+02  0.14783323518E+03  0.00000000000E+00 0. -1.
          1    1    6    6  503    0 -0.13072025982E+03  0.39297524221E+03  0.40456017092E+03  0.57895272623E+03  0.00000000000E+00 0. -1.
         -1    1    6    6    0  503 -0.56170947748E+02  0.39358333210E+03  0.46702502560E+03  0.61333138613E+03  0.00000000000E+00 0.  1.
<mgrwt>
<rscale>  0 0.18129759E+04</rscale>
<asrwt>0</asrwt>
<pdfrwt beam="1">  1        2 0.23159838E+00 0.18129759E+04</pdfrwt>
<pdfrwt beam="2">  1       -2 0.83977287E-01 0.18129759E+04</pdfrwt>
<totfact> 0.14724045E+01</totfact>
</mgrwt>
</event>
<event>
12    2  0.3751044E-008  0.1216524E+04  0.7818608E-02  0.9098515E-01
         -1   -1    0    0    0  501 -0.00000000000E+00  0.00000000000E+00  0.37000196756E+03  0.37000196756E+03  0.00000000000E+00 0.  1.
          1   -1    0    0  501    0  0.00000000000E+00 -0.00000000000E+00 -0.99994809533E+03  0.99994809533E+03  0.00000000000E+00 0. -1.
         23    2    1    2    0    0  0.10331013846E+03 -0.20362069758E+03 -0.28476772490E+03  0.37625395321E+03  0.91323638625E+02 0.  0.
        254    2    1    2    0    0 -0.10331013846E+03  0.20362069758E+03 -0.34517840287E+03  0.99369610967E+03  0.90340990440E+03 0.  0.
         23    2    4    4    0    0 -0.57344211078E+02  0.53737844385E+03 -0.33766716468E+03  0.64387089188E+03  0.92123074457E+02 0.  0.
         23    2    4    4    0    0 -0.45965927385E+02 -0.33375774627E+03 -0.75112381983E+01  0.34982521779E+03  0.93883782552E+02 0.  0.
          2    1    3    3  502    0  0.10106530498E+03 -0.14870801145E+03 -0.25965269008E+03  0.31582873208E+03  0.00000000000E+00 0. -1.
         -2    1    3    3    0  502  0.22448334791E+01 -0.54912686126E+02 -0.25115034821E+02  0.60425221133E+02  0.00000000000E+00 0.  1.
         11    1    5    5    0    0 -0.78880046981E+02  0.37104563731E+03 -0.21450345585E+03  0.43578510685E+03  0.00000000000E+00 0. -1.
        -11    1    5    5    0    0  0.21535835903E+02  0.16633280654E+03 -0.12316370883E+03  0.20808578503E+03  0.00000000000E+00 0.  1.
          4    1    6    6  503    0 -0.68690346575E+02 -0.17302347639E+03  0.10742040844E+02  0.18646951101E+03  0.00000000000E+00 0. -1.
         -4    1    6    6    0  503  0.22724419190E+02 -0.16073426989E+03 -0.18253279043E+02  0.16335570679E+03  0.00000000000E+00 0.  1.
<mgrwt>
<rscale>  0 0.12165242E+04</rscale>
<asrwt>0</asrwt>
<pdfrwt beam="1">  1        1 0.15383817E+00 0.12165242E+04</pdfrwt>
<pdfrwt beam="2">  1       -1 0.56923381E-01 0.12165242E+04</pdfrwt>
<totfact> 0.46735270E+01</totfact>
</mgrwt>
</event>
<event>
12    2  0.3751044E-008  0.2118238E+04  0.7818608E-02  0.8553252E-01
          1   -1    0    0  501    0  0.00000000000E+00  0.00000000000E+00  0.17804166052E+04  0.17804166052E+04  0.00000000000E+00 0. -1.
         -1   -1    0    0    0  501 -0.00000000000E+00 -0.00000000000E+00 -0.63003956690E+03  0.63003956690E+03  0.00000000000E+00 0.  1.
         23    2    1    2    0    0 -0.36895609476E+03  0.63291385839E+03  0.99088235353E+03  0.12356938504E+04  0.91558185854E+02 0.  0.
        254    2    1    2    0    0  0.36895609476E+03 -0.63291385839E+03  0.15949468477E+03  0.11747623217E+04  0.90438896832E+03 0.  0.
         23    2    4    4    0    0  0.55678966557E+03 -0.30154562617E+03 -0.17102233986E+03  0.66217291626E+03  0.90993592960E+02 0.  0.
         23    2    4    4    0    0 -0.18783357081E+03 -0.33136823222E+03  0.33051702462E+03  0.51258940543E+03  0.91760772403E+02 0.  0.
          3    1    3    3  502    0 -0.54600887608E+02  0.77761557772E+02  0.18383246107E+03  0.20693595758E+03  0.00000000000E+00 0. -1.
         -3    1    3    3    0  502 -0.31435520715E+03  0.55515230062E+03  0.80704989246E+03  0.10287578928E+04  0.00000000000E+00 0.  1.
         11    1    5    5    0    0  0.43400609160E+03 -0.27533199140E+03 -0.14369405370E+03  0.53368246561E+03  0.00000000000E+00 0. -1.
        -11    1    5    5    0    0  0.12278357397E+03 -0.26213634767E+02 -0.27328286156E+02  0.12849045065E+03  0.00000000000E+00 0.  1.
          1    1    6    6  503    0 -0.63134969507E+02 -0.50013890734E+02  0.98146497482E+02  0.12696514722E+03  0.00000000000E+00 0. -1.
         -1    1    6    6    0  503 -0.12469860130E+03 -0.28135434148E+03  0.23237052714E+03  0.38562425821E+03  0.00000000000E+00 0.  1.
<mgrwt>
<rscale>  0 0.21182379E+04</rscale>
<asrwt>0</asrwt>
<pdfrwt beam="1">  1        1 0.27391024E+00 0.21182379E+04</pdfrwt>
<pdfrwt beam="2">  1       -1 0.96929165E-01 0.21182379E+04</pdfrwt>
<totfact> 0.39466599E+00</totfact>
</mgrwt>
</event>
<event>
12    2  0.3751044E-008  0.1552701E+04  0.7818608E-02  0.8850144E-01
          2   -1    0    0  501    0  0.00000000000E+00  0.00000000000E+00  0.24096299648E+04  0.24096299648E+04  0.00000000000E+00 0.  1.
         -2   -1    0    0    0  501 -0.00000000000E+00 -0.00000000000E+00 -0.25012987330E+03  0.25012987330E+03  0.00000000000E+00 0. -1.
         23    2    1    2    0    0  0.60965478712E+02  0.50701473626E+03  0.69505849547E+03  0.86727990659E+03  0.91035113400E+02 0.  0.
        254    2    1    2    0    0 -0.60965478712E+02 -0.50701473626E+03  0.14644415961E+04  0.17924799315E+04  0.89867368065E+03 0.  0.
         23    2    4    4    0    0 -0.18282141294E+03 -0.27616434066E+02 -0.37371564549E+02  0.20870766631E+03  0.89308004553E+02 0.  0.
         23    2    4    4    0    0  0.12185593423E+03 -0.47939830220E+03  0.15018131606E+04  0.15837722652E+04  0.90665417096E+02 0.  0.
          1    1    3    3  502    0  0.15966214950E+02  0.32243502501E+03  0.37246647222E+03  0.49290013015E+03  0.00000000000E+00 0. -1.
         -1    1    3    3    0  502  0.44999263761E+02  0.18457971126E+03  0.32259202325E+03  0.37437977645E+03  0.00000000000E+00 0.  1.
         11    1    5    5    0    0 -0.14993151132E+03 -0.11774695011E+02 -0.64078558747E+02  0.16347526792E+03  0.00000000000E+00 0.  1.
        -11    1    5    5    0    0 -0.32889901625E+02 -0.15841739055E+02  0.26706994198E+02  0.45232398391E+02  0.00000000000E+00 0. -1.
          3    1    6    6  503    0  0.64479648720E+02 -0.10993174060E+03  0.33002528023E+03  0.35377860066E+03  0.00000000000E+00 0. -1.
         -3    1    6    6    0  503  0.57376285513E+02 -0.36946656160E+03  0.11717878804E+04  0.12299936646E+04  0.00000000000E+00 0.  1.
<mgrwt>
<rscale>  0 0.15527014E+04</rscale>
<asrwt>0</asrwt>
<pdfrwt beam="1">  1        2 0.37071229E+00 0.15527014E+04</pdfrwt>
<pdfrwt beam="2">  1       -2 0.38481521E-01 0.15527014E+04</pdfrwt>
<totfact> 0.24141943E+01</totfact>
</mgrwt>
</event>
<event>
12    2  0.3751044E-008  0.1103802E+04  0.7818608E-02  0.9201494E-01
         -1   -1    0    0    0  501 -0.00000000000E+00  0.00000000000E+00  0.88333886308E+02  0.88333886308E+02  0.00000000000E+00 0.  1.
          1   -1    0    0  501    0  0.00000000000E+00 -0.00000000000E+00 -0.34482191612E+04  0.34482191612E+04  0.00000000000E+00 0. -1.
         23    2    1    2    0    0 -0.13928782949E+03 -0.81918019775E+02 -0.43192117369E+03  0.46923139568E+03  0.86663377488E+02 0.  0.
        254    2    1    2    0    0  0.13928782949E+03  0.81918019775E+02 -0.29279641012E+04  0.30673216519E+04  0.89965364251E+03 0.  0.
         23    2    4    4    0    0 -0.24726021410E+03  0.28166628387E+02 -0.26156169816E+03  0.37105387641E+03  0.85647444921E+02 0.  0.
         23    2    4    4    0    0  0.38654804359E+03  0.53751391388E+02 -0.26664024031E+04  0.26962677755E+04  0.88597628556E+02 0.  0.
          1    1    3    3  502    0  0.75085830933E+01  0.43637266111E+01 -0.54369601052E+02  0.55058827163E+02  0.00000000000E+00 0. -1.
         -1    1    3    3    0  502 -0.14679641258E+03 -0.86281746386E+02 -0.37755157264E+03  0.41417256851E+03  0.00000000000E+00 0.  1.
         11    1    5    5    0    0 -0.12634532590E+03 -0.48960673688E+01 -0.77306001354E+02  0.14820030600E+03  0.00000000000E+00 0. -1.
        -11    1    5    5    0    0 -0.12091488820E+03  0.33062695755E+02 -0.18425569681E+03  0.22285357041E+03  0.00000000000E+00 0.  1.
          2    1    6    6  503    0  0.31943154584E+03  0.26366748935E+02 -0.19449589735E+04  0.19711918035E+04  0.00000000000E+00 0. -1.
         -2    1    6    6    0  503  0.67116497748E+02  0.27384642454E+02 -0.72144342963E+03  0.72507597193E+03  0.00000000000E+00 0.  1.
<mgrwt>
<rscale>  0 0.11038018E+04</rscale>
<asrwt>0</asrwt>
<pdfrwt beam="1">  1        1 0.53049530E+00 0.11038018E+04</pdfrwt>
<pdfrwt beam="2">  1       -1 0.13589827E-01 0.11038018E+04</pdfrwt>
<totfact> 0.10846483E+01</totfact>
</mgrwt>
</event>
<event>
12    2  0.3751044E-008  0.2480075E+04  0.7818608E-02  0.8410118E-01
          2   -1    0    0  501    0  0.00000000000E+00  0.00000000000E+00  0.80859181181E+03  0.80859181181E+03  0.00000000000E+00 0. -1.
         -2   -1    0    0    0  501 -0.00000000000E+00 -0.00000000000E+00 -0.19016924747E+04  0.19016924747E+04  0.00000000000E+00 0.  1.
         23    2    1    2    0    0 -0.73701577323E+03  0.54996269315E+03  0.13200389762E+03  0.93348310831E+03  0.91183719350E+02 0.  0.
        254    2    1    2    0    0  0.73701577323E+03 -0.54996269315E+03 -0.12251045605E+04  0.17768011782E+04  0.90027219710E+03 0.  0.
         23    2    4    4    0    0  0.78009236848E+03 -0.40606247457E+03 -0.13107377152E+04  0.15810859119E+04  0.91479321420E+02 0.  0.
         23    2    4    4    0    0 -0.43076595244E+02 -0.14390021857E+03  0.85633154645E+02  0.19571526631E+03  0.91698213340E+02 0.  0.
          3    1    3    3  502    0 -0.31810716066E+03  0.28039584372E+03  0.90621291263E+02  0.43361989492E+03  0.00000000000E+00 0. -1.
         -3    1    3    3    0  502 -0.41890861257E+03  0.26956684942E+03  0.41382606355E+02  0.49986321339E+03  0.00000000000E+00 0.  1.
         11    1    5    5    0    0  0.70639990509E+03 -0.36025063703E+03 -0.12239026503E+04  0.14583274820E+04  0.00000000000E+00 0. -1.
        -11    1    5    5    0    0  0.73692463384E+02 -0.45811837539E+02 -0.86835064894E+02  0.12275842991E+03  0.00000000000E+00 0.  1.
          3    1    6    6  503    0 -0.51378997706E+01 -0.13679428913E+03  0.72764088617E+02  0.15502802374E+03  0.00000000000E+00 0. -1.
         -3    1    6    6    0  503 -0.37938695474E+02 -0.71059294413E+01  0.12869066028E+02  0.40687242569E+02  0.00000000000E+00 0.  1.
<mgrwt>
<rscale>  0 0.24800750E+04</rscale>
<asrwt>0</asrwt>
<pdfrwt beam="1">  1        2 0.12439874E+00 0.24800750E+04</pdfrwt>
<pdfrwt beam="2">  1       -2 0.29256807E+00 0.24800750E+04</pdfrwt>
<totfact> 0.10707379E+00</totfact>
</mgrwt>
</event>
<event>
12    2  0.3751044E-008  0.1138534E+04  0.7818608E-02  0.9168427E-01
          1   -1    0    0  501    0  0.00000000000E+00  0.00000000000E+00  0.14865160954E+04  0.14865160954E+04  0.00000000000E+00 0. -1.
         -1   -1    0    0    0  501 -0.00000000000E+00 -0.00000000000E+00 -0.21800304098E+03  0.21800304098E+03  0.00000000000E+00 0.  1.
         23    2    1    2    0    0 -0.20119122904E+03 -0.14497725158E+02  0.30069499625E+03  0.37412569645E+03  0.94151268172E+02 0.  0.
        254    2    1    2    0    0  0.20119122904E+03  0.14497725158E+02  0.96781805822E+03  0.13303934400E+04  0.89027345049E+03 0.  0.
         23    2    4    4    0    0 -0.14274109437E+03  0.75013499501E+02  0.94917678821E+03  0.96701719443E+03  0.90463439690E+02 0.  0.
         23    2    4    4    0    0  0.34393232340E+03 -0.60515774342E+02  0.18641270008E+02  0.36337624555E+03  0.98707633216E+02 0.  0.
          3    1    3    3  502    0 -0.17969383860E+03 -0.38703232172E+02  0.28236227878E+03  0.33692175990E+03  0.00000000000E+00 0. -1.
         -3    1    3    3    0  502 -0.21497390432E+02  0.24205507014E+02  0.18332717463E+02  0.37203936549E+02  0.00000000000E+00 0.  1.
         11    1    5    5    0    0 -0.38624958786E+01 -0.14556422053E+02  0.36256023999E+02  0.39259490236E+02  0.00000000000E+00 0. -1.
        -11    1    5    5    0    0 -0.13887859849E+03  0.89569921554E+02  0.91292076421E+03  0.92775770420E+03  0.00000000000E+00 0.  1.
          4    1    6    6  503    0  0.50149270412E+02  0.25607243668E+02  0.94173245934E+01  0.57090859633E+02  0.00000000000E+00 0. -1.
         -4    1    6    6    0  503  0.29378305299E+03 -0.86123018010E+02  0.92239454150E+01  0.30628538591E+03  0.00000000000E+00 0.  1.
<mgrwt>
<rscale>  0 0.11385342E+04</rscale>
<asrwt>0</asrwt>
<pdfrwt beam="1">  1        1 0.22869478E+00 0.11385342E+04</pdfrwt>
<pdfrwt beam="2">  1       -1 0.33538930E-01 0.11385342E+04</pdfrwt>
<totfact> 0.55627089E+01</totfact>
</mgrwt>
</event>
<event>
12    2  0.3751044E-008  0.1427348E+04  0.7818608E-02  0.8934257E-01
         -2   -1    0    0    0  501 -0.00000000000E+00  0.00000000000E+00  0.40414714499E+03  0.40414714499E+03  0.00000000000E+00 0. -1.
          2   -1    0    0  501    0  0.00000000000E+00 -0.00000000000E+00 -0.12602599179E+04  0.12602599179E+04  0.00000000000E+00 0.  1.
         23    2    1    2    0    0 -0.15280991852E+03  0.36296072656E+03 -0.14292503552E+03  0.42887027217E+03  0.91710328511E+02 0.  0.
        254    2    1    2    0    0  0.15280991852E+03 -0.36296072656E+03 -0.71318773742E+03  0.12355367907E+04  0.92888269025E+03 0.  0.
         23    2    4    4    0    0  0.30623634900E+01  0.21899266442E+03  0.65735128840E+02  0.24740622473E+03  0.94454050884E+02 0.  0.
         23    2    4    4    0    0  0.14974755503E+03 -0.58195339098E+03 -0.77892286626E+03  0.98813056602E+03  0.92666630490E+02 0.  0.
          1    1    3    3  502    0 -0.84011641136E+02  0.27339672604E+03 -0.70067182155E+02  0.29447094198E+03  0.00000000000E+00 0. -1.
         -1    1    3    3    0  502 -0.68798277382E+02  0.89564000514E+02 -0.72857853361E+02  0.13439933019E+03  0.00000000000E+00 0.  1.
         11    1    5    5    0    0  0.17461476402E+02  0.12365480371E+03  0.82317843274E+02  0.14957152456E+03  0.00000000000E+00 0. -1.
        -11    1    5    5    0    0 -0.14399112912E+02  0.95337860714E+02 -0.16582714435E+02  0.97834700164E+02  0.00000000000E+00 0.  1.
          4    1    6    6  503    0  0.12435817336E+03 -0.54450714019E+03 -0.74718784957E+03  0.93286797755E+03  0.00000000000E+00 0. -1.
         -4    1    6    6    0  503  0.25389381666E+02 -0.37446250788E+02 -0.31735016695E+02  0.55262588467E+02  0.00000000000E+00 0.  1.
<mgrwt>
<rscale>  0 0.14273478E+04</rscale>
<asrwt>0</asrwt>
<pdfrwt beam="1">  1        2 0.19388614E+00 0.14273478E+04</pdfrwt>
<pdfrwt beam="2">  1       -2 0.62176486E-01 0.14273478E+04</pdfrwt>
<totfact> 0.40682589E+01</totfact>
</mgrwt>
</event>
<event>
12    2  0.3751044E-008  0.1325482E+04  0.7818608E-02  0.9009599E-01
         -1   -1    0    0    0  501 -0.00000000000E+00  0.00000000000E+00  0.92498416445E+03  0.92498416445E+03  0.00000000000E+00 0.  1.
          1   -1    0    0  501    0  0.00000000000E+00 -0.00000000000E+00 -0.47484638787E+03  0.47484638787E+03  0.00000000000E+00 0. -1.
         23    2    1    2    0    0 -0.31433248071E+03  0.60618514013E+02  0.27059769391E+03  0.42924876040E+03  0.92476341222E+02 0.  0.
        254    2    1    2    0    0  0.31433248071E+03 -0.60618514013E+02  0.17954008266E+03  0.97058179192E+03  0.89850701770E+03 0.  0.
         23    2    4    4    0    0  0.40935316652E+02 -0.12847235465E+03  0.50509753595E+03  0.53065026512E+03  0.91023826523E+02 0.  0.
         23    2    4    4    0    0  0.27339716406E+03  0.67853840638E+02 -0.32555745329E+03  0.43993152680E+03  0.90564561926E+02 0.  0.
          2    1    3    3  502    0 -0.22251046059E+03  0.44614943962E+02  0.24198384779E+03  0.33174927414E+03  0.00000000000E+00 0.  1.
         -2    1    3    3    0  502 -0.91822020114E+02  0.16003570051E+02  0.28613846125E+02  0.97499486267E+02  0.00000000000E+00 0. -1.
         11    1    5    5    0    0  0.48984814867E+02 -0.23687801737E+02  0.12580767063E+03  0.13707003330E+03  0.00000000000E+00 0. -1.
        -11    1    5    5    0    0 -0.80494982159E+01 -0.10478455291E+03  0.37928986531E+03  0.39358023182E+03  0.00000000000E+00 0.  1.
          4    1    6    6  503    0  0.17495298188E+03  0.80391549380E+02 -0.17870627552E+03  0.26269236759E+03  0.00000000000E+00 0.  1.
         -4    1    6    6    0  503  0.98444182173E+02 -0.12537708742E+02 -0.14685117776E+03  0.17723915920E+03  0.00000000000E+00 0. -1.
<mgrwt>
<rscale>  0 0.13254816E+04</rscale>
<asrwt>0</asrwt>
<pdfrwt beam="1">  1        1 0.73053291E-01 0.13254816E+04</pdfrwt>
<pdfrwt beam="2">  1       -1 0.14230526E+00 0.13254816E+04</pdfrwt>
<totfact> 0.18741162E+01</totfact>
</mgrwt>
</event>
<event>
12    2  0.3751044E-008  0.1917266E+04  0.7818608E-02  0.8646310E-01
         -2   -1    0    0    0  501 -0.00000000000E+00  0.00000000000E+00  0.49252581874E+03  0.49252581874E+03  0.00000000000E+00 0.  1.
          2   -1    0    0  501    0  0.00000000000E+00 -0.00000000000E+00 -0.18658451646E+04  0.18658451646E+04  0.00000000000E+00 0. -1.
         23    2    1    2    0    0 -0.40245529493E+03  0.20068270379E+03 -0.12765993481E+04  0.13566563407E+04  0.92556573149E+02 0.  0.
        254    2    1    2    0    0  0.40245529493E+03 -0.20068270379E+03 -0.96719997765E+02  0.10017146426E+04  0.88985035554E+03 0.  0.
         23    2    4    4    0    0 -0.19996454139E+03  0.57001161877E+02 -0.23394367708E+03  0.32617700877E+03  0.91797857991E+02 0.  0.
         23    2    4    4    0    0  0.60241983633E+03 -0.25768386567E+03  0.13722367932E+03  0.67553763386E+03  0.90609727805E+02 0.  0.
          3    1    3    3  502    0 -0.21634809597E+03  0.11885819555E+03 -0.83064661519E+03  0.86654923035E+03  0.00000000000E+00 0. -1.
         -3    1    3    3    0  502 -0.18610719896E+03  0.81824508242E+02 -0.44595273286E+03  0.49010711034E+03  0.00000000000E+00 0.  1.
         11    1    5    5    0    0 -0.15748930089E+03  0.61817662311E+02 -0.22661642029E+03  0.28280612655E+03  0.00000000000E+00 0. -1.
        -11    1    5    5    0    0 -0.42475240499E+02 -0.48165004345E+01 -0.73272567882E+01  0.43370882213E+02  0.00000000000E+00 0.  1.
          3    1    6    6  503    0  0.33369551496E+03 -0.97100224522E+02  0.89462977216E+02  0.35886595631E+03  0.00000000000E+00 0. -1.
         -3    1    6    6    0  503  0.26872432137E+03 -0.16058364115E+03  0.47760702100E+02  0.31667167755E+03  0.00000000000E+00 0.  1.
<mgrwt>
<rscale>  0 0.19172657E+04</rscale>
<asrwt>0</asrwt>
<pdfrwt beam="1">  1        2 0.28705310E+00 0.19172657E+04</pdfrwt>
<pdfrwt beam="2">  1       -2 0.75773203E-01 0.19172657E+04</pdfrwt>
<totfact> 0.11578468E+01</totfact>
</mgrwt>
</event>
<event>
12    2  0.3751044E-008  0.1606583E+04  0.7818608E-02  0.8816514E-01
         -1   -1    0    0    0  501 -0.00000000000E+00  0.00000000000E+00  0.60432907113E+03  0.60432907113E+03  0.00000000000E+00 0.  1.
          1   -1    0    0  501    0  0.00000000000E+00 -0.00000000000E+00 -0.10677584488E+04  0.10677584488E+04  0.00000000000E+00 0. -1.
         23    2    1    2    0    0  0.10546662142E+03  0.50985241018E+03 -0.31524058231E+03  0.61540666521E+03  0.90972800611E+02 0.  0.
        254    2    1    2    0    0 -0.10546662142E+03 -0.50985241018E+03 -0.14818879536E+03  0.10566808547E+04  0.90749205024E+03 0.  0.
         23    2    4    4    0    0 -0.22886513674E+03  0.20027887185E+03 -0.10396556048E+02  0.31755308916E+03  0.90779946739E+02 0.  0.
         23    2    4    4    0    0  0.12339851532E+03 -0.71013128204E+03 -0.13779223931E+03  0.73912776556E+03  0.88371495946E+02 0.  0.
          2    1    3    3  502    0  0.88960036108E+02  0.42642967253E+03 -0.30023420475E+03  0.52905267350E+03  0.00000000000E+00 0. -1.
         -2    1    3    3    0  502  0.16506585313E+02  0.83422737658E+02 -0.15006377550E+02  0.86353991710E+02  0.00000000000E+00 0.  1.
         11    1    5    5    0    0 -0.42368557703E+02  0.62820295964E+01  0.18987713273E+02  0.46851807148E+02  0.00000000000E+00 0. -1.
        -11    1    5    5    0    0 -0.18649657904E+03  0.19399684226E+03 -0.29384269321E+02  0.27070128201E+03  0.00000000000E+00 0.  1.
          1    1    6    6  503    0  0.19296603614E+02 -0.20949931703E+03 -0.77665941531E+02  0.22426395435E+03  0.00000000000E+00 0. -1.
         -1    1    6    6    0  503  0.10410191171E+03 -0.50063196501E+03 -0.60126297780E+02  0.51486381121E+03  0.00000000000E+00 0.  1.
<mgrwt>
<rscale>  0 0.16065833E+04</rscale>
<asrwt>0</asrwt>
<pdfrwt beam="1">  1        1 0.16427053E+00 0.16065833E+04</pdfrwt>
<pdfrwt beam="2">  1       -1 0.92973704E-01 0.16065833E+04</pdfrwt>
<totfact> 0.14458139E+01</totfact>
</mgrwt>
</event>
<event>
12    2  0.3751044E-008  0.1566492E+04  0.7818608E-02  0.8841402E-01
         -2   -1    0    0    0  501 -0.00000000000E+00  0.00000000000E+00  0.32141421712E+03  0.32141421712E+03  0.00000000000E+00 0. -1.
          2   -1    0    0  501    0  0.00000000000E+00 -0.00000000000E+00 -0.19086720287E+04  0.19086720287E+04  0.00000000000E+00 0.  1.
         23    2    1    2    0    0 -0.43680691409E+03 -0.56668557120E+02 -0.14788954514E+03  0.47448711125E+03  0.96203407532E+02 0.  0.
        254    2    1    2    0    0  0.43680691409E+03  0.56668557120E+02 -0.14393682664E+04  0.17555991346E+04  0.90351298236E+03 0.  0.
         23    2    4    4    0    0  0.20254574857E+02 -0.38233722372E+03 -0.57949932576E+03  0.70032067117E+03  0.89652515139E+02 0.  0.
         23    2    4    4    0    0  0.41655233923E+03  0.43900578084E+03 -0.85986894067E+03  0.10552784634E+04  0.89420988718E+02 0.  0.
          1    1    3    3  502    0 -0.43685280763E+02  0.23322372409E+02 -0.12423819945E+02  0.51055735350E+02  0.00000000000E+00 0.  1.
         -1    1    3    3    0  502 -0.39312163333E+03 -0.79990929529E+02 -0.13546572519E+03  0.42343137590E+03  0.00000000000E+00 0. -1.
         11    1    5    5    0    0  0.70183106787E+01  0.23460753915E+01 -0.55363807140E+01  0.92418756719E+01  0.00000000000E+00 0.  1.
        -11    1    5    5    0    0  0.13236264178E+02 -0.38468329911E+03 -0.57396294504E+03  0.69107879550E+03  0.00000000000E+00 0. -1.
          4    1    6    6  503    0  0.25850104555E+03  0.30292633798E+03 -0.62589294916E+03  0.74184172207E+03  0.00000000000E+00 0. -1.
         -4    1    6    6    0  503  0.15805129368E+03  0.13607944286E+03 -0.23397599151E+03  0.31343674131E+03  0.00000000000E+00 0.  1.
<mgrwt>
<rscale>  0 0.15664920E+04</rscale>
<asrwt>0</asrwt>
<pdfrwt beam="1">  1        2 0.29364185E+00 0.15664920E+04</pdfrwt>
<pdfrwt beam="2">  1       -2 0.49448342E-01 0.15664920E+04</pdfrwt>
<totfact> 0.27949321E+01</totfact>
</mgrwt>
</event>
<event>
12    2  0.3751044E-008  0.1454396E+04  0.7818608E-02  0.8915359E-01
          1   -1    0    0  501    0  0.00000000000E+00  0.00000000000E+00  0.30534799458E+03  0.30534799458E+03  0.00000000000E+00 0. -1.
         -1   -1    0    0    0  501 -0.00000000000E+00 -0.00000000000E+00 -0.17318489148E+04  0.17318489148E+04  0.00000000000E+00 0.  1.
         23    2    1    2    0    0  0.84705887928E+02  0.73115098687E+02  0.15236574748E+03  0.20943624589E+03  0.90151622180E+02 0.  0.
        254    2    1    2    0    0 -0.84705887928E+02 -0.73115098687E+02 -0.15788666677E+04  0.18277606635E+04  0.91398478298E+03 0.  0.
         23    2    4    4    0    0  0.35940511098E+03 -0.19697072416E+03 -0.98121775237E+03  0.10670293580E+04  0.88282916660E+02 0.  0.
         23    2    4    4    0    0 -0.44411099890E+03  0.12385562548E+03 -0.59764891529E+03  0.76073130542E+03  0.94620810547E+02 0.  0.
          2    1    3    3  502    0  0.72911273454E+02  0.15293392336E+02  0.12230697688E+03  0.14320942092E+03  0.00000000000E+00 0. -1.
         -2    1    3    3    0  502  0.11794614474E+02  0.57821706350E+02  0.30058770597E+02  0.66226824970E+02  0.00000000000E+00 0.  1.
         11    1    5    5    0    0  0.15340641141E+03 -0.86686050215E+02 -0.53600642875E+03  0.56422592108E+03  0.00000000000E+00 0. -1.
        -11    1    5    5    0    0  0.20599869957E+03 -0.11028467395E+03 -0.44521132362E+03  0.50280343696E+03  0.00000000000E+00 0.  1.
          1    1    6    6  503    0 -0.19968902857E+03  0.94123685965E+02 -0.23535764658E+03  0.32268901158E+03  0.00000000000E+00 0. -1.
         -1    1    6    6    0  503 -0.24442197033E+03  0.29731939513E+02 -0.36229126871E+03  0.43804229383E+03  0.00000000000E+00 0.  1.
<mgrwt>
<rscale>  0 0.14543955E+04</rscale>
<asrwt>0</asrwt>
<pdfrwt beam="1">  1        1 0.46976615E-01 0.14543955E+04</pdfrwt>
<pdfrwt beam="2">  1       -1 0.26643829E+00 0.14543955E+04</pdfrwt>
<totfact> 0.45390052E+00</totfact>
</mgrwt>
</event>
<event>
12    2  0.3751044E-008  0.1529252E+04  0.7818608E-02  0.8865230E-01
         -2   -1    0    0    0  501 -0.00000000000E+00  0.00000000000E+00  0.57507317147E+03  0.57507317147E+03  0.00000000000E+00 0.  1.
          2   -1    0    0  501    0  0.00000000000E+00 -0.00000000000E+00 -0.10166582980E+04  0.10166582980E+04  0.00000000000E+00 0. -1.
         23    2    1    2    0    0  0.17717505797E+03  0.23973119656E+03  0.26532399452E+03  0.41015118893E+03  0.94684359534E+02 0.  0.
        254    2    1    2    0    0 -0.17717505797E+03 -0.23973119656E+03 -0.70690912101E+03  0.11815802805E+04  0.89863752766E+03 0.  0.
         23    2    4    4    0    0  0.33175632093E+03  0.52018648671E+02 -0.31194930070E+03  0.46797576524E+03  0.94449745134E+02 0.  0.
         23    2    4    4    0    0 -0.50893137890E+03 -0.29174984523E+03 -0.39495982031E+03  0.71360451526E+03  0.95441206563E+02 0.  0.
          2    1    3    3  502    0  0.16721163633E+01  0.64495470128E+02  0.48303774319E+02  0.80596006438E+02  0.00000000000E+00 0. -1.
         -2    1    3    3    0  502  0.17550294161E+03  0.17523572644E+03  0.21702022020E+03  0.32955518249E+03  0.00000000000E+00 0.  1.
         11    1    5    5    0    0  0.51570958052E+02 -0.29211716720E+00 -0.96001790650E+01  0.52457720928E+02  0.00000000000E+00 0. -1.
        -11    1    5    5    0    0  0.28018536288E+03  0.52310765838E+02 -0.30234912164E+03  0.41551804431E+03  0.00000000000E+00 0.  1.
          2    1    6    6  503    0 -0.60521452293E+01 -0.17920368059E+02 -0.27010625628E+02  0.32974868461E+02  0.00000000000E+00 0. -1.
         -2    1    6    6    0  503 -0.50287923367E+03 -0.27382947718E+03 -0.36794919468E+03  0.68062964679E+03  0.00000000000E+00 0.  1.
<mgrwt>
<rscale>  0 0.15292520E+04</rscale>
<asrwt>0</asrwt>
<pdfrwt beam="1">  1        2 0.15640897E+00 0.15292520E+04</pdfrwt>
<pdfrwt beam="2">  1       -2 0.88472796E-01 0.15292520E+04</pdfrwt>
<totfact> 0.26053256E+01</totfact>
</mgrwt>
</event>
<event>
12    2  0.3751044E-008  0.2221424E+04  0.7818608E-02  0.8509564E-01
         -1   -1    0    0    0  501 -0.00000000000E+00  0.00000000000E+00  0.53230980639E+03  0.53230980639E+03  0.00000000000E+00 0.  1.
          1   -1    0    0  501    0  0.00000000000E+00 -0.00000000000E+00 -0.23175998524E+04  0.23175998524E+04  0.00000000000E+00 0. -1.
         23    2    1    2    0    0 -0.27928060630E+02 -0.16205766170E+03  0.42010331545E+03  0.46024499233E+03  0.91082352974E+02 0.  0.
        254    2    1    2    0    0  0.27928060630E+02  0.16205766170E+03 -0.22053933615E+04  0.23896646665E+04  0.90536991176E+03 0.  0.
         23    2    4    4    0    0  0.38111919736E+03  0.33441089753E+03 -0.12961505644E+04  0.13948923549E+04  0.92929572139E+02 0.  0.
         23    2    4    4    0    0 -0.35319113674E+03 -0.17235323583E+03 -0.90924279715E+03  0.99477231158E+03  0.91650808796E+02 0.  0.
          1    1    3    3  502    0  0.62519876598E+01 -0.14151804675E+03  0.37013158194E+03  0.39631279673E+03  0.00000000000E+00 0. -1.
         -1    1    3    3    0  502 -0.34180048290E+02 -0.20539614947E+02  0.49971733515E+02  0.63932195596E+02  0.00000000000E+00 0.  1.
         11    1    5    5    0    0  0.14777028971E+03  0.85752409351E+02 -0.35770008747E+03  0.39640747572E+03  0.00000000000E+00 0.  1.
        -11    1    5    5    0    0  0.23334890766E+03  0.24865848818E+03 -0.93845047689E+03  0.99848487922E+03  0.00000000000E+00 0. -1.
          4    1    6    6  503    0 -0.31824318071E+03 -0.17200411267E+03 -0.87005754413E+03  0.94226549705E+03  0.00000000000E+00 0. -1.
         -4    1    6    6    0  503 -0.34947956030E+02 -0.34912316163E+00 -0.39185253015E+02  0.52506814524E+02  0.00000000000E+00 0.  1.
<mgrwt>
<rscale>  0 0.22214240E+04</rscale>
<asrwt>0</asrwt>
<pdfrwt beam="1">  1        1 0.35655383E+00 0.22214240E+04</pdfrwt>
<pdfrwt beam="2">  1       -1 0.81893816E-01 0.22214240E+04</pdfrwt>
<totfact> 0.24437411E+00</totfact>
</mgrwt>
</event>
<event>
12    2  0.3751044E-008  0.1688358E+04  0.7818608E-02  0.8768032E-01
         -1   -1    0    0    0  501 -0.00000000000E+00  0.00000000000E+00  0.41211055554E+03  0.41211055554E+03  0.00000000000E+00 0.  1.
          1   -1    0    0  501    0  0.00000000000E+00 -0.00000000000E+00 -0.17292396702E+04  0.17292396702E+04  0.00000000000E+00 0. -1.
         23    2    1    2    0    0  0.47902972196E+03 -0.17574889994E+03 -0.88914259102E+02  0.52576887931E+03  0.90388155365E+02 0.  0.
        254    2    1    2    0    0 -0.47902972196E+03  0.17574889994E+03 -0.12282148555E+04  0.16155813464E+04  0.91718820595E+03 0.  0.
         23    2    4    4    0    0 -0.47593760625E+03  0.47408934783E+03 -0.10642969253E+04  0.12625233612E+04  0.99799687950E+02 0.  0.
         23    2    4    4    0    0 -0.30921157083E+01 -0.29834044789E+03 -0.16391793025E+03  0.35305798517E+03  0.93617674661E+02 0.  0.
          4    1    3    3  502    0  0.42420020887E+03 -0.18342196157E+03 -0.71002689611E+02  0.46757974200E+03  0.00000000000E+00 0.  1.
         -4    1    3    3    0  502  0.54829513081E+02  0.76730616252E+01 -0.17911569492E+02  0.58189137311E+02  0.00000000000E+00 0. -1.
         11    1    5    5    0    0 -0.42725676282E+03  0.46139416344E+03 -0.98489014865E+03  0.11685210825E+04  0.00000000000E+00 0.  1.
        -11    1    5    5    0    0 -0.48680843425E+02  0.12695184389E+02 -0.79406776647E+02  0.94002278699E+02  0.00000000000E+00 0. -1.
          1    1    6    6  503    0  0.12848745967E+02 -0.22590422580E+02 -0.45782603617E+02  0.52644698301E+02  0.00000000000E+00 0. -1.
         -1    1    6    6    0  503 -0.15940861675E+02 -0.27575002531E+03 -0.11813532663E+03  0.30041328687E+03  0.00000000000E+00 0.  1.
<mgrwt>
<rscale>  0 0.16883577E+04</rscale>
<asrwt>0</asrwt>
<pdfrwt beam="1">  1        1 0.26603687E+00 0.16883577E+04</pdfrwt>
<pdfrwt beam="2">  1       -1 0.63401624E-01 0.16883577E+04</pdfrwt>
<totfact> 0.10939948E+01</totfact>
</mgrwt>
</event>
<event>
12    2  0.3751044E-008  0.3670290E+04  0.7818608E-02  0.8074578E-01
          1   -1    0    0  501    0  0.00000000000E+00  0.00000000000E+00  0.31624900546E+04  0.31624900546E+04  0.00000000000E+00 0.  1.
         -1   -1    0    0    0  501 -0.00000000000E+00 -0.00000000000E+00 -0.10649067708E+04  0.10649067708E+04  0.00000000000E+00 0. -1.
         23    2    1    2    0    0 -0.54198184451E+03 -0.15339170689E+04  0.16313515736E+04  0.23058870341E+04  0.95713965094E+02 0.  0.
        254    2    1    2    0    0  0.54198184451E+03  0.15339170689E+04  0.46623171015E+03  0.19215097913E+04  0.91004504097E+03 0.  0.
         23    2    4    4    0    0  0.47418541484E+03  0.91852051876E+03 -0.14374890722E+03  0.10477156601E+04  0.92263779875E+02 0.  0.
         23    2    4    4    0    0  0.67796429666E+02  0.61539655014E+03  0.60998061737E+03  0.87379413123E+03  0.90169620130E+02 0.  0.
          4    1    3    3  502    0 -0.72019903381E+02 -0.25138886920E+03  0.21920940365E+03  0.34122718633E+03  0.00000000000E+00 0. -1.
         -4    1    3    3    0  502 -0.46996194113E+03 -0.12825281997E+04  0.14121421700E+04  0.19646598478E+04  0.00000000000E+00 0.  1.
         11    1    5    5    0    0  0.17733830251E+03  0.27136757701E+03 -0.72414921295E+02  0.33216435121E+03  0.00000000000E+00 0.  1.
        -11    1    5    5    0    0  0.29684711233E+03  0.64715294176E+03 -0.71333985928E+02  0.71555130890E+03  0.00000000000E+00 0. -1.
          3    1    6    6  503    0  0.74182007859E+02  0.52295275018E+03  0.47689235671E+03  0.71162410660E+03  0.00000000000E+00 0. -1.
         -3    1    6    6    0  503 -0.63855781939E+01  0.92443799966E+02  0.13308826066E+03  0.16217002463E+03  0.00000000000E+00 0.  1.
<mgrwt>
<rscale>  0 0.36702899E+04</rscale>
<asrwt>0</asrwt>
<pdfrwt beam="1">  1        1 0.48653693E+00 0.36702899E+04</pdfrwt>
<pdfrwt beam="2">  1       -1 0.16383181E+00 0.36702899E+04</pdfrwt>
<totfact> 0.99636604E-02</totfact>
</mgrwt>
</event>
<event>
12    2  0.3751044E-008  0.1427013E+04  0.7818608E-02  0.8934494E-01
          2   -1    0    0  501    0  0.00000000000E+00  0.00000000000E+00  0.39561561200E+04  0.39561561200E+04  0.00000000000E+00 0. -1.
         -2   -1    0    0    0  501 -0.00000000000E+00 -0.00000000000E+00 -0.12868332100E+03  0.12868332100E+03  0.00000000000E+00 0.  1.
         23    2    1    2    0    0  0.36141791104E+03  0.20863120827E+03  0.10568414702E+04  0.11412723135E+04  0.10695191827E+03 0.  0.
        254    2    1    2    0    0 -0.36141791104E+03 -0.20863120827E+03  0.27706313288E+04  0.29435671275E+04  0.90224142379E+03 0.  0.
         23    2    4    4    0    0 -0.46598403078E+03  0.62981626220E+02  0.24685523592E+04  0.25147618352E+04  0.95752469490E+02 0.  0.
         23    2    4    4    0    0  0.10456611974E+03 -0.27161283449E+03  0.30207896956E+03  0.42880529233E+03  0.88964428988E+02 0.  0.
          1    1    3    3  502    0  0.15509796484E+03  0.14334773235E+03  0.59151624853E+03  0.62808870659E+03  0.00000000000E+00 0. -1.
         -1    1    3    3    0  502  0.20631994620E+03  0.65283475921E+02  0.46532522170E+03  0.51318360689E+03  0.00000000000E+00 0.  1.
         11    1    5    5    0    0 -0.19200923339E+03  0.54725401036E+02  0.12429306192E+04  0.12588641465E+04  0.00000000000E+00 0.  1.
        -11    1    5    5    0    0 -0.27397479739E+03  0.82562251841E+01  0.12256217400E+04  0.12558976887E+04  0.00000000000E+00 0. -1.
          2    1    6    6  503    0 -0.35366976866E+01 -0.66141480702E+02  0.10559561508E+03  0.12465006066E+03  0.00000000000E+00 0. -1.
         -2    1    6    6    0  503  0.10810281742E+03 -0.20547135379E+03  0.19648335448E+03  0.30415523167E+03  0.00000000000E+00 0.  1.
<mgrwt>
<rscale>  0 0.14270127E+04</rscale>
<asrwt>0</asrwt>
<pdfrwt beam="1">  1        2 0.60863931E+00 0.14270127E+04</pdfrwt>
<pdfrwt beam="2">  1       -2 0.19797437E-01 0.14270127E+04</pdfrwt>
<totfact> 0.80497713E+00</totfact>
</mgrwt>
</event>
<event>
12    2  0.3751044E-008  0.1733058E+04  0.7818608E-02  0.8742731E-01
         -1   -1    0    0    0  501 -0.00000000000E+00  0.00000000000E+00  0.47031717749E+03  0.47031717749E+03  0.00000000000E+00 0.  1.
          1   -1    0    0  501    0  0.00000000000E+00 -0.00000000000E+00 -0.15965244629E+04  0.15965244629E+04  0.00000000000E+00 0. -1.
         23    2    1    2    0    0  0.20829280454E+03 -0.62754180432E+02  0.28830396966E+03  0.37278835949E+03  0.92347184414E+02 0.  0.
        254    2    1    2    0    0 -0.20829280454E+03  0.62754180432E+02 -0.14145112551E+04  0.16940532809E+04  0.90644936332E+03 0.  0.
         23    2    4    4    0    0 -0.10874136471E+03  0.36944517618E+03 -0.21735473574E+03  0.45095193045E+03  0.88318400278E+02 0.  0.
         23    2    4    4    0    0 -0.99551439828E+02 -0.30669099575E+03 -0.11971565193E+04  0.12431013505E+04  0.90262836637E+02 0.  0.
          1    1    3    3  502    0  0.62224347645E+01  0.17486717866E+02  0.28518707380E+02  0.34026763977E+02  0.00000000000E+00 0. -1.
         -1    1    3    3    0  502  0.20207036977E+03 -0.80240898297E+02  0.25978526228E+03  0.33876159551E+03  0.00000000000E+00 0.  1.
         11    1    5    5    0    0 -0.42955336782E+01 -0.48575609749E+01 -0.29111884756E+01  0.71079199873E+01  0.00000000000E+00 0.  1.
        -11    1    5    5    0    0 -0.10444583103E+03  0.37430273716E+03 -0.21444354726E+03  0.44384401047E+03  0.00000000000E+00 0. -1.
          2    1    6    6  503    0 -0.22262091836E+01 -0.12555041126E+03 -0.36828865649E+03  0.38910717839E+03  0.00000000000E+00 0. -1.
         -2    1    6    6    0  503 -0.97325230644E+02 -0.18114058449E+03 -0.82886786284E+03  0.85399417207E+03  0.00000000000E+00 0.  1.
<mgrwt>
<rscale>  0 0.17330584E+04</rscale>
<asrwt>0</asrwt>
<pdfrwt beam="1">  1        1 0.24561914E+00 0.17330584E+04</pdfrwt>
<pdfrwt beam="2">  1       -1 0.72356490E-01 0.17330584E+04</pdfrwt>
<totfact> 0.10258888E+01</totfact>
</mgrwt>
</event>
<event>
12    2  0.3751044E-008  0.1792913E+04  0.7818608E-02  0.8710077E-01
         -1   -1    0    0    0  501 -0.00000000000E+00  0.00000000000E+00  0.61689214836E+03  0.61689214836E+03  0.00000000000E+00 0.  1.
          1   -1    0    0  501    0  0.00000000000E+00 -0.00000000000E+00 -0.13027149403E+04  0.13027149403E+04  0.00000000000E+00 0. -1.
         23    2    1    2    0    0 -0.19340222937E+03  0.61341797867E+03 -0.44940092689E+03  0.78977909547E+03  0.90021040148E+02 0.  0.
        254    2    1    2    0    0  0.19340222937E+03 -0.61341797867E+03 -0.23642186501E+03  0.11298279931E+04  0.89829280135E+03 0.  0.
         23    2    4    4    0    0  0.43940333479E+03 -0.14258100652E+03  0.11481487630E+03  0.48656489434E+03  0.10078842464E+03 0.  0.
         23    2    4    4    0    0 -0.24600110542E+03 -0.47083697215E+03 -0.35123674131E+03  0.64326309881E+03  0.90643078197E+02 0.  0.
          2    1    3    3  502    0 -0.52657034270E+02  0.27577943950E+03 -0.15850058799E+03  0.32241200179E+03  0.00000000000E+00 0. -1.
         -2    1    3    3    0  502 -0.14074519509E+03  0.33763853918E+03 -0.29090033890E+03  0.46736709368E+03  0.00000000000E+00 0.  1.
         11    1    5    5    0    0  0.77279787565E+02  0.36577913694E+01  0.46008110500E+02  0.90012728187E+02  0.00000000000E+00 0. -1.
        -11    1    5    5    0    0  0.36212354722E+03 -0.14623879789E+03  0.68806765796E+02  0.39655216615E+03  0.00000000000E+00 0.  1.
          1    1    6    6  503    0 -0.76263381753E+01 -0.82026619875E+02 -0.63522128000E+02  0.10402686263E+03  0.00000000000E+00 0. -1.
         -1    1    6    6    0  503 -0.23837476725E+03 -0.38881035228E+03 -0.28771461331E+03  0.53923623618E+03  0.00000000000E+00 0.  1.
<mgrwt>
<rscale>  0 0.17929134E+04</rscale>
<asrwt>0</asrwt>
<pdfrwt beam="1">  1        1 0.20041768E+00 0.17929134E+04</pdfrwt>
<pdfrwt beam="2">  1       -1 0.94906485E-01 0.17929134E+04</pdfrwt>
<totfact> 0.91248559E+00</totfact>
</mgrwt>
</event>
<event>
12    2  0.3751044E-008  0.2071815E+04  0.7818608E-02  0.8573762E-01
         -2   -1    0    0    0  501 -0.00000000000E+00  0.00000000000E+00  0.74615638482E+03  0.74615638482E+03  0.00000000000E+00 0.  1.
          2   -1    0    0  501    0  0.00000000000E+00 -0.00000000000E+00 -0.14381762693E+04  0.14381762693E+04  0.00000000000E+00 0. -1.
         23    2    1    2    0    0 -0.29705712169E+03 -0.36146281052E+03  0.45146488075E+03  0.65664907488E+03  0.92028104728E+02 0.  0.
        254    2    1    2    0    0  0.29705712169E+03  0.36146281052E+03 -0.11434847652E+04  0.15276835792E+04  0.89853292262E+03 0.  0.
         23    2    4    4    0    0 -0.26677210144E+03  0.23235809368E+02 -0.11824997910E+03  0.30637976087E+03  0.90433640711E+02 0.  0.
         23    2    4    4    0    0  0.56382922312E+03  0.33822700115E+03 -0.10252347861E+04  0.12213038184E+04  0.90419870137E+02 0.  0.
          3    1    3    3  502    0 -0.10238738032E+03 -0.11710682708E+03  0.21233066760E+03  0.26321378574E+03  0.00000000000E+00 0. -1.
         -3    1    3    3    0  502 -0.19466974137E+03 -0.24435598345E+03  0.23913421315E+03  0.39343528915E+03  0.00000000000E+00 0.  1.
         11    1    5    5    0    0 -0.23683179544E+03  0.37219489258E+02 -0.12820754116E+03  0.27186717956E+03  0.00000000000E+00 0.  1.
        -11    1    5    5    0    0 -0.29940305997E+02 -0.13983679890E+02  0.99575620616E+01  0.34512581310E+02  0.00000000000E+00 0. -1.
          3    1    6    6  503    0  0.26941610411E+03  0.21416390993E+03 -0.53763667902E+03  0.63836072568E+03  0.00000000000E+00 0. -1.
         -3    1    6    6    0  503  0.29441311901E+03  0.12406309123E+03 -0.48759810709E+03  0.58294309267E+03  0.00000000000E+00 0.  1.
<mgrwt>
<rscale>  0 0.20718151E+04</rscale>
<asrwt>0</asrwt>
<pdfrwt beam="1">  1        2 0.22125789E+00 0.20718151E+04</pdfrwt>
<pdfrwt beam="2">  1       -2 0.11479329E+00 0.20718151E+04</pdfrwt>
<totfact> 0.75294739E+00</totfact>
</mgrwt>
</event>
<event>
12    2  0.3751044E-008  0.2525167E+04  0.7818608E-02  0.8394074E-01
         -1   -1    0    0    0  501 -0.00000000000E+00  0.00000000000E+00  0.87282117682E+03  0.87282117682E+03  0.00000000000E+00 0.  1.
          1   -1    0    0  501    0  0.00000000000E+00 -0.00000000000E+00 -0.18263954085E+04  0.18263954085E+04  0.00000000000E+00 0. -1.
         23    2    1    2    0    0  0.70613149442E+00 -0.28373104411E+03  0.71851843033E+03  0.77750888497E+03  0.88020040109E+02 0.  0.
        254    2    1    2    0    0 -0.70613149442E+00  0.28373104411E+03 -0.16720926620E+04  0.19217077003E+04  0.90363865079E+03 0.  0.
         23    2    4    4    0    0  0.14291805927E+03  0.11168182141E+03  0.26944746566E+02  0.20518606322E+03  0.92070083485E+02 0.  0.
         23    2    4    4    0    0 -0.14362419077E+03  0.17204922271E+03 -0.16990374085E+04  0.17165216371E+04  0.97414433125E+02 0.  0.
          1    1    3    3  502    0  0.94278296046E+01 -0.13853780706E+03  0.23894805167E+03  0.27636530056E+03  0.00000000000E+00 0. -1.
         -1    1    3    3    0  502 -0.87216981101E+01 -0.14519323705E+03  0.47957037867E+03  0.50114358441E+03  0.00000000000E+00 0.  1.
         11    1    5    5    0    0  0.82633697478E+02  0.10609043698E+02 -0.43018435385E+01  0.83422932248E+02  0.00000000000E+00 0.  1.
        -11    1    5    5    0    0  0.60284361795E+02  0.10107277771E+03  0.31246590104E+02  0.12176313097E+03  0.00000000000E+00 0. -1.
          1    1    6    6  503    0 -0.32697922390E+02  0.53895536181E+02 -0.22702245342E+03  0.23561213319E+03  0.00000000000E+00 0. -1.
         -1    1    6    6    0  503 -0.11092626838E+03  0.11815368653E+03 -0.14720149551E+04  0.14809095039E+04  0.00000000000E+00 0.  1.
<mgrwt>
<rscale>  0 0.25251666E+04</rscale>
<asrwt>0</asrwt>
<pdfrwt beam="1">  1        1 0.28098391E+00 0.25251666E+04</pdfrwt>
<pdfrwt beam="2">  1       -1 0.13428018E+00 0.25251666E+04</pdfrwt>
<totfact> 0.16181818E+00</totfact>
</mgrwt>
</event>
<event>
12    2  0.3751044E-008  0.1332238E+04  0.7818608E-02  0.9004384E-01
          2   -1    0    0  501    0  0.00000000000E+00  0.00000000000E+00  0.12219428686E+04  0.12219428686E+04  0.00000000000E+00 0. -1.
         -2   -1    0    0    0  501 -0.00000000000E+00 -0.00000000000E+00 -0.36312203079E+03  0.36312203079E+03  0.00000000000E+00 0.  1.
         23    2    1    2    0    0  0.92074870796E+02 -0.78935973989E+02 -0.16534988478E+03  0.22427054074E+03  0.90818617182E+02 0.  0.
        254    2    1    2    0    0 -0.92074870796E+02  0.78935973989E+02  0.10241707226E+04  0.13607943586E+04  0.88776514218E+03 0.  0.
         23    2    4    4    0    0  0.27931647524E+02  0.46797185015E+03  0.49264838947E+03  0.68515641202E+03  0.83420883579E+02 0.  0.
         23    2    4    4    0    0 -0.12000651832E+03 -0.38903587616E+03  0.53152233309E+03  0.67563794660E+03  0.90665136255E+02 0.  0.
          1    1    3    3  502    0  0.89405245874E+02 -0.95996539611E+02 -0.12877930940E+03  0.18382802870E+03  0.00000000000E+00 0. -1.
         -1    1    3    3    0  502  0.26696249215E+01  0.17060565622E+02 -0.36570575377E+02  0.40442512038E+02  0.00000000000E+00 0.  1.
         11    1    5    5    0    0  0.25159724948E+02  0.91682926166E+02  0.63167292430E+02  0.11414410866E+03  0.00000000000E+00 0. -1.
        -11    1    5    5    0    0  0.27719225757E+01  0.37628892398E+03  0.42948109704E+03  0.57101230335E+03  0.00000000000E+00 0.  1.
          1    1    6    6  503    0 -0.76048883056E+01 -0.11443217365E+03  0.20141863885E+03  0.23178012160E+03  0.00000000000E+00 0. -1.
         -1    1    6    6    0  503 -0.11240163001E+03 -0.27460370251E+03  0.33010369424E+03  0.44385782500E+03  0.00000000000E+00 0.  1.
<mgrwt>
<rscale>  0 0.13322378E+04</rscale>
<asrwt>0</asrwt>
<pdfrwt beam="1">  1        2 0.18799121E+00 0.13322378E+04</pdfrwt>
<pdfrwt beam="2">  1       -2 0.55864929E-01 0.13322378E+04</pdfrwt>
<totfact> 0.54086010E+01</totfact>
</mgrwt>
</event>
<event>
12    2  0.3751044E-008  0.1957331E+04  0.7818608E-02  0.8626834E-01
          2   -1    0    0  501    0  0.00000000000E+00  0.00000000000E+00  0.25403486346E+04  0.25403486346E+04  0.00000000000E+00 0. -1.
         -2   -1    0    0    0  501 -0.00000000000E+00 -0.00000000000E+00 -0.37702952288E+03  0.37702952288E+03  0.00000000000E+00 0.  1.
         23    2    1    2    0    0 -0.27207822827E+03 -0.47429104366E+03  0.16578485867E+04  0.17479512134E+04  0.88842285664E+02 0.  0.
        254    2    1    2    0    0  0.27207822827E+03  0.47429104366E+03  0.50547052500E+03  0.11694269440E+04  0.90170969240E+03 0.  0.
         23    2    4    4    0    0  0.19692193330E+03  0.73341947613E+03  0.41600619066E+03  0.87077143510E+03  0.92192004704E+02 0.  0.
         23    2    4    4    0    0  0.75156294965E+02 -0.25912843247E+03  0.89464334337E+02  0.29865550892E+03  0.91625502492E+02 0.  0.
          3    1    3    3  502    0 -0.20673709180E+03 -0.41192223156E+03  0.14452123876E+04  0.15169241891E+04  0.00000000000E+00 0. -1.
         -3    1    3    3    0  502 -0.65341136469E+02 -0.62368812098E+02  0.21263619906E+03  0.23102702437E+03  0.00000000000E+00 0.  1.
         11    1    5    5    0    0  0.55824736910E+02  0.99837869953E+02  0.43506784160E+02  0.12237990765E+03  0.00000000000E+00 0. -1.
        -11    1    5    5    0    0  0.14109719639E+03  0.63358160618E+03  0.37249940650E+03  0.74839152745E+03  0.00000000000E+00 0.  1.
          1    1    6    6  503    0  0.14553409094E+02 -0.13220379030E+03  0.85178024256E+02  0.15793967109E+03  0.00000000000E+00 0. -1.
         -1    1    6    6    0  503  0.60602885870E+02 -0.12692464217E+03  0.42863100807E+01  0.14071583784E+03  0.00000000000E+00 0.  1.
<mgrwt>
<rscale>  0 0.19573313E+04</rscale>
<asrwt>0</asrwt>
<pdfrwt beam="1">  1        2 0.39082286E+00 0.19573313E+04</pdfrwt>
<pdfrwt beam="2">  1       -2 0.58004544E-01 0.19573313E+04</pdfrwt>
<totfact> 0.85588184E+00</totfact>
</mgrwt>
</event>
<event>
12    2  0.3751044E-008  0.1666659E+04  0.7818608E-02  0.8780611E-01
         -1   -1    0    0    0  501 -0.00000000000E+00  0.00000000000E+00  0.12538976347E+04  0.12538976347E+04  0.00000000000E+00 0.  1.
          1   -1    0    0  501    0  0.00000000000E+00 -0.00000000000E+00 -0.55382387641E+03  0.55382387641E+03  0.00000000000E+00 0. -1.
         23    2    1    2    0    0 -0.21176266659E+03  0.44825862456E+03  0.56764679103E+03  0.75827046607E+03  0.83498496384E+02 0.  0.
        254    2    1    2    0    0  0.21176266659E+03 -0.44825862456E+03  0.13242696722E+03  0.10494510450E+04  0.91544053480E+03 0.  0.
         23    2    4    4    0    0  0.37893996121E+03 -0.60988491596E+03  0.26034885297E+03  0.76889236797E+03  0.88650117644E+02 0.  0.
         23    2    4    4    0    0 -0.16717729463E+03  0.16162629140E+03 -0.12792188575E+03  0.28055867703E+03  0.90982726350E+02 0.  0.
          4    1    3    3  502    0 -0.46729468955E+02  0.53798334375E+02  0.11743028072E+03  0.13736001922E+03  0.00000000000E+00 0. -1.
         -4    1    3    3    0  502 -0.16503319763E+03  0.39446029018E+03  0.45021651031E+03  0.62091044685E+03  0.00000000000E+00 0.  1.
         11    1    5    5    0    0  0.21239891370E+02 -0.81991539025E+01  0.23961528390E+01  0.22893244824E+02  0.00000000000E+00 0.  1.
        -11    1    5    5    0    0  0.35770006984E+03 -0.60168576206E+03  0.25795270013E+03  0.74599912315E+03  0.00000000000E+00 0. -1.
          2    1    6    6  503    0 -0.86262944139E+02  0.14086499782E+03 -0.73038468325E+02  0.18060692400E+03  0.00000000000E+00 0. -1.
         -2    1    6    6    0  503 -0.80914350488E+02  0.20761293585E+02 -0.54883417422E+02  0.99951753032E+02  0.00000000000E+00 0.  1.
<mgrwt>
<rscale>  0 0.16666595E+04</rscale>
<asrwt>0</asrwt>
<pdfrwt beam="1">  1        1 0.85203674E-01 0.16666595E+04</pdfrwt>
<pdfrwt beam="2">  1       -1 0.19290733E+00 0.16666595E+04</pdfrwt>
<totfact> 0.61788920E+00</totfact>
</mgrwt>
</event>
<event>
12    2  0.3751044E-008  0.2187290E+04  0.7818608E-02  0.8523737E-01
          2   -1    0    0  501    0  0.00000000000E+00  0.00000000000E+00  0.15903135526E+04  0.15903135526E+04  0.00000000000E+00 0. -1.
         -2   -1    0    0    0  501 -0.00000000000E+00 -0.00000000000E+00 -0.75209018586E+03  0.75209018586E+03  0.00000000000E+00 0.  1.
         23    2    1    2    0    0 -0.81293428647E+03  0.37953250285E+03  0.22481515478E+03  0.92969706221E+03  0.94274592739E+02 0.  0.
        254    2    1    2    0    0  0.81293428647E+03 -0.37953250285E+03  0.61340821196E+03  0.14127066762E+04  0.90253168573E+03 0.  0.
         23    2    4    4    0    0 -0.12695759813E+03 -0.16910863719E+03 -0.55079266314E+02  0.23677018632E+03  0.91161574456E+02 0.  0.
         23    2    4    4    0    0  0.93989188460E+03 -0.21042386566E+03  0.66848747827E+03  0.11759364899E+04  0.90973412205E+02 0.  0.
          4    1    3    3  502    0 -0.10647343146E+03  0.19152228810E+02  0.13993926209E+02  0.10908358926E+03  0.00000000000E+00 0. -1.
         -4    1    3    3    0  502 -0.70646085500E+03  0.36038027404E+03  0.21082122857E+03  0.82061347295E+03  0.00000000000E+00 0.  1.
         11    1    5    5    0    0 -0.13939930229E+03 -0.15824610363E+03 -0.40505602585E+02  0.21474333198E+03  0.00000000000E+00 0. -1.
        -11    1    5    5    0    0  0.12441704151E+02 -0.10862533563E+02 -0.14573663729E+02  0.22026854339E+02  0.00000000000E+00 0.  1.
          1    1    6    6  503    0  0.65465857438E+03 -0.15173497098E+03  0.41477947964E+03  0.78971093899E+03  0.00000000000E+00 0. -1.
         -1    1    6    6    0  503  0.28523331022E+03 -0.58688894675E+02  0.25370799863E+03  0.38622555092E+03  0.00000000000E+00 0.  1.
<mgrwt>
<rscale>  0 0.21872898E+04</rscale>
<asrwt>0</asrwt>
<pdfrwt beam="1">  1        2 0.24466362E+00 0.21872898E+04</pdfrwt>
<pdfrwt beam="2">  1       -2 0.11570618E+00 0.21872898E+04</pdfrwt>
<totfact> 0.60026744E+00</totfact>
</mgrwt>
</event>
<event>
12    2  0.3751044E-008  0.2154612E+04  0.7818608E-02  0.8537561E-01
         -2   -1    0    0    0  501 -0.00000000000E+00  0.00000000000E+00  0.11420454246E+04  0.11420454246E+04  0.00000000000E+00 0.  1.
          2   -1    0    0  501    0  0.00000000000E+00 -0.00000000000E+00 -0.10162360479E+04  0.10162360479E+04  0.00000000000E+00 0. -1.
         23    2    1    2    0    0  0.13840039560E+03 -0.73391618002E+03 -0.42933331582E+03  0.86636300816E+03  0.92033347419E+02 0.  0.
        254    2    1    2    0    0 -0.13840039560E+03  0.73391618002E+03  0.55514269252E+03  0.12919184644E+04  0.89614858187E+03 0.  0.
         23    2    4    4    0    0  0.33056171638E+03  0.51016838087E+03  0.42394868590E+03  0.74786638749E+03  0.10014399675E+03 0.  0.
         23    2    4    4    0    0 -0.46896211198E+03  0.22374779915E+03  0.13119400662E+03  0.54405207690E+03  0.93767024643E+02 0.  0.
          2    1    3    3  502    0  0.14164593529E+02 -0.10602563870E+03 -0.10049183375E+03  0.14676743651E+03  0.00000000000E+00 0.  1.
         -2    1    3    3    0  502  0.12423580207E+03 -0.62789054133E+03 -0.32884148207E+03  0.71959557164E+03  0.00000000000E+00 0. -1.
         11    1    5    5    0    0  0.13244790995E+03  0.29323129982E+03  0.20579810026E+03  0.38194227590E+03  0.00000000000E+00 0. -1.
        -11    1    5    5    0    0  0.19811380643E+03  0.21693708105E+03  0.21815058564E+03  0.36592411160E+03  0.00000000000E+00 0.  1.
          4    1    6    6  503    0 -0.22171939061E+03  0.76931863510E+02  0.98977809029E+02  0.25470494003E+03  0.00000000000E+00 0. -1.
         -4    1    6    6    0  503 -0.24724272137E+03  0.14681593564E+03  0.32216197590E+02  0.28934713687E+03  0.00000000000E+00 0.  1.
<mgrwt>
<rscale>  0 0.21546115E+04</rscale>
<asrwt>0</asrwt>
<pdfrwt beam="1">  1        2 0.15634401E+00 0.21546115E+04</pdfrwt>
<pdfrwt beam="2">  1       -2 0.17569930E+00 0.21546115E+04</pdfrwt>
<totfact> 0.43822939E+00</totfact>
</mgrwt>
</event>
<event>
12    2  0.3751044E-008  0.2139437E+04  0.7818608E-02  0.8544067E-01
         -1   -1    0    0    0  501 -0.00000000000E+00  0.00000000000E+00  0.66405207719E+03  0.66405207719E+03  0.00000000000E+00 0.  1.
          1   -1    0    0  501    0  0.00000000000E+00 -0.00000000000E+00 -0.17232053685E+04  0.17232053685E+04  0.00000000000E+00 0. -1.
         23    2    1    2    0    0 -0.86710339693E+03 -0.15094942537E+03 -0.51732973980E+03  0.10256894636E+04  0.98766320920E+02 0.  0.
        254    2    1    2    0    0  0.86710339693E+03  0.15094942537E+03 -0.54182355151E+03  0.13615679821E+04  0.88636368315E+03 0.  0.
         23    2    4    4    0    0  0.86790797561E+03  0.39149461068E+03 -0.28535203963E+03  0.99812770619E+03  0.91108984330E+02 0.  0.
         23    2    4    4    0    0 -0.80457867868E+00 -0.24054518531E+03 -0.25647151188E+03  0.36344027587E+03  0.91916071478E+02 0.  0.
          4    1    3    3  502    0 -0.57861763211E+03 -0.84738394345E+02 -0.39343412394E+03  0.70481867849E+03  0.00000000000E+00 0. -1.
         -4    1    3    3    0  502 -0.28848576482E+03 -0.66211031025E+02 -0.12389561586E+03  0.32087078515E+03  0.00000000000E+00 0.  1.
         11    1    5    5    0    0  0.60599771213E+03  0.27773192383E+03 -0.15585923581E+03  0.68458772265E+03  0.00000000000E+00 0. -1.
        -11    1    5    5    0    0  0.26191026348E+03  0.11376268684E+03 -0.12949280382E+03  0.31353998353E+03  0.00000000000E+00 0.  1.
          1    1    6    6  503    0  0.11574000005E+02 -0.37033259512E+01  0.23644716819E+01  0.12379936411E+02  0.00000000000E+00 0. -1.
         -1    1    6    6    0  503 -0.12378578683E+02 -0.23684185936E+03 -0.25883598356E+03  0.35106033946E+03  0.00000000000E+00 0.  1.
<mgrwt>
<rscale>  0 0.21394374E+04</rscale>
<asrwt>0</asrwt>
<pdfrwt beam="1">  1        1 0.26510852E+00 0.21394374E+04</pdfrwt>
<pdfrwt beam="2">  1       -1 0.10216186E+00 0.21394374E+04</pdfrwt>
<totfact> 0.38209711E+00</totfact>
</mgrwt>
</event>
<event>
12    2  0.3751044E-008  0.1509599E+04  0.7818608E-02  0.8878095E-01
          2   -1    0    0  501    0  0.00000000000E+00  0.00000000000E+00  0.14593199439E+04  0.14593199439E+04  0.00000000000E+00 0. -1.
         -2   -1    0    0    0  501 -0.00000000000E+00 -0.00000000000E+00 -0.39040246564E+03  0.39040246564E+03  0.00000000000E+00 0.  1.
         23    2    1    2    0    0  0.12500942356E+03 -0.33166184480E+03  0.73360323444E+03  0.81984724171E+03  0.91372090307E+02 0.  0.
        254    2    1    2    0    0 -0.12500942356E+03  0.33166184480E+03  0.33531424384E+03  0.10298751678E+04  0.90696211826E+03 0.  0.
         23    2    4    4    0    0 -0.29628072425E+03 -0.16271920028E+03 -0.75558847448E+02  0.35845035902E+03  0.92291466300E+02 0.  0.
         23    2    4    4    0    0  0.17127130069E+03  0.49438104508E+03  0.41087309129E+03  0.67142480883E+03  0.90819054147E+02 0.  0.
          1    1    3    3  502    0  0.27027616613E+02 -0.13798755563E+03  0.20671854810E+03  0.25000723129E+03  0.00000000000E+00 0. -1.
         -1    1    3    3    0  502  0.97981806942E+02 -0.19367428917E+03  0.52688468634E+03  0.56984001042E+03  0.00000000000E+00 0.  1.
         11    1    5    5    0    0 -0.31212480803E+02  0.65772576932E+01 -0.23574057689E+02  0.39663780362E+02  0.00000000000E+00 0. -1.
        -11    1    5    5    0    0 -0.26506824344E+03 -0.16929645798E+03 -0.51984789759E+02  0.31878657866E+03  0.00000000000E+00 0.  1.
          1    1    6    6  503    0  0.43941488118E+02  0.48036842147E+02  0.69685710163E+02  0.95365039624E+02  0.00000000000E+00 0. -1.
         -1    1    6    6    0  503  0.12732981257E+03  0.44634420293E+03  0.34118738112E+03  0.57605976921E+03  0.00000000000E+00 0.  1.
<mgrwt>
<rscale>  0 0.15095988E+04</rscale>
<asrwt>0</asrwt>
<pdfrwt beam="1">  1        2 0.22451076E+00 0.15095988E+04</pdfrwt>
<pdfrwt beam="2">  1       -2 0.60061918E-01 0.15095988E+04</pdfrwt>
<totfact> 0.33395209E+01</totfact>
</mgrwt>
</event>
<event>
12    2  0.3751044E-008  0.1224089E+04  0.7818608E-02  0.9092029E-01
         -2   -1    0    0    0  501 -0.00000000000E+00  0.00000000000E+00  0.36610761532E+03  0.36610761532E+03  0.00000000000E+00 0.  1.
          2   -1    0    0  501    0  0.00000000000E+00 -0.00000000000E+00 -0.10231930518E+04  0.10231930518E+04  0.00000000000E+00 0. -1.
         23    2    1    2    0    0  0.12766360584E+03 -0.22318591199E+03 -0.93905695611E+02  0.28900584301E+03  0.92715425135E+02 0.  0.
        254    2    1    2    0    0 -0.12766360584E+03  0.22318591199E+03 -0.56317974086E+03  0.11002948241E+04  0.90959734600E+03 0.  0.
         23    2    4    4    0    0  0.13471743545E+03 -0.76171410111E+02 -0.65711936691E+03  0.68149219824E+03  0.93139050690E+02 0.  0.
         23    2    4    4    0    0 -0.26238104129E+03  0.29935732210E+03  0.93939626056E+02  0.41880262585E+03  0.90068690168E+02 0.  0.
          3    1    3    3  502    0  0.12092332280E+03 -0.22719590028E+03 -0.74288725639E+02  0.26787915533E+03  0.00000000000E+00 0. -1.
         -3    1    3    3    0  502  0.67402830394E+01  0.40099882895E+01 -0.19616969973E+02  0.21126687683E+02  0.00000000000E+00 0.  1.
         11    1    5    5    0    0  0.91283551121E+02 -0.43347896530E+02 -0.56905987937E+03  0.57796269183E+03  0.00000000000E+00 0. -1.
        -11    1    5    5    0    0  0.43433884333E+02 -0.32823513582E+02 -0.88059487537E+02  0.10352950641E+03  0.00000000000E+00 0.  1.
          1    1    6    6  503    0 -0.25878433167E+03  0.25577144527E+03  0.77051169109E+02  0.37192102010E+03  0.00000000000E+00 0. -1.
         -1    1    6    6    0  503 -0.35967096253E+01  0.43585876836E+02  0.16888456947E+02  0.46881605751E+02  0.00000000000E+00 0.  1.
<mgrwt>
<rscale>  0 0.12240895E+04</rscale>
<asrwt>0</asrwt>
<pdfrwt beam="1">  1        2 0.15741431E+00 0.12240895E+04</pdfrwt>
<pdfrwt beam="2">  1       -2 0.56324250E-01 0.12240895E+04</pdfrwt>
<totfact> 0.70947555E+01</totfact>
</mgrwt>
</event>
<event>
12    2  0.3751044E-008  0.1584765E+04  0.7818608E-02  0.8829962E-01
          1   -1    0    0  501    0  0.00000000000E+00  0.00000000000E+00  0.56594719086E+03  0.56594719086E+03  0.00000000000E+00 0. -1.
         -1   -1    0    0    0  501 -0.00000000000E+00 -0.00000000000E+00 -0.11094150358E+04  0.11094150358E+04  0.00000000000E+00 0.  1.
         23    2    1    2    0    0 -0.45171758843E+03 -0.23378702416E+03 -0.31245361300E+03  0.60397652997E+03  0.91952357832E+02 0.  0.
        254    2    1    2    0    0  0.45171758843E+03  0.23378702416E+03 -0.23101423190E+03  0.10713856966E+04  0.91421801736E+03 0.  0.
         23    2    4    4    0    0  0.50440172890E+03 -0.19982682995E+03 -0.28822484604E+03  0.62150607008E+03  0.94044495777E+02 0.  0.
         23    2    4    4    0    0 -0.52684140474E+02  0.43361385411E+03  0.57210614142E+02  0.44987962656E+03  0.91225165898E+02 0.  0.
          2    1    3    3  502    0 -0.17175073101E+03 -0.71608084305E+02 -0.66683250930E+02  0.19766812412E+03  0.00000000000E+00 0. -1.
         -2    1    3    3    0  502 -0.27996685742E+03 -0.16217893986E+03 -0.24577036207E+03  0.40630840584E+03  0.00000000000E+00 0.  1.
         11    1    5    5    0    0  0.49027320524E+03 -0.18505124911E+03 -0.25570080957E+03  0.58309063154E+03  0.00000000000E+00 0.  1.
        -11    1    5    5    0    0  0.14128523658E+02 -0.14775580838E+02 -0.32524036468E+02  0.38415438537E+02  0.00000000000E+00 0. -1.
          2    1    6    6  503    0 -0.26389933876E+02  0.40937026039E+03  0.56626021957E+02  0.41410982247E+03  0.00000000000E+00 0.  1.
         -2    1    6    6    0  503 -0.26294206597E+02  0.24243593721E+02  0.58459218431E+00  0.35769804097E+02  0.00000000000E+00 0. -1.
<mgrwt>
<rscale>  0 0.15847654E+04</rscale>
<asrwt>0</asrwt>
<pdfrwt beam="1">  1        1 0.87068800E-01 0.15847654E+04</pdfrwt>
<pdfrwt beam="2">  1       -1 0.17067923E+00 0.15847654E+04</pdfrwt>
<totfact> 0.87038976E+00</totfact>
</mgrwt>
</event>
<event>
12    2  0.3751044E-008  0.1928141E+04  0.7818608E-02  0.8640974E-01
         -2   -1    0    0    0  501 -0.00000000000E+00  0.00000000000E+00  0.69372854839E+03  0.69372854839E+03  0.00000000000E+00 0.  1.
          2   -1    0    0  501    0  0.00000000000E+00 -0.00000000000E+00 -0.13397631732E+04  0.13397631732E+04  0.00000000000E+00 0. -1.
         23    2    1    2    0    0 -0.32049422785E+03 -0.72607687195E+02  0.47298061485E+03  0.58259745170E+03  0.87867527421E+02 0.  0.
        254    2    1    2    0    0  0.32049422785E+03  0.72607687195E+02 -0.11190152397E+04  0.14508942699E+04  0.86308206418E+03 0.  0.
         23    2    4    4    0    0  0.46248442208E+03  0.27696225520E+02 -0.11759471907E+04  0.12673066118E+04  0.92495034813E+02 0.  0.
         23    2    4    4    0    0 -0.14199019423E+03  0.44911461675E+02  0.56931950998E+02  0.18358765812E+03  0.91021571733E+02 0.  0.
          2    1    3    3  502    0 -0.85023502541E+02 -0.52971553715E+02  0.10363318630E+03  0.14413472444E+03  0.00000000000E+00 0. -1.
         -2    1    3    3    0  502 -0.23547072531E+03 -0.19636133480E+02  0.36934742855E+03  0.43846272725E+03  0.00000000000E+00 0.  1.
         11    1    5    5    0    0  0.45365439006E+03  0.21222980222E+02 -0.11695375266E+04  0.12546197617E+04  0.00000000000E+00 0. -1.
        -11    1    5    5    0    0  0.88300320261E+01  0.64732452979E+01 -0.64096641085E+01  0.12686850052E+02  0.00000000000E+00 0.  1.
          4    1    6    6  503    0 -0.13264947227E+03  0.61863519454E+02  0.67891485947E+02  0.16134506933E+03  0.00000000000E+00 0. -1.
         -4    1    6    6    0  503 -0.93407219625E+01 -0.16952057779E+02 -0.10959534949E+02  0.22242588789E+02  0.00000000000E+00 0.  1.
<mgrwt>
<rscale>  0 0.19281410E+04</rscale>
<asrwt>0</asrwt>
<pdfrwt beam="1">  1        2 0.20611741E+00 0.19281410E+04</pdfrwt>
<pdfrwt beam="2">  1       -2 0.10672747E+00 0.19281410E+04</pdfrwt>
<totfact> 0.10353793E+01</totfact>
</mgrwt>
</event>
<event>
12    2  0.3751044E-008  0.2176827E+04  0.7818608E-02  0.8528135E-01
         -1   -1    0    0    0  501 -0.00000000000E+00  0.00000000000E+00  0.66411871204E+03  0.66411871204E+03  0.00000000000E+00 0.  1.
          1   -1    0    0  501    0  0.00000000000E+00 -0.00000000000E+00 -0.17837838533E+04  0.17837838533E+04  0.00000000000E+00 0. -1.
         23    2    1    2    0    0  0.75505877665E+03  0.34422443543E+03 -0.87694467814E+03  0.12108937468E+04  0.92884225626E+02 0.  0.
        254    2    1    2    0    0 -0.75505877665E+03 -0.34422443543E+03 -0.24272046310E+03  0.12370088185E+04  0.88468829301E+03 0.  0.
         23    2    4    4    0    0 -0.87965788758E+02 -0.23871227614E+03  0.27091585059E+03  0.38354082228E+03  0.94797855902E+02 0.  0.
         23    2    4    4    0    0 -0.66709298789E+03 -0.10551215929E+03 -0.51363631369E+03  0.85346799626E+03  0.91866684065E+02 0.  0.
          2    1    3    3  502    0  0.14768027611E+01 -0.39042070781E+01 -0.14381613137E+01  0.44149844018E+01  0.00000000000E+00 0.  1.
         -2    1    3    3    0  502  0.75358197389E+03  0.34812864251E+03 -0.87550651683E+03  0.12064787624E+04  0.00000000000E+00 0. -1.
         11    1    5    5    0    0 -0.87805312901E+00 -0.85643828780E+02  0.43956179162E+02  0.96269320512E+02  0.00000000000E+00 0.  1.
        -11    1    5    5    0    0 -0.87087735629E+02 -0.15306844736E+03  0.22695967143E+03  0.28727150177E+03  0.00000000000E+00 0. -1.
          4    1    6    6  503    0 -0.14065600188E+03 -0.32329410199E+02 -0.15782200007E+03  0.21386230462E+03  0.00000000000E+00 0. -1.
         -4    1    6    6    0  503 -0.52643698601E+03 -0.73182749088E+02 -0.35581431362E+03  0.63960569164E+03  0.00000000000E+00 0.  1.
<mgrwt>
<rscale>  0 0.21768273E+04</rscale>
<asrwt>0</asrwt>
<pdfrwt beam="1">  1        1 0.27442828E+00 0.21768273E+04</pdfrwt>
<pdfrwt beam="2">  1       -1 0.10217211E+00 0.21768273E+04</pdfrwt>
<totfact> 0.34624999E+00</totfact>
</mgrwt>
</event>
<event>
12    2  0.3751044E-008  0.1529335E+04  0.7818608E-02  0.8865176E-01
         -1   -1    0    0    0  501 -0.00000000000E+00  0.00000000000E+00  0.69328354329E+03  0.69328354329E+03  0.00000000000E+00 0.  1.
          1   -1    0    0  501    0  0.00000000000E+00 -0.00000000000E+00 -0.84340169154E+03  0.84340169154E+03  0.00000000000E+00 0. -1.
         23    2    1    2    0    0 -0.32305919532E+03  0.11193148507E+03 -0.41206086962E+03  0.54434763548E+03  0.98103450242E+02 0.  0.
        254    2    1    2    0    0  0.32305919532E+03 -0.11193148507E+03  0.26194272138E+03  0.99233759935E+03  0.89399330018E+03 0.  0.
         23    2    4    4    0    0 -0.65420216582E+02  0.15892649237E+03 -0.23141284764E+03  0.30226816872E+03  0.90976398340E+02 0.  0.
         23    2    4    4    0    0  0.38847941191E+03 -0.27085797744E+03  0.49335556902E+03  0.69006943063E+03  0.92281115007E+02 0.  0.
          3    1    3    3  502    0 -0.32739602407E+03  0.10078692781E+03 -0.40506131031E+03  0.53049111822E+03  0.00000000000E+00 0. -1.
         -3    1    3    3    0  502  0.43368287504E+01  0.11144557263E+02 -0.69995593105E+01  0.13856517266E+02  0.00000000000E+00 0.  1.
         11    1    5    5    0    0 -0.42422462362E+01  0.10133964633E+03 -0.80291482740E+02  0.12936167427E+03  0.00000000000E+00 0.  1.
        -11    1    5    5    0    0 -0.61177970345E+02  0.57586846045E+02 -0.15112136490E+03  0.17290649445E+03  0.00000000000E+00 0. -1.
          3    1    6    6  503    0  0.25212390263E+03 -0.12700585512E+03  0.25878563900E+03  0.38297122146E+03  0.00000000000E+00 0. -1.
         -3    1    6    6    0  503  0.13635550927E+03 -0.14385212232E+03  0.23456993002E+03  0.30709820917E+03  0.00000000000E+00 0.  1.
<mgrwt>
<rscale>  0 0.15293352E+04</rscale>
<asrwt>0</asrwt>
<pdfrwt beam="1">  1        1 0.12975411E+00 0.15293352E+04</pdfrwt>
<pdfrwt beam="2">  1       -1 0.10665901E+00 0.15293352E+04</pdfrwt>
<totfact> 0.16073381E+01</totfact>
</mgrwt>
</event>
<event>
12    2  0.3751044E-008  0.2944942E+04  0.7818608E-02  0.8259630E-01
          1   -1    0    0  501    0  0.00000000000E+00  0.00000000000E+00  0.19961245334E+04  0.19961245334E+04  0.00000000000E+00 0. -1.
         -1   -1    0    0    0  501 -0.00000000000E+00 -0.00000000000E+00 -0.10861899669E+04  0.10861899669E+04  0.00000000000E+00 0.  1.
         23    2    1    2    0    0  0.43880460596E+03 -0.64807761019E+03 -0.71269083032E+03  0.10624845565E+04  0.91603177674E+02 0.  0.
        254    2    1    2    0    0 -0.43880460596E+03  0.64807761019E+03  0.16226253969E+04  0.20198299438E+04  0.91337054489E+03 0.  0.
         23    2    4    4    0    0 -0.41861352391E+03  0.48940533302E+03  0.16997885412E+04  0.18200110263E+04  0.91674361440E+02 0.  0.
         23    2    4    4    0    0 -0.20191082041E+02  0.15867227717E+03 -0.77163144386E+02  0.19981891749E+03  0.91590816109E+02 0.  0.
          3    1    3    3  502    0 -0.54973569266E+00  0.16242800406E+01  0.10633854579E+01  0.20177422071E+01  0.00000000000E+00 0. -1.
         -3    1    3    3    0  502  0.43935434165E+03 -0.64970189023E+03 -0.71375421578E+03  0.10604668143E+04  0.00000000000E+00 0.  1.
         11    1    5    5    0    0 -0.14581013024E+03  0.15981454888E+03  0.45652661807E+03  0.50519089176E+03  0.00000000000E+00 0.  1.
        -11    1    5    5    0    0 -0.27280339368E+03  0.32959078414E+03  0.12432619232E+04  0.13148201345E+04  0.00000000000E+00 0. -1.
          3    1    6    6  503    0 -0.33531227004E+02  0.32349509089E+02 -0.52907738792E+02  0.70498671951E+02  0.00000000000E+00 0. -1.
         -3    1    6    6    0  503  0.13340144964E+02  0.12632276809E+03 -0.24255405594E+02  0.12932024553E+03  0.00000000000E+00 0.  1.
<mgrwt>
<rscale>  0 0.29449417E+04</rscale>
<asrwt>0</asrwt>
<pdfrwt beam="1">  1        1 0.30709608E+00 0.29449417E+04</pdfrwt>
<pdfrwt beam="2">  1       -1 0.16710615E+00 0.29449417E+04</pdfrwt>
<totfact> 0.66262013E-01</totfact>
</mgrwt>
</event>
<event>
12    2  0.3751044E-008  0.1902459E+04  0.7818608E-02  0.8653633E-01
         -1   -1    0    0    0  501 -0.00000000000E+00  0.00000000000E+00  0.53355030076E+03  0.53355030076E+03  0.00000000000E+00 0.  1.
          1   -1    0    0  501    0  0.00000000000E+00 -0.00000000000E+00 -0.16958804820E+04  0.16958804820E+04  0.00000000000E+00 0. -1.
         23    2    1    2    0    0 -0.43746230289E+03 -0.60511192824E+02 -0.11385121029E+04  0.12249969168E+04  0.96813050887E+02 0.  0.
        254    2    1    2    0    0  0.43746230289E+03  0.60511192824E+02 -0.23818078337E+02  0.10044338659E+04  0.90182327498E+03 0.  0.
         23    2    4    4    0    0  0.30299721858E+03  0.10637058894E+03 -0.44166178239E+03  0.55338324050E+03  0.89698741223E+02 0.  0.
         23    2    4    4    0    0  0.13446508431E+03 -0.45859396112E+02  0.41784370405E+03  0.45105062545E+03  0.93109411951E+02 0.  0.
          2    1    3    3  502    0 -0.27077870470E+03 -0.77681074578E+01 -0.78880741188E+03  0.83402552926E+03  0.00000000000E+00 0. -1.
         -2    1    3    3    0  502 -0.16668359819E+03 -0.52743085367E+02 -0.34970469100E+03  0.39097138753E+03  0.00000000000E+00 0.  1.
         11    1    5    5    0    0  0.12770408131E+03  0.10177719355E+02 -0.12577020725E+03  0.17952733326E+03  0.00000000000E+00 0.  1.
        -11    1    5    5    0    0  0.17529313728E+03  0.96192869581E+02 -0.31589157514E+03  0.37385590724E+03  0.00000000000E+00 0. -1.
          1    1    6    6  503    0  0.25014271604E+01 -0.25066428032E+02  0.14597406232E+03  0.14813173131E+03  0.00000000000E+00 0.  1.
         -1    1    6    6    0  503  0.13196365715E+03 -0.20792968081E+02  0.27186964174E+03  0.30291889414E+03  0.00000000000E+00 0. -1.
<mgrwt>
<rscale>  0 0.19024590E+04</rscale>
<asrwt>0</asrwt>
<pdfrwt beam="1">  1        1 0.26090469E+00 0.19024590E+04</pdfrwt>
<pdfrwt beam="2">  1       -1 0.82084662E-01 0.19024590E+04</pdfrwt>
<totfact> 0.66238604E+00</totfact>
</mgrwt>
</event>
<event>
12    2  0.3751044E-008  0.1517385E+04  0.7818608E-02  0.8872974E-01
         -1   -1    0    0    0  501 -0.00000000000E+00  0.00000000000E+00  0.50288833794E+03  0.50288833794E+03  0.00000000000E+00 0.  1.
          1   -1    0    0  501    0  0.00000000000E+00 -0.00000000000E+00 -0.11446167667E+04  0.11446167667E+04  0.00000000000E+00 0. -1.
         23    2    1    2    0    0  0.28040587493E+03  0.32770332073E+03 -0.49258041539E+03  0.66108572139E+03  0.91552958907E+02 0.  0.
        254    2    1    2    0    0 -0.28040587493E+03 -0.32770332073E+03 -0.14914801332E+03  0.98641938321E+03  0.87450623131E+03 0.  0.
         23    2    4    4    0    0 -0.47142370026E+03  0.10557618602E+03 -0.50335964296E+02  0.49374812537E+03  0.88695353811E+02 0.  0.
         23    2    4    4    0    0  0.19101782533E+03 -0.43327950675E+03 -0.98812049024E+02  0.49267125784E+03  0.93499768512E+02 0.  0.
          3    1    3    3  502    0  0.22780074940E+03  0.30860116482E+03 -0.44613826257E+03  0.58835976213E+03  0.00000000000E+00 0. -1.
         -3    1    3    3    0  502  0.52605125529E+02  0.19102155905E+02 -0.46442152820E+02  0.72725959262E+02  0.00000000000E+00 0.  1.
         11    1    5    5    0    0 -0.66203843429E+02 -0.15755017201E+02 -0.30840495500E+01  0.68122542622E+02  0.00000000000E+00 0. -1.
        -11    1    5    5    0    0 -0.40521985683E+03  0.12133120322E+03 -0.47251914746E+02  0.42562558275E+03  0.00000000000E+00 0.  1.
          4    1    6    6  503    0  0.12115764304E+02 -0.85305347221E+02  0.95082671710E+01  0.86684492002E+02  0.00000000000E+00 0. -1.
         -4    1    6    6    0  503  0.17890206103E+03 -0.34797415953E+03 -0.10832031619E+03  0.40598676584E+03  0.00000000000E+00 0.  1.
<mgrwt>
<rscale>  0 0.15173852E+04</rscale>
<asrwt>0</asrwt>
<pdfrwt beam="1">  1        1 0.17609489E+00 0.15173852E+04</pdfrwt>
<pdfrwt beam="2">  1       -1 0.77367437E-01 0.15173852E+04</pdfrwt>
<totfact> 0.18994905E+01</totfact>
</mgrwt>
</event>
<event>
12    2  0.3751044E-008  0.2643525E+04  0.7818608E-02  0.8353565E-01
          2   -1    0    0  501    0  0.00000000000E+00  0.00000000000E+00  0.23395234218E+04  0.23395234218E+04  0.00000000000E+00 0. -1.
         -2   -1    0    0    0  501 -0.00000000000E+00 -0.00000000000E+00 -0.74675708165E+03  0.74675708165E+03  0.00000000000E+00 0.  1.
         23    2    1    2    0    0  0.97113066606E+03 -0.36212291827E+03  0.13315750678E+04  0.16899130051E+04  0.92119624687E+02 0.  0.
        254    2    1    2    0    0 -0.97113066606E+03  0.36212291827E+03  0.26119127231E+03  0.13963674983E+04  0.89855079488E+03 0.  0.
         23    2    4    4    0    0 -0.63163379628E+03  0.53241034670E+03  0.46766620102E+03  0.95385707961E+03  0.93325360293E+02 0.  0.
         23    2    4    4    0    0 -0.33949686979E+03 -0.17028742843E+03 -0.20647492872E+03  0.44251041866E+03  0.94486197682E+02 0.  0.
          3    1    3    3  502    0  0.79428418337E+03 -0.29975685309E+03  0.11448534022E+04  0.14252827254E+04  0.00000000000E+00 0. -1.
         -3    1    3    3    0  502  0.17684648270E+03 -0.62366065179E+02  0.18672166561E+03  0.26463027970E+03  0.00000000000E+00 0.  1.
         11    1    5    5    0    0 -0.56986333688E+03  0.43984853531E+03  0.41199746157E+03  0.82942924054E+03  0.00000000000E+00 0. -1.
        -11    1    5    5    0    0 -0.61770459400E+02  0.92561811396E+02  0.55668739453E+02  0.12442783907E+03  0.00000000000E+00 0.  1.
          4    1    6    6  503    0 -0.21846363692E+03 -0.15031339987E+03 -0.11284968286E+03  0.28819356300E+03  0.00000000000E+00 0. -1.
         -4    1    6    6    0  503 -0.12103323287E+03 -0.19974028563E+02 -0.93625245859E+02  0.15431685565E+03  0.00000000000E+00 0.  1.
<mgrwt>
<rscale>  0 0.26435247E+04</rscale>
<asrwt>0</asrwt>
<pdfrwt beam="1">  1        2 0.35992668E+00 0.26435247E+04</pdfrwt>
<pdfrwt beam="2">  1       -2 0.11488571E+00 0.26435247E+04</pdfrwt>
<totfact> 0.22423636E+00</totfact>
</mgrwt>
</event>
<event>
12    2  0.3751044E-008  0.1970760E+04  0.7818608E-02  0.8620414E-01
         -1   -1    0    0    0  501 -0.00000000000E+00  0.00000000000E+00  0.61869627120E+03  0.61869627120E+03  0.00000000000E+00 0.  1.
          1   -1    0    0  501    0  0.00000000000E+00 -0.00000000000E+00 -0.15693873310E+04  0.15693873310E+04  0.00000000000E+00 0. -1.
         23    2    1    2    0    0  0.71185916287E+03  0.16709990506E+03 -0.88387038514E+02  0.74251075896E+03  0.94043141984E+02 0.  0.
        254    2    1    2    0    0 -0.71185916287E+03 -0.16709990506E+03 -0.86230402123E+03  0.14455728432E+04  0.90080340470E+03 0.  0.
         23    2    4    4    0    0 -0.66987684612E+03  0.22992592411E+03 -0.36648133800E+03  0.80297563524E+03  0.94129592291E+02 0.  0.
         23    2    4    4    0    0 -0.41982316757E+02 -0.39702582917E+03 -0.49582268324E+03  0.64259720796E+03  0.87744028396E+02 0.  0.
          3    1    3    3  502    0  0.11065657815E+03  0.30148316716E+02  0.20093924519E+02  0.11643695758E+03  0.00000000000E+00 0. -1.
         -3    1    3    3    0  502  0.60120258473E+03  0.13695158834E+03 -0.10848096303E+03  0.62607380138E+03  0.00000000000E+00 0.  1.
         11    1    5    5    0    0 -0.69932788782E+02  0.26552467098E+02 -0.74054045016E+02  0.10525982158E+03  0.00000000000E+00 0.  1.
        -11    1    5    5    0    0 -0.59994405733E+03  0.20337345701E+03 -0.29242729298E+03  0.69771581366E+03  0.00000000000E+00 0. -1.
          1    1    6    6  503    0 -0.11935053181E+02 -0.25242399997E+03 -0.37281653869E+03  0.45039148835E+03  0.00000000000E+00 0. -1.
         -1    1    6    6    0  503 -0.30047263576E+02 -0.14460182920E+03 -0.12300614455E+03  0.19220571962E+03  0.00000000000E+00 0.  1.
<mgrwt>
<rscale>  0 0.19707604E+04</rscale>
<asrwt>0</asrwt>
<pdfrwt beam="1">  1        1 0.24144420E+00 0.19707604E+04</pdfrwt>
<pdfrwt beam="2">  1       -1 0.95184042E-01 0.19707604E+04</pdfrwt>
<totfact> 0.58070816E+00</totfact>
</mgrwt>
</event>
<event>
12    2  0.3751044E-008  0.3025847E+04  0.7818608E-02  0.8236389E-01
          1   -1    0    0  501    0  0.00000000000E+00  0.00000000000E+00  0.24043113873E+04  0.24043113873E+04  0.00000000000E+00 0. -1.
         -1   -1    0    0    0  501 -0.00000000000E+00 -0.00000000000E+00 -0.95201351741E+03  0.95201351741E+03  0.00000000000E+00 0.  1.
         23    2    1    2    0    0  0.73514875696E+02 -0.13738474119E+04  0.59876301075E+03  0.15033866000E+04  0.93770879324E+02 0.  0.
        254    2    1    2    0    0 -0.73514875696E+02  0.13738474119E+04  0.85353485914E+03  0.18529383047E+04  0.90110901512E+03 0.  0.
         23    2    4    4    0    0  0.25056109920E+03  0.94777166231E+03  0.86382114857E+03  0.13097826832E+04  0.91058839273E+02 0.  0.
         23    2    4    4    0    0 -0.32407597489E+03  0.42607574962E+03 -0.10286289436E+02  0.54315562151E+03  0.91358850215E+02 0.  0.
          3    1    3    3  502    0  0.92694619401E+02 -0.10599743207E+04  0.47948312475E+03  0.11670655165E+04  0.00000000000E+00 0. -1.
         -3    1    3    3    0  502 -0.19179743705E+02 -0.31387309127E+03  0.11927988599E+03  0.33632108348E+03  0.00000000000E+00 0.  1.
         11    1    5    5    0    0  0.24873098081E+03  0.90498356864E+03  0.80173809552E+03  0.12343606986E+04  0.00000000000E+00 0. -1.
        -11    1    5    5    0    0  0.18301183848E+01  0.42788093667E+02  0.62083053059E+02  0.75421984660E+02  0.00000000000E+00 0.  1.
          3    1    6    6  503    0 -0.31395056548E+03  0.37194586102E+03  0.19826274734E+01  0.48673669669E+03  0.00000000000E+00 0. -1.
         -3    1    6    6    0  503 -0.10125409410E+02  0.54129888595E+02 -0.12268916910E+02  0.56418924814E+02  0.00000000000E+00 0.  1.
<mgrwt>
<rscale>  0 0.30258466E+04</rscale>
<asrwt>0</asrwt>
<pdfrwt beam="1">  1        1 0.36989406E+00 0.30258466E+04</pdfrwt>
<pdfrwt beam="2">  1       -1 0.14646362E+00 0.30258466E+04</pdfrwt>
<totfact> 0.49826891E-01</totfact>
</mgrwt>
</event>
<event>
12    2  0.3751044E-008  0.1548037E+04  0.7818608E-02  0.8853123E-01
          2   -1    0    0  501    0  0.00000000000E+00  0.00000000000E+00  0.14739049430E+04  0.14739049430E+04  0.00000000000E+00 0.  1.
         -2   -1    0    0    0  501 -0.00000000000E+00 -0.00000000000E+00 -0.40647440524E+03  0.40647440524E+03  0.00000000000E+00 0. -1.
         23    2    1    2    0    0  0.51350227518E+02  0.48422916512E+03  0.55900629599E+03  0.74662535874E+03  0.88581358917E+02 0.  0.
        254    2    1    2    0    0 -0.51350227518E+02 -0.48422916512E+03  0.50842424178E+03  0.11337539895E+04  0.88870026944E+03 0.  0.
         23    2    4    4    0    0 -0.15116209397E+03 -0.53659902023E+03 -0.40100760318E+02  0.56624762948E+03  0.90773452889E+02 0.  0.
         23    2    4    4    0    0  0.99811866447E+02  0.52369855113E+02  0.54852500210E+03  0.56750636004E+03  0.92080292918E+02 0.  0.
          4    1    3    3  502    0  0.17706734809E+02  0.34387013659E+02  0.19304527204E+02  0.43227999452E+02  0.00000000000E+00 0. -1.
         -4    1    3    3    0  502  0.33643492709E+02  0.44984215146E+03  0.53970176879E+03  0.70339735929E+03  0.00000000000E+00 0.  1.
         11    1    5    5    0    0  0.32625387137E+01 -0.16303017617E+02  0.12748694624E+02  0.20951414197E+02  0.00000000000E+00 0. -1.
        -11    1    5    5    0    0 -0.15442463268E+03 -0.52029600261E+03 -0.52849454941E+02  0.54529621528E+03  0.00000000000E+00 0.  1.
          1    1    6    6  503    0 -0.13255758689E+02 -0.84030579018E+01  0.89725621434E+02  0.91087944660E+02  0.00000000000E+00 0. -1.
         -1    1    6    6    0  503  0.11306762514E+03  0.60772913015E+02  0.45879938067E+03  0.47641841538E+03  0.00000000000E+00 0.  1.
<mgrwt>
<rscale>  0 0.15480370E+04</rscale>
<asrwt>0</asrwt>
<pdfrwt beam="1">  1        2 0.22675461E+00 0.15480370E+04</pdfrwt>
<pdfrwt beam="2">  1       -2 0.62534524E-01 0.15480370E+04</pdfrwt>
<totfact> 0.29984954E+01</totfact>
</mgrwt>
</event>
<event>
12    2  0.3751044E-008  0.2094583E+04  0.7818608E-02  0.8563633E-01
         -1   -1    0    0    0  501 -0.00000000000E+00  0.00000000000E+00  0.35948875311E+03  0.35948875311E+03  0.00000000000E+00 0.  1.
          1   -1    0    0  501    0  0.00000000000E+00 -0.00000000000E+00 -0.30510528371E+04  0.30510528371E+04  0.00000000000E+00 0. -1.
         23    2    1    2    0    0 -0.50877420101E+03 -0.29441132447E+03 -0.21135086757E+04  0.21956237667E+04  0.91189841285E+02 0.  0.
        254    2    1    2    0    0  0.50877420101E+03  0.29441132447E+03 -0.57805540827E+03  0.12149178235E+04  0.89238335212E+03 0.  0.
         23    2    4    4    0    0  0.29603909324E+03  0.21524996125E+03 -0.79926889506E+03  0.88363685967E+03  0.89507779562E+02 0.  0.
         23    2    4    4    0    0  0.21273510777E+03  0.79161363220E+02  0.22121348680E+03  0.33128096379E+03  0.96379057513E+02 0.  0.
          4    1    3    3  502    0 -0.28501354876E+03 -0.15866327575E+03 -0.10038732377E+04  0.10555416787E+04  0.00000000000E+00 0. -1.
         -4    1    3    3    0  502 -0.22376065225E+03 -0.13574804872E+03 -0.11096354380E+04  0.11400820880E+04  0.00000000000E+00 0.  1.
         11    1    5    5    0    0  0.96538416553E+02  0.68549025607E+02 -0.16795693791E+03  0.20549493370E+03  0.00000000000E+00 0. -1.
        -11    1    5    5    0    0  0.19950067669E+03  0.14670093565E+03 -0.63131195715E+03  0.67814192597E+03  0.00000000000E+00 0.  1.
          1    1    6    6  503    0  0.12680884355E+03  0.36280802187E+02  0.18802919154E+03  0.22967750495E+03  0.00000000000E+00 0. -1.
         -1    1    6    6    0  503  0.85926264215E+02  0.42880561033E+02  0.33184295257E+02  0.10160345884E+03  0.00000000000E+00 0.  1.
<mgrwt>
<rscale>  0 0.20945827E+04</rscale>
<asrwt>0</asrwt>
<pdfrwt beam="1">  1        1 0.46939274E+00 0.20945827E+04</pdfrwt>
<pdfrwt beam="2">  1       -1 0.55305962E-01 0.20945827E+04</pdfrwt>
<totfact> 0.16704516E+00</totfact>
</mgrwt>
</event>
<event>
12    2  0.3751044E-008  0.1206561E+04  0.7818608E-02  0.9107133E-01
         -3   -1    0    0    0  501 -0.00000000000E+00  0.00000000000E+00  0.75006724118E+03  0.75006724118E+03  0.00000000000E+00 0.  1.
          3   -1    0    0  501    0  0.00000000000E+00 -0.00000000000E+00 -0.48521956822E+03  0.48521956822E+03  0.00000000000E+00 0. -1.
         23    2    1    2    0    0 -0.10691465973E+03 -0.22141668678E+03  0.16505337237E+03  0.31095928742E+03  0.94852353963E+02 0.  0.
        254    2    1    2    0    0  0.10691465973E+03  0.22141668678E+03  0.99794300593E+02  0.92432752197E+03  0.88541875505E+03 0.  0.
         23    2    4    4    0    0  0.45170643264E+03  0.19217125664E+03  0.22145233291E+03  0.54610501537E+03  0.90670055157E+02 0.  0.
         23    2    4    4    0    0 -0.34479177291E+03  0.29245430142E+02 -0.12165803232E+03  0.37822250660E+03  0.92276355696E+02 0.  0.
          2    1    3    3  502    0 -0.86257876225E+02 -0.22129780668E+03  0.13131102282E+03  0.27139588274E+03  0.00000000000E+00 0. -1.
         -2    1    3    3    0  502 -0.20656783503E+02 -0.11888010221E+00  0.33742349548E+02  0.39563404684E+02  0.00000000000E+00 0.  1.
         11    1    5    5    0    0  0.34920805700E+03  0.16150512749E+03  0.21047893638E+03  0.43855621753E+03  0.00000000000E+00 0. -1.
        -11    1    5    5    0    0  0.10249837564E+03  0.30666129147E+02  0.10973396531E+02  0.10754879784E+03  0.00000000000E+00 0.  1.
          2    1    6    6  503    0 -0.29970860409E+03  0.28175686196E+00 -0.79589293223E+02  0.31009640815E+03  0.00000000000E+00 0. -1.
         -2    1    6    6    0  503 -0.45083168817E+02  0.28963673280E+02 -0.42068739094E+02  0.68126098446E+02  0.00000000000E+00 0.  1.
<mgrwt>
<rscale>  0 0.12065609E+04</rscale>
<asrwt>0</asrwt>
<pdfrwt beam="1">  1        3 0.74649164E-01 0.12065609E+04</pdfrwt>
<pdfrwt beam="2">  1       -3 0.11539496E+00 0.12065609E+04</pdfrwt>
<totfact> 0.27256773E+00</totfact>
</mgrwt>
</event>
<event>
12    2  0.3751044E-008  0.1611292E+04  0.7818608E-02  0.8813641E-01
          2   -1    0    0  501    0  0.00000000000E+00  0.00000000000E+00  0.26859661621E+04  0.26859661621E+04  0.00000000000E+00 0. -1.
         -2   -1    0    0    0  501 -0.00000000000E+00 -0.00000000000E+00 -0.24165050625E+03  0.24165050625E+03  0.00000000000E+00 0.  1.
         23    2    1    2    0    0  0.25504544466E+03 -0.75177564861E+02 -0.33946515272E+02  0.28382214034E+03  0.93288779321E+02 0.  0.
        254    2    1    2    0    0 -0.25504544466E+03  0.75177564861E+02  0.24782621711E+04  0.26437945280E+04  0.88157034456E+03 0.  0.
         23    2    4    4    0    0  0.24759558803E+03  0.25508068253E+03  0.79727375894E+03  0.87767416608E+03  0.91086581420E+02 0.  0.
         23    2    4    4    0    0 -0.50264103269E+03 -0.17990311766E+03  0.16809884122E+04  0.17661203619E+04  0.91901857456E+02 0.  0.
          3    1    3    3  502    0  0.88311788425E+02 -0.76371947798E+00  0.25295030509E+02  0.91866173376E+02  0.00000000000E+00 0. -1.
         -3    1    3    3    0  502  0.16673365623E+03 -0.74413845383E+02 -0.59241545781E+02  0.19195596696E+03  0.00000000000E+00 0.  1.
         11    1    5    5    0    0  0.13947334654E+03  0.20155353271E+03  0.49978730730E+03  0.55665428542E+03  0.00000000000E+00 0. -1.
        -11    1    5    5    0    0  0.10812224149E+03  0.53527149814E+02  0.29748645164E+03  0.32101988066E+03  0.00000000000E+00 0.  1.
          2    1    6    6  503    0 -0.43677913828E+03 -0.12254503253E+03  0.14419887540E+04  0.15116629476E+04  0.00000000000E+00 0.  1.
         -2    1    6    6    0  503 -0.65861894412E+02 -0.57358085136E+02  0.23899965824E+03  0.25445741432E+03  0.00000000000E+00 0. -1.
<mgrwt>
<rscale>  0 0.16112915E+04</rscale>
<asrwt>0</asrwt>
<pdfrwt beam="1">  1        2 0.41322554E+00 0.16112915E+04</pdfrwt>
<pdfrwt beam="2">  1       -2 0.37177003E-01 0.16112915E+04</pdfrwt>
<totfact> 0.17747965E+01</totfact>
</mgrwt>
</event>
<event>
12    2  0.3751044E-008  0.1644188E+04  0.7818608E-02  0.8793852E-01
          1   -1    0    0  501    0  0.00000000000E+00  0.00000000000E+00  0.44424866872E+03  0.44424866872E+03  0.00000000000E+00 0. -1.
         -1   -1    0    0    0  501 -0.00000000000E+00 -0.00000000000E+00 -0.15213066376E+04  0.15213066376E+04  0.00000000000E+00 0.  1.
         23    2    1    2    0    0 -0.80014292637E+02 -0.39477470276E+03  0.10598785934E+03  0.42511664766E+03  0.85096326769E+02 0.  0.
        254    2    1    2    0    0  0.80014292637E+02  0.39477470276E+03 -0.11830458282E+04  0.15404386586E+04  0.90061338898E+03 0.  0.
         23    2    4    4    0    0  0.32507839145E+03  0.37819139954E+03 -0.23867097361E+03  0.56047125048E+03  0.91975505937E+02 0.  0.
         23    2    4    4    0    0 -0.24506409882E+03  0.16583303217E+02 -0.94437485458E+03  0.97996740814E+03  0.90337348804E+02 0.  0.
          1    1    3    3  502    0 -0.84241299284E+02 -0.20199479776E+03  0.57750348719E+02  0.22634839872E+03  0.00000000000E+00 0. -1.
         -1    1    3    3    0  502  0.42270066474E+01 -0.19277990500E+03  0.48237510620E+02  0.19876824894E+03  0.00000000000E+00 0.  1.
         11    1    5    5    0    0  0.22130737929E+03  0.22548942679E+03 -0.10650289472E+03  0.33341461322E+03  0.00000000000E+00 0. -1.
        -11    1    5    5    0    0  0.10377101216E+03  0.15270197275E+03 -0.13216807889E+03  0.22705663726E+03  0.00000000000E+00 0.  1.
          1    1    6    6  503    0 -0.92447450494E+02  0.48864220056E+02 -0.33481975850E+03  0.35076846179E+03  0.00000000000E+00 0. -1.
         -1    1    6    6    0  503 -0.15261664832E+03 -0.32280916838E+02 -0.60955509608E+03  0.62919894635E+03  0.00000000000E+00 0.  1.
<mgrwt>
<rscale>  0 0.16441879E+04</rscale>
<asrwt>0</asrwt>
<pdfrwt beam="1">  1        1 0.68345951E-01 0.16441879E+04</pdfrwt>
<pdfrwt beam="2">  1       -1 0.23404717E+00 0.16441879E+04</pdfrwt>
<totfact> 0.44208231E+00</totfact>
</mgrwt>
</event>
<event>
12    2  0.3751044E-008  0.1939612E+04  0.7818608E-02  0.8635386E-01
          2   -1    0    0  501    0  0.00000000000E+00  0.00000000000E+00  0.20228250181E+04  0.20228250181E+04  0.00000000000E+00 0. -1.
         -2   -1    0    0    0  501 -0.00000000000E+00 -0.00000000000E+00 -0.46495564222E+03  0.46495564222E+03  0.00000000000E+00 0.  1.
         23    2    1    2    0    0  0.10033129474E+03  0.26818376511E+03 -0.28968183544E+03  0.41661163778E+03  0.87525941134E+02 0.  0.
        254    2    1    2    0    0 -0.10033129474E+03 -0.26818376511E+03  0.18475512114E+04  0.20711690226E+04  0.89123887984E+03 0.  0.
         23    2    4    4    0    0 -0.28135303738E+02 -0.17394507070E+03  0.19019514121E+04  0.19123084285E+04  0.91955797791E+02 0.  0.
         23    2    4    4    0    0 -0.72195991004E+02 -0.94238694409E+02 -0.54400200717E+02  0.15886059411E+03  0.90466092451E+02 0.  0.
          4    1    3    3  502    0  0.22612624463E+02  0.77138522460E+02 -0.31918273162E+02  0.86489644433E+02  0.00000000000E+00 0. -1.
         -4    1    3    3    0  502  0.77718670279E+02  0.19104524265E+03 -0.25776356228E+03  0.33012199334E+03  0.00000000000E+00 0.  1.
         11    1    5    5    0    0  0.44709587948E+01  0.10224667678E+02  0.78348601674E+02  0.79139349795E+02  0.00000000000E+00 0. -1.
        -11    1    5    5    0    0 -0.32606262533E+02 -0.18416973838E+03  0.18236028104E+04  0.18331690787E+04  0.00000000000E+00 0.  1.
          4    1    6    6  503    0  0.18914325423E+02 -0.13249266610E+01 -0.44772297932E+01  0.19482112911E+02  0.00000000000E+00 0. -1.
         -4    1    6    6    0  503 -0.91110316427E+02 -0.92913767748E+02 -0.49922970924E+02  0.13937848120E+03  0.00000000000E+00 0.  1.
<mgrwt>
<rscale>  0 0.19396122E+04</rscale>
<asrwt>0</asrwt>
<pdfrwt beam="1">  1        2 0.31120384E+00 0.19396122E+04</pdfrwt>
<pdfrwt beam="2">  1       -2 0.71531639E-01 0.19396122E+04</pdfrwt>
<totfact> 0.10738277E+01</totfact>
</mgrwt>
</event>
<event>
12    2  0.3751044E-008  0.1108655E+04  0.7818608E-02  0.9196797E-01
          2   -1    0    0  501    0  0.00000000000E+00  0.00000000000E+00  0.12050328484E+04  0.12050328484E+04  0.00000000000E+00 0. -1.
         -2   -1    0    0    0  501 -0.00000000000E+00 -0.00000000000E+00 -0.25499644205E+03  0.25499644205E+03  0.00000000000E+00 0.  1.
         23    2    1    2    0    0 -0.13337436533E+03 -0.83248673652E+02  0.85137006020E+02  0.19863584745E+03  0.86538009608E+02 0.  0.
        254    2    1    2    0    0  0.13337436533E+03  0.83248673652E+02  0.86489940034E+03  0.12613934430E+04  0.90462333727E+03 0.  0.
         23    2    4    4    0    0 -0.28176638461E+03  0.31114570614E+03  0.35187949187E+03  0.55721079747E+03  0.10227780830E+03 0.  0.
         23    2    4    4    0    0  0.41514074994E+03 -0.22789703249E+03  0.51301990848E+03  0.70418264553E+03  0.91678089524E+02 0.  0.
          4    1    3    3  502    0 -0.36901273369E+02 -0.39755672958E+02 -0.11362743716E+02  0.55419576445E+02  0.00000000000E+00 0. -1.
         -4    1    3    3    0  502 -0.96473091964E+02 -0.43493000694E+02  0.96499749736E+02  0.14321627101E+03  0.00000000000E+00 0.  1.
         11    1    5    5    0    0 -0.19500927789E+03  0.25343208294E+03  0.30853932119E+03  0.44435678441E+03  0.00000000000E+00 0. -1.
        -11    1    5    5    0    0 -0.86757106724E+02  0.57713623198E+02  0.43340170679E+02  0.11285401306E+03  0.00000000000E+00 0.  1.
          1    1    6    6  503    0  0.24320658956E+03 -0.17927673640E+03  0.29464652675E+03  0.42202626594E+03  0.00000000000E+00 0. -1.
         -1    1    6    6    0  503  0.17193416039E+03 -0.48620296093E+02  0.21837338173E+03  0.28215637960E+03  0.00000000000E+00 0.  1.
<mgrwt>
<rscale>  0 0.11086552E+04</rscale>
<asrwt>0</asrwt>
<pdfrwt beam="1">  1        2 0.18538967E+00 0.11086552E+04</pdfrwt>
<pdfrwt beam="2">  1       -2 0.39230222E-01 0.11086552E+04</pdfrwt>
<totfact> 0.11458275E+02</totfact>
</mgrwt>
</event>
<event>
12    2  0.3751044E-008  0.2470258E+04  0.7818608E-02  0.8413659E-01
          1   -1    0    0  501    0  0.00000000000E+00  0.00000000000E+00  0.18737118201E+04  0.18737118201E+04  0.00000000000E+00 0. -1.
         -1   -1    0    0    0  501 -0.00000000000E+00 -0.00000000000E+00 -0.81418239800E+03  0.81418239800E+03  0.00000000000E+00 0.  1.
         23    2    1    2    0    0 -0.51658600953E+03  0.80649079185E+03  0.82958455182E+03  0.12705872184E+04  0.94301899690E+02 0.  0.
        254    2    1    2    0    0  0.51658600953E+03 -0.80649079185E+03  0.22994487028E+03  0.14173069997E+04  0.10191152955E+04 0.  0.
         23    2    4    4    0    0  0.55402233132E+02 -0.46080391914E+03 -0.35487655286E+03  0.59126339431E+03  0.90804043654E+02 0.  0.
         23    2    4    4    0    0  0.46118377640E+03 -0.34568687271E+03  0.58482142314E+03  0.82604360544E+03  0.90233317227E+02 0.  0.
          1    1    3    3  502    0 -0.39060119459E+03  0.63991623620E+03  0.69376882162E+03  0.10214583988E+04  0.00000000000E+00 0. -1.
         -1    1    3    3    0  502 -0.12598481494E+03  0.16657455564E+03  0.13581573020E+03  0.24912881960E+03  0.00000000000E+00 0.  1.
         11    1    5    5    0    0 -0.13099755500E+02 -0.13383942735E+02 -0.56320888032E+01  0.19556429674E+02  0.00000000000E+00 0. -1.
        -11    1    5    5    0    0  0.68501988632E+02 -0.44741997640E+03 -0.34924446406E+03  0.57170696463E+03  0.00000000000E+00 0.  1.
          1    1    6    6  503    0  0.34454155580E+03 -0.21723627375E+03  0.37365300885E+03  0.55273597072E+03  0.00000000000E+00 0. -1.
         -1    1    6    6    0  503  0.11664222060E+03 -0.12845059895E+03  0.21116841429E+03  0.27330763472E+03  0.00000000000E+00 0.  1.
<mgrwt>
<rscale>  0 0.24702576E+04</rscale>
<asrwt>0</asrwt>
<pdfrwt beam="1">  1        1 0.28826336E+00 0.24702576E+04</pdfrwt>
<pdfrwt beam="2">  1       -1 0.12525883E+00 0.24702576E+04</pdfrwt>
<totfact> 0.18000130E+00</totfact>
</mgrwt>
</event>
<event>
12    2  0.3751044E-008  0.1627441E+04  0.7818608E-02  0.8803865E-01
          1   -1    0    0  501    0  0.00000000000E+00  0.00000000000E+00  0.53257259773E+03  0.53257259773E+03  0.00000000000E+00 0. -1.
         -1   -1    0    0    0  501 -0.00000000000E+00 -0.00000000000E+00 -0.12432872463E+04  0.12432872463E+04  0.00000000000E+00 0.  1.
         23    2    1    2    0    0  0.39431784065E+03 -0.35107556078E+01  0.18128228679E+03  0.44333161524E+03  0.90447601993E+02 0.  0.
        254    2    1    2    0    0 -0.39431784065E+03  0.35107556078E+01 -0.89199693533E+03  0.13325282288E+04  0.90800554125E+03 0.  0.
         23    2    4    4    0    0  0.15099580919E+03 -0.16670608242E+02 -0.73621174185E+03  0.75773725775E+03  0.95291024616E+02 0.  0.
         23    2    4    4    0    0 -0.54531364984E+03  0.20181363850E+02 -0.15578519348E+03  0.57479097101E+03  0.91331099251E+02 0.  0.
          1    1    3    3  502    0  0.19015384441E+03 -0.29666573330E+02  0.12659441500E+03  0.23035784342E+03  0.00000000000E+00 0. -1.
         -1    1    3    3    0  502  0.20416399623E+03  0.26155817722E+02  0.54687871796E+02  0.21297377181E+03  0.00000000000E+00 0.  1.
         11    1    5    5    0    0  0.12901251203E+03  0.11863817322E+02 -0.66951833392E+03  0.68193825078E+03  0.00000000000E+00 0.  1.
        -11    1    5    5    0    0  0.21983297164E+02 -0.28534425564E+02 -0.66693407932E+02  0.75799006973E+02  0.00000000000E+00 0. -1.
          1    1    6    6  503    0 -0.34944245287E+01  0.31109430074E+01 -0.13576577930E+02  0.14360098797E+02  0.00000000000E+00 0. -1.
         -1    1    6    6    0  503 -0.54181922531E+03  0.17070420842E+02 -0.14220861555E+03  0.56043087221E+03  0.00000000000E+00 0.  1.
<mgrwt>
<rscale>  0 0.16274406E+04</rscale>
<asrwt>0</asrwt>
<pdfrwt beam="1">  1        1 0.81934245E-01 0.16274406E+04</pdfrwt>
<pdfrwt beam="2">  1       -1 0.19127496E+00 0.16274406E+04</pdfrwt>
<totfact> 0.67255243E+00</totfact>
</mgrwt>
</event>
<event>
12    2  0.3751044E-008  0.2501027E+04  0.7818608E-02  0.8402620E-01
         -1   -1    0    0    0  501 -0.00000000000E+00  0.00000000000E+00  0.45800774662E+03  0.45800774662E+03  0.00000000000E+00 0.  1.
          1   -1    0    0  501    0  0.00000000000E+00 -0.00000000000E+00 -0.34143173152E+04  0.34143173152E+04  0.00000000000E+00 0. -1.
         23    2    1    2    0    0  0.25012701347E+03 -0.59762295221E+03  0.66943580227E+02  0.65848396824E+03  0.96968951821E+02 0.  0.
        254    2    1    2    0    0 -0.25012701347E+03  0.59762295221E+03 -0.30232531488E+04  0.32138410936E+04  0.87692545698E+03 0.  0.
         23    2    4    4    0    0  0.27573123916E+03  0.37543144533E+03 -0.94275440596E+03  0.10545087205E+04  0.78906814011E+02 0.  0.
         23    2    4    4    0    0 -0.52585825263E+03  0.22219150688E+03 -0.20804987429E+04  0.21593323731E+04  0.91352672374E+02 0.  0.
          3    1    3    3  502    0  0.26658855690E+02 -0.12347307404E+03 -0.17598126361E+02  0.12753818507E+03  0.00000000000E+00 0. -1.
         -3    1    3    3    0  502  0.22346815778E+03 -0.47414987817E+03  0.84541706588E+02  0.53094578316E+03  0.00000000000E+00 0.  1.
         11    1    5    5    0    0  0.14351184940E+03  0.25891437244E+03 -0.57667946635E+03  0.64822180624E+03  0.00000000000E+00 0. -1.
        -11    1    5    5    0    0  0.13221938975E+03  0.11651707289E+03 -0.36607493961E+03  0.40628691428E+03  0.00000000000E+00 0.  1.
          1    1    6    6  503    0 -0.39735264174E+03  0.19604933423E+03 -0.17033257178E+04  0.17600122057E+04  0.00000000000E+00 0. -1.
         -1    1    6    6    0  503 -0.12850561089E+03  0.26142172643E+02 -0.37717302506E+03  0.39932016735E+03  0.00000000000E+00 0.  1.
<mgrwt>
<rscale>  0 0.25010268E+04</rscale>
<asrwt>0</asrwt>
<pdfrwt beam="1">  1        1 0.52527961E+00 0.25010268E+04</pdfrwt>
<pdfrwt beam="2">  1       -1 0.70462728E-01 0.25010268E+04</pdfrwt>
<totfact> 0.52769080E-01</totfact>
</mgrwt>
</event>
<event>
12    2  0.3751044E-008  0.1994753E+04  0.7818608E-02  0.8609078E-01
         -1   -1    0    0    0  501 -0.00000000000E+00  0.00000000000E+00  0.77488067139E+03  0.77488067139E+03  0.00000000000E+00 0.  1.
          1   -1    0    0  501    0  0.00000000000E+00 -0.00000000000E+00 -0.12837592983E+04  0.12837592983E+04  0.00000000000E+00 0. -1.
         23    2    1    2    0    0 -0.59805783109E+03  0.14428180881E+03 -0.71652628387E+03  0.94874316905E+03  0.90627124303E+02 0.  0.
        254    2    1    2    0    0  0.59805783109E+03 -0.14428180881E+03  0.20764765696E+03  0.11098968006E+04  0.90014607090E+03 0.  0.
         23    2    4    4    0    0  0.89075805979E+02 -0.36275351426E+03 -0.18219773101E+03  0.42678543175E+03  0.97083367507E+02 0.  0.
         23    2    4    4    0    0  0.50898202511E+03  0.21847170546E+03  0.38984538797E+03  0.68311136889E+03  0.88708104590E+02 0.  0.
          4    1    3    3  502    0 -0.53898233213E+03  0.14247002412E+03 -0.67978164303E+03  0.87914887495E+03  0.00000000000E+00 0. -1.
         -4    1    3    3    0  502 -0.59075498956E+02  0.18117846896E+01 -0.36744640839E+02  0.69594294098E+02  0.00000000000E+00 0.  1.
         11    1    5    5    0    0  0.58623338594E+02 -0.33170464593E+03 -0.13579201025E+03  0.36318609281E+03  0.00000000000E+00 0. -1.
        -11    1    5    5    0    0  0.30452467385E+02 -0.31048868332E+02 -0.46405720762E+02  0.63599338943E+02  0.00000000000E+00 0.  1.
          3    1    6    6  503    0  0.30677285921E+03  0.83876531271E+02  0.21944441027E+03  0.38639449898E+03  0.00000000000E+00 0.  1.
         -3    1    6    6    0  503  0.20220916590E+03  0.13459517419E+03  0.17040097770E+03  0.29671686991E+03  0.00000000000E+00 0. -1.
<mgrwt>
<rscale>  0 0.19947534E+04</rscale>
<asrwt>0</asrwt>
<pdfrwt beam="1">  1        1 0.19750143E+00 0.19947534E+04</pdfrwt>
<pdfrwt beam="2">  1       -1 0.11921241E+00 0.19947534E+04</pdfrwt>
<totfact> 0.54256167E+00</totfact>
</mgrwt>
</event>
<event>
12    2  0.3751044E-008  0.1993451E+04  0.7818608E-02  0.8609689E-01
         -2   -1    0    0    0  501 -0.00000000000E+00  0.00000000000E+00  0.42249738298E+03  0.42249738298E+03  0.00000000000E+00 0.  1.
          2   -1    0    0  501    0  0.00000000000E+00 -0.00000000000E+00 -0.23514036210E+04  0.23514036210E+04  0.00000000000E+00 0. -1.
         23    2    1    2    0    0 -0.63373180044E+03  0.45599751263E+03 -0.93943840713E+03  0.12247693179E+04  0.89250405418E+02 0.  0.
        254    2    1    2    0    0  0.63373180044E+03 -0.45599751263E+03 -0.98946783088E+03  0.15491316861E+04  0.90067345139E+03 0.  0.
         23    2    4    4    0    0 -0.18719193540E+03  0.46027758364E+02 -0.26321564418E+03  0.34013804949E+03  0.96187536385E+02 0.  0.
         23    2    4    4    0    0  0.82092373583E+03 -0.50202527099E+03 -0.72625218671E+03  0.12089936366E+04  0.90984734002E+02 0.  0.
          3    1    3    3  502    0 -0.58455146440E+03  0.39137213890E+03 -0.86126223159E+03  0.11120455014E+04  0.00000000000E+00 0. -1.
         -3    1    3    3    0  502 -0.49180336037E+02  0.64625373726E+02 -0.78176175538E+02  0.11272381649E+03  0.00000000000E+00 0.  1.
         11    1    5    5    0    0 -0.93346540694E+02 -0.17638796800E+02 -0.16366779883E+03  0.18924019707E+03  0.00000000000E+00 0. -1.
        -11    1    5    5    0    0 -0.93845394704E+02  0.63666555165E+02 -0.99547845346E+02  0.15089785243E+03  0.00000000000E+00 0.  1.
          1    1    6    6  503    0  0.73309403209E+03 -0.41645928874E+03 -0.65002566646E+03  0.10646119322E+04  0.00000000000E+00 0.  1.
         -1    1    6    6    0  503  0.87829703746E+02 -0.85565982257E+02 -0.76226520245E+02  0.14438170441E+03  0.00000000000E+00 0. -1.
<mgrwt>
<rscale>  0 0.19934512E+04</rscale>
<asrwt>0</asrwt>
<pdfrwt beam="1">  1        2 0.36175441E+00 0.19934512E+04</pdfrwt>
<pdfrwt beam="2">  1       -2 0.64999597E-01 0.19934512E+04</pdfrwt>
<totfact> 0.86031882E+00</totfact>
</mgrwt>
</event>
<event>
12    2  0.3751044E-008  0.1533113E+04  0.7818608E-02  0.8862727E-01
          1   -1    0    0  501    0  0.00000000000E+00  0.00000000000E+00  0.90840640946E+03  0.90840640946E+03  0.00000000000E+00 0. -1.
         -1   -1    0    0    0  501 -0.00000000000E+00 -0.00000000000E+00 -0.64685683412E+03  0.64685683412E+03  0.00000000000E+00 0.  1.
         23    2    1    2    0    0  0.10817768154E+02 -0.18618096443E+00 -0.42282555206E+03  0.43270793498E+03  0.91310737330E+02 0.  0.
        254    2    1    2    0    0 -0.10817768154E+02  0.18618096443E+00  0.68437512740E+03  0.11225553086E+04  0.88974380980E+03 0.  0.
         23    2    4    4    0    0 -0.33431745609E+03 -0.95918961889E+02  0.68164554208E+03  0.77068200387E+03  0.91331798116E+02 0.  0.
         23    2    4    4    0    0  0.32349968793E+03  0.96105142854E+02  0.27295853225E+01  0.35187330473E+03  0.99594805946E+02 0.  0.
          4    1    3    3  502    0 -0.18975575512E+02 -0.38076869016E+02 -0.16372565842E+03  0.16916267805E+03  0.00000000000E+00 0. -1.
         -4    1    3    3    0  502  0.29793343666E+02  0.37890688052E+02 -0.25909989363E+03  0.26354525693E+03  0.00000000000E+00 0.  1.
         11    1    5    5    0    0 -0.24517441678E+03 -0.31168411230E+02  0.50980814779E+03  0.56655653915E+03  0.00000000000E+00 0. -1.
        -11    1    5    5    0    0 -0.89143039309E+02 -0.64750550659E+02  0.17183739429E+03  0.20412546471E+03  0.00000000000E+00 0.  1.
          2    1    6    6  503    0  0.26927110022E+03  0.97375851375E+02 -0.30980700179E+02  0.28800830826E+03  0.00000000000E+00 0. -1.
         -2    1    6    6    0  503  0.54228587715E+02 -0.12707085214E+01  0.33710285502E+02  0.63864996472E+02  0.00000000000E+00 0.  1.
<mgrwt>
<rscale>  0 0.15331130E+04</rscale>
<asrwt>0</asrwt>
<pdfrwt beam="1">  1        1 0.13975483E+00 0.15331130E+04</pdfrwt>
<pdfrwt beam="2">  1       -1 0.99516435E-01 0.15331130E+04</pdfrwt>
<totfact> 0.16657833E+01</totfact>
</mgrwt>
</event>
<event>
12    2  0.3751044E-008  0.2815613E+04  0.7818608E-02  0.8298437E-01
          1   -1    0    0  501    0  0.00000000000E+00  0.00000000000E+00  0.22035699700E+04  0.22035699700E+04  0.00000000000E+00 0. -1.
         -1   -1    0    0    0  501 -0.00000000000E+00 -0.00000000000E+00 -0.89941310231E+03  0.89941310231E+03  0.00000000000E+00 0.  1.
         23    2    1    2    0    0 -0.76218878473E+03 -0.12348839572E+03  0.16818038387E+04  0.18528164412E+04  0.91013656658E+02 0.  0.
        254    2    1    2    0    0  0.76218878473E+03  0.12348839572E+03 -0.37764697101E+03  0.12501666310E+04  0.90780958534E+03 0.  0.
         23    2    4    4    0    0  0.15606158068E+03  0.11496640925E+03 -0.56859743079E+03  0.60798397413E+03  0.93642844223E+02 0.  0.
         23    2    4    4    0    0  0.60612720405E+03  0.85219864671E+01  0.19095045978E+03  0.64218265692E+03  0.92052566581E+02 0.  0.
          3    1    3    3  502    0 -0.51797040896E+03 -0.10860605438E+03  0.10647692124E+04  0.11890425119E+04  0.00000000000E+00 0. -1.
         -3    1    3    3    0  502 -0.24421837577E+03 -0.14882341333E+02  0.61703462632E+03  0.66377392930E+03  0.00000000000E+00 0.  1.
         11    1    5    5    0    0 -0.94341820825E+01 -0.44459142381E+01 -0.40627073503E+02  0.41944356550E+02  0.00000000000E+00 0.  1.
        -11    1    5    5    0    0  0.16549576276E+03  0.11941232349E+03 -0.52797035729E+03  0.56603961758E+03  0.00000000000E+00 0. -1.
          1    1    6    6  503    0  0.28789257698E+03  0.42842025828E+02  0.65126772398E+02  0.29826007366E+03  0.00000000000E+00 0. -1.
         -1    1    6    6    0  503  0.31823462707E+03 -0.34320039361E+02  0.12582368739E+03  0.34392258326E+03  0.00000000000E+00 0.  1.
<mgrwt>
<rscale>  0 0.28156134E+04</rscale>
<asrwt>0</asrwt>
<pdfrwt beam="1">  1        1 0.33901076E+00 0.28156134E+04</pdfrwt>
<pdfrwt beam="2">  1       -1 0.13837125E+00 0.28156134E+04</pdfrwt>
<totfact> 0.80926497E-01</totfact>
</mgrwt>
</event>
<event>
12    2  0.3751044E-008  0.1477381E+04  0.7818608E-02  0.8899635E-01
         -1   -1    0    0    0  501 -0.00000000000E+00  0.00000000000E+00  0.37859106328E+03  0.37859106328E+03  0.00000000000E+00 0.  1.
          1   -1    0    0  501    0  0.00000000000E+00 -0.00000000000E+00 -0.14413002765E+04  0.14413002765E+04  0.00000000000E+00 0. -1.
         23    2    1    2    0    0  0.16277246429E+03  0.51793846616E+02  0.18703394055E+03  0.27020065609E+03  0.94070303266E+02 0.  0.
        254    2    1    2    0    0 -0.16277246429E+03 -0.51793846616E+02 -0.12497431538E+04  0.15496906837E+04  0.90028094896E+03 0.  0.
         23    2    4    4    0    0 -0.53694845225E+02  0.41352726331E+03 -0.64000065539E+03  0.76962685494E+03  0.94003845883E+02 0.  0.
         23    2    4    4    0    0 -0.10907761906E+03 -0.46532110992E+03 -0.60974249836E+03  0.78006382874E+03  0.91060421044E+02 0.  0.
          3    1    3    3  502    0  0.18211420801E+02  0.27369419918E+02  0.41139315826E+00  0.32877199373E+02  0.00000000000E+00 0. -1.
         -3    1    3    3    0  502  0.14456104349E+03  0.24424426697E+02  0.18662254739E+03  0.23732345672E+03  0.00000000000E+00 0.  1.
         11    1    5    5    0    0  0.13099433636E+02  0.20242599354E+02 -0.68916407641E+02  0.73012527914E+02  0.00000000000E+00 0. -1.
        -11    1    5    5    0    0 -0.66794278860E+02  0.39328466395E+03 -0.57108424775E+03  0.69661432703E+03  0.00000000000E+00 0.  1.
          2    1    6    6  503    0 -0.74113559986E+02 -0.42949905882E+03 -0.53422557913E+03  0.68946300169E+03  0.00000000000E+00 0.  1.
         -2    1    6    6    0  503 -0.34964059076E+02 -0.35822051107E+02 -0.75516919234E+02  0.90600827056E+02  0.00000000000E+00 0. -1.
<mgrwt>
<rscale>  0 0.14773807E+04</rscale>
<asrwt>0</asrwt>
<pdfrwt beam="1">  1        1 0.22173850E+00 0.14773807E+04</pdfrwt>
<pdfrwt beam="2">  1       -1 0.58244779E-01 0.14773807E+04</pdfrwt>
<totfact> 0.20802070E+01</totfact>
</mgrwt>
</event>
<event>
12    2  0.3751044E-008  0.2455038E+04  0.7818608E-02  0.8419181E-01
          1   -1    0    0  501    0  0.00000000000E+00  0.00000000000E+00  0.22244726681E+04  0.22244726681E+04  0.00000000000E+00 0. -1.
         -1   -1    0    0    0  501 -0.00000000000E+00 -0.00000000000E+00 -0.67737517446E+03  0.67737517446E+03  0.00000000000E+00 0.  1.
         23    2    1    2    0    0  0.79250127743E+03 -0.62354081991E+03  0.27426643561E+03  0.10487248528E+04  0.87979033451E+02 0.  0.
        254    2    1    2    0    0 -0.79250127743E+03  0.62354081991E+03  0.12728310580E+04  0.18531229898E+04  0.89280708112E+03 0.  0.
         23    2    4    4    0    0 -0.70727656295E+03  0.44341497627E+03  0.13754845280E+04  0.16115134900E+04  0.90338608566E+02 0.  0.
         23    2    4    4    0    0 -0.85224714474E+02  0.18012584364E+03 -0.10265346993E+03  0.24160949974E+03  0.90160101870E+02 0.  0.
          3    1    3    3  502    0  0.27000512867E+03 -0.18378091606E+03  0.12469095803E+03  0.34960839468E+03  0.00000000000E+00 0. -1.
         -3    1    3    3    0  502  0.52249614876E+03 -0.43975990385E+03  0.14957547758E+03  0.69911645811E+03  0.00000000000E+00 0.  1.
         11    1    5    5    0    0 -0.42982443058E+03  0.27622896925E+03  0.75624093716E+03  0.91266195254E+03  0.00000000000E+00 0.  1.
        -11    1    5    5    0    0 -0.27745213238E+03  0.16718600702E+03  0.61924359081E+03  0.69885153750E+03  0.00000000000E+00 0. -1.
          1    1    6    6  503    0 -0.99899512898E+02  0.12657446232E+03 -0.61848725426E+02  0.17270284313E+03  0.00000000000E+00 0. -1.
         -1    1    6    6    0  503  0.14674798424E+02  0.53551381319E+02 -0.40804744509E+02  0.68906656604E+02  0.00000000000E+00 0.  1.
<mgrwt>
<rscale>  0 0.24550377E+04</rscale>
<asrwt>0</asrwt>
<pdfrwt beam="1">  1        1 0.34222656E+00 0.24550377E+04</pdfrwt>
<pdfrwt beam="2">  1       -1 0.10421157E+00 0.24550377E+04</pdfrwt>
<totfact> 0.16195065E+00</totfact>
</mgrwt>
</event>
<event>
12    2  0.3751044E-008  0.2086861E+04  0.7818608E-02  0.8567053E-01
         -2   -1    0    0    0  501 -0.00000000000E+00  0.00000000000E+00  0.44966327930E+03  0.44966327930E+03  0.00000000000E+00 0.  1.
          2   -1    0    0  501    0  0.00000000000E+00 -0.00000000000E+00 -0.24212508297E+04  0.24212508297E+04  0.00000000000E+00 0. -1.
         23    2    1    2    0    0 -0.13838055282E+03 -0.29354843604E+03 -0.18780404435E+04  0.19082348093E+04  0.94891085343E+02 0.  0.
        254    2    1    2    0    0  0.13838055282E+03  0.29354843604E+03 -0.93547106886E+02  0.96267929974E+03  0.90148794293E+03 0.  0.
         23    2    4    4    0    0 -0.92366964417E+02  0.46351669414E+03  0.21960352316E+03  0.52832636481E+03  0.86739025316E+02 0.  0.
         23    2    4    4    0    0  0.23074751724E+03 -0.16996825810E+03 -0.31315063005E+03  0.43435293492E+03  0.92008312146E+02 0.  0.
          3    1    3    3  502    0 -0.13432174279E+03 -0.18322678568E+03 -0.13131777776E+04  0.13326853571E+04  0.00000000000E+00 0. -1.
         -3    1    3    3    0  502 -0.40588100347E+01 -0.11032165035E+03 -0.56486266596E+03  0.57554945215E+03  0.00000000000E+00 0.  1.
         11    1    5    5    0    0 -0.34930419067E+02  0.68828671187E+02  0.63763602140E+02  0.10011651768E+03  0.00000000000E+00 0. -1.
        -11    1    5    5    0    0 -0.57436545350E+02  0.39468802295E+03  0.15583992102E+03  0.42820984714E+03  0.00000000000E+00 0.  1.
          4    1    6    6  503    0  0.60392321183E+02 -0.54806197013E+02 -0.35738259777E+02  0.89040299308E+02  0.00000000000E+00 0. -1.
         -4    1    6    6    0  503  0.17035519606E+03 -0.11516206109E+03 -0.27741237027E+03  0.34531263562E+03  0.00000000000E+00 0.  1.
<mgrwt>
<rscale>  0 0.20868614E+04</rscale>
<asrwt>0</asrwt>
<pdfrwt beam="1">  1        2 0.37250013E+00 0.20868614E+04</pdfrwt>
<pdfrwt beam="2">  1       -2 0.69178966E-01 0.20868614E+04</pdfrwt>
<totfact> 0.68031452E+00</totfact>
</mgrwt>
</event>
<event>
12    2  0.3751044E-008  0.2104823E+04  0.7818608E-02  0.8559122E-01
          1   -1    0    0  501    0  0.00000000000E+00  0.00000000000E+00  0.11591177833E+04  0.11591177833E+04  0.00000000000E+00 0. -1.
         -1   -1    0    0    0  501 -0.00000000000E+00 -0.00000000000E+00 -0.95552842682E+03  0.95552842682E+03  0.00000000000E+00 0.  1.
         23    2    1    2    0    0 -0.67662788714E+03  0.50306429185E+03  0.17615630125E+03  0.86619562448E+03  0.91459488331E+02 0.  0.
        254    2    1    2    0    0  0.67662788714E+03 -0.50306429185E+03  0.27433055195E+02  0.12484505856E+04  0.92031370348E+03 0.  0.
         23    2    4    4    0    0  0.29646867809E+03 -0.27826798335E+03  0.46197848936E+03  0.62215646713E+03  0.91256765857E+02 0.  0.
         23    2    4    4    0    0  0.38015920905E+03 -0.22479630850E+03 -0.43454543417E+03  0.62629411848E+03  0.91434041484E+02 0.  0.
          2    1    3    3  502    0 -0.66922830566E+03  0.47975484872E+03  0.17428118640E+03  0.84166808892E+03  0.00000000000E+00 0. -1.
         -2    1    3    3    0  502 -0.73995814783E+01  0.23309443125E+02  0.18751148484E+01  0.24527535558E+02  0.00000000000E+00 0.  1.
         11    1    5    5    0    0  0.16741834767E+03 -0.21433657082E+03  0.28429765518E+03  0.39343897299E+03  0.00000000000E+00 0. -1.
        -11    1    5    5    0    0  0.12905033042E+03 -0.63931412524E+02  0.17768083419E+03  0.22871749414E+03  0.00000000000E+00 0.  1.
          1    1    6    6  503    0  0.15996461244E+03 -0.59252568505E+02 -0.21227958746E+03  0.27232731659E+03  0.00000000000E+00 0. -1.
         -1    1    6    6    0  503  0.22019459661E+03 -0.16554373999E+03 -0.22226584671E+03  0.35396680189E+03  0.00000000000E+00 0.  1.
<mgrwt>
<rscale>  0 0.21048230E+04</rscale>
<asrwt>0</asrwt>
<pdfrwt beam="1">  1        1 0.17832581E+00 0.21048230E+04</pdfrwt>
<pdfrwt beam="2">  1       -1 0.14700437E+00 0.21048230E+04</pdfrwt>
<totfact> 0.38783486E+00</totfact>
</mgrwt>
</event>
<event>
12    2  0.3751044E-008  0.1050753E+04  0.7818608E-02  0.9254567E-01
         -1   -1    0    0    0  501 -0.00000000000E+00  0.00000000000E+00  0.24652852783E+03  0.24652852783E+03  0.00000000000E+00 0.  1.
          1   -1    0    0  501    0  0.00000000000E+00 -0.00000000000E+00 -0.11196292159E+04  0.11196292159E+04  0.00000000000E+00 0. -1.
         23    2    1    2    0    0 -0.20251932830E+02  0.17352432813E+02  0.10720169994E+02  0.98811610415E+02  0.94538693666E+02 0.  0.
        254    2    1    2    0    0  0.20251932830E+02 -0.17352432813E+02 -0.88382085805E+03  0.12673461333E+04  0.90791831392E+03 0.  0.
         23    2    4    4    0    0  0.36694030279E+03  0.42859130231E+02 -0.81252546801E+03  0.89723103770E+03  0.91344446985E+02 0.  0.
         23    2    4    4    0    0 -0.34668836997E+03 -0.60211563044E+02 -0.71295390045E+02  0.37011509560E+03  0.89910473000E+02 0.  0.
          3    1    3    3  502    0 -0.27280515111E+02  0.43211830354E+02 -0.22747950501E+02  0.55937090014E+02  0.00000000000E+00 0. -1.
         -3    1    3    3    0  502  0.70285822811E+01 -0.25859397541E+02  0.33468120496E+02  0.42874520400E+02  0.00000000000E+00 0.  1.
         11    1    5    5    0    0  0.35055190308E+02  0.30242838353E+02 -0.71498608211E+02  0.85179496449E+02  0.00000000000E+00 0. -1.
        -11    1    5    5    0    0  0.33188511249E+03  0.12616291879E+02 -0.74102685980E+03  0.81205154125E+03  0.00000000000E+00 0.  1.
          2    1    6    6  503    0 -0.25920795565E+02  0.10476283307E+02  0.13258922160E+02  0.30942513981E+02  0.00000000000E+00 0. -1.
         -2    1    6    6    0  503 -0.32076757440E+03 -0.70687846351E+02 -0.84554312205E+02  0.33917258162E+03  0.00000000000E+00 0.  1.
<mgrwt>
<rscale>  0 0.10507531E+04</rscale>
<asrwt>0</asrwt>
<pdfrwt beam="1">  1        1 0.17225065E+00 0.10507531E+04</pdfrwt>
<pdfrwt beam="2">  1       -1 0.37927466E-01 0.10507531E+04</pdfrwt>
<totfact> 0.82148114E+01</totfact>
</mgrwt>
</event>
<event>
12    2  0.3751044E-008  0.2159297E+04  0.7818608E-02  0.8535563E-01
         -2   -1    0    0    0  501 -0.00000000000E+00  0.00000000000E+00  0.43460027617E+03  0.43460027617E+03  0.00000000000E+00 0.  1.
          2   -1    0    0  501    0  0.00000000000E+00 -0.00000000000E+00 -0.26820992604E+04  0.26820992604E+04  0.00000000000E+00 0. -1.
         23    2    1    2    0    0  0.15486932602E+03  0.38507031111E+02  0.33204320608E+03  0.37939463798E+03  0.90665875806E+02 0.  0.
        254    2    1    2    0    0 -0.15486932602E+03 -0.38507031111E+02 -0.25795421903E+04  0.27373048986E+04  0.90184970848E+03 0.  0.
         23    2    4    4    0    0 -0.26198332797E+03 -0.22962670028E+02 -0.25805549665E+04  0.25955832590E+04  0.92876106887E+02 0.  0.
         23    2    4    4    0    0  0.10711400195E+03 -0.15544361083E+02  0.10127761804E+01  0.14172163954E+03  0.91482024594E+02 0.  0.
          3    1    3    3  502    0  0.10602556540E+03  0.59133914906E+02  0.16999933458E+03  0.20889713777E+03  0.00000000000E+00 0. -1.
         -3    1    3    3    0  502  0.48843760616E+02 -0.20626883795E+02  0.16204387150E+03  0.17049750021E+03  0.00000000000E+00 0.  1.
         11    1    5    5    0    0 -0.86260075189E+02  0.34920374782E+02 -0.77145983922E+03  0.77705245427E+03  0.00000000000E+00 0.  1.
        -11    1    5    5    0    0 -0.17572325278E+03 -0.57883044810E+02 -0.18090951273E+04  0.18185308048E+04  0.00000000000E+00 0. -1.
          1    1    6    6  503    0  0.66348599303E+02  0.34676590636E+02  0.12864830195E+02  0.75961216575E+02  0.00000000000E+00 0. -1.
         -1    1    6    6    0  503  0.40765402649E+02 -0.50220951719E+02 -0.11852054014E+02  0.65760422969E+02  0.00000000000E+00 0.  1.
<mgrwt>
<rscale>  0 0.21592972E+04</rscale>
<asrwt>0</asrwt>
<pdfrwt beam="1">  1        2 0.41263065E+00 0.21592972E+04</pdfrwt>
<pdfrwt beam="2">  1       -2 0.66861582E-01 0.21592972E+04</pdfrwt>
<totfact> 0.51292474E+00</totfact>
</mgrwt>
</event>
<event>
12    2  0.4238931E-008  0.1688548E+04  0.7818608E-02  0.8767923E-01
         -1   -1    0    0    0  501 -0.00000000000E+00  0.00000000000E+00  0.73405414574E+03  0.73405414574E+03  0.00000000000E+00 0.  1.
          1   -1    0    0  501    0  0.00000000000E+00 -0.00000000000E+00 -0.97104391984E+03  0.97104391984E+03  0.00000000000E+00 0. -1.
         23    2    1    2    0    0 -0.17572238028E+03 -0.34099824159E+03  0.38240430970E+03  0.54844003426E+03  0.85995694109E+02 0.  0.
        254    2    1    2    0    0  0.17572238028E+03  0.34099824159E+03 -0.61939408380E+03  0.11566580313E+04  0.89835995829E+03 0.  0.
         23    2    4    4    0    0  0.25537212752E+03 -0.91782800333E+02 -0.64580112024E+03  0.70646071852E+03  0.91589595298E+02 0.  0.
         23    2    4    4    0    0 -0.79649747245E+02  0.43278104192E+03  0.26407036433E+02  0.45019731279E+03  0.91305949346E+02 0.  0.
          1    1    3    3  502    0 -0.12601721099E+02 -0.25939223768E+02  0.29906158977E+01  0.28992938584E+02  0.00000000000E+00 0. -1.
         -1    1    3    3    0  502 -0.16312065918E+03 -0.31505901782E+03  0.37941369380E+03  0.51944709568E+03  0.00000000000E+00 0.  1.
         11    1    5    5    0    0  0.21215052784E+03 -0.80164203143E+02 -0.60417860504E+03  0.64534171779E+03  0.00000000000E+00 0. -1.
        -11    1    5    5    0    0  0.43221599681E+02 -0.11618597190E+02 -0.41622515193E+02  0.61119000733E+02  0.00000000000E+00 0.  1.
          3    1    6    6  503    0 -0.59112727039E+02  0.41464386447E+03  0.11475428209E+02  0.41899347762E+03  0.00000000000E+00 0. -1.
         -3    1    6    6    0  503 -0.20537020206E+02  0.18137177459E+02  0.14931608225E+02  0.31203835170E+02  0.00000000000E+00 0.  1.
<mgrwt>
<rscale>  0 0.16885483E+04</rscale>
<asrwt>0</asrwt>
<pdfrwt beam="1">  1        1 0.14939137E+00 0.16885483E+04</pdfrwt>
<pdfrwt beam="2">  1       -1 0.11293141E+00 0.16885483E+04</pdfrwt>
<totfact> 0.10892157E+01</totfact>
</mgrwt>
</event>
<event>
12    2  0.3751044E-008  0.1502871E+04  0.7818608E-02  0.8882546E-01
          2   -1    0    0  501    0  0.00000000000E+00  0.00000000000E+00  0.70752497498E+03  0.70752497498E+03  0.00000000000E+00 0. -1.
         -2   -1    0    0    0  501 -0.00000000000E+00 -0.00000000000E+00 -0.79807132424E+03  0.79807132424E+03  0.00000000000E+00 0.  1.
         23    2    1    2    0    0 -0.26377977310E+02 -0.19952175771E+03  0.29621814896E+03  0.36990226922E+03  0.92616237852E+02 0.  0.
        254    2    1    2    0    0  0.26377977310E+02  0.19952175771E+03 -0.38676449822E+03  0.11356940300E+04  0.10486703120E+04 0.  0.
         23    2    4    4    0    0 -0.29501403237E+03 -0.10976868858E+03  0.20643183453E+03  0.38755001840E+03  0.92187147499E+02 0.  0.
         23    2    4    4    0    0  0.32139200968E+03  0.30929044629E+03 -0.59319633275E+03  0.74814401160E+03  0.94255869092E+02 0.  0.
          1    1    3    3  502    0  0.13528026352E+02 -0.17293788637E+03  0.22675823220E+03  0.28549923977E+03  0.00000000000E+00 0. -1.
         -1    1    3    3    0  502 -0.39906003662E+02 -0.26583871336E+02  0.69459916760E+02  0.84403029447E+02  0.00000000000E+00 0.  1.
         11    1    5    5    0    0 -0.26592182002E+03 -0.12644958415E+03  0.18468603550E+03  0.34758141982E+03  0.00000000000E+00 0. -1.
        -11    1    5    5    0    0 -0.29092212347E+02  0.16680895577E+02  0.21745799033E+02  0.39968598575E+02  0.00000000000E+00 0.  1.
          1    1    6    6  503    0  0.13504870936E+03  0.68537083228E+02 -0.19565262823E+03  0.24741753497E+03  0.00000000000E+00 0.  1.
         -1    1    6    6    0  503  0.18634330032E+03  0.24075336306E+03 -0.39754370452E+03  0.50072647664E+03  0.00000000000E+00 0. -1.
<mgrwt>
<rscale>  0 0.15028711E+04</rscale>
<asrwt>0</asrwt>
<pdfrwt beam="1">  1        2 0.10885000E+00 0.15028711E+04</pdfrwt>
<pdfrwt beam="2">  1       -2 0.12278020E+00 0.15028711E+04</pdfrwt>
<totfact> 0.19578221E+01</totfact>
</mgrwt>
</event>
<event>
12    2  0.3751044E-008  0.1467081E+04  0.7818608E-02  0.8906644E-01
         -1   -1    0    0    0  501 -0.00000000000E+00  0.00000000000E+00  0.25395893353E+03  0.25395893353E+03  0.00000000000E+00 0.  1.
          1   -1    0    0  501    0  0.00000000000E+00 -0.00000000000E+00 -0.21187747275E+04  0.21187747275E+04  0.00000000000E+00 0. -1.
         23    2    1    2    0    0  0.63590756390E+02 -0.33317226909E+03 -0.10011105082E+04  0.10607700089E+04  0.89236859141E+02 0.  0.
        254    2    1    2    0    0 -0.63590756390E+02  0.33317226909E+03 -0.86370528575E+03  0.13119636521E+04  0.92747736284E+03 0.  0.
         23    2    4    4    0    0  0.13952264251E+03  0.48887431150E+03 -0.13286421472E+03  0.53350360553E+03  0.92241733188E+02 0.  0.
         23    2    4    4    0    0 -0.20311339890E+03 -0.15570204242E+03 -0.73084107103E+03  0.77846004656E+03  0.79832287651E+02 0.  0.
          1    1    3    3  502    0  0.46150814616E+02 -0.32736053410E+03 -0.96802033574E+03  0.10229165105E+04  0.00000000000E+00 0. -1.
         -1    1    3    3    0  502  0.17439941774E+02 -0.58117349862E+01 -0.33090172472E+02  0.37853498476E+02  0.00000000000E+00 0.  1.
         11    1    5    5    0    0  0.11998857161E+03  0.43616956080E+03 -0.86339560824E+02  0.46053844883E+03  0.00000000000E+00 0. -1.
        -11    1    5    5    0    0  0.19534070899E+02  0.52704750703E+02 -0.46524653897E+02  0.72965156704E+02  0.00000000000E+00 0.  1.
          3    1    6    6  503    0 -0.15372206119E+03 -0.11101562622E+03 -0.62741673488E+03  0.65544389582E+03  0.00000000000E+00 0. -1.
         -3    1    6    6    0  503 -0.49391337717E+02 -0.44686416191E+02 -0.10342433615E+03  0.12301615074E+03  0.00000000000E+00 0.  1.
<mgrwt>
<rscale>  0 0.14670811E+04</rscale>
<asrwt>0</asrwt>
<pdfrwt beam="1">  1        1 0.32596534E+00 0.14670811E+04</pdfrwt>
<pdfrwt beam="2">  1       -1 0.39070606E-01 0.14670811E+04</pdfrwt>
<totfact> 0.15278493E+01</totfact>
</mgrwt>
</event>
<event>
12    2  0.3751044E-008  0.2866535E+04  0.7818608E-02  0.8282905E-01
          2   -1    0    0  501    0  0.00000000000E+00  0.00000000000E+00  0.10689168411E+04  0.10689168411E+04  0.00000000000E+00 0. -1.
         -2   -1    0    0    0  501 -0.00000000000E+00 -0.00000000000E+00 -0.19218100312E+04  0.19218100312E+04  0.00000000000E+00 0.  1.
         23    2    1    2    0    0 -0.79890286156E+03  0.98466058180E+03 -0.10440757491E+03  0.12755862575E+04  0.91744836359E+02 0.  0.
        254    2    1    2    0    0  0.79890286156E+03 -0.98466058180E+03 -0.74848561514E+03  0.17151406149E+04  0.87958761313E+03 0.  0.
         23    2    4    4    0    0  0.79653533632E+03 -0.88290626050E+03 -0.27753021593E+03  0.12248623432E+04  0.96295027017E+02 0.  0.
         23    2    4    4    0    0  0.23675252386E+01 -0.10175432130E+03 -0.47095539921E+03  0.49027827166E+03  0.90632491638E+02 0.  0.
          2    1    3    3  502    0 -0.77533723351E+03  0.95369217741E+03 -0.84818659430E+02  0.12320189933E+04  0.00000000000E+00 0. -1.
         -2    1    3    3    0  502 -0.23565628045E+02  0.30968404397E+02 -0.19588915483E+02  0.43567264154E+02  0.00000000000E+00 0.  1.
         11    1    5    5    0    0  0.35985438366E+03 -0.45607475129E+03 -0.16522520677E+03  0.60398569946E+03  0.00000000000E+00 0. -1.
        -11    1    5    5    0    0  0.43668095266E+03 -0.42683150921E+03 -0.11230500916E+03  0.62087664375E+03  0.00000000000E+00 0.  1.
          1    1    6    6  503    0 -0.23875255387E+02 -0.62586809717E+02 -0.13164024654E+03  0.14770338885E+03  0.00000000000E+00 0. -1.
         -1    1    6    6    0  503  0.26242780625E+02 -0.39167511583E+02 -0.33931515267E+03  0.34257488281E+03  0.00000000000E+00 0.  1.
<mgrwt>
<rscale>  0 0.28665346E+04</rscale>
<asrwt>0</asrwt>
<pdfrwt beam="1">  1        2 0.16444875E+00 0.28665346E+04</pdfrwt>
<pdfrwt beam="2">  1       -2 0.29566308E+00 0.28665346E+04</pdfrwt>
<totfact> 0.66597865E-01</totfact>
</mgrwt>
</event>
<event>
12    2  0.3751044E-008  0.1892988E+04  0.7818608E-02  0.8658354E-01
          1   -1    0    0  501    0  0.00000000000E+00  0.00000000000E+00  0.39555395729E+04  0.39555395729E+04  0.00000000000E+00 0. -1.
         -1   -1    0    0    0  501 -0.00000000000E+00 -0.00000000000E+00 -0.22648017239E+03  0.22648017239E+03  0.00000000000E+00 0.  1.
         23    2    1    2    0    0 -0.84636934280E+02  0.96956810988E+02 -0.13774548030E+03  0.20868075651E+03  0.89497524852E+02 0.  0.
        254    2    1    2    0    0  0.84636934280E+02 -0.96956810988E+02  0.38668048808E+04  0.39733389888E+04  0.90480865366E+03 0.  0.
         23    2    4    4    0    0 -0.23101270883E+03 -0.35570749653E+03  0.12408338452E+04  0.13142791848E+04  0.88127460905E+02 0.  0.
         23    2    4    4    0    0  0.31564964311E+03  0.25875068554E+03  0.26259710356E+04  0.26590598040E+04  0.91041458074E+02 0.  0.
          2    1    3    3  502    0  0.12359331628E+02 -0.57745901093E+01 -0.22678960297E+02  0.26465717624E+02  0.00000000000E+00 0. -1.
         -2    1    3    3    0  502 -0.96996265909E+02  0.10273140110E+03 -0.11506652000E+03  0.18221503889E+03  0.00000000000E+00 0.  1.
         11    1    5    5    0    0 -0.15037519646E+03 -0.23976893269E+03  0.69371827632E+03  0.74923086409E+03  0.00000000000E+00 0.  1.
        -11    1    5    5    0    0 -0.80637512367E+02 -0.11593856384E+03  0.54711556888E+03  0.56504832067E+03  0.00000000000E+00 0. -1.
          3    1    6    6  503    0  0.83701980534E+02  0.99944656546E+02  0.62598683377E+03  0.63941729095E+03  0.00000000000E+00 0. -1.
         -3    1    6    6    0  503  0.23194766258E+03  0.15880602899E+03  0.19999842018E+04  0.20196425131E+04  0.00000000000E+00 0.  1.
<mgrwt>
<rscale>  0 0.18929884E+04</rscale>
<asrwt>0</asrwt>
<pdfrwt beam="1">  1        1 0.60854450E+00 0.18929884E+04</pdfrwt>
<pdfrwt beam="2">  1       -1 0.34843106E-01 0.18929884E+04</pdfrwt>
<totfact> 0.77589895E-01</totfact>
</mgrwt>
</event>
<event>
12    2  0.3751044E-008  0.1684477E+04  0.7818608E-02  0.8770268E-01
          2   -1    0    0  501    0  0.00000000000E+00  0.00000000000E+00  0.84241034266E+03  0.84241034266E+03  0.00000000000E+00 0. -1.
         -2   -1    0    0    0  501 -0.00000000000E+00 -0.00000000000E+00 -0.84206671641E+03  0.84206671641E+03  0.00000000000E+00 0.  1.
         23    2    1    2    0    0 -0.35344448475E+03 -0.74901072796E+02  0.47494370228E+03  0.60357712015E+03  0.90557413395E+02 0.  0.
        254    2    1    2    0    0  0.35344448475E+03  0.74901072796E+02 -0.47460007603E+03  0.10808999389E+04  0.90142457881E+03 0.  0.
         23    2    4    4    0    0 -0.64564748272E+02  0.28620721807E+03  0.10973882423E+03  0.32641351375E+03  0.91760525381E+02 0.  0.
         23    2    4    4    0    0  0.41800923303E+03 -0.21130614528E+03 -0.58433890026E+03  0.75448642517E+03  0.91737721147E+02 0.  0.
          3    1    3    3  502    0 -0.26000863432E+03 -0.95136939038E+02  0.35347705676E+03  0.44900061998E+03  0.00000000000E+00 0. -1.
         -3    1    3    3    0  502 -0.93435850430E+02  0.20235866241E+02  0.12146664553E+03  0.15457650017E+03  0.00000000000E+00 0.  1.
         11    1    5    5    0    0  0.11324879132E+02  0.13875783780E+03  0.70270742954E+02  0.15594860613E+03  0.00000000000E+00 0. -1.
        -11    1    5    5    0    0 -0.75889627404E+02  0.14744938027E+03  0.39468081279E+02  0.17046490762E+03  0.00000000000E+00 0.  1.
          2    1    6    6  503    0  0.52038433174E+02 -0.40201969911E+02 -0.41294926389E+02  0.77649648147E+02  0.00000000000E+00 0. -1.
         -2    1    6    6    0  503  0.36597079985E+03 -0.17110417537E+03 -0.54304397388E+03  0.67683677703E+03  0.00000000000E+00 0.  1.
<mgrwt>
<rscale>  0 0.16844770E+04</rscale>
<asrwt>0</asrwt>
<pdfrwt beam="1">  1        2 0.12960159E+00 0.16844770E+04</pdfrwt>
<pdfrwt beam="2">  1       -2 0.12954872E+00 0.16844770E+04</pdfrwt>
<totfact> 0.13409805E+01</totfact>
</mgrwt>
</event>
<event>
12    2  0.3751044E-008  0.1400455E+04  0.7818608E-02  0.8953489E-01
          1   -1    0    0  501    0  0.00000000000E+00  0.00000000000E+00  0.18946245674E+04  0.18946245674E+04  0.00000000000E+00 0. -1.
         -1   -1    0    0    0  501 -0.00000000000E+00 -0.00000000000E+00 -0.25879463033E+03  0.25879463033E+03  0.00000000000E+00 0.  1.
         23    2    1    2    0    0 -0.25873003417E+02 -0.16945946293E+03 -0.82994414657E+02  0.20962042850E+03  0.87559861223E+02 0.  0.
        254    2    1    2    0    0  0.25873003417E+02  0.16945946293E+03  0.17188243517E+04  0.19437987692E+04  0.89140932309E+03 0.  0.
         23    2    4    4    0    0 -0.10977173691E+03  0.28905350031E+03  0.17112083697E+04  0.17411935529E+04  0.88989571523E+02 0.  0.
         23    2    4    4    0    0  0.13564474033E+03 -0.11959403739E+03  0.76159819983E+01  0.20260521631E+03  0.91041974592E+02 0.  0.
          1    1    3    3  502    0  0.30900973590E+02 -0.42347162693E+02 -0.31665818244E+02  0.61244398944E+02  0.00000000000E+00 0. -1.
         -1    1    3    3    0  502 -0.56773977007E+02 -0.12711230023E+03 -0.51328596413E+02  0.14837602955E+03  0.00000000000E+00 0.  1.
         11    1    5    5    0    0 -0.44483972815E+02  0.11956965384E+03  0.48015841705E+03  0.49681770442E+03  0.00000000000E+00 0. -1.
        -11    1    5    5    0    0 -0.65287764097E+02  0.16948384647E+03  0.12310499527E+04  0.12443758485E+04  0.00000000000E+00 0.  1.
          2    1    6    6  503    0  0.10795808589E+03 -0.46459249850E+02  0.29934421532E+02  0.12128264426E+03  0.00000000000E+00 0. -1.
         -2    1    6    6    0  503  0.27686654436E+02 -0.73134787536E+02 -0.22318439534E+02  0.81322572051E+02  0.00000000000E+00 0.  1.
<mgrwt>
<rscale>  0 0.14004552E+04</rscale>
<asrwt>0</asrwt>
<pdfrwt beam="1">  1        1 0.29148069E+00 0.14004552E+04</pdfrwt>
<pdfrwt beam="2">  1       -1 0.39814560E-01 0.14004552E+04</pdfrwt>
<totfact> 0.21056685E+01</totfact>
</mgrwt>
</event>
<event>
12    2  0.3751044E-008  0.2137259E+04  0.7818608E-02  0.8545006E-01
          2   -1    0    0  501    0  0.00000000000E+00  0.00000000000E+00  0.22594507544E+04  0.22594507544E+04  0.00000000000E+00 0. -1.
         -2   -1    0    0    0  501 -0.00000000000E+00 -0.00000000000E+00 -0.50541868694E+03  0.50541868694E+03  0.00000000000E+00 0.  1.
         23    2    1    2    0    0  0.48174033301E+03  0.41820800242E+03 -0.53819208854E+02  0.64653284709E+03  0.90202734894E+02 0.  0.
        254    2    1    2    0    0 -0.48174033301E+03 -0.41820800242E+03  0.18078512763E+04  0.21183365942E+04  0.90113928308E+03 0.  0.
         23    2    4    4    0    0 -0.19928643778E+02 -0.65771156603E+02  0.13958719823E+04  0.14003131475E+04  0.87722997137E+02 0.  0.
         23    2    4    4    0    0 -0.46181168924E+03 -0.35243684582E+03  0.41197929397E+03  0.71802344670E+03  0.91372669564E+02 0.  0.
          3    1    3    3  502    0  0.32771814995E+03  0.32482804084E+03 -0.11785784154E+02  0.46157485486E+03  0.00000000000E+00 0.  1.
         -3    1    3    3    0  502  0.15402218306E+03  0.93379961576E+02 -0.42033424700E+02  0.18495799223E+03  0.00000000000E+00 0. -1.
         11    1    5    5    0    0 -0.19215073290E+02  0.16217761990E+02  0.18994583599E+03  0.19160285869E+03  0.00000000000E+00 0. -1.
        -11    1    5    5    0    0 -0.71357048783E+00 -0.81988918593E+02  0.12059261463E+04  0.12087102889E+04  0.00000000000E+00 0.  1.
          2    1    6    6  503    0 -0.12993641725E+03 -0.53343703586E+02  0.11532363027E+03  0.18173762115E+03  0.00000000000E+00 0. -1.
         -2    1    6    6    0  503 -0.33187527198E+03 -0.29909314223E+03  0.29665566370E+03  0.53628582555E+03  0.00000000000E+00 0.  1.
<mgrwt>
<rscale>  0 0.21372586E+04</rscale>
<asrwt>0</asrwt>
<pdfrwt beam="1">  1        2 0.34760780E+00 0.21372586E+04</pdfrwt>
<pdfrwt beam="2">  1       -2 0.77756722E-01 0.21372586E+04</pdfrwt>
<totfact> 0.64702352E+00</totfact>
</mgrwt>
</event>
<event>
12    2  0.3751044E-008  0.1351191E+04  0.7818608E-02  0.8989927E-01
          2   -1    0    0  501    0  0.00000000000E+00  0.00000000000E+00  0.13707845361E+04  0.13707845361E+04  0.00000000000E+00 0. -1.
         -2   -1    0    0    0  501 -0.00000000000E+00 -0.00000000000E+00 -0.33296946372E+03  0.33296946372E+03  0.00000000000E+00 0.  1.
         23    2    1    2    0    0 -0.26779375158E+03  0.20784433522E+03  0.63263777327E+02  0.35555124474E+03  0.86611898983E+02 0.  0.
        254    2    1    2    0    0  0.26779375158E+03 -0.20784433522E+03  0.97455129506E+03  0.13482027551E+04  0.86774862779E+03 0.  0.
         23    2    4    4    0    0  0.87422331050E+02 -0.50497163813E+02 -0.14541064985E+03  0.19920887194E+03  0.91363505014E+02 0.  0.
         23    2    4    4    0    0  0.18037142053E+03 -0.15734717141E+03  0.11199619449E+04  0.11489938831E+04  0.92629389247E+02 0.  0.
          3    1    3    3  502    0 -0.48390503344E+02  0.12890084208E+01  0.12183618011E+02  0.49917360751E+02  0.00000000000E+00 0. -1.
         -3    1    3    3    0  502 -0.21940324824E+03  0.20655532680E+03  0.51080159316E+02  0.30563388399E+03  0.00000000000E+00 0.  1.
         11    1    5    5    0    0  0.73237467333E+02 -0.52625870352E+02 -0.15680547386E+03  0.18088992643E+03  0.00000000000E+00 0. -1.
        -11    1    5    5    0    0  0.14184863717E+02  0.21287065397E+01  0.11394824009E+02  0.18318945504E+02  0.00000000000E+00 0.  1.
          3    1    6    6  503    0  0.11678531528E+03 -0.14960089663E+03  0.90523832669E+03  0.92491927553E+03  0.00000000000E+00 0. -1.
         -3    1    6    6    0  503  0.63586105254E+02 -0.77462747739E+01  0.21472361822E+03  0.22407460761E+03  0.00000000000E+00 0.  1.
<mgrwt>
<rscale>  0 0.13511912E+04</rscale>
<asrwt>0</asrwt>
<pdfrwt beam="1">  1        2 0.21088993E+00 0.13511912E+04</pdfrwt>
<pdfrwt beam="2">  1       -2 0.51226072E-01 0.13511912E+04</pdfrwt>
<totfact> 0.52888433E+01</totfact>
</mgrwt>
</event>
<event>
12    2  0.3751044E-008  0.1557700E+04  0.7818608E-02  0.8846965E-01
         -1   -1    0    0    0  501 -0.00000000000E+00  0.00000000000E+00  0.35422665465E+03  0.35422665465E+03  0.00000000000E+00 0.  1.
          1   -1    0    0  501    0  0.00000000000E+00 -0.00000000000E+00 -0.17124827108E+04  0.17124827108E+04  0.00000000000E+00 0. -1.
         23    2    1    2    0    0  0.98142756799E+02  0.27635326537E+03 -0.10138099389E+04  0.10593901744E+04  0.92161929968E+02 0.  0.
        254    2    1    2    0    0 -0.98142756799E+02 -0.27635326537E+03 -0.34444611718E+03  0.10073191910E+04  0.90002538684E+03 0.  0.
         23    2    4    4    0    0 -0.27102504890E+03 -0.34560377562E+03 -0.55291807518E+03  0.71187858971E+03  0.90311581588E+02 0.  0.
         23    2    4    4    0    0  0.17288229210E+03  0.69250510242E+02  0.20847195800E+03  0.29544060131E+03  0.95606859276E+02 0.  0.
          3    1    3    3  502    0 -0.17307546246E+02  0.35179397258E+02 -0.15745946618E+03  0.16226713974E+03  0.00000000000E+00 0.  1.
         -3    1    3    3    0  502  0.11545030304E+03  0.24117386811E+03 -0.85635047274E+03  0.89712303465E+03  0.00000000000E+00 0. -1.
         11    1    5    5    0    0 -0.89833574889E+02 -0.70177737238E+02 -0.99752099776E+02  0.15147761350E+03  0.00000000000E+00 0. -1.
        -11    1    5    5    0    0 -0.18119147401E+03 -0.27542603838E+03 -0.45316597541E+03  0.56040097621E+03  0.00000000000E+00 0.  1.
          4    1    6    6  503    0  0.83768276287E+02 -0.14464524296E+02  0.65489467829E+02  0.10730897899E+03  0.00000000000E+00 0. -1.
         -4    1    6    6    0  503  0.89114015812E+02  0.83715034538E+02  0.14298249018E+03  0.18813162232E+03  0.00000000000E+00 0.  1.
<mgrwt>
<rscale>  0 0.15576996E+04</rscale>
<asrwt>0</asrwt>
<pdfrwt beam="1">  1        1 0.26345888E+00 0.15576996E+04</pdfrwt>
<pdfrwt beam="2">  1       -1 0.54496408E-01 0.15576996E+04</pdfrwt>
<totfact> 0.15305715E+01</totfact>
</mgrwt>
</event>
<event>
12    2  0.3751044E-008  0.2659012E+04  0.7818608E-02  0.8348428E-01
         -1   -1    0    0    0  501 -0.00000000000E+00  0.00000000000E+00  0.44460516103E+04  0.44460516103E+04  0.00000000000E+00 0.  1.
          1   -1    0    0  501    0  0.00000000000E+00 -0.00000000000E+00 -0.39756319869E+03  0.39756319869E+03  0.00000000000E+00 0. -1.
         23    2    1    2    0    0 -0.10108250220E+03  0.38981093200E+03  0.37976442179E+04  0.38200130113E+04  0.90705933601E+02 0.  0.
        254    2    1    2    0    0  0.10108250220E+03 -0.38981093200E+03  0.25084419371E+03  0.10236017976E+04  0.90701025110E+03 0.  0.
         23    2    4    4    0    0 -0.35900916513E+03 -0.31555880647E+03  0.79427149417E+00  0.48688268902E+03  0.92677834512E+02 0.  0.
         23    2    4    4    0    0  0.46009166733E+03 -0.74252125531E+02  0.25004992221E+03  0.53671910859E+03  0.91349424927E+02 0.  0.
          2    1    3    3  502    0  0.83338095860E+01  0.20376818930E+02  0.10262567615E+03  0.10496045225E+03  0.00000000000E+00 0. -1.
         -2    1    3    3    0  502 -0.10941631179E+03  0.36943411307E+03  0.36950185417E+04  0.37150525591E+04  0.00000000000E+00 0.  1.
         11    1    5    5    0    0 -0.11078854458E+03 -0.11774432522E+03 -0.40869782375E+02  0.16675780894E+03  0.00000000000E+00 0.  1.
        -11    1    5    5    0    0 -0.24822062056E+03 -0.19781448125E+03  0.41664053869E+02  0.32012488008E+03  0.00000000000E+00 0. -1.
          2    1    6    6  503    0  0.41519007998E+03 -0.86790710705E+02  0.24497411389E+03  0.48982419954E+03  0.00000000000E+00 0. -1.
         -2    1    6    6    0  503  0.44901587351E+02  0.12538585174E+02  0.50758083239E+01  0.46894909052E+02  0.00000000000E+00 0.  1.
<mgrwt>
<rscale>  0 0.26590122E+04</rscale>
<asrwt>0</asrwt>
<pdfrwt beam="1">  1        1 0.61163572E-01 0.26590122E+04</pdfrwt>
<pdfrwt beam="2">  1       -1 0.68400790E+00 0.26590122E+04</pdfrwt>
<totfact> 0.11876417E-02</totfact>
</mgrwt>
</event>
<event>
12    2  0.3751044E-008  0.1451764E+04  0.7818608E-02  0.8917178E-01
          2   -1    0    0  501    0  0.00000000000E+00  0.00000000000E+00  0.14932730301E+04  0.14932730301E+04  0.00000000000E+00 0. -1.
         -2   -1    0    0    0  501 -0.00000000000E+00 -0.00000000000E+00 -0.35285226766E+03  0.35285226766E+03  0.00000000000E+00 0.  1.
         23    2    1    2    0    0  0.54925467522E+02 -0.32115020379E+03  0.71872313768E+03  0.79445200493E+03  0.91851941348E+02 0.  0.
        254    2    1    2    0    0 -0.54925467522E+02  0.32115020379E+03  0.42169762480E+03  0.10516732929E+04  0.90666066850E+03 0.  0.
         23    2    4    4    0    0  0.27708173754E+03  0.28993478908E+03  0.54693348009E+03  0.68477201971E+03  0.94551658525E+02 0.  0.
         23    2    4    4    0    0 -0.33200720506E+03  0.31215414706E+02 -0.12523585529E+03  0.36690127316E+03  0.87916656376E+02 0.  0.
          4    1    3    3  502    0  0.80669342173E+02 -0.24911221325E+03  0.54565040221E+03  0.60522623786E+03  0.00000000000E+00 0. -1.
         -4    1    3    3    0  502 -0.25743874651E+02 -0.72037990535E+02  0.17307273547E+03  0.18922576708E+03  0.00000000000E+00 0.  1.
         11    1    5    5    0    0  0.66821756092E+02  0.99411167592E+02  0.23043497638E+03  0.25970753872E+03  0.00000000000E+00 0. -1.
        -11    1    5    5    0    0  0.21025998145E+03  0.19052362149E+03  0.31649850372E+03  0.42506448099E+03  0.00000000000E+00 0.  1.
          1    1    6    6  503    0 -0.94594711496E+02 -0.23997882680E+02 -0.60052693657E+02  0.11458788693E+03  0.00000000000E+00 0. -1.
         -1    1    6    6    0  503 -0.23741249357E+03  0.55213297386E+02 -0.65183161633E+02  0.25231338623E+03  0.00000000000E+00 0.  1.
<mgrwt>
<rscale>  0 0.14517641E+04</rscale>
<asrwt>0</asrwt>
<pdfrwt beam="1">  1        2 0.22973431E+00 0.14517641E+04</pdfrwt>
<pdfrwt beam="2">  1       -2 0.54284965E-01 0.14517641E+04</pdfrwt>
<totfact> 0.39661335E+01</totfact>
</mgrwt>
</event>
<event>
12    2  0.3751044E-008  0.1941469E+04  0.7818608E-02  0.8634485E-01
         -2   -1    0    0    0  501 -0.00000000000E+00  0.00000000000E+00  0.71566951821E+03  0.71566951821E+03  0.00000000000E+00 0.  1.
          2   -1    0    0  501    0  0.00000000000E+00 -0.00000000000E+00 -0.13167051102E+04  0.13167051102E+04  0.00000000000E+00 0. -1.
         23    2    1    2    0    0 -0.67884091383E+02 -0.64769457561E+03  0.17284923382E+03  0.67922851604E+03  0.85778821551E+02 0.  0.
        254    2    1    2    0    0  0.67884091383E+02  0.64769457561E+03 -0.77388482585E+03  0.13531461124E+04  0.89888273135E+03 0.  0.
         23    2    4    4    0    0  0.34010153315E+03  0.72458377060E+03 -0.49787278770E+03  0.94710995226E+03  0.91919831786E+02 0.  0.
         23    2    4    4    0    0 -0.27221744177E+03 -0.76889194984E+02 -0.27601203815E+03  0.40603616015E+03  0.93104426539E+02 0.  0.
          2    1    3    3  502    0 -0.13918109056E+02 -0.23860697862E+03  0.10498460969E+03  0.26105319818E+03  0.00000000000E+00 0. -1.
         -2    1    3    3    0  502 -0.53965982327E+02 -0.40908759699E+03  0.67864624127E+02  0.41817531786E+03  0.00000000000E+00 0.  1.
         11    1    5    5    0    0  0.14415706009E+03  0.21300543041E+03 -0.17723891281E+03  0.31235589249E+03  0.00000000000E+00 0. -1.
        -11    1    5    5    0    0  0.19594447306E+03  0.51157834018E+03 -0.32063387489E+03  0.63475405977E+03  0.00000000000E+00 0.  1.
          3    1    6    6  503    0 -0.32315588783E+02 -0.44845732481E+02 -0.60649990518E+02  0.82060089873E+02  0.00000000000E+00 0. -1.
         -3    1    6    6    0  503 -0.23990185298E+03 -0.32043462503E+02 -0.21536204763E+03  0.32397607028E+03  0.00000000000E+00 0.  1.
<mgrwt>
<rscale>  0 0.19414692E+04</rscale>
<asrwt>0</asrwt>
<pdfrwt beam="1">  1        2 0.20257002E+00 0.19414692E+04</pdfrwt>
<pdfrwt beam="2">  1       -2 0.11010300E+00 0.19414692E+04</pdfrwt>
<totfact> 0.98931477E+00</totfact>
</mgrwt>
</event>
<event>
12    2  0.3751044E-008  0.1522183E+04  0.7818608E-02  0.8869834E-01
          2   -1    0    0  501    0  0.00000000000E+00  0.00000000000E+00  0.28971753656E+04  0.28971753656E+04  0.00000000000E+00 0. -1.
         -2   -1    0    0    0  501 -0.00000000000E+00 -0.00000000000E+00 -0.19993978994E+03  0.19993978994E+03  0.00000000000E+00 0.  1.
         23    2    1    2    0    0 -0.37677704387E+03  0.31155150590E+03  0.98873945712E+03  0.11066124334E+04  0.89219291621E+02 0.  0.
        254    2    1    2    0    0  0.37677704387E+03 -0.31155150590E+03  0.17084961185E+04  0.19905027221E+04  0.89672560923E+03 0.  0.
         23    2    4    4    0    0  0.62040173464E+03 -0.39665969494E+03  0.13065509192E+04  0.15025468938E+04  0.91294236332E+02 0.  0.
         23    2    4    4    0    0 -0.24362469077E+03  0.85108189037E+02  0.40194519931E+03  0.48795582836E+03  0.99722381615E+02 0.  0.
          2    1    3    3  502    0 -0.22932953507E+03  0.21323045024E+03  0.71429098522E+03  0.77991722133E+03  0.00000000000E+00 0. -1.
         -2    1    3    3    0  502 -0.14744750879E+03  0.98321055666E+02  0.27444847190E+03  0.32669521203E+03  0.00000000000E+00 0.  1.
         11    1    5    5    0    0  0.36555569631E+03 -0.18521670090E+03  0.76241472995E+03  0.86557057127E+03  0.00000000000E+00 0.  1.
        -11    1    5    5    0    0  0.25484603832E+03 -0.21144299404E+03  0.54413618925E+03  0.63697632251E+03  0.00000000000E+00 0. -1.
          1    1    6    6  503    0 -0.40996049259E+02  0.56358476108E+02  0.76281623945E+02  0.10332395674E+03  0.00000000000E+00 0. -1.
         -1    1    6    6    0  503 -0.20262864151E+03  0.28749712928E+02  0.32566357536E+03  0.38463187163E+03  0.00000000000E+00 0.  1.
<mgrwt>
<rscale>  0 0.15221835E+04</rscale>
<asrwt>0</asrwt>
<pdfrwt beam="1">  1        2 0.44571926E+00 0.15221835E+04</pdfrwt>
<pdfrwt beam="2">  1       -2 0.30759970E-01 0.15221835E+04</pdfrwt>
<totfact> 0.19152202E+01</totfact>
</mgrwt>
</event>
<event>
12    2  0.3751044E-008  0.2642434E+04  0.7818608E-02  0.8353928E-01
         -1   -1    0    0    0  501 -0.00000000000E+00  0.00000000000E+00  0.11197948811E+04  0.11197948811E+04  0.00000000000E+00 0.  1.
          1   -1    0    0  501    0  0.00000000000E+00 -0.00000000000E+00 -0.15588699679E+04  0.15588699679E+04  0.00000000000E+00 0. -1.
         23    2    1    2    0    0 -0.81431891696E+03  0.74946680743E+03 -0.54298323602E+03  0.12360852436E+04  0.90885316907E+02 0.  0.
        254    2    1    2    0    0  0.81431891696E+03 -0.74946680743E+03  0.10390814923E+03  0.14425796055E+04  0.91946898846E+03 0.  0.
         23    2    4    4    0    0  0.42512490801E+03 -0.10635678213E+03  0.42749360484E+03  0.61906131380E+03  0.91886753931E+02 0.  0.
         23    2    4    4    0    0  0.38919400894E+03 -0.64311002530E+03 -0.32358545562E+03  0.82351829168E+03  0.91718855264E+02 0.  0.
          3    1    3    3  502    0 -0.78334057768E+03  0.73730417932E+03 -0.51532310942E+03  0.11928108905E+04  0.00000000000E+00 0. -1.
         -3    1    3    3    0  502 -0.30978339271E+02  0.12162628104E+02 -0.27660126608E+02  0.43274353032E+02  0.00000000000E+00 0.  1.
         11    1    5    5    0    0  0.32281018437E+03 -0.68957455720E+02  0.37014368366E+03  0.49595150206E+03  0.00000000000E+00 0.  1.
        -11    1    5    5    0    0  0.10231472364E+03 -0.37399326410E+02  0.57349921180E+02  0.12310981175E+03  0.00000000000E+00 0. -1.
          3    1    6    6  503    0  0.11611713619E+03 -0.26226759346E+03 -0.95269360862E+02  0.30223125420E+03  0.00000000000E+00 0. -1.
         -3    1    6    6    0  503  0.27307687276E+03 -0.38084243183E+03 -0.22831609476E+03  0.52128703748E+03  0.00000000000E+00 0.  1.
<mgrwt>
<rscale>  0 0.26424342E+04</rscale>
<asrwt>0</asrwt>
<pdfrwt beam="1">  1        1 0.23982615E+00 0.26424342E+04</pdfrwt>
<pdfrwt beam="2">  1       -1 0.17227614E+00 0.26424342E+04</pdfrwt>
<totfact> 0.12376068E+00</totfact>
</mgrwt>
</event>
<event>
12    2  0.3751044E-008  0.1581502E+04  0.7818608E-02  0.8831993E-01
         -1   -1    0    0    0  501 -0.00000000000E+00  0.00000000000E+00  0.21095232811E+04  0.21095232811E+04  0.00000000000E+00 0.  1.
          1   -1    0    0  501    0  0.00000000000E+00 -0.00000000000E+00 -0.29641176960E+03  0.29641176960E+03  0.00000000000E+00 0. -1.
         23    2    1    2    0    0 -0.29167872531E+03 -0.39992556047E+03  0.29923821475E+03  0.58588131985E+03  0.93254914463E+02 0.  0.
        254    2    1    2    0    0  0.29167872531E+03  0.39992556047E+03  0.15138732968E+04  0.18200537309E+04  0.88077596007E+03 0.  0.
         23    2    4    4    0    0 -0.12804947101E+03  0.19541158754E+03  0.19739281656E+02  0.25202883930E+03  0.92447504157E+02 0.  0.
         23    2    4    4    0    0  0.41972819632E+03  0.20451397293E+03  0.14941340151E+04  0.15680248916E+04  0.90927891985E+02 0.  0.
          2    1    3    3  502    0 -0.14477411933E+03 -0.26652483604E+03  0.15541518965E+03  0.34080627199E+03  0.00000000000E+00 0. -1.
         -2    1    3    3    0  502 -0.14690460597E+03 -0.13340072443E+03  0.14382302510E+03  0.24507504786E+03  0.00000000000E+00 0.  1.
         11    1    5    5    0    0 -0.22475964883E+02  0.97226591021E+01 -0.23671656387E+02  0.34059454099E+02  0.00000000000E+00 0. -1.
        -11    1    5    5    0    0 -0.10557350613E+03  0.18568892844E+03  0.43410938043E+02  0.21796938520E+03  0.00000000000E+00 0.  1.
          4    1    6    6  503    0  0.36604111529E+03  0.14093351333E+03  0.12138982932E+04  0.12756948771E+04  0.00000000000E+00 0.  1.
         -4    1    6    6    0  503  0.53687081021E+02  0.63580459595E+02  0.28023572191E+03  0.29233001445E+03  0.00000000000E+00 0. -1.
<mgrwt>
<rscale>  0 0.15815025E+04</rscale>
<asrwt>0</asrwt>
<pdfrwt beam="1">  1        1 0.45601812E-01 0.15815025E+04</pdfrwt>
<pdfrwt beam="2">  1       -1 0.32454203E+00 0.15815025E+04</pdfrwt>
<totfact> 0.19624963E+00</totfact>
</mgrwt>
</event>
<event>
12    2  0.3751044E-008  0.2507434E+04  0.7818608E-02  0.8400342E-01
         -2   -1    0    0    0  501 -0.00000000000E+00  0.00000000000E+00  0.12002574645E+04  0.12002574645E+04  0.00000000000E+00 0.  1.
          2   -1    0    0  501    0  0.00000000000E+00 -0.00000000000E+00 -0.13095576378E+04  0.13095576378E+04  0.00000000000E+00 0. -1.
         23    2    1    2    0    0 -0.65634792815E+02  0.55072099218E+03  0.88972117960E+03  0.10524986145E+04  0.92455496799E+02 0.  0.
        254    2    1    2    0    0  0.65634792815E+02 -0.55072099218E+03 -0.99902135294E+03  0.14573164878E+04  0.90450325852E+03 0.  0.
         23    2    4    4    0    0 -0.12745794495E+03  0.59373865950E+01  0.11365944145E+03  0.19557859768E+03  0.95140627227E+02 0.  0.
         23    2    4    4    0    0  0.19309273777E+03 -0.55665837878E+03 -0.11126807944E+04  0.12617378901E+04  0.82283637953E+02 0.  0.
          3    1    3    3  502    0  0.41023767277E+01  0.14665440214E+03  0.17357320508E+03  0.22727076514E+03  0.00000000000E+00 0. -1.
         -3    1    3    3    0  502 -0.69737169542E+02  0.40406659004E+03  0.71614797452E+03  0.82522784939E+03  0.00000000000E+00 0.  1.
         11    1    5    5    0    0 -0.81932711825E+02 -0.15458506421E+02  0.14833848719E+02  0.84687530107E+02  0.00000000000E+00 0. -1.
        -11    1    5    5    0    0 -0.45525233127E+02  0.21395893016E+02  0.98825592730E+02  0.11089106757E+03  0.00000000000E+00 0.  1.
          4    1    6    6  503    0  0.14425617726E+03 -0.30573892703E+03 -0.67334391045E+03  0.75344419695E+03  0.00000000000E+00 0. -1.
         -4    1    6    6    0  503  0.48836560507E+02 -0.25091945175E+03 -0.43933688394E+03  0.50829369315E+03  0.00000000000E+00 0.  1.
<mgrwt>
<rscale>  0 0.25074340E+04</rscale>
<asrwt>0</asrwt>
<pdfrwt beam="1">  1        2 0.20147041E+00 0.25074340E+04</pdfrwt>
<pdfrwt beam="2">  1       -2 0.18465499E+00 0.25074340E+04</pdfrwt>
<totfact> 0.24507764E+00</totfact>
</mgrwt>
</event>
<event>
12    2  0.3751044E-008  0.3108318E+04  0.7818608E-02  0.8213459E-01
          2   -1    0    0  501    0  0.00000000000E+00  0.00000000000E+00  0.42506154051E+04  0.42506154051E+04  0.00000000000E+00 0. -1.
         -2   -1    0    0    0  501 -0.00000000000E+00 -0.00000000000E+00 -0.56824955272E+03  0.56824955272E+03  0.00000000000E+00 0.  1.
         23    2    1    2    0    0 -0.62509660655E+03  0.11389147120E+03 -0.28363677014E+03  0.70170305127E+03  0.90665980746E+02 0.  0.
        254    2    1    2    0    0  0.62509660655E+03 -0.11389147120E+03  0.39660026225E+04  0.41171619066E+04  0.90450446556E+03 0.  0.
         23    2    4    4    0    0 -0.90483371300E+01  0.18034363779E+02  0.26059132138E+04  0.26079482214E+04  0.10101057882E+03 0.  0.
         23    2    4    4    0    0  0.63414494368E+03 -0.13192583498E+03  0.13600894087E+04  0.15092136851E+04  0.91315454220E+02 0.  0.
          4    1    3    3  502    0 -0.13060172854E+03  0.54644732046E+02 -0.39085388135E+02  0.14686907709E+03  0.00000000000E+00 0. -1.
         -4    1    3    3    0  502 -0.49449487800E+03  0.59246739152E+02 -0.24455138200E+03  0.55483397419E+03  0.00000000000E+00 0.  1.
         11    1    5    5    0    0 -0.48796954003E+02  0.32759221170E+01  0.19782896890E+04  0.19788941275E+04  0.00000000000E+00 0.  1.
        -11    1    5    5    0    0  0.39748616873E+02  0.14758441662E+02  0.62762352481E+03  0.62905409389E+03  0.00000000000E+00 0. -1.
          1    1    6    6  503    0  0.46771390196E+02  0.13645665211E+02  0.11304870469E+03  0.12310067730E+03  0.00000000000E+00 0. -1.
         -1    1    6    6    0  503  0.58737355348E+03 -0.14557150019E+03  0.12470407040E+04  0.13861130078E+04  0.00000000000E+00 0.  1.
<mgrwt>
<rscale>  0 0.31083181E+04</rscale>
<asrwt>0</asrwt>
<pdfrwt beam="1">  1        2 0.65394081E+00 0.31083181E+04</pdfrwt>
<pdfrwt beam="2">  1       -2 0.87423011E-01 0.31083181E+04</pdfrwt>
<totfact> 0.20097746E-01</totfact>
</mgrwt>
</event>
<event>
12    2  0.3751044E-008  0.2178955E+04  0.7818608E-02  0.8527239E-01
          1   -1    0    0  501    0  0.00000000000E+00  0.00000000000E+00  0.14304966473E+04  0.14304966473E+04  0.00000000000E+00 0. -1.
         -1   -1    0    0    0  501 -0.00000000000E+00 -0.00000000000E+00 -0.82975465710E+03  0.82975465710E+03  0.00000000000E+00 0.  1.
         23    2    1    2    0    0 -0.54297596389E+03  0.38190338417E+03  0.88040759354E+03  0.11073197021E+04  0.10181502634E+03 0.  0.
        254    2    1    2    0    0  0.54297596389E+03 -0.38190338417E+03 -0.27966560336E+03  0.11529316023E+04  0.90020294255E+03 0.  0.
         23    2    4    4    0    0  0.63413775146E+03 -0.99106434152E+02 -0.45772356304E+03  0.79357850670E+03  0.91121967824E+02 0.  0.
         23    2    4    4    0    0 -0.91161787573E+02 -0.28279695001E+03  0.17805795968E+03  0.35935309564E+03  0.95631709633E+02 0.  0.
          2    1    3    3  502    0 -0.47920901487E+03  0.36901296621E+03  0.81661868916E+03  0.10162076228E+04  0.00000000000E+00 0. -1.
         -2    1    3    3    0  502 -0.63766949022E+02  0.12890417958E+02  0.63788904384E+02  0.91112079250E+02  0.00000000000E+00 0.  1.
         11    1    5    5    0    0  0.33184689673E+03 -0.97782586816E+02 -0.24084520194E+03  0.42153316412E+03  0.00000000000E+00 0. -1.
        -11    1    5    5    0    0  0.30229085473E+03 -0.13238473368E+01 -0.21687836110E+03  0.37204534258E+03  0.00000000000E+00 0.  1.
          1    1    6    6  503    0 -0.50546024600E+02 -0.55650855775E+02  0.76456455620E+02  0.10722643311E+03  0.00000000000E+00 0. -1.
         -1    1    6    6    0  503 -0.40615762973E+02 -0.22714609424E+03  0.10160150406E+03  0.25212666253E+03  0.00000000000E+00 0.  1.
<mgrwt>
<rscale>  0 0.21789550E+04</rscale>
<asrwt>0</asrwt>
<pdfrwt beam="1">  1        1 0.22007641E+00 0.21789550E+04</pdfrwt>
<pdfrwt beam="2">  1       -1 0.12765456E+00 0.21789550E+04</pdfrwt>
<totfact> 0.35469956E+00</totfact>
</mgrwt>
</event>
<event>
12    2  0.3751044E-008  0.4077695E+04  0.7818608E-02  0.7989054E-01
          2   -1    0    0  501    0  0.00000000000E+00  0.00000000000E+00  0.30596802448E+04  0.30596802448E+04  0.00000000000E+00 0. -1.
         -2   -1    0    0    0  501 -0.00000000000E+00 -0.00000000000E+00 -0.13586055096E+04  0.13586055096E+04  0.00000000000E+00 0.  1.
         23    2    1    2    0    0 -0.19067741240E+04 -0.21637182602E+03  0.11053393579E+04  0.22165831523E+04  0.94135262235E+02 0.  0.
        254    2    1    2    0    0  0.19067741240E+04  0.21637182602E+03  0.59573537725E+03  0.22017026021E+04  0.89999410068E+03 0.  0.
         23    2    4    4    0    0  0.10508576783E+04  0.50843615897E+03  0.12371379815E+03  0.11774809088E+04  0.91361912058E+02 0.  0.
         23    2    4    4    0    0  0.85591644576E+03 -0.29206433296E+03  0.47202157910E+03  0.10242216933E+04  0.91275238861E+02 0.  0.
          4    1    3    3  502    0 -0.30612946835E+03 -0.37393148000E+02  0.21834268500E+03  0.37787170707E+03  0.00000000000E+00 0. -1.
         -4    1    3    3    0  502 -0.16006446557E+04 -0.17897867802E+03  0.88699667287E+03  0.18387114452E+04  0.00000000000E+00 0.  1.
         11    1    5    5    0    0  0.27117053216E+03  0.15551133111E+03 -0.99583010670E+00  0.31259914154E+03  0.00000000000E+00 0. -1.
        -11    1    5    5    0    0  0.77968714614E+03  0.35292482786E+03  0.12470962826E+03  0.86488176727E+03  0.00000000000E+00 0.  1.
          3    1    6    6  503    0  0.69652868420E+03 -0.22276992655E+03  0.34278575218E+03  0.80763897874E+03  0.00000000000E+00 0. -1.
         -3    1    6    6    0  503  0.15938776155E+03 -0.69294406408E+02  0.12923582692E+03  0.21658271457E+03  0.00000000000E+00 0.  1.
<mgrwt>
<rscale>  0 0.40776947E+04</rscale>
<asrwt>0</asrwt>
<pdfrwt beam="1">  1        2 0.47072004E+00 0.40776947E+04</pdfrwt>
<pdfrwt beam="2">  1       -2 0.20901623E+00 0.40776947E+04</pdfrwt>
<totfact> 0.14532800E-01</totfact>
</mgrwt>
</event>
<event>
12    2  0.3751044E-008  0.1420197E+04  0.7818608E-02  0.8939328E-01
          4   -1    0    0  501    0  0.00000000000E+00  0.00000000000E+00  0.16984489265E+04  0.16984489265E+04  0.00000000000E+00 0. -1.
         -4   -1    0    0    0  501 -0.00000000000E+00 -0.00000000000E+00 -0.29688237711E+03  0.29688237711E+03  0.00000000000E+00 0.  1.
         23    2    1    2    0    0 -0.54691979744E+02 -0.35725067982E+03  0.13317863692E+03  0.39576980838E+03  0.90983135845E+02 0.  0.
        254    2    1    2    0    0  0.54691979744E+02  0.35725067982E+03  0.12683879124E+04  0.15995614952E+04  0.90508000732E+03 0.  0.
         23    2    4    4    0    0 -0.67664303764E+02 -0.26558004122E+03  0.64065051409E+03  0.70209656118E+03  0.85995835538E+02 0.  0.
         23    2    4    4    0    0  0.12235628351E+03  0.62283072104E+03  0.62773739835E+03  0.89746493402E+03  0.92194898611E+02 0.  0.
          1    1    3    3  502    0  0.18252841421E+02 -0.15176279291E+03  0.74024860713E+02  0.16983754454E+03  0.00000000000E+00 0. -1.
         -1    1    3    3    0  502 -0.72944821165E+02 -0.20548788691E+03  0.59153776208E+02  0.22593226384E+03  0.00000000000E+00 0.  1.
         11    1    5    5    0    0 -0.58752825188E+00 -0.79729113326E+02  0.27685707067E+03  0.28810920548E+03  0.00000000000E+00 0.  1.
        -11    1    5    5    0    0 -0.67076775512E+02 -0.18585092789E+03  0.36379344341E+03  0.41398735570E+03  0.00000000000E+00 0. -1.
          1    1    6    6  503    0  0.11624417153E+03  0.62417732022E+03  0.61901775201E+03  0.88673164588E+03  0.00000000000E+00 0. -1.
         -1    1    6    6    0  503  0.61121119810E+01 -0.13465991798E+01  0.87196463368E+01  0.10733288148E+02  0.00000000000E+00 0.  1.
<mgrwt>
<rscale>  0 0.14201965E+04</rscale>
<asrwt>0</asrwt>
<pdfrwt beam="1">  1        4 0.26129983E+00 0.14201965E+04</pdfrwt>
<pdfrwt beam="2">  1       -4 0.45674213E-01 0.14201965E+04</pdfrwt>
<totfact> 0.48789690E-01</totfact>
</mgrwt>
</event>
<event>
12    2  0.3751044E-008  0.1571279E+04  0.7818608E-02  0.8838389E-01
          2   -1    0    0  501    0  0.00000000000E+00  0.00000000000E+00  0.18988286181E+04  0.18988286181E+04  0.00000000000E+00 0. -1.
         -2   -1    0    0    0  501 -0.00000000000E+00 -0.00000000000E+00 -0.32505819353E+03  0.32505819353E+03  0.00000000000E+00 0.  1.
         23    2    1    2    0    0 -0.23291600701E+03  0.34147118700E+03  0.10063931675E+04  0.10904234826E+04  0.73100792712E+02 0.  0.
        254    2    1    2    0    0  0.23291600701E+03 -0.34147118700E+03  0.56737725705E+03  0.11334633290E+04  0.88992681080E+03 0.  0.
         23    2    4    4    0    0  0.45654756691E+03  0.28872704829E+01  0.53689103100E+03  0.71207781794E+03  0.10177830055E+03 0.  0.
         23    2    4    4    0    0 -0.22363155989E+03 -0.34435845748E+03  0.30486226053E+02  0.42138551109E+03  0.89680082291E+02 0.  0.
          1    1    3    3  502    0 -0.18647245317E+03  0.31179526526E+03  0.90102288676E+03  0.97150939557E+03  0.00000000000E+00 0. -1.
         -1    1    3    3    0  502 -0.46443553839E+02  0.29675921742E+02  0.10537028077E+03  0.11891408703E+03  0.00000000000E+00 0.  1.
         11    1    5    5    0    0  0.42766713091E+03 -0.22558513356E+02  0.47871400280E+03  0.64232013658E+03  0.00000000000E+00 0. -1.
        -11    1    5    5    0    0  0.28880435994E+02  0.25445783839E+02  0.58177028201E+02  0.69757681360E+02  0.00000000000E+00 0.  1.
          2    1    6    6  503    0 -0.23061823706E+03 -0.32679517751E+03  0.21759324272E+02  0.40056625857E+03  0.00000000000E+00 0. -1.
         -2    1    6    6    0  503  0.69866771627E+01 -0.17563279969E+02  0.87269017818E+01  0.20819252526E+02  0.00000000000E+00 0.  1.
<mgrwt>
<rscale>  0 0.15712795E+04</rscale>
<asrwt>0</asrwt>
<pdfrwt beam="1">  1        2 0.29212747E+00 0.15712795E+04</pdfrwt>
<pdfrwt beam="2">  1       -2 0.50008954E-01 0.15712795E+04</pdfrwt>
<totfact> 0.27648924E+01</totfact>
</mgrwt>
</event>
<event>
12    2  0.3751044E-008  0.2123544E+04  0.7818608E-02  0.8550942E-01
         -2   -1    0    0    0  501 -0.00000000000E+00  0.00000000000E+00  0.66574220732E+03  0.66574220732E+03  0.00000000000E+00 0.  1.
          2   -1    0    0  501    0  0.00000000000E+00 -0.00000000000E+00 -0.16933883907E+04  0.16933883907E+04  0.00000000000E+00 0. -1.
         23    2    1    2    0    0  0.47189472289E+03 -0.72362216980E+03 -0.52273732652E+03  0.10142509623E+04  0.95587802149E+02 0.  0.
        254    2    1    2    0    0 -0.47189472289E+03  0.72362216980E+03 -0.50490885688E+03  0.13448796357E+04  0.89858477992E+03 0.  0.
         23    2    4    4    0    0 -0.13837685535E+03  0.79405269051E+03 -0.11690981724E+03  0.81947183427E+03  0.90544753476E+02 0.  0.
         23    2    4    4    0    0 -0.33351786754E+03 -0.70430520714E+02 -0.38799903964E+03  0.52540780145E+03  0.96516717969E+02 0.  0.
          4    1    3    3  502    0  0.40728159506E+03 -0.63020028002E+03 -0.41391392915E+03  0.85694540746E+03  0.00000000000E+00 0. -1.
         -4    1    3    3    0  502  0.64613127829E+02 -0.93421889777E+02 -0.10882339736E+03  0.15730555486E+03  0.00000000000E+00 0.  1.
         11    1    5    5    0    0 -0.12463941208E+03  0.57510819063E+03 -0.52293011493E+02  0.59077827738E+03  0.00000000000E+00 0. -1.
        -11    1    5    5    0    0 -0.13737443272E+02  0.21894449988E+03 -0.64616805746E+02  0.22869355689E+03  0.00000000000E+00 0.  1.
          4    1    6    6  503    0 -0.30985926793E+03 -0.82236322885E+02 -0.38124188699E+03  0.49811741098E+03  0.00000000000E+00 0. -1.
         -4    1    6    6    0  503 -0.23658599605E+02  0.11805802171E+02 -0.67571526539E+01  0.27290390473E+02  0.00000000000E+00 0.  1.
<mgrwt>
<rscale>  0 0.21235443E+04</rscale>
<asrwt>0</asrwt>
<pdfrwt beam="1">  1        2 0.26052129E+00 0.21235443E+04</pdfrwt>
<pdfrwt beam="2">  1       -2 0.10242188E+00 0.21235443E+04</pdfrwt>
<totfact> 0.70979626E+00</totfact>
</mgrwt>
</event>
<event>
12    2  0.3751044E-008  0.1340111E+04  0.7818608E-02  0.8998348E-01
          2   -1    0    0  501    0  0.00000000000E+00  0.00000000000E+00  0.96835374131E+03  0.96835374131E+03  0.00000000000E+00 0. -1.
         -2   -1    0    0    0  501 -0.00000000000E+00 -0.00000000000E+00 -0.46364684968E+03  0.46364684968E+03  0.00000000000E+00 0.  1.
         23    2    1    2    0    0  0.11317855783E+03 -0.24208564069E+03  0.40556994402E+03  0.49392952083E+03  0.89802832244E+02 0.  0.
        254    2    1    2    0    0 -0.11317855783E+03  0.24208564069E+03  0.99136947619E+02  0.93807107016E+03  0.89371939382E+03 0.  0.
         23    2    4    4    0    0 -0.24676480232E+03  0.22598285148E+02 -0.33445474482E+03  0.42589255635E+03  0.90116275285E+02 0.  0.
         23    2    4    4    0    0  0.13358624449E+03  0.21948735554E+03  0.43359169244E+03  0.51217851380E+03  0.91132268079E+02 0.  0.
          2    1    3    3  502    0  0.45410673870E+02 -0.78615480702E+02  0.70300600356E+02  0.11482463811E+03  0.00000000000E+00 0. -1.
         -2    1    3    3    0  502  0.67767883958E+02 -0.16347015999E+03  0.33526934366E+03  0.37910488272E+03  0.00000000000E+00 0.  1.
         11    1    5    5    0    0 -0.26145134776E+02 -0.26713348357E+02 -0.41416754796E+02  0.55789950983E+02  0.00000000000E+00 0. -1.
        -11    1    5    5    0    0 -0.22061966754E+03  0.49311633505E+02 -0.29303799003E+03  0.37010260537E+03  0.00000000000E+00 0.  1.
          3    1    6    6  503    0 -0.10771075003E+02  0.37711477367E+02  0.46583321775E+02  0.60894806424E+02  0.00000000000E+00 0. -1.
         -3    1    6    6    0  503  0.14435731949E+03  0.18177587818E+03  0.38700837067E+03  0.45128370738E+03  0.00000000000E+00 0.  1.
<mgrwt>
<rscale>  0 0.13401107E+04</rscale>
<asrwt>0</asrwt>
<pdfrwt beam="1">  1        2 0.14897750E+00 0.13401107E+04</pdfrwt>
<pdfrwt beam="2">  1       -2 0.71330285E-01 0.13401107E+04</pdfrwt>
<totfact> 0.46055676E+01</totfact>
</mgrwt>
</event>
<event>
12    2  0.3751044E-008  0.1919239E+04  0.7818608E-02  0.8645339E-01
          1   -1    0    0  501    0  0.00000000000E+00  0.00000000000E+00  0.21401461545E+04  0.21401461545E+04  0.00000000000E+00 0. -1.
         -1   -1    0    0    0  501 -0.00000000000E+00 -0.00000000000E+00 -0.43028335584E+03  0.43028335584E+03  0.00000000000E+00 0.  1.
         23    2    1    2    0    0  0.25380702031E+03 -0.55827492320E+03  0.10570198943E+04  0.12254804947E+04  0.91774139225E+02 0.  0.
        254    2    1    2    0    0 -0.25380702031E+03  0.55827492320E+03  0.65284290434E+03  0.13449490156E+04  0.10032921326E+04 0.  0.
         23    2    4    4    0    0 -0.51314608124E+03  0.68382223196E+03  0.57104422913E+03  0.10321874671E+04  0.91584442221E+02 0.  0.
         23    2    4    4    0    0  0.25933906093E+03 -0.12554730876E+03  0.81798675205E+02  0.31276154844E+03  0.90054914670E+02 0.  0.
          2    1    3    3  502    0  0.16690420126E+03 -0.32688655599E+03  0.54703906962E+03  0.65875911878E+03  0.00000000000E+00 0.  1.
         -2    1    3    3    0  502  0.86902819054E+02 -0.23138836721E+03  0.50998082467E+03  0.56672137595E+03  0.00000000000E+00 0. -1.
         11    1    5    5    0    0 -0.17372070697E+03  0.18716552602E+03  0.13210198880E+03  0.28750783225E+03  0.00000000000E+00 0.  1.
        -11    1    5    5    0    0 -0.33942537427E+03  0.49665670594E+03  0.43894224033E+03  0.74467963488E+03  0.00000000000E+00 0. -1.
          3    1    6    6  503    0  0.23814818107E+03 -0.13874363567E+03  0.82777377644E+02  0.28777846834E+03  0.00000000000E+00 0. -1.
         -3    1    6    6    0  503  0.21190879856E+02  0.13196326911E+02 -0.97870243851E+00  0.24983080104E+02  0.00000000000E+00 0.  1.
<mgrwt>
<rscale>  0 0.19192387E+04</rscale>
<asrwt>0</asrwt>
<pdfrwt beam="1">  1        1 0.32925325E+00 0.19192387E+04</pdfrwt>
<pdfrwt beam="2">  1       -1 0.66197440E-01 0.19192387E+04</pdfrwt>
<totfact> 0.51700896E+00</totfact>
</mgrwt>
</event>
<event>
12    2  0.3751044E-008  0.2124716E+04  0.7818608E-02  0.8550433E-01
         -2   -1    0    0    0  501 -0.00000000000E+00  0.00000000000E+00  0.97601076514E+03  0.97601076514E+03  0.00000000000E+00 0.  1.
          2   -1    0    0  501    0  0.00000000000E+00 -0.00000000000E+00 -0.11563446173E+04  0.11563446173E+04  0.00000000000E+00 0. -1.
         23    2    1    2    0    0 -0.43086704948E+03  0.74542222882E+03 -0.18203141564E+03  0.88520033046E+03  0.95621520684E+02 0.  0.
        254    2    1    2    0    0  0.43086704948E+03 -0.74542222882E+03  0.16975634706E+01  0.12471550520E+04  0.90227054058E+03 0.  0.
         23    2    4    4    0    0  0.18745115707E+03 -0.85436273154E+03  0.20039068236E+03  0.90194211559E+03  0.90937016524E+02 0.  0.
         23    2    4    4    0    0  0.24341589242E+03  0.10894050271E+03 -0.19869311889E+03  0.34521293638E+03  0.92594201435E+02 0.  0.
          4    1    3    3  502    0 -0.20039152318E+03  0.32219582615E+03 -0.33442814674E+02  0.38090068890E+03  0.00000000000E+00 0. -1.
         -4    1    3    3    0  502 -0.23047552631E+03  0.42322640268E+03 -0.14858860096E+03  0.50429964157E+03  0.00000000000E+00 0.  1.
         11    1    5    5    0    0  0.85448885577E+01 -0.49912702583E+01 -0.31560756012E+01  0.10386949141E+02  0.00000000000E+00 0.  1.
        -11    1    5    5    0    0  0.17890626851E+03 -0.84937146128E+03  0.20354675796E+03  0.89155516645E+03  0.00000000000E+00 0. -1.
          3    1    6    6  503    0  0.14597955264E+03  0.61691067364E+02 -0.60474280386E+02  0.16962593012E+03  0.00000000000E+00 0. -1.
         -3    1    6    6    0  503  0.97436339774E+02  0.47249435351E+02 -0.13821883851E+03  0.17558700626E+03  0.00000000000E+00 0.  1.
<mgrwt>
<rscale>  0 0.21247163E+04</rscale>
<asrwt>0</asrwt>
<pdfrwt beam="1">  1        2 0.17789917E+00 0.21247163E+04</pdfrwt>
<pdfrwt beam="2">  1       -2 0.15015550E+00 0.21247163E+04</pdfrwt>
<totfact> 0.55301166E+00</totfact>
</mgrwt>
</event>
<event>
12    2  0.3751044E-008  0.1233813E+04  0.7818608E-02  0.9083764E-01
          2   -1    0    0  501    0  0.00000000000E+00  0.00000000000E+00  0.37296890052E+04  0.37296890052E+04  0.00000000000E+00 0. -1.
         -2   -1    0    0    0  501 -0.00000000000E+00 -0.00000000000E+00 -0.10203897390E+03  0.10203897390E+03  0.00000000000E+00 0.  1.
         23    2    1    2    0    0  0.32996824158E+02  0.25863741358E+03  0.93529312042E+03  0.97554059291E+03  0.94467588110E+02 0.  0.
        254    2    1    2    0    0 -0.32996824158E+02 -0.25863741358E+03  0.26923569108E+04  0.28561873862E+04  0.91708153800E+03 0.  0.
         23    2    4    4    0    0 -0.15547744432E+03 -0.76573996140E+02  0.48242034717E+02  0.20145213539E+03  0.90657908437E+02 0.  0.
         23    2    4    4    0    0  0.12248062016E+03 -0.18206341744E+03  0.26441148761E+04  0.26547352508E+04  0.90150891392E+02 0.  0.
          4    1    3    3  502    0  0.25173099837E+02  0.25855809002E+03  0.93110582391E+03  0.96666645033E+03  0.00000000000E+00 0. -1.
         -4    1    3    3    0  502  0.78237243209E+01  0.79323561629E-01  0.41872965045E+01  0.88741425779E+01  0.00000000000E+00 0.  1.
         11    1    5    5    0    0 -0.50865737231E+01 -0.25506757799E+02  0.32826143259E+02  0.41881065016E+02  0.00000000000E+00 0. -1.
        -11    1    5    5    0    0 -0.15039087059E+03 -0.51067238342E+02  0.15415891458E+02  0.15957107037E+03  0.00000000000E+00 0.  1.
          4    1    6    6  503    0 -0.44485651692E+01 -0.14946493538E+00  0.32629247527E+03  0.32632283323E+03  0.00000000000E+00 0. -1.
         -4    1    6    6    0  503  0.12692918533E+03 -0.18191395251E+03  0.23178224009E+04  0.23284124175E+04  0.00000000000E+00 0.  1.
<mgrwt>
<rscale>  0 0.12338130E+04</rscale>
<asrwt>0</asrwt>
<pdfrwt beam="1">  1        2 0.57379820E+00 0.12338130E+04</pdfrwt>
<pdfrwt beam="2">  1       -2 0.15698307E-01 0.12338130E+04</pdfrwt>
<totfact> 0.18293031E+01</totfact>
</mgrwt>
</event>
<event>
12    2  0.3751044E-008  0.1829586E+04  0.7818608E-02  0.8690722E-01
         -2   -1    0    0    0  501 -0.00000000000E+00  0.00000000000E+00  0.11149494829E+04  0.11149494829E+04  0.00000000000E+00 0.  1.
          2   -1    0    0  501    0  0.00000000000E+00 -0.00000000000E+00 -0.75056913636E+03  0.75056913636E+03  0.00000000000E+00 0. -1.
         23    2    1    2    0    0  0.51430109008E+03 -0.41675789914E+03 -0.55728969304E+02  0.67058686537E+03  0.91587489498E+02 0.  0.
        254    2    1    2    0    0 -0.51430109008E+03  0.41675789914E+03  0.42010931587E+03  0.11949317539E+04  0.90176343986E+03 0.  0.
         23    2    4    4    0    0 -0.96170981548E+02 -0.17055829075E+03  0.41617014086E+03  0.46832098100E+03  0.88249458163E+02 0.  0.
         23    2    4    4    0    0 -0.41813010853E+03  0.58731618989E+03  0.39391750090E+01  0.72661077291E+03  0.90413514718E+02 0.  0.
          3    1    3    3  502    0  0.50315641214E+03 -0.42126597773E+03 -0.55417137248E+02  0.65856089937E+03  0.00000000000E+00 0. -1.
         -3    1    3    3    0  502  0.11144677940E+02  0.45080785965E+01 -0.31183205666E+00  0.12025966001E+02  0.00000000000E+00 0.  1.
         11    1    5    5    0    0 -0.87023827297E+02 -0.14041537977E+03  0.40030376240E+03  0.43305049080E+03  0.00000000000E+00 0. -1.
        -11    1    5    5    0    0 -0.91471542512E+01 -0.30142910985E+02  0.15866378463E+02  0.35270490202E+02  0.00000000000E+00 0.  1.
          4    1    6    6  503    0 -0.23911085554E+03  0.26670153750E+03 -0.18899429711E+02  0.35869332275E+03  0.00000000000E+00 0. -1.
         -4    1    6    6    0  503 -0.17901925300E+03  0.32061465238E+03  0.22838604720E+02  0.36791745016E+03  0.00000000000E+00 0.  1.
<mgrwt>
<rscale>  0 0.18295865E+04</rscale>
<asrwt>0</asrwt>
<pdfrwt beam="1">  1        2 0.11547217E+00 0.18295865E+04</pdfrwt>
<pdfrwt beam="2">  1       -2 0.17153069E+00 0.18295865E+04</pdfrwt>
<totfact> 0.73299568E+00</totfact>
</mgrwt>
</event>
<event>
12    2  0.3751044E-008  0.1566863E+04  0.7818608E-02  0.8841168E-01
         -2   -1    0    0    0  501 -0.00000000000E+00  0.00000000000E+00  0.86038675636E+03  0.86038675636E+03  0.00000000000E+00 0.  1.
          2   -1    0    0  501    0  0.00000000000E+00 -0.00000000000E+00 -0.71335905776E+03  0.71335905776E+03  0.00000000000E+00 0. -1.
         23    2    1    2    0    0 -0.52124105030E+02 -0.43736018372E+03  0.32231506186E+03  0.55399485761E+03  0.94986580788E+02 0.  0.
        254    2    1    2    0    0  0.52124105030E+02  0.43736018372E+03 -0.17528736326E+03  0.10197509565E+04  0.90286516212E+03 0.  0.
         23    2    4    4    0    0  0.30989430190E+03 -0.12152618590E+03  0.67287938363E+02  0.35205228597E+03  0.92790372348E+02 0.  0.
         23    2    4    4    0    0 -0.25777019687E+03  0.55888636962E+03 -0.24257530162E+03  0.66769867055E+03  0.90439422589E+02 0.  0.
          1    1    3    3  502    0 -0.38075395951E+02 -0.11230133880E+03  0.46198832149E+02  0.12726216470E+03  0.00000000000E+00 0. -1.
         -1    1    3    3    0  502 -0.14048709079E+02 -0.32505884492E+03  0.27611622971E+03  0.42673269291E+03  0.00000000000E+00 0.  1.
         11    1    5    5    0    0  0.68599719622E+01  0.36297608200E+01  0.19165105426E+02  0.20676935095E+02  0.00000000000E+00 0. -1.
        -11    1    5    5    0    0  0.30303432994E+03 -0.12515594672E+03  0.48122832937E+02  0.33137535088E+03  0.00000000000E+00 0.  1.
          4    1    6    6  503    0 -0.68568743521E+02  0.23467480108E+03 -0.12333694548E+03  0.27383560209E+03  0.00000000000E+00 0. -1.
         -4    1    6    6    0  503 -0.18920145335E+03  0.32421156854E+03 -0.11923835614E+03  0.39386306846E+03  0.00000000000E+00 0.  1.
<mgrwt>
<rscale>  0 0.15668627E+04</rscale>
<asrwt>0</asrwt>
<pdfrwt beam="1">  1        2 0.10974755E+00 0.15668627E+04</pdfrwt>
<pdfrwt beam="2">  1       -2 0.13236719E+00 0.15668627E+04</pdfrwt>
<totfact> 0.15947034E+01</totfact>
</mgrwt>
</event>
<event>
12    2  0.3751044E-008  0.2096301E+04  0.7818608E-02  0.8562874E-01
         -2   -1    0    0    0  501 -0.00000000000E+00  0.00000000000E+00  0.36757991627E+03  0.36757991627E+03  0.00000000000E+00 0.  1.
          2   -1    0    0  501    0  0.00000000000E+00 -0.00000000000E+00 -0.29887914295E+04  0.29887914295E+04  0.00000000000E+00 0. -1.
         23    2    1    2    0    0  0.47129490421E+03  0.49265066306E+03 -0.18847757394E+04  0.20063822557E+04  0.91469150735E+02 0.  0.
        254    2    1    2    0    0 -0.47129490421E+03 -0.49265066306E+03 -0.73643577378E+03  0.13499890900E+04  0.90294481103E+03 0.  0.
         23    2    4    4    0    0 -0.10160539144E+03  0.17936776642E+03 -0.48982134800E+03  0.53907246489E+03  0.90430737321E+02 0.  0.
         23    2    4    4    0    0 -0.36968951278E+03 -0.67201842948E+03 -0.24661442578E+03  0.81091662514E+03  0.92130301799E+02 0.  0.
          4    1    3    3  502    0  0.21940578748E+03  0.16493740436E+03 -0.73837430450E+03  0.78774352456E+03  0.00000000000E+00 0. -1.
         -4    1    3    3    0  502  0.25188911673E+03  0.32771325870E+03 -0.11464014349E+04  0.12186387312E+04  0.00000000000E+00 0.  1.
         11    1    5    5    0    0 -0.11383044977E+03  0.13537607570E+03 -0.35298491021E+03  0.39481945241E+03  0.00000000000E+00 0.  1.
        -11    1    5    5    0    0  0.12225058333E+02  0.43991690719E+02 -0.13683643779E+03  0.14425301248E+03  0.00000000000E+00 0. -1.
          2    1    6    6  503    0 -0.24976935281E+03 -0.43529970635E+03 -0.20584642606E+03  0.54244199236E+03  0.00000000000E+00 0. -1.
         -2    1    6    6    0  503 -0.11992015997E+03 -0.23671872313E+03 -0.40767999718E+02  0.26847463278E+03  0.00000000000E+00 0.  1.
<mgrwt>
<rscale>  0 0.20963012E+04</rscale>
<asrwt>0</asrwt>
<pdfrwt beam="1">  1        2 0.45981408E+00 0.20963012E+04</pdfrwt>
<pdfrwt beam="2">  1       -2 0.56550755E-01 0.20963012E+04</pdfrwt>
<totfact> 0.47938653E+00</totfact>
</mgrwt>
</event>
<event>
12    2  0.3751044E-008  0.1401330E+04  0.7818608E-02  0.8952856E-01
          2   -1    0    0  501    0  0.00000000000E+00  0.00000000000E+00  0.16348630658E+04  0.16348630658E+04  0.00000000000E+00 0. -1.
         -2   -1    0    0    0  501 -0.00000000000E+00 -0.00000000000E+00 -0.30028921818E+03  0.30028921818E+03  0.00000000000E+00 0.  1.
         23    2    1    2    0    0 -0.15096312598E+02  0.38617264053E+03  0.22092972376E+03  0.45483404142E+03  0.93310532375E+02 0.  0.
        254    2    1    2    0    0  0.15096312598E+02 -0.38617264053E+03  0.11136441239E+04  0.14803182426E+04  0.89542261402E+03 0.  0.
         23    2    4    4    0    0 -0.37043169883E+03 -0.26267823252E+03  0.90236143188E+03  0.10143345293E+04  0.91645438160E+02 0.  0.
         23    2    4    4    0    0  0.38552801143E+03 -0.12349440800E+03  0.21128269203E+03  0.46598371325E+03  0.92831722260E+02 0.  0.
          3    1    3    3  502    0  0.35871852837E+01  0.29070231809E+03  0.20624285096E+03  0.35645030399E+03  0.00000000000E+00 0. -1.
         -3    1    3    3    0  502 -0.18683497882E+02  0.95470322436E+02  0.14686872801E+02  0.98383737436E+02  0.00000000000E+00 0.  1.
         11    1    5    5    0    0 -0.11701031057E+03 -0.56501393058E+02  0.33972379187E+03  0.36372527401E+03  0.00000000000E+00 0.  1.
        -11    1    5    5    0    0 -0.25342138827E+03 -0.20617683946E+03  0.56263764001E+03  0.65060925533E+03  0.00000000000E+00 0. -1.
          2    1    6    6  503    0  0.47420823111E+02 -0.13544817131E+02  0.64853723503E+02  0.81475161784E+02  0.00000000000E+00 0. -1.
         -2    1    6    6    0  503  0.33810718832E+03 -0.10994959087E+03  0.14642896852E+03  0.38450855147E+03  0.00000000000E+00 0.  1.
<mgrwt>
<rscale>  0 0.14013304E+04</rscale>
<asrwt>0</asrwt>
<pdfrwt beam="1">  1        2 0.25151739E+00 0.14013304E+04</pdfrwt>
<pdfrwt beam="2">  1       -2 0.46198342E-01 0.14013304E+04</pdfrwt>
<totfact> 0.46089516E+01</totfact>
</mgrwt>
</event>
<event>
12    2  0.3751044E-008  0.1741641E+04  0.7818608E-02  0.8737965E-01
         -1   -1    0    0    0  501 -0.00000000000E+00  0.00000000000E+00  0.51491311474E+03  0.51491311474E+03  0.00000000000E+00 0.  1.
          1   -1    0    0  501    0  0.00000000000E+00 -0.00000000000E+00 -0.14727311917E+04  0.14727311917E+04  0.00000000000E+00 0. -1.
         23    2    1    2    0    0 -0.35104492943E+03  0.97679044693E+02 -0.94751302871E+03  0.10192654745E+04  0.91364268876E+02 0.  0.
        254    2    1    2    0    0  0.35104492943E+03 -0.97679044693E+02 -0.10305048224E+02  0.96837883195E+03  0.89714972546E+03 0.  0.
         23    2    4    4    0    0 -0.16727664044E+03  0.13501792214E+02  0.29466351292E+03  0.35057098027E+03  0.88936232963E+02 0.  0.
         23    2    4    4    0    0  0.51832156987E+03 -0.11118083691E+03 -0.30496856114E+03  0.61780785168E+03  0.87534507624E+02 0.  0.
          1    1    3    3  502    0 -0.11716548027E+03  0.38012462275E+02 -0.44590319181E+03  0.46260388404E+03  0.00000000000E+00 0. -1.
         -1    1    3    3    0  502 -0.23387944916E+03  0.59666582418E+02 -0.50160983690E+03  0.55666159044E+03  0.00000000000E+00 0.  1.
         11    1    5    5    0    0 -0.30458209407E+02  0.38750426456E+02  0.58738527242E+02  0.76677980238E+02  0.00000000000E+00 0. -1.
        -11    1    5    5    0    0 -0.13681843103E+03 -0.25248634241E+02  0.23592498567E+03  0.27389300003E+03  0.00000000000E+00 0.  1.
          2    1    6    6  503    0  0.36858467845E+03 -0.39043960711E+02 -0.19895151798E+03  0.42066709232E+03  0.00000000000E+00 0.  1.
         -2    1    6    6    0  503  0.14973689142E+03 -0.72136876197E+02 -0.10601704316E+03  0.19714075936E+03  0.00000000000E+00 0. -1.
<mgrwt>
<rscale>  0 0.17416413E+04</rscale>
<asrwt>0</asrwt>
<pdfrwt beam="1">  1        1 0.22657403E+00 0.17416413E+04</pdfrwt>
<pdfrwt beam="2">  1       -1 0.79217403E-01 0.17416413E+04</pdfrwt>
<totfact> 0.10321856E+01</totfact>
</mgrwt>
</event>
<event>
12    2  0.3751044E-008  0.1319337E+04  0.7818608E-02  0.9014370E-01
         -1   -1    0    0    0  501 -0.00000000000E+00  0.00000000000E+00  0.41892370970E+03  0.41892370970E+03  0.00000000000E+00 0.  1.
          1   -1    0    0  501    0  0.00000000000E+00 -0.00000000000E+00 -0.10387630683E+04  0.10387630683E+04  0.00000000000E+00 0. -1.
         23    2    1    2    0    0 -0.21945824633E+03  0.97553355740E+02  0.11077848761E+03  0.27738339794E+03  0.83612780340E+02 0.  0.
        254    2    1    2    0    0  0.21945824633E+03 -0.97553355740E+02 -0.73061784626E+03  0.11803033801E+04  0.89534074671E+03 0.  0.
         23    2    4    4    0    0  0.55709823899E+03 -0.85770925187E+02 -0.51798124253E+03  0.77103759463E+03  0.92083143024E+02 0.  0.
         23    2    4    4    0    0 -0.33763999266E+03 -0.11782430553E+02 -0.21263660372E+03  0.40926578547E+03  0.90247258138E+02 0.  0.
          1    1    3    3  502    0 -0.16225302896E+03  0.77893215027E+02  0.11982578586E+03  0.21622122308E+03  0.00000000000E+00 0. -1.
         -1    1    3    3    0  502 -0.57205217372E+02  0.19660140713E+02 -0.90472982535E+01  0.61162174856E+02  0.00000000000E+00 0.  1.
         11    1    5    5    0    0  0.76672476851E+02 -0.41934670188E+02 -0.99203730328E+02  0.13220652549E+03  0.00000000000E+00 0.  1.
        -11    1    5    5    0    0  0.48042576214E+03 -0.43836254999E+02 -0.41877751221E+03  0.63883106915E+03  0.00000000000E+00 0. -1.
          3    1    6    6  503    0 -0.29583017077E+03 -0.38523075018E+02 -0.19586358448E+03  0.35687821588E+03  0.00000000000E+00 0. -1.
         -3    1    6    6    0  503 -0.41809821893E+02  0.26740644465E+02 -0.16773019245E+02  0.52387569592E+02  0.00000000000E+00 0.  1.
<mgrwt>
<rscale>  0 0.13193369E+04</rscale>
<asrwt>0</asrwt>
<pdfrwt beam="1">  1        1 0.15980970E+00 0.13193369E+04</pdfrwt>
<pdfrwt beam="2">  1       -1 0.64449803E-01 0.13193369E+04</pdfrwt>
<totfact> 0.33814870E+01</totfact>
</mgrwt>
</event>
<event>
12    2  0.3751044E-008  0.1194013E+04  0.7818608E-02  0.9118113E-01
         -2   -1    0    0    0  501 -0.00000000000E+00  0.00000000000E+00  0.40708669820E+03  0.40708669820E+03  0.00000000000E+00 0.  1.
          2   -1    0    0  501    0  0.00000000000E+00 -0.00000000000E+00 -0.87553073831E+03  0.87553073831E+03  0.00000000000E+00 0. -1.
         23    2    1    2    0    0 -0.21142647889E+03  0.83042695675E+02  0.13596206218E+02  0.24541046839E+03  0.91892305923E+02 0.  0.
        254    2    1    2    0    0  0.21142647889E+03 -0.83042695675E+02 -0.48204024633E+03  0.10372069681E+04  0.88985293750E+03 0.  0.
         23    2    4    4    0    0  0.50611375391E+03 -0.22129678066E+03 -0.40377888300E+03  0.69032174501E+03  0.91560516875E+02 0.  0.
         23    2    4    4    0    0 -0.29468727501E+03  0.13825408498E+03 -0.78261363328E+02  0.34688522312E+03  0.90828051628E+02 0.  0.
          1    1    3    3  502    0 -0.11294869780E+03  0.90346697294E+02 -0.58934103195E+01  0.14475726694E+03  0.00000000000E+00 0. -1.
         -1    1    3    3    0  502 -0.98477781092E+02 -0.73040016188E+01  0.19489616537E+02  0.10065320145E+03  0.00000000000E+00 0.  1.
         11    1    5    5    0    0  0.28012048401E+03 -0.74083546804E+02 -0.22298320244E+03  0.36561915436E+03  0.00000000000E+00 0. -1.
        -11    1    5    5    0    0  0.22599326990E+03 -0.14721323385E+03 -0.18079568056E+03  0.32470259064E+03  0.00000000000E+00 0.  1.
          3    1    6    6  503    0 -0.18864705823E+02  0.65636345941E+01 -0.32049163951E+02  0.37763836336E+02  0.00000000000E+00 0. -1.
         -3    1    6    6    0  503 -0.27582256919E+03  0.13169045039E+03 -0.46212199377E+02  0.30912138679E+03  0.00000000000E+00 0.  1.
<mgrwt>
<rscale>  0 0.11940133E+04</rscale>
<asrwt>0</asrwt>
<pdfrwt beam="1">  1        2 0.13469704E+00 0.11940133E+04</pdfrwt>
<pdfrwt beam="2">  1       -2 0.62628723E-01 0.11940133E+04</pdfrwt>
<totfact> 0.71134102E+01</totfact>
</mgrwt>
</event>
<event>
12    2  0.3751044E-008  0.1637490E+04  0.7818608E-02  0.8797842E-01
          1   -1    0    0  501    0  0.00000000000E+00  0.00000000000E+00  0.24439936464E+04  0.24439936464E+04  0.00000000000E+00 0. -1.
         -1   -1    0    0    0  501 -0.00000000000E+00 -0.00000000000E+00 -0.27428184558E+03  0.27428184558E+03  0.00000000000E+00 0.  1.
         23    2    1    2    0    0  0.30662891481E+03  0.54365691963E+02 -0.23444057230E+02  0.32521843175E+03  0.90777115345E+02 0.  0.
        254    2    1    2    0    0 -0.30662891481E+03 -0.54365691963E+02  0.21931558580E+04  0.23930570602E+04  0.90543500922E+03 0.  0.
         23    2    4    4    0    0 -0.17204984280E+03  0.36838371822E+03  0.55623829667E+03  0.69464047798E+03  0.88411756672E+02 0.  0.
         23    2    4    4    0    0 -0.13457907200E+03 -0.42274941018E+03  0.16369175614E+04  0.16984165822E+04  0.91055991776E+02 0.  0.
          4    1    3    3  502    0 -0.13856007201E+01  0.11933482200E+02 -0.69020447893E+01  0.13855183472E+02  0.00000000000E+00 0. -1.
         -4    1    3    3    0  502  0.30801451553E+03  0.42432209763E+02 -0.16542012441E+02  0.31136324827E+03  0.00000000000E+00 0.  1.
         11    1    5    5    0    0  0.68111989142E+01  0.27789008606E+02  0.62372120729E+02  0.68621446168E+02  0.00000000000E+00 0. -1.
        -11    1    5    5    0    0 -0.17886104172E+03  0.34059470961E+03  0.49386617594E+03  0.62601903181E+03  0.00000000000E+00 0.  1.
          4    1    6    6  503    0 -0.54228623777E+02 -0.69434504033E+02  0.25517709748E+03  0.26995785795E+03  0.00000000000E+00 0. -1.
         -4    1    6    6    0  503 -0.80350448226E+02 -0.35331490615E+03  0.13817404639E+04  0.14284587243E+04  0.00000000000E+00 0.  1.
<mgrwt>
<rscale>  0 0.16374896E+04</rscale>
<asrwt>0</asrwt>
<pdfrwt beam="1">  1        1 0.37599901E+00 0.16374896E+04</pdfrwt>
<pdfrwt beam="2">  1       -1 0.42197209E-01 0.16374896E+04</pdfrwt>
<totfact> 0.78342208E+00</totfact>
</mgrwt>
</event>
<event>
12    2  0.3751044E-008  0.3522788E+04  0.7818608E-02  0.8108411E-01
         -1   -1    0    0    0  501 -0.00000000000E+00  0.00000000000E+00  0.12849851022E+04  0.12849851022E+04  0.00000000000E+00 0.  1.
          1   -1    0    0  501    0  0.00000000000E+00 -0.00000000000E+00 -0.24144323162E+04  0.24144323162E+04  0.00000000000E+00 0. -1.
         23    2    1    2    0    0 -0.45935416825E+01 -0.16392911430E+04 -0.41874019897E+03  0.16945205123E+04  0.93594125511E+02 0.  0.
        254    2    1    2    0    0  0.45935416825E+01  0.16392911430E+04 -0.71070701504E+03  0.20048969060E+04  0.90951118208E+03 0.  0.
         23    2    4    4    0    0  0.71534982772E+02 -0.16126262137E+02 -0.25978862475E+03  0.28523782019E+03  0.92158420275E+02 0.  0.
         23    2    4    4    0    0 -0.66941441090E+02  0.16554174052E+04 -0.45091839030E+03  0.17196590858E+04  0.94931738320E+02 0.  0.
          1    1    3    3  502    0  0.56770868974E+01 -0.12430602588E+04 -0.27688628532E+03  0.12735372203E+04  0.00000000000E+00 0. -1.
         -1    1    3    3    0  502 -0.10270628580E+02 -0.39623088420E+03 -0.14185391365E+03  0.42098329209E+03  0.00000000000E+00 0.  1.
         11    1    5    5    0    0  0.36031178663E+02 -0.27478849507E+02 -0.23754990925E+03  0.24183319125E+03  0.00000000000E+00 0. -1.
        -11    1    5    5    0    0  0.35503804109E+02  0.11352587370E+02 -0.22238715494E+02  0.43404628935E+02  0.00000000000E+00 0.  1.
          2    1    6    6  503    0 -0.34444025199E+02  0.10985048841E+04 -0.25353515990E+03  0.11279093264E+04  0.00000000000E+00 0. -1.
         -2    1    6    6    0  503 -0.32497415891E+02  0.55691252102E+03 -0.19738323039E+03  0.59174975940E+03  0.00000000000E+00 0.  1.
<mgrwt>
<rscale>  0 0.35227884E+04</rscale>
<asrwt>0</asrwt>
<pdfrwt beam="1">  1        1 0.37145112E+00 0.35227884E+04</pdfrwt>
<pdfrwt beam="2">  1       -1 0.19769002E+00 0.35227884E+04</pdfrwt>
<totfact> 0.19740622E-01</totfact>
</mgrwt>
</event>
<event>
12    2  0.3751044E-008  0.2020160E+04  0.7818608E-02  0.8597253E-01
          2   -1    0    0  501    0  0.00000000000E+00  0.00000000000E+00  0.16855261817E+04  0.16855261817E+04  0.00000000000E+00 0. -1.
         -2   -1    0    0    0  501 -0.00000000000E+00 -0.00000000000E+00 -0.60530775235E+03  0.60530775235E+03  0.00000000000E+00 0.  1.
         23    2    1    2    0    0  0.36039941911E+03  0.71461902346E+03  0.53762416912E+03  0.96832956703E+03  0.89745825418E+02 0.  0.
        254    2    1    2    0    0 -0.36039941911E+03 -0.71461902346E+03  0.54259426021E+03  0.13225043670E+04  0.90224230644E+03 0.  0.
         23    2    4    4    0    0 -0.44280806254E+03 -0.76541646422E+03  0.68934186504E+03  0.11245657177E+04  0.86686230285E+02 0.  0.
         23    2    4    4    0    0  0.82408643433E+02  0.50797440759E+02 -0.14674760483E+03  0.19793864932E+03  0.90957599310E+02 0.  0.
          4    1    3    3  502    0  0.99867535114E+02  0.14190873651E+03  0.14964036084E+03  0.22913718961E+03  0.00000000000E+00 0. -1.
         -4    1    3    3    0  502  0.26053188399E+03  0.57271028695E+03  0.38798380827E+03  0.73919237742E+03  0.00000000000E+00 0.  1.
         11    1    5    5    0    0 -0.16177876078E+03 -0.33807442109E+03  0.25220787434E+03  0.45174715662E+03  0.00000000000E+00 0.  1.
        -11    1    5    5    0    0 -0.28102930176E+03 -0.42734204313E+03  0.43713399070E+03  0.67281856105E+03  0.00000000000E+00 0. -1.
          3    1    6    6  503    0  0.48319014505E+02 -0.13056986445E+02 -0.24165488189E+02  0.55580418109E+02  0.00000000000E+00 0. -1.
         -3    1    6    6    0  503  0.34089628927E+02  0.63854427204E+02 -0.12258211664E+03  0.14235823121E+03  0.00000000000E+00 0.  1.
<mgrwt>
<rscale>  0 0.20201605E+04</rscale>
<asrwt>0</asrwt>
<pdfrwt beam="1">  1        2 0.25931172E+00 0.20201605E+04</pdfrwt>
<pdfrwt beam="2">  1       -2 0.93124270E-01 0.20201605E+04</pdfrwt>
<totfact> 0.90482596E+00</totfact>
</mgrwt>
</event>
<event>
12    2  0.3751044E-008  0.2394519E+04  0.7818608E-02  0.8441558E-01
          2   -1    0    0  501    0  0.00000000000E+00  0.00000000000E+00  0.23968560931E+04  0.23968560931E+04  0.00000000000E+00 0. -1.
         -2   -1    0    0    0  501 -0.00000000000E+00 -0.00000000000E+00 -0.59804617069E+03  0.59804617069E+03  0.00000000000E+00 0.  1.
         23    2    1    2    0    0  0.35188706983E+03 -0.18671932087E+02 -0.43102234568E+03  0.56437661571E+03  0.92561065875E+02 0.  0.
        254    2    1    2    0    0 -0.35188706983E+03  0.18671932087E+02  0.22298322681E+04  0.24305256481E+04  0.90062746526E+03 0.  0.
         23    2    4    4    0    0  0.26627171827E+03  0.95445280685E+01  0.34773549431E+03  0.44733334919E+03  0.90528588434E+02 0.  0.
         23    2    4    4    0    0 -0.61815878810E+03  0.91274040182E+01  0.18820967738E+04  0.19831922989E+04  0.92519358440E+02 0.  0.
          4    1    3    3  502    0  0.25406138940E+03  0.27129101839E+02 -0.28532429535E+03  0.38300539326E+03  0.00000000000E+00 0.  1.
         -4    1    3    3    0  502  0.97825680436E+02 -0.45801033925E+02 -0.14569805034E+03  0.18137122245E+03  0.00000000000E+00 0. -1.
         11    1    5    5    0    0  0.16456444857E+03  0.44749585590E+02  0.17933627347E+03  0.24747824576E+03  0.00000000000E+00 0. -1.
        -11    1    5    5    0    0  0.10170726971E+03 -0.35205057522E+02  0.16839922084E+03  0.19985510343E+03  0.00000000000E+00 0.  1.
          2    1    6    6  503    0 -0.49310039807E+03 -0.21335629698E+02  0.15643834825E+04  0.16403959558E+04  0.00000000000E+00 0. -1.
         -2    1    6    6    0  503 -0.12505839003E+03  0.30463033717E+02  0.31771329129E+03  0.34279634304E+03  0.00000000000E+00 0.  1.
<mgrwt>
<rscale>  0 0.23945192E+04</rscale>
<asrwt>0</asrwt>
<pdfrwt beam="1">  1        2 0.36874709E+00 0.23945192E+04</pdfrwt>
<pdfrwt beam="2">  1       -2 0.92007104E-01 0.23945192E+04</pdfrwt>
<totfact> 0.36059189E+00</totfact>
</mgrwt>
</event>
<event>
12    2  0.3751044E-008  0.1429402E+04  0.7818608E-02  0.8932806E-01
         -1   -1    0    0    0  501 -0.00000000000E+00  0.00000000000E+00  0.56280223341E+03  0.56280223341E+03  0.00000000000E+00 0.  1.
          1   -1    0    0  501    0  0.00000000000E+00 -0.00000000000E+00 -0.90759716585E+03  0.90759716585E+03  0.00000000000E+00 0. -1.
         23    2    1    2    0    0 -0.83942873793E+02  0.31564009522E+03  0.22400903912E+03  0.40686011072E+03  0.93166648098E+02 0.  0.
        254    2    1    2    0    0  0.83942873793E+02 -0.31564009522E+03 -0.56880397157E+03  0.10635392885E+04  0.83719936957E+03 0.  0.
         23    2    4    4    0    0  0.27955148755E+03  0.63453152720E+02 -0.55108050309E+03  0.62760853854E+03  0.89595870356E+02 0.  0.
         23    2    4    4    0    0 -0.19560861375E+03 -0.37909324794E+03 -0.17723468477E+02  0.43593074999E+03  0.88017481461E+02 0.  0.
          4    1    3    3  502    0  0.86571549780E+01 -0.14500456527E+01  0.97761279341E+01  0.13138555556E+02  0.00000000000E+00 0. -1.
         -4    1    3    3    0  502 -0.92600028771E+02  0.31709014087E+03  0.21423291119E+03  0.39372155517E+03  0.00000000000E+00 0.  1.
         11    1    5    5    0    0  0.14618071990E+03  0.77801757263E+02 -0.28459595051E+03  0.32926702135E+03  0.00000000000E+00 0.  1.
        -11    1    5    5    0    0  0.13337076765E+03 -0.14348604543E+02 -0.26648455258E+03  0.29834151719E+03  0.00000000000E+00 0. -1.
          3    1    6    6  503    0  0.44993196826E+01 -0.38450067201E+02 -0.12982994900E+02  0.40831479301E+02  0.00000000000E+00 0. -1.
         -3    1    6    6    0  503 -0.20010793344E+03 -0.34064318074E+03 -0.47404735774E+01  0.39509927069E+03  0.00000000000E+00 0.  1.
<mgrwt>
<rscale>  0 0.14294023E+04</rscale>
<asrwt>0</asrwt>
<pdfrwt beam="1">  1        1 0.13963033E+00 0.14294023E+04</pdfrwt>
<pdfrwt beam="2">  1       -1 0.86584959E-01 0.14294023E+04</pdfrwt>
<totfact> 0.22955771E+01</totfact>
</mgrwt>
</event>
<event>
12    2  0.3751044E-008  0.1095948E+04  0.7818608E-02  0.9209150E-01
          2   -1    0    0  501    0  0.00000000000E+00  0.00000000000E+00  0.15852060324E+04  0.15852060324E+04  0.00000000000E+00 0. -1.
         -2   -1    0    0    0  501 -0.00000000000E+00 -0.00000000000E+00 -0.18942373202E+03  0.18942373202E+03  0.00000000000E+00 0.  1.
         23    2    1    2    0    0  0.83333121210E+02  0.75769087711E+02  0.51986966011E+02  0.15454981020E+03  0.92182620128E+02 0.  0.
        254    2    1    2    0    0 -0.83333121210E+02 -0.75769087711E+02  0.13437953344E+04  0.16200799542E+04  0.89787960980E+03 0.  0.
         23    2    4    4    0    0  0.11568108191E+03  0.33764168056E+03  0.91207649727E+03  0.98379432740E+03  0.92648392339E+02 0.  0.
         23    2    4    4    0    0 -0.19901420312E+03 -0.41341076827E+03  0.43171883711E+03  0.63628562683E+03  0.89236361635E+02 0.  0.
          2    1    3    3  502    0 -0.11801040295E+02  0.46828667010E+01 -0.13828314248E+02  0.18772748002E+02  0.00000000000E+00 0. -1.
         -2    1    3    3    0  502  0.95134161505E+02  0.71086221010E+02  0.65815280259E+02  0.13577706219E+03  0.00000000000E+00 0.  1.
         11    1    5    5    0    0  0.11436578399E+03  0.29838565417E+03  0.86695408124E+03  0.92397127127E+03  0.00000000000E+00 0. -1.
        -11    1    5    5    0    0  0.13152979164E+01  0.39256026390E+02  0.45122416028E+02  0.59823056130E+02  0.00000000000E+00 0.  1.
          3    1    6    6  503    0 -0.10717375836E+03 -0.30125335012E+03  0.26441327658E+03  0.41491466143E+03  0.00000000000E+00 0. -1.
         -3    1    6    6    0  503 -0.91840444764E+02 -0.11215741815E+03  0.16730556052E+03  0.22137096540E+03  0.00000000000E+00 0.  1.
<mgrwt>
<rscale>  0 0.10959483E+04</rscale>
<asrwt>0</asrwt>
<pdfrwt beam="1">  1        2 0.24387784E+00 0.10959483E+04</pdfrwt>
<pdfrwt beam="2">  1       -2 0.29142114E-01 0.10959483E+04</pdfrwt>
<totfact> 0.12212473E+02</totfact>
</mgrwt>
</event>
<event>
12    2  0.3751044E-008  0.1661942E+04  0.7818608E-02  0.8783373E-01
         -2   -1    0    0    0  501 -0.00000000000E+00  0.00000000000E+00  0.23544404319E+03  0.23544404319E+03  0.00000000000E+00 0.  1.
          2   -1    0    0  501    0  0.00000000000E+00 -0.00000000000E+00 -0.29328106483E+04  0.29328106483E+04  0.00000000000E+00 0. -1.
         23    2    1    2    0    0 -0.55861579898E+03 -0.15917152069E+03 -0.83762559849E+03  0.10234478487E+04  0.91878570895E+02 0.  0.
        254    2    1    2    0    0  0.55861579898E+03  0.15917152069E+03 -0.18597410066E+04  0.21448068428E+04  0.89675671030E+03 0.  0.
         23    2    4    4    0    0  0.54151984216E+03  0.43633595984E+03 -0.16256127199E+04  0.17703906738E+04  0.89630426993E+02 0.  0.
         23    2    4    4    0    0  0.17095956827E+02 -0.27716443915E+03 -0.23412828670E+03  0.37441616902E+03  0.90879122603E+02 0.  0.
          4    1    3    3  502    0 -0.84776916533E+02 -0.64888521278E-01 -0.85703063070E+02  0.12054934594E+03  0.00000000000E+00 0. -1.
         -4    1    3    3    0  502 -0.47383888245E+03 -0.15910663217E+03 -0.75192253542E+03  0.90289850271E+03  0.00000000000E+00 0.  1.
         11    1    5    5    0    0  0.66435092835E+02  0.19790273323E+02 -0.16597704672E+03  0.17987122204E+03  0.00000000000E+00 0.  1.
        -11    1    5    5    0    0  0.47508474932E+03  0.41654568651E+03 -0.14596356731E+04  0.15905194517E+04  0.00000000000E+00 0. -1.
          2    1    6    6  503    0  0.16756430566E+02 -0.27684936579E+03 -0.20403798737E+03  0.34432230481E+03  0.00000000000E+00 0. -1.
         -2    1    6    6    0  503  0.33952626089E+00 -0.31507336092E+00 -0.30090299330E+02  0.30093864210E+02  0.00000000000E+00 0.  1.
<mgrwt>
<rscale>  0 0.16619420E+04</rscale>
<asrwt>0</asrwt>
<pdfrwt beam="1">  1        2 0.45120166E+00 0.16619420E+04</pdfrwt>
<pdfrwt beam="2">  1       -2 0.36222159E-01 0.16619420E+04</pdfrwt>
<totfact> 0.13186022E+01</totfact>
</mgrwt>
</event>
<event>
12    2  0.3751044E-008  0.1758656E+04  0.7818608E-02  0.8728600E-01
         -2   -1    0    0    0  501 -0.00000000000E+00  0.00000000000E+00  0.51319494421E+03  0.51319494421E+03  0.00000000000E+00 0.  1.
          2   -1    0    0  501    0  0.00000000000E+00 -0.00000000000E+00 -0.15066742203E+04  0.15066742203E+04  0.00000000000E+00 0. -1.
         23    2    1    2    0    0 -0.37199198757E+03 -0.29073114403E+03 -0.73632697420E+03  0.87943522701E+03  0.91248389877E+02 0.  0.
        254    2    1    2    0    0  0.37199198757E+03  0.29073114403E+03 -0.25715230187E+03  0.11404339375E+04  0.10057632040E+04 0.  0.
         23    2    4    4    0    0 -0.33789682437E+03  0.13599814047E+03 -0.12471121992E+03  0.39609336181E+03  0.93098360691E+02 0.  0.
         23    2    4    4    0    0  0.70988881195E+03  0.15473300356E+03 -0.13244108195E+03  0.74434057566E+03  0.92832239384E+02 0.  0.
          3    1    3    3  502    0 -0.24067496325E+03 -0.23046734990E+03 -0.46549452313E+03  0.57247252193E+03  0.00000000000E+00 0. -1.
         -3    1    3    3    0  502 -0.13131702433E+03 -0.60263794139E+02 -0.27083245106E+03  0.30696270508E+03  0.00000000000E+00 0.  1.
         11    1    5    5    0    0 -0.33520579650E+03  0.13974608012E+03 -0.13287666313E+03  0.38671449484E+03  0.00000000000E+00 0. -1.
        -11    1    5    5    0    0 -0.26910278717E+01 -0.37479396521E+01  0.81654432151E+01  0.93788669647E+01  0.00000000000E+00 0.  1.
          1    1    6    6  503    0  0.52784967276E+03  0.93616875714E+02 -0.13290214471E+03  0.55231546829E+03  0.00000000000E+00 0. -1.
         -1    1    6    6    0  503  0.18203913919E+03  0.61116127850E+02  0.46106276499E+00  0.19202510737E+03  0.00000000000E+00 0.  1.
<mgrwt>
<rscale>  0 0.17586558E+04</rscale>
<asrwt>0</asrwt>
<pdfrwt beam="1">  1        2 0.23179603E+00 0.17586558E+04</pdfrwt>
<pdfrwt beam="2">  1       -2 0.78953069E-01 0.17586558E+04</pdfrwt>
<totfact> 0.16970831E+01</totfact>
</mgrwt>
</event>
<event>
12    2  0.3751044E-008  0.2099139E+04  0.7818608E-02  0.8561623E-01
         -2   -1    0    0    0  501 -0.00000000000E+00  0.00000000000E+00  0.70245549063E+03  0.70245549063E+03  0.00000000000E+00 0.  1.
          2   -1    0    0  501    0  0.00000000000E+00 -0.00000000000E+00 -0.15682071863E+04  0.15682071863E+04  0.00000000000E+00 0. -1.
         23    2    1    2    0    0 -0.62559526694E+03  0.17534367778E+03  0.24384822724E+03  0.70002555628E+03  0.91972703326E+02 0.  0.
        254    2    1    2    0    0  0.62559526694E+03 -0.17534367778E+03 -0.11095999229E+04  0.15706371207E+04  0.90198344359E+03 0.  0.
         23    2    4    4    0    0  0.44412002564E+03  0.33331411239E+03 -0.53959666624E+03  0.77968922019E+03  0.91705088023E+02 0.  0.
         23    2    4    4    0    0  0.18147524131E+03 -0.50865779017E+03 -0.57000325667E+03  0.79094790047E+03  0.95020302778E+02 0.  0.
          2    1    3    3  502    0 -0.29518185746E+03  0.10430000712E+03  0.73601301016E+02  0.32160219522E+03  0.00000000000E+00 0. -1.
         -2    1    3    3    0  502 -0.33041340948E+03  0.71043670660E+02  0.17024692622E+03  0.37842336106E+03  0.00000000000E+00 0.  1.
         11    1    5    5    0    0  0.22530192949E+02  0.26199157262E+02 -0.69051716028E+02  0.77214926808E+02  0.00000000000E+00 0. -1.
        -11    1    5    5    0    0  0.42158983269E+03  0.30711495513E+03 -0.47054495021E+03  0.70247429338E+03  0.00000000000E+00 0.  1.
          3    1    6    6  503    0  0.98917135008E+02 -0.30661373098E+03 -0.40399284055E+03  0.51672700223E+03  0.00000000000E+00 0. -1.
         -3    1    6    6    0  503  0.82558106298E+02 -0.20204405919E+03 -0.16601041612E+03  0.27422089824E+03  0.00000000000E+00 0.  1.
<mgrwt>
<rscale>  0 0.20991386E+04</rscale>
<asrwt>0</asrwt>
<pdfrwt beam="1">  1        2 0.24126264E+00 0.20991386E+04</pdfrwt>
<pdfrwt beam="2">  1       -2 0.10807008E+00 0.20991386E+04</pdfrwt>
<totfact> 0.73443812E+00</totfact>
</mgrwt>
</event>
<event>
12    2  0.3751044E-008  0.2673219E+04  0.7818608E-02  0.8343747E-01
          2   -1    0    0  501    0  0.00000000000E+00  0.00000000000E+00  0.18074752909E+04  0.18074752909E+04  0.00000000000E+00 0. -1.
         -2   -1    0    0    0  501 -0.00000000000E+00 -0.00000000000E+00 -0.98840876602E+03  0.98840876602E+03  0.00000000000E+00 0.  1.
         23    2    1    2    0    0 -0.43664150664E+03 -0.10108698384E+04  0.80680279175E+03  0.13681487159E+04  0.91577991473E+02 0.  0.
        254    2    1    2    0    0  0.43664150664E+03  0.10108698384E+04  0.12263733166E+02  0.14277353411E+04  0.90871567042E+03 0.  0.
         23    2    4    4    0    0  0.43314761967E+02  0.84385170252E+03  0.30392883521E+03  0.90228127355E+03  0.88186706908E+02 0.  0.
         23    2    4    4    0    0  0.39332674467E+03  0.16701813583E+03 -0.29166510205E+03  0.52545406755E+03  0.91828424677E+02 0.  0.
          3    1    3    3  502    0 -0.43616174875E+03 -0.96758452835E+03  0.76869242373E+03  0.13104750791E+04  0.00000000000E+00 0. -1.
         -3    1    3    3    0  502 -0.47975789441E+00 -0.43285310004E+02  0.38110368018E+02  0.57673636787E+02  0.00000000000E+00 0.  1.
         11    1    5    5    0    0  0.39149448560E+02  0.75336057077E+03  0.24083691649E+03  0.79188840708E+03  0.00000000000E+00 0. -1.
        -11    1    5    5    0    0  0.41653134074E+01  0.90491131752E+02  0.63091918716E+02  0.11039286648E+03  0.00000000000E+00 0.  1.
          3    1    6    6  503    0  0.39304179132E+03  0.16303669984E+03 -0.27117264150E+03  0.50457647261E+03  0.00000000000E+00 0. -1.
         -3    1    6    6    0  503  0.28495335537E+00  0.39814359873E+01 -0.20492460546E+02  0.20877594932E+02  0.00000000000E+00 0.  1.
<mgrwt>
<rscale>  0 0.26732186E+04</rscale>
<asrwt>0</asrwt>
<pdfrwt beam="1">  1        2 0.27807312E+00 0.26732186E+04</pdfrwt>
<pdfrwt beam="2">  1       -2 0.15206289E+00 0.26732186E+04</pdfrwt>
<totfact> 0.21714713E+00</totfact>
</mgrwt>
</event>
<event>
12    2  0.3751044E-008  0.1407343E+04  0.7818608E-02  0.8948520E-01
          2   -1    0    0  501    0  0.00000000000E+00  0.00000000000E+00  0.95770038775E+03  0.95770038775E+03  0.00000000000E+00 0. -1.
         -2   -1    0    0    0  501 -0.00000000000E+00 -0.00000000000E+00 -0.51702371292E+03  0.51702371292E+03  0.00000000000E+00 0.  1.
         23    2    1    2    0    0 -0.35227283278E+03 -0.20366271957E+03  0.10657958448E+03  0.43026689107E+03  0.90530313527E+02 0.  0.
        254    2    1    2    0    0  0.35227283278E+03  0.20366271957E+03  0.33409709035E+03  0.10444572096E+04  0.90205063319E+03 0.  0.
         23    2    4    4    0    0 -0.65627561333E+02  0.43125668284E+03 -0.16814314345E+02  0.44636533767E+03  0.93112782165E+02 0.  0.
         23    2    4    4    0    0  0.41790039411E+03 -0.22759396327E+03  0.35091140470E+03  0.59809187193E+03  0.90196018812E+02 0.  0.
          4    1    3    3  502    0 -0.28945391861E+03 -0.13878861645E+03  0.11152079881E+03  0.33982751451E+03  0.00000000000E+00 0.  1.
         -4    1    3    3    0  502 -0.62818914174E+02 -0.64874103116E+02 -0.49412143292E+01  0.90439376558E+02  0.00000000000E+00 0. -1.
         11    1    5    5    0    0 -0.77020374808E+02  0.41931988429E+03 -0.55222649532E+01  0.42637049488E+03  0.00000000000E+00 0.  1.
        -11    1    5    5    0    0  0.11392813476E+02  0.11936798554E+02 -0.11292049392E+02  0.19994842787E+02  0.00000000000E+00 0. -1.
          3    1    6    6  503    0  0.89698716732E+01 -0.69833598575E+01  0.33513252183E+02  0.35388755059E+02  0.00000000000E+00 0. -1.
         -3    1    6    6    0  503  0.40893052244E+03 -0.22061060341E+03  0.31739815251E+03  0.56270311687E+03  0.00000000000E+00 0.  1.
<mgrwt>
<rscale>  0 0.14073433E+04</rscale>
<asrwt>0</asrwt>
<pdfrwt beam="1">  1        2 0.14733852E+00 0.14073433E+04</pdfrwt>
<pdfrwt beam="2">  1       -2 0.79542110E-01 0.14073433E+04</pdfrwt>
<totfact> 0.36564177E+01</totfact>
</mgrwt>
</event>
<event>
12    2  0.3751044E-008  0.1436939E+04  0.7818608E-02  0.8927506E-01
          1   -1    0    0  501    0  0.00000000000E+00  0.00000000000E+00  0.77620711562E+03  0.77620711562E+03  0.00000000000E+00 0. -1.
         -1   -1    0    0    0  501 -0.00000000000E+00 -0.00000000000E+00 -0.66502710048E+03  0.66502710048E+03  0.00000000000E+00 0.  1.
         23    2    1    2    0    0 -0.19939521203E+03 -0.31580329131E+03  0.23984521878E+03  0.45324025208E+03  0.91710565114E+02 0.  0.
        254    2    1    2    0    0  0.19939521203E+03  0.31580329131E+03 -0.12866520364E+03  0.98799396402E+03  0.90558664352E+03 0.  0.
         23    2    4    4    0    0  0.14354263720E+03 -0.23198852182E+03  0.19069800114E+03  0.34571351274E+03  0.93428808731E+02 0.  0.
         23    2    4    4    0    0  0.55852574827E+02  0.54779181314E+03 -0.31936320478E+03  0.64228045128E+03  0.85650107247E+02 0.  0.
          1    1    3    3  502    0 -0.14992978503E+03 -0.25563782572E+03  0.14328413995E+03  0.32918077577E+03  0.00000000000E+00 0. -1.
         -1    1    3    3    0  502 -0.49465427000E+02 -0.60165465598E+02  0.96561078825E+02  0.12405947631E+03  0.00000000000E+00 0.  1.
         11    1    5    5    0    0  0.15535072883E+03 -0.19773735634E+03  0.15852712040E+03  0.29726210480E+03  0.00000000000E+00 0. -1.
        -11    1    5    5    0    0 -0.11808091634E+02 -0.34251165478E+02  0.32170880735E+02  0.48451407945E+02  0.00000000000E+00 0.  1.
          3    1    6    6  503    0 -0.20711000174E+02  0.10193351064E+03 -0.73870233306E+02  0.12757820146E+03  0.00000000000E+00 0. -1.
         -3    1    6    6    0  503  0.76563575000E+02  0.44585830249E+03 -0.24549297147E+03  0.51470224981E+03  0.00000000000E+00 0.  1.
<mgrwt>
<rscale>  0 0.14369395E+04</rscale>
<asrwt>0</asrwt>
<pdfrwt beam="1">  1        1 0.11941648E+00 0.14369395E+04</pdfrwt>
<pdfrwt beam="2">  1       -1 0.10231186E+00 0.14369395E+04</pdfrwt>
<totfact> 0.20406181E+01</totfact>
</mgrwt>
</event>
<event>
12    2  0.3751044E-008  0.1337296E+04  0.7818608E-02  0.9000501E-01
         -2   -1    0    0    0  501 -0.00000000000E+00  0.00000000000E+00  0.18851868194E+04  0.18851868194E+04  0.00000000000E+00 0.  1.
          2   -1    0    0  501    0  0.00000000000E+00 -0.00000000000E+00 -0.23715975846E+03  0.23715975846E+03  0.00000000000E+00 0. -1.
         23    2    1    2    0    0 -0.90126689164E+02  0.54858363053E+02  0.98936353980E+03  0.99920659118E+03  0.91876753645E+02 0.  0.
        254    2    1    2    0    0  0.90126689164E+02 -0.54858363053E+02  0.65866352116E+03  0.11231399867E+04  0.90358925156E+03 0.  0.
         23    2    4    4    0    0  0.37126437100E+03 -0.72860029313E+02 -0.12017116543E+02  0.38997481852E+03  0.93755698185E+02 0.  0.
         23    2    4    4    0    0 -0.28113768184E+03  0.18001666260E+02  0.67068063770E+03  0.73316516818E+03  0.91412197807E+02 0.  0.
          3    1    3    3  502    0 -0.33824482043E+02 -0.24176768410E+02  0.36254106371E+03  0.36491729829E+03  0.00000000000E+00 0. -1.
         -3    1    3    3    0  502 -0.56302207121E+02  0.79035131463E+02  0.62682247610E+03  0.63428929289E+03  0.00000000000E+00 0.  1.
         11    1    5    5    0    0  0.53321454571E+01 -0.81468157169E+00 -0.16116583854E+02  0.16995286298E+02  0.00000000000E+00 0. -1.
        -11    1    5    5    0    0  0.36593222555E+03 -0.72045347741E+02  0.40994673110E+01  0.37297953222E+03  0.00000000000E+00 0.  1.
          1    1    6    6  503    0 -0.14425783075E+03 -0.62983935705E+01  0.44757975314E+03  0.47029525504E+03  0.00000000000E+00 0. -1.
         -1    1    6    6    0  503 -0.13687985109E+03  0.24300059831E+02  0.22310088456E+03  0.26286991314E+03  0.00000000000E+00 0.  1.
<mgrwt>
<rscale>  0 0.13372965E+04</rscale>
<asrwt>0</asrwt>
<pdfrwt beam="1">  1        2 0.36486118E-01 0.13372965E+04</pdfrwt>
<pdfrwt beam="2">  1       -2 0.29002873E+00 0.13372965E+04</pdfrwt>
<totfact> 0.51304546E+00</totfact>
</mgrwt>
</event>
<event>
12    2  0.3751044E-008  0.2260506E+04  0.7818608E-02  0.8493658E-01
          2   -1    0    0  501    0  0.00000000000E+00  0.00000000000E+00  0.12338722554E+04  0.12338722554E+04  0.00000000000E+00 0. -1.
         -2   -1    0    0    0  501 -0.00000000000E+00 -0.00000000000E+00 -0.10353356437E+04  0.10353356437E+04  0.00000000000E+00 0.  1.
         23    2    1    2    0    0  0.65529072670E+03 -0.68106877164E+03  0.16524376072E+03  0.96378330698E+03  0.91171016005E+02 0.  0.
        254    2    1    2    0    0 -0.65529072670E+03  0.68106877164E+03  0.33292851023E+02  0.13054245921E+04  0.89986907023E+03 0.  0.
         23    2    4    4    0    0 -0.19946493848E+03  0.77467054110E+03 -0.10390506032E+03  0.81148782464E+03  0.88405424264E+02 0.  0.
         23    2    4    4    0    0 -0.45582578823E+03 -0.93601769463E+02  0.13719791134E+03  0.49393676748E+03  0.92799908027E+02 0.  0.
          3    1    3    3  502    0  0.53333136838E+03 -0.54325276919E+03  0.16852982777E+03  0.77972317048E+03  0.00000000000E+00 0. -1.
         -3    1    3    3    0  502  0.12195935832E+03 -0.13781600245E+03 -0.32860670587E+01  0.18406013651E+03  0.00000000000E+00 0.  1.
         11    1    5    5    0    0  0.45229848620E+01  0.25916424837E+01  0.26340747285E+01  0.58405780964E+01  0.00000000000E+00 0. -1.
        -11    1    5    5    0    0 -0.20398792334E+03  0.77207889862E+03 -0.10653913504E+03  0.80564724654E+03  0.00000000000E+00 0.  1.
          4    1    6    6  503    0 -0.10577656159E+03  0.17445517934E+02  0.27908539235E+02  0.11077866961E+03  0.00000000000E+00 0. -1.
         -4    1    6    6    0  503 -0.35004922663E+03 -0.11104728740E+03  0.10928937210E+03  0.38315809786E+03  0.00000000000E+00 0.  1.
<mgrwt>
<rscale>  0 0.22605061E+04</rscale>
<asrwt>0</asrwt>
<pdfrwt beam="1">  1        2 0.18982650E+00 0.22605061E+04</pdfrwt>
<pdfrwt beam="2">  1       -2 0.15928241E+00 0.22605061E+04</pdfrwt>
<totfact> 0.41937526E+00</totfact>
</mgrwt>
</event>
<event>
12    2  0.3751044E-008  0.1393073E+04  0.7818608E-02  0.8958848E-01
         -1   -1    0    0    0  501 -0.00000000000E+00  0.00000000000E+00  0.35178931774E+03  0.35178931774E+03  0.00000000000E+00 0. -1.
          1   -1    0    0  501    0  0.00000000000E+00 -0.00000000000E+00 -0.13791301262E+04  0.13791301262E+04  0.00000000000E+00 0.  1.
         23    2    1    2    0    0 -0.17861778490E+03 -0.22814742912E+03 -0.64591808587E+03  0.71415671736E+03  0.94096125289E+02 0.  0.
        254    2    1    2    0    0  0.17861778490E+03  0.22814742912E+03 -0.38142272256E+03  0.10167627266E+04  0.89686542264E+03 0.  0.
         23    2    4    4    0    0 -0.28736379967E+03  0.26992226601E+03 -0.35599795313E+03  0.53952527951E+03  0.94429876348E+02 0.  0.
         23    2    4    4    0    0  0.46598158457E+03 -0.41774836892E+02 -0.25424769429E+02  0.47723744704E+03  0.90692821115E+02 0.  0.
          3    1    3    3  502    0 -0.10155107511E+03 -0.10760320072E+03 -0.43345079215E+03  0.45800726946E+03  0.00000000000E+00 0.  1.
         -3    1    3    3    0  502 -0.77066709787E+02 -0.12054422840E+03 -0.21246729373E+03  0.25614944791E+03  0.00000000000E+00 0. -1.
         11    1    5    5    0    0 -0.19881053960E+03  0.21265329985E+03 -0.20794998685E+03  0.35775725516E+03  0.00000000000E+00 0.  1.
        -11    1    5    5    0    0 -0.88553260075E+02  0.57268966166E+02 -0.14804796628E+03  0.18176802435E+03  0.00000000000E+00 0. -1.
          4    1    6    6  503    0  0.13586436316E+03 -0.33768544571E+02  0.27883852481E+02  0.14274785116E+03  0.00000000000E+00 0. -1.
         -4    1    6    6    0  503  0.33011722141E+03 -0.80062923210E+01 -0.53308621909E+02  0.33448959589E+03  0.00000000000E+00 0.  1.
<mgrwt>
<rscale>  0 0.13930732E+04</rscale>
<asrwt>0</asrwt>
<pdfrwt beam="1">  1        1 0.21217387E+00 0.13930732E+04</pdfrwt>
<pdfrwt beam="2">  1       -1 0.54121433E-01 0.13930732E+04</pdfrwt>
<totfact> 0.26723796E+01</totfact>
</mgrwt>
</event>
<event>
12    2  0.3751044E-008  0.2324818E+04  0.7818608E-02  0.8468200E-01
          2   -1    0    0  501    0  0.00000000000E+00  0.00000000000E+00  0.29735263246E+04  0.29735263246E+04  0.00000000000E+00 0. -1.
         -2   -1    0    0    0  501 -0.00000000000E+00 -0.00000000000E+00 -0.45440806432E+03  0.45440806432E+03  0.00000000000E+00 0.  1.
         23    2    1    2    0    0 -0.52022429244E+03  0.31980011843E+03 -0.47821745633E+02  0.61924226256E+03  0.90932008616E+02 0.  0.
        254    2    1    2    0    0  0.52022429244E+03 -0.31980011843E+03  0.25669400059E+04  0.28086921263E+04  0.96263442516E+03 0.  0.
         23    2    4    4    0    0  0.72480459413E+03 -0.12299736613E+03  0.22695827695E+04  0.23875459088E+04  0.94336988633E+02 0.  0.
         23    2    4    4    0    0 -0.20458030169E+03 -0.19680275230E+03  0.29735723639E+03  0.42114621750E+03  0.91424216326E+02 0.  0.
          2    1    3    3  502    0 -0.17051312318E+03  0.67161838498E+02 -0.40870405466E+02  0.18776535295E+03  0.00000000000E+00 0. -1.
         -2    1    3    3    0  502 -0.34971116926E+03  0.25263827993E+03 -0.69513401675E+01  0.43147690960E+03  0.00000000000E+00 0.  1.
         11    1    5    5    0    0  0.71831619956E+03 -0.12871910088E+03  0.22585889246E+04  0.23735565508E+04  0.00000000000E+00 0.  1.
        -11    1    5    5    0    0  0.64883945668E+01  0.57217347513E+01  0.10993844889E+02  0.13989358029E+02  0.00000000000E+00 0. -1.
          1    1    6    6  503    0 -0.29623829501E+02 -0.86190928672E+02  0.96052342258E+02  0.13241034670E+03  0.00000000000E+00 0. -1.
         -1    1    6    6    0  503 -0.17495647219E+03 -0.11061182362E+03  0.20130489413E+03  0.28873587080E+03  0.00000000000E+00 0.  1.
<mgrwt>
<rscale>  0 0.23248177E+04</rscale>
<asrwt>0</asrwt>
<pdfrwt beam="1">  1        2 0.45746558E+00 0.23248177E+04</pdfrwt>
<pdfrwt beam="2">  1       -2 0.69908935E-01 0.23248177E+04</pdfrwt>
<totfact> 0.30530031E+00</totfact>
</mgrwt>
</event>
<event>
12    2  0.3751044E-008  0.1622031E+04  0.7818608E-02  0.8807127E-01
          1   -1    0    0  501    0  0.00000000000E+00  0.00000000000E+00  0.73184258246E+03  0.73184258246E+03  0.00000000000E+00 0. -1.
         -1   -1    0    0    0  501 -0.00000000000E+00 -0.00000000000E+00 -0.89875309474E+03  0.89875309474E+03  0.00000000000E+00 0.  1.
         23    2    1    2    0    0 -0.14957099341E+03 -0.49896026133E+03 -0.25757237648E+03  0.58963463264E+03  0.99963225388E+02 0.  0.
        254    2    1    2    0    0  0.14957099341E+03  0.49896026133E+03  0.90661864192E+02  0.10409610446E+04  0.89668695665E+03 0.  0.
         23    2    4    4    0    0 -0.69647764007E+02 -0.73200765969E+02 -0.28375308228E+03  0.31689908024E+03  0.98488842946E+02 0.  0.
         23    2    4    4    0    0  0.21921875742E+03  0.57216102730E+03  0.37441494647E+03  0.72406196432E+03  0.93027260926E+02 0.  0.
          1    1    3    3  502    0 -0.13850893576E+03 -0.47128406334E+03 -0.21161638236E+03  0.53485968901E+03  0.00000000000E+00 0. -1.
         -1    1    3    3    0  502 -0.11062057653E+02 -0.27676197986E+02 -0.45955994114E+02  0.54774943628E+02  0.00000000000E+00 0.  1.
         11    1    5    5    0    0 -0.41379761014E+02 -0.94804026750E+02 -0.23287769553E+03  0.25481779606E+03  0.00000000000E+00 0. -1.
        -11    1    5    5    0    0 -0.28268002993E+02  0.21603260780E+02 -0.50875386745E+02  0.62081284185E+02  0.00000000000E+00 0.  1.
          3    1    6    6  503    0  0.94360641441E+02  0.13269364867E+03  0.94053473015E+02  0.18803614237E+03  0.00000000000E+00 0.  1.
         -3    1    6    6    0  503  0.12485811598E+03  0.43946737863E+03  0.28036147346E+03  0.53602582196E+03  0.00000000000E+00 0. -1.
<mgrwt>
<rscale>  0 0.16220306E+04</rscale>
<asrwt>0</asrwt>
<pdfrwt beam="1">  1        1 0.11259117E+00 0.16220306E+04</pdfrwt>
<pdfrwt beam="2">  1       -1 0.13826971E+00 0.16220306E+04</pdfrwt>
<totfact> 0.10554292E+01</totfact>
</mgrwt>
</event>
<event>
12    2  0.3751044E-008  0.1349385E+04  0.7818608E-02  0.8991294E-01
          1   -1    0    0  501    0  0.00000000000E+00  0.00000000000E+00  0.11441071493E+04  0.11441071493E+04  0.00000000000E+00 0. -1.
         -1   -1    0    0    0  501 -0.00000000000E+00 -0.00000000000E+00 -0.39787326441E+03  0.39787326441E+03  0.00000000000E+00 0.  1.
         23    2    1    2    0    0 -0.23573006321E+03  0.29806286133E+02 -0.10865454276E+03  0.27648207053E+03  0.90440302217E+02 0.  0.
        254    2    1    2    0    0  0.23573006321E+03 -0.29806286133E+02  0.85488842763E+03  0.12654983432E+04  0.90232741035E+03 0.  0.
         23    2    4    4    0    0 -0.42241174028E+02  0.39045049941E+03  0.25546283720E+03  0.47712635301E+03  0.90290565821E+02 0.  0.
         23    2    4    4    0    0  0.27797123724E+03 -0.42025678555E+03  0.59942559043E+03  0.78837199016E+03  0.91299407810E+02 0.  0.
          1    1    3    3  502    0 -0.67863187354E+02  0.14936641944E+02  0.10241075735E+02  0.70238131400E+02  0.00000000000E+00 0. -1.
         -1    1    3    3    0  502 -0.16786687586E+03  0.14869644189E+02 -0.11889561850E+03  0.20624393912E+03  0.00000000000E+00 0.  1.
         11    1    5    5    0    0  0.29118345174E+01  0.16256170941E+01 -0.56713455906E+01  0.65791771523E+01  0.00000000000E+00 0.  1.
        -11    1    5    5    0    0 -0.45153008545E+02  0.38882488232E+03  0.26113418279E+03  0.47054717586E+03  0.00000000000E+00 0. -1.
          3    1    6    6  503    0  0.25660760540E+03 -0.41493467756E+03  0.58631535660E+03  0.76274763007E+03  0.00000000000E+00 0. -1.
         -3    1    6    6    0  503  0.21363631834E+02 -0.53221079809E+01  0.13110233836E+02  0.25624360085E+02  0.00000000000E+00 0.  1.
<mgrwt>
<rscale>  0 0.13493845E+04</rscale>
<asrwt>0</asrwt>
<pdfrwt beam="1">  1        1 0.17601648E+00 0.13493845E+04</pdfrwt>
<pdfrwt beam="2">  1       -1 0.61211272E-01 0.13493845E+04</pdfrwt>
<totfact> 0.31133824E+01</totfact>
</mgrwt>
</event>
<event>
12    2  0.3751044E-008  0.1655583E+04  0.7818608E-02  0.8787110E-01
         -2   -1    0    0    0  501 -0.00000000000E+00  0.00000000000E+00  0.33276357248E+03  0.33276357248E+03  0.00000000000E+00 0.  1.
          2   -1    0    0  501    0  0.00000000000E+00 -0.00000000000E+00 -0.20592369262E+04  0.20592369262E+04  0.00000000000E+00 0. -1.
         23    2    1    2    0    0  0.51340168034E+03  0.20193813376E+03 -0.98172081997E+03  0.11299288055E+04  0.92752584743E+02 0.  0.
        254    2    1    2    0    0 -0.51340168034E+03 -0.20193813376E+03 -0.74475253377E+03  0.12620716932E+04  0.85662613016E+03 0.  0.
         23    2    4    4    0    0 -0.54237326648E+03 -0.20815359572E+01 -0.85371058865E+03  0.10154806674E+04  0.90587657971E+02 0.  0.
         23    2    4    4    0    0  0.28971586143E+02 -0.19985659780E+03  0.10895805487E+03  0.24659102573E+03  0.90295424895E+02 0.  0.
          3    1    3    3  502    0  0.46181003697E+03  0.20506756494E+03 -0.85620109165E+03  0.99418384909E+03  0.00000000000E+00 0. -1.
         -3    1    3    3    0  502  0.51591643371E+02 -0.31294311772E+01 -0.12551972831E+03  0.13574495645E+03  0.00000000000E+00 0.  1.
         11    1    5    5    0    0 -0.17789509875E+03 -0.42895089673E+02 -0.29505965529E+03  0.34719858159E+03  0.00000000000E+00 0.  1.
        -11    1    5    5    0    0 -0.36447816773E+03  0.40813553716E+02 -0.55865093336E+03  0.66828208584E+03  0.00000000000E+00 0. -1.
          1    1    6    6  503    0 -0.24004685323E+02 -0.10799685326E+03  0.30741703777E+02  0.11482420295E+03  0.00000000000E+00 0. -1.
         -1    1    6    6    0  503  0.52976271465E+02 -0.91859744546E+02  0.78216351097E+02  0.13176682278E+03  0.00000000000E+00 0.  1.
<mgrwt>
<rscale>  0 0.16555833E+04</rscale>
<asrwt>0</asrwt>
<pdfrwt beam="1">  1        2 0.31680568E+00 0.16555833E+04</pdfrwt>
<pdfrwt beam="2">  1       -2 0.51194395E-01 0.16555833E+04</pdfrwt>
<totfact> 0.21324372E+01</totfact>
</mgrwt>
</event>
<event>
12    2  0.3751044E-008  0.1313619E+04  0.7818608E-02  0.9018834E-01
         -2   -1    0    0    0  501 -0.00000000000E+00  0.00000000000E+00  0.22084095230E+03  0.22084095230E+03  0.00000000000E+00 0.  1.
          2   -1    0    0  501    0  0.00000000000E+00 -0.00000000000E+00 -0.19534360295E+04  0.19534360295E+04  0.00000000000E+00 0. -1.
         23    2    1    2    0    0 -0.22562002818E+03 -0.20925881241E+03 -0.73749765265E+03  0.80423671514E+03  0.90555279360E+02 0.  0.
        254    2    1    2    0    0  0.22562002818E+03  0.20925881241E+03 -0.99509742452E+03  0.13700402666E+04  0.88999876417E+03 0.  0.
         23    2    4    4    0    0  0.51286403561E+03  0.31906724894E+03 -0.54609430104E+03  0.81817417215E+03  0.79728050087E+02 0.  0.
         23    2    4    4    0    0 -0.28724400743E+03 -0.10980843653E+03 -0.44900312348E+03  0.55186609449E+03  0.91571659436E+02 0.  0.
          1    1    3    3  502    0 -0.15605854023E+03 -0.12136419174E+03 -0.56433599673E+03  0.59796208259E+03  0.00000000000E+00 0. -1.
         -1    1    3    3    0  502 -0.69561487956E+02 -0.87894620673E+02 -0.17316165592E+03  0.20627463254E+03  0.00000000000E+00 0.  1.
         11    1    5    5    0    0  0.28314198342E+02  0.76812505868E+01 -0.50152500027E+02  0.58103086814E+02  0.00000000000E+00 0. -1.
        -11    1    5    5    0    0  0.48454983727E+03  0.31138599835E+03 -0.49594180101E+03  0.76007108534E+03  0.00000000000E+00 0.  1.
          3    1    6    6  503    0 -0.45673256680E+02  0.89605717717E+01 -0.35825564444E+02  0.58735077168E+02  0.00000000000E+00 0. -1.
         -3    1    6    6    0  503 -0.24157075075E+03 -0.11876900830E+03 -0.41317755904E+03  0.49313101732E+03  0.00000000000E+00 0.  1.
<mgrwt>
<rscale>  0 0.13136189E+04</rscale>
<asrwt>0</asrwt>
<pdfrwt beam="1">  1        2 0.30052863E+00 0.13136189E+04</pdfrwt>
<pdfrwt beam="2">  1       -2 0.33975530E-01 0.13136189E+04</pdfrwt>
<totfact> 0.56345112E+01</totfact>
</mgrwt>
</event>
<event>
12    2  0.3751044E-008  0.2799236E+04  0.7818608E-02  0.8303505E-01
         -2   -1    0    0    0  501 -0.00000000000E+00  0.00000000000E+00  0.66435820975E+03  0.66435820975E+03  0.00000000000E+00 0.  1.
          2   -1    0    0  501    0  0.00000000000E+00 -0.00000000000E+00 -0.29486065280E+04  0.29486065280E+04  0.00000000000E+00 0. -1.
         23    2    1    2    0    0  0.76962599090E+03  0.92302492826E+03 -0.57031465604E+03  0.13333626914E+04  0.91093775044E+02 0.  0.
        254    2    1    2    0    0 -0.76962599090E+03 -0.92302492826E+03 -0.17139336622E+04  0.22796020463E+04  0.90261714320E+03 0.  0.
         23    2    4    4    0    0 -0.24862045343E+03 -0.94392590973E+02 -0.10660270175E+04  0.11024646995E+04  0.91064375806E+02 0.  0.
         23    2    4    4    0    0 -0.52100553747E+03 -0.82863233728E+03 -0.64790664472E+03  0.11771373468E+04  0.88266599558E+02 0.  0.
          1    1    3    3  502    0  0.32842532407E+03  0.42395772046E+03 -0.20917012958E+03  0.57563485417E+03  0.00000000000E+00 0. -1.
         -1    1    3    3    0  502  0.44120066683E+03  0.49906720780E+03 -0.36114452645E+03  0.75772783722E+03  0.00000000000E+00 0.  1.
         11    1    5    5    0    0 -0.39193639990E+02 -0.27064081050E+02 -0.35511510004E+03  0.35829504626E+03  0.00000000000E+00 0. -1.
        -11    1    5    5    0    0 -0.20942681344E+03 -0.67328509923E+02 -0.71091191744E+03  0.74416965323E+03  0.00000000000E+00 0.  1.
          3    1    6    6  503    0 -0.27342869913E+03 -0.38431061613E+03 -0.35363859137E+03  0.58950670606E+03  0.00000000000E+00 0. -1.
         -3    1    6    6    0  503 -0.24757683834E+03 -0.44432172115E+03 -0.29426805334E+03  0.58763064078E+03  0.00000000000E+00 0.  1.
<mgrwt>
<rscale>  0 0.27992363E+04</rscale>
<asrwt>0</asrwt>
<pdfrwt beam="1">  1        2 0.45363179E+00 0.27992363E+04</pdfrwt>
<pdfrwt beam="2">  1       -2 0.10220895E+00 0.27992363E+04</pdfrwt>
<totfact> 0.12786214E+00</totfact>
</mgrwt>
</event>
<event>
12    2  0.3751044E-008  0.1031526E+04  0.7818608E-02  0.9274628E-01
          1   -1    0    0  501    0  0.00000000000E+00  0.00000000000E+00  0.53810467722E+03  0.53810467722E+03  0.00000000000E+00 0. -1.
         -1   -1    0    0    0  501 -0.00000000000E+00 -0.00000000000E+00 -0.49434851503E+03  0.49434851503E+03  0.00000000000E+00 0.  1.
         23    2    1    2    0    0 -0.42497547281E+01 -0.79663140672E+02  0.22539536445E+02  0.12337585225E+03  0.91374470279E+02 0.  0.
        254    2    1    2    0    0  0.42497547281E+01  0.79663140672E+02  0.21216625740E+02  0.90907733999E+03  0.90532159396E+03 0.  0.
         23    2    4    4    0    0  0.38848520607E+03  0.50286136789E+02  0.22702709186E+03  0.46313657414E+03  0.97492230335E+02 0.  0.
         23    2    4    4    0    0 -0.38423545134E+03  0.29377003882E+02 -0.20581046612E+03  0.44594076586E+03  0.89472500041E+02 0.  0.
          4    1    3    3  502    0  0.25255916581E+02 -0.89855626582E+01  0.36741347861E+02  0.45481076299E+02  0.00000000000E+00 0. -1.
         -4    1    3    3    0  502 -0.29505671309E+02 -0.70677578013E+02 -0.14201811417E+02  0.77894775953E+02  0.00000000000E+00 0.  1.
         11    1    5    5    0    0  0.10326089670E+03 -0.67917088697E+01  0.10583501238E+03  0.14802023491E+03  0.00000000000E+00 0. -1.
        -11    1    5    5    0    0  0.28522430937E+03  0.57077845659E+02  0.12119207949E+03  0.31511633923E+03  0.00000000000E+00 0.  1.
          4    1    6    6  503    0 -0.50701930832E+02 -0.45812458458E+01 -0.64370523429E+02  0.82068495113E+02  0.00000000000E+00 0. -1.
         -4    1    6    6    0  503 -0.33353352051E+03  0.33958249728E+02 -0.14143994270E+03  0.36387227075E+03  0.00000000000E+00 0.  1.
<mgrwt>
<rscale>  0 0.10315256E+04</rscale>
<asrwt>0</asrwt>
<pdfrwt beam="1">  1        1 0.82785335E-01 0.10315256E+04</pdfrwt>
<pdfrwt beam="2">  1       -1 0.76053618E-01 0.10315256E+04</pdfrwt>
<totfact> 0.69554363E+01</totfact>
</mgrwt>
</event>
<event>
12    2  0.3751044E-008  0.1531952E+04  0.7818608E-02  0.8863479E-01
         -1   -1    0    0    0  501 -0.00000000000E+00  0.00000000000E+00  0.83231088507E+03  0.83231088507E+03  0.00000000000E+00 0.  1.
          1   -1    0    0  501    0  0.00000000000E+00 -0.00000000000E+00 -0.70492761273E+03  0.70492761273E+03  0.00000000000E+00 0. -1.
         23    2    1    2    0    0  0.41334586113E+03  0.26645927021E+03 -0.22652521370E+02  0.50097324393E+03  0.92766970498E+02 0.  0.
        254    2    1    2    0    0 -0.41334586113E+03 -0.26645927021E+03  0.15003579371E+03  0.10362652539E+04  0.89971083876E+03 0.  0.
         23    2    4    4    0    0 -0.46666102653E+03  0.10475297697E+03 -0.18733427960E+03  0.52160307219E+03  0.90718976721E+02 0.  0.
         23    2    4    4    0    0  0.53315165390E+02 -0.37121224718E+03  0.33737007331E+03  0.51466218168E+03  0.10206642724E+03 0.  0.
          2    1    3    3  502    0  0.39770602167E+03  0.27388377550E+03 -0.24810665505E+02  0.48352659831E+03  0.00000000000E+00 0. -1.
         -2    1    3    3    0  502  0.15639839464E+02 -0.74245052898E+01  0.21581441350E+01  0.17446645620E+02  0.00000000000E+00 0.  1.
         11    1    5    5    0    0 -0.36976640299E+03  0.64102193226E+02 -0.18014948617E+03  0.41628130072E+03  0.00000000000E+00 0.  1.
        -11    1    5    5    0    0 -0.96894623534E+02  0.40650783745E+02 -0.71847934298E+01  0.10532177147E+03  0.00000000000E+00 0. -1.
          1    1    6    6  503    0 -0.15244328276E+01 -0.15807207923E+02  0.55559128220E+02  0.57784153938E+02  0.00000000000E+00 0. -1.
         -1    1    6    6    0  503  0.54839598218E+02 -0.35540503926E+03  0.28181094509E+03  0.45687802775E+03  0.00000000000E+00 0.  1.
<mgrwt>
<rscale>  0 0.15319516E+04</rscale>
<asrwt>0</asrwt>
<pdfrwt beam="1">  1        1 0.10845040E+00 0.15319516E+04</pdfrwt>
<pdfrwt beam="2">  1       -1 0.12804783E+00 0.15319516E+04</pdfrwt>
<totfact> 0.13705755E+01</totfact>
</mgrwt>
</event>
<event>
12    2  0.3751044E-008  0.1533155E+04  0.7818608E-02  0.8862700E-01
          1   -1    0    0  501    0  0.00000000000E+00  0.00000000000E+00  0.23531023038E+04  0.23531023038E+04  0.00000000000E+00 0. -1.
         -1   -1    0    0    0  501 -0.00000000000E+00 -0.00000000000E+00 -0.24973024423E+03  0.24973024423E+03  0.00000000000E+00 0.  1.
         23    2    1    2    0    0 -0.30853380897E+03  0.38989810610E+03  0.76758698377E+03  0.91894896479E+03  0.89798540126E+02 0.  0.
        254    2    1    2    0    0  0.30853380897E+03 -0.38989810610E+03  0.13357850758E+04  0.16838835832E+04  0.89662060468E+03 0.  0.
         23    2    4    4    0    0  0.59116545401E+03 -0.18826888473E+03  0.10617214780E+04  0.12331197386E+04  0.91706192869E+02 0.  0.
         23    2    4    4    0    0 -0.28263164504E+03 -0.20162922136E+03  0.27406359777E+03  0.45076384465E+03  0.86845830855E+02 0.  0.
          1    1    3    3  502    0 -0.20450285554E+03  0.25267161125E+03  0.57563381289E+03  0.66107385941E+03  0.00000000000E+00 0. -1.
         -1    1    3    3    0  502 -0.10403095344E+03  0.13722649485E+03  0.19195317089E+03  0.25787510538E+03  0.00000000000E+00 0.  1.
         11    1    5    5    0    0  0.24488539783E+03 -0.10809155248E+03  0.52624198776E+03  0.59040941004E+03  0.00000000000E+00 0. -1.
        -11    1    5    5    0    0  0.34628005618E+03 -0.80177332258E+02  0.53547949024E+03  0.64271032851E+03  0.00000000000E+00 0.  1.
          2    1    6    6  503    0 -0.31060281324E+02 -0.43169731577E+02  0.12187361190E+02  0.54560961989E+02  0.00000000000E+00 0. -1.
         -2    1    6    6    0  503 -0.25157136371E+03 -0.15845948978E+03  0.26187623658E+03  0.39620288266E+03  0.00000000000E+00 0.  1.
<mgrwt>
<rscale>  0 0.15331547E+04</rscale>
<asrwt>0</asrwt>
<pdfrwt beam="1">  1        1 0.36201572E+00 0.15331547E+04</pdfrwt>
<pdfrwt beam="2">  1       -1 0.38420039E-01 0.15331547E+04</pdfrwt>
<totfact> 0.10842983E+01</totfact>
</mgrwt>
</event>
<event>
12    2  0.3751044E-008  0.1894899E+04  0.7818608E-02  0.8657400E-01
          1   -1    0    0  501    0  0.00000000000E+00  0.00000000000E+00  0.16085005086E+04  0.16085005086E+04  0.00000000000E+00 0. -1.
         -1   -1    0    0    0  501 -0.00000000000E+00 -0.00000000000E+00 -0.55807306072E+03  0.55807306072E+03  0.00000000000E+00 0.  1.
         23    2    1    2    0    0 -0.14076727873E+03 -0.70420485371E+02  0.12269200134E+04  0.12401295053E+04  0.88396827200E+02 0.  0.
        254    2    1    2    0    0  0.14076727873E+03  0.70420485371E+02 -0.17649256551E+03  0.92644406405E+03  0.89575359704E+03 0.  0.
         23    2    4    4    0    0  0.46474904615E+03 -0.34873611093E+02 -0.28927860559E+03  0.55614802013E+03  0.91709672306E+02 0.  0.
         23    2    4    4    0    0 -0.32398176742E+03  0.10529409646E+03  0.11278604008E+03  0.37029604392E+03  0.91364308857E+02 0.  0.
          2    1    3    3  502    0  0.79172495664E+01 -0.22121256883E+02  0.20058460928E+03  0.20195598116E+03  0.00000000000E+00 0.  1.
         -2    1    3    3    0  502 -0.14868452830E+03 -0.48299228488E+02  0.10263354041E+04  0.10381735241E+04  0.00000000000E+00 0. -1.
         11    1    5    5    0    0  0.35234681687E+03  0.13010621672E+02 -0.20720973571E+03  0.40896629471E+03  0.00000000000E+00 0. -1.
        -11    1    5    5    0    0  0.11240222928E+03 -0.47884232765E+02 -0.82068869885E+02  0.14718172542E+03  0.00000000000E+00 0.  1.
          3    1    6    6  503    0 -0.71862631143E+02  0.24716924796E+01 -0.81518168860E+01  0.72365731787E+02  0.00000000000E+00 0. -1.
         -3    1    6    6    0  503 -0.25211913628E+03  0.10282240398E+03  0.12093785697E+03  0.29793031213E+03  0.00000000000E+00 0.  1.
<mgrwt>
<rscale>  0 0.18948993E+04</rscale>
<asrwt>0</asrwt>
<pdfrwt beam="1">  1        1 0.24746162E+00 0.18948993E+04</pdfrwt>
<pdfrwt beam="2">  1       -1 0.85857394E-01 0.18948993E+04</pdfrwt>
<totfact> 0.69025031E+00</totfact>
</mgrwt>
</event>
<event>
12    2  0.3751044E-008  0.1799296E+04  0.7818608E-02  0.8706674E-01
          1   -1    0    0  501    0  0.00000000000E+00  0.00000000000E+00  0.32890931837E+03  0.32890931837E+03  0.00000000000E+00 0. -1.
         -1   -1    0    0    0  501 -0.00000000000E+00 -0.00000000000E+00 -0.24607594826E+04  0.24607594826E+04  0.00000000000E+00 0.  1.
         23    2    1    2    0    0 -0.16265040312E+03  0.48288356993E+03 -0.12840554375E+03  0.54036007849E+03  0.12597354887E+03 0.  0.
        254    2    1    2    0    0  0.16265040312E+03 -0.48288356993E+03 -0.20034446205E+04  0.22493087225E+04  0.88654818594E+03 0.  0.
         23    2    4    4    0    0 -0.35937282468E+02  0.23820780837E+03 -0.36954331133E+03  0.45006965648E+03  0.89252386513E+02 0.  0.
         23    2    4    4    0    0  0.19858768559E+03 -0.72109137830E+03 -0.16339013092E+04  0.17992390660E+04  0.90652544743E+02 0.  0.
          4    1    3    3  502    0 -0.11152525288E+03  0.44504170230E+03 -0.12955343396E+03  0.47674321292E+03  0.00000000000E+00 0. -1.
         -4    1    3    3    0  502 -0.51125150239E+02  0.37841867632E+02  0.11478902084E+01  0.63616865569E+02  0.00000000000E+00 0.  1.
         11    1    5    5    0    0 -0.38465134433E+02  0.49578973305E+02 -0.13657276022E+03  0.15029890218E+03  0.00000000000E+00 0.  1.
        -11    1    5    5    0    0  0.25278519651E+01  0.18862883507E+03 -0.23297055111E+03  0.29977075431E+03  0.00000000000E+00 0. -1.
          3    1    6    6  503    0  0.79776169468E+02 -0.44106154979E+03 -0.92742625286E+03  0.10300577568E+04  0.00000000000E+00 0. -1.
         -3    1    6    6    0  503  0.11881151612E+03 -0.28002982851E+03 -0.70647505630E+03  0.76918130918E+03  0.00000000000E+00 0.  1.
<mgrwt>
<rscale>  0 0.17992962E+04</rscale>
<asrwt>0</asrwt>
<pdfrwt beam="1">  1        1 0.50601434E-01 0.17992962E+04</pdfrwt>
<pdfrwt beam="2">  1       -1 0.37857838E+00 0.17992962E+04</pdfrwt>
<totfact> 0.73586583E-01</totfact>
</mgrwt>
</event>
<event>
12    2  0.3751044E-008  0.1325607E+04  0.7818608E-02  0.9009501E-01
         -4   -1    0    0    0  501 -0.00000000000E+00  0.00000000000E+00  0.55844820732E+03  0.55844820732E+03  0.00000000000E+00 0. -1.
          4   -1    0    0  501    0  0.00000000000E+00 -0.00000000000E+00 -0.78665968289E+03  0.78665968289E+03  0.00000000000E+00 0.  1.
         23    2    1    2    0    0  0.22134605426E+03  0.15812465116E+03 -0.34184515358E+03  0.44701887956E+03  0.94711607589E+02 0.  0.
        254    2    1    2    0    0 -0.22134605426E+03 -0.15812465116E+03  0.11363367802E+03  0.89808901065E+03  0.84832409917E+03 0.  0.
         23    2    4    4    0    0  0.16403029466E+03 -0.37345914223E+03 -0.46291675145E+02  0.42041916934E+03  0.90728662946E+02 0.  0.
         23    2    4    4    0    0 -0.38537634892E+03  0.21533449106E+03  0.15992535316E+03  0.47766984132E+03  0.87797980435E+02 0.  0.
          4    1    3    3  502    0  0.10033901481E+02  0.24046454711E+02 -0.82926137920E+02  0.86923273716E+02  0.00000000000E+00 0. -1.
         -4    1    3    3    0  502  0.21131215278E+03  0.13407819645E+03 -0.25891901566E+03  0.36009560585E+03  0.00000000000E+00 0.  1.
         11    1    5    5    0    0  0.12894428621E+03 -0.30593256852E+03 -0.12654770742E+01  0.33199844406E+03  0.00000000000E+00 0. -1.
        -11    1    5    5    0    0  0.35086008455E+02 -0.67526573708E+02 -0.45026198071E+02  0.88420725278E+02  0.00000000000E+00 0.  1.
          1    1    6    6  503    0 -0.28689289368E+03  0.11666211709E+03  0.12478062489E+03  0.33389786815E+03  0.00000000000E+00 0. -1.
         -1    1    6    6    0  503 -0.98483455243E+02  0.98672373977E+02  0.35144728273E+02  0.14377197317E+03  0.00000000000E+00 0.  1.
<mgrwt>
<rscale>  0 0.13256073E+04</rscale>
<asrwt>0</asrwt>
<pdfrwt beam="1">  1        4 0.12102457E+00 0.13256073E+04</pdfrwt>
<pdfrwt beam="2">  1       -4 0.85915109E-01 0.13256073E+04</pdfrwt>
<totfact> 0.11934459E+00</totfact>
</mgrwt>
</event>
<event>
12    2  0.3751044E-008  0.2391584E+04  0.7818608E-02  0.8442661E-01
          2   -1    0    0  501    0  0.00000000000E+00  0.00000000000E+00  0.29182797352E+04  0.29182797352E+04  0.00000000000E+00 0. -1.
         -2   -1    0    0    0  501 -0.00000000000E+00 -0.00000000000E+00 -0.48998669688E+03  0.48998669688E+03  0.00000000000E+00 0.  1.
         23    2    1    2    0    0 -0.98345575200E+03  0.19362924686E+03  0.67941638785E+03  0.12142420070E+04  0.89997345445E+02 0.  0.
        254    2    1    2    0    0  0.98345575200E+03 -0.19362924686E+03  0.17488766505E+04  0.21940244251E+04  0.86631180174E+03 0.  0.
         23    2    4    4    0    0  0.81519018256E+03 -0.48075066008E+03  0.14705939198E+04  0.17511645129E+04  0.90963966210E+02 0.  0.
         23    2    4    4    0    0  0.16826556944E+03  0.28712141322E+03  0.27828273069E+03  0.44285991225E+03  0.89059619820E+02 0.  0.
          4    1    3    3  502    0 -0.38308909493E+03  0.11188750834E+03  0.23901804950E+03  0.46519425745E+03  0.00000000000E+00 0. -1.
         -4    1    3    3    0  502 -0.60036665707E+03  0.81741738517E+02  0.44039833835E+03  0.74904774958E+03  0.00000000000E+00 0.  1.
         11    1    5    5    0    0  0.60900701122E+03 -0.35242345687E+03  0.11625416630E+04  0.13588947535E+04  0.00000000000E+00 0. -1.
        -11    1    5    5    0    0  0.20618317134E+03 -0.12832720322E+03  0.30805225677E+03  0.39226975939E+03  0.00000000000E+00 0.  1.
          1    1    6    6  503    0  0.72441348705E+02  0.17795795890E+03  0.11333922778E+03  0.22307524446E+03  0.00000000000E+00 0. -1.
         -1    1    6    6    0  503  0.95824220733E+02  0.10916345432E+03  0.16494350292E+03  0.21978466778E+03  0.00000000000E+00 0.  1.
<mgrwt>
<rscale>  0 0.23915838E+04</rscale>
<asrwt>0</asrwt>
<pdfrwt beam="1">  1        2 0.44896610E+00 0.23915838E+04</pdfrwt>
<pdfrwt beam="2">  1       -2 0.75382571E-01 0.23915838E+04</pdfrwt>
<totfact> 0.27821330E+00</totfact>
</mgrwt>
</event>
<event>
12    2  0.3751044E-008  0.1837182E+04  0.7818608E-02  0.8686773E-01
         -3   -1    0    0    0  501 -0.00000000000E+00  0.00000000000E+00  0.50212553936E+04  0.50212553936E+04  0.00000000000E+00 0.  1.
          3   -1    0    0  501    0  0.00000000000E+00 -0.00000000000E+00 -0.16804754938E+03  0.16804754938E+03  0.00000000000E+00 0. -1.
         23    2    1    2    0    0  0.36987334325E+03 -0.30892003960E+02  0.19501230549E+03  0.42902705976E+03  0.90960501080E+02 0.  0.
        254    2    1    2    0    0 -0.36987334325E+03  0.30892003960E+02  0.46581955387E+04  0.47602758832E+04  0.90756829028E+03 0.  0.
         23    2    4    4    0    0 -0.43387133108E+03  0.25037003615E+02  0.93374947809E+03  0.10341652520E+04  0.93479929535E+02 0.  0.
         23    2    4    4    0    0  0.63997987838E+02  0.58550003449E+01  0.37244460606E+04  0.37261106312E+04  0.90950281754E+02 0.  0.
          2    1    3    3  502    0  0.28127156272E+03 -0.59931727357E+02  0.13158795570E+03  0.31626080064E+03  0.00000000000E+00 0. -1.
         -2    1    3    3    0  502  0.88601780530E+02  0.29039723397E+02  0.63424349798E+02  0.11276625912E+03  0.00000000000E+00 0.  1.
         11    1    5    5    0    0 -0.29663122611E+03  0.55572502684E+02  0.58807233838E+03  0.66098975978E+03  0.00000000000E+00 0. -1.
        -11    1    5    5    0    0 -0.13724010497E+03 -0.30535499069E+02  0.34567713971E+03  0.37317549227E+03  0.00000000000E+00 0.  1.
          3    1    6    6  503    0  0.69693926499E+01  0.28205925938E+02  0.24692642981E+04  0.24694352230E+04  0.00000000000E+00 0. -1.
         -3    1    6    6    0  503  0.57028595188E+02 -0.22350925593E+02  0.12551817625E+04  0.12566754082E+04  0.00000000000E+00 0.  1.
<mgrwt>
<rscale>  0 0.18371823E+04</rscale>
<asrwt>0</asrwt>
<pdfrwt beam="1">  1        3 0.25853473E-01 0.18371823E+04</pdfrwt>
<pdfrwt beam="2">  1       -3 0.77250072E+00 0.18371823E+04</pdfrwt>
<totfact> 0.25920499E-03</totfact>
</mgrwt>
</event>
<event>
12    2  0.3751044E-008  0.4103605E+04  0.7818608E-02  0.7983966E-01
         -2   -1    0    0    0  501 -0.00000000000E+00  0.00000000000E+00  0.15026541083E+04  0.15026541083E+04  0.00000000000E+00 0.  1.
          2   -1    0    0  501    0  0.00000000000E+00 -0.00000000000E+00 -0.28016390366E+04  0.28016390366E+04  0.00000000000E+00 0. -1.
         23    2    1    2    0    0  0.15713634522E+04 -0.89361816298E+03 -0.13844290993E+04  0.22786279767E+04  0.88119266907E+02 0.  0.
        254    2    1    2    0    0 -0.15713634522E+04  0.89361816298E+03  0.85444171020E+02  0.20256651682E+04  0.91010007541E+03 0.  0.
         23    2    4    4    0    0 -0.29169991983E+03  0.55870764584E+03  0.26068460619E+03  0.68806219422E+03  0.90719581474E+02 0.  0.
         23    2    4    4    0    0 -0.12796635324E+04  0.33491051714E+03 -0.17524043517E+03  0.13376029740E+04  0.93641312272E+02 0.  0.
          1    1    3    3  502    0  0.10334648079E+04 -0.60371344809E+03 -0.96552388946E+03  0.15377762573E+04  0.00000000000E+00 0. -1.
         -1    1    3    3    0  502  0.53789864434E+03 -0.28990471489E+03 -0.41890520987E+03  0.74085171941E+03  0.00000000000E+00 0.  1.
         11    1    5    5    0    0 -0.24090503908E+02  0.36844756959E+02  0.45618287955E+02  0.63394926373E+02  0.00000000000E+00 0.  1.
        -11    1    5    5    0    0 -0.26760941592E+03  0.52186288888E+03  0.21506631824E+03  0.62466726785E+03  0.00000000000E+00 0. -1.
          1    1    6    6  503    0 -0.86440454323E+03  0.19428484477E+03 -0.14884061066E+03  0.89838485219E+03  0.00000000000E+00 0. -1.
         -1    1    6    6    0  503 -0.41525898914E+03  0.14062567237E+03 -0.26399824514E+02  0.43921812180E+03  0.00000000000E+00 0.  1.
<mgrwt>
<rscale>  0 0.41036054E+04</rscale>
<asrwt>0</asrwt>
<pdfrwt beam="1">  1        2 0.43102139E+00 0.41036054E+04</pdfrwt>
<pdfrwt beam="2">  1       -2 0.23117756E+00 0.41036054E+04</pdfrwt>
<totfact> 0.15168110E-01</totfact>
</mgrwt>
</event>
<event>
12    2  0.3751044E-008  0.2554372E+04  0.7818608E-02  0.8383867E-01
         -1   -1    0    0    0  501 -0.00000000000E+00  0.00000000000E+00  0.38832032064E+03  0.38832032064E+03  0.00000000000E+00 0.  1.
          1   -1    0    0  501    0  0.00000000000E+00 -0.00000000000E+00 -0.42006649768E+04  0.42006649768E+04  0.00000000000E+00 0. -1.
         23    2    1    2    0    0 -0.37012789155E+03 -0.52630664414E+03 -0.33130800443E+04  0.33762368120E+04  0.92099354766E+02 0.  0.
        254    2    1    2    0    0  0.37012789155E+03  0.52630664414E+03 -0.49926461182E+03  0.12127484854E+04  0.89861025835E+03 0.  0.
         23    2    4    4    0    0  0.64496705498E+03  0.48183686112E+03 -0.37228391224E+03  0.89164695379E+03  0.91047878273E+02 0.  0.
         23    2    4    4    0    0 -0.27483916343E+03  0.44469783015E+02 -0.12698069958E+03  0.32110153159E+03  0.97303484872E+02 0.  0.
          1    1    3    3  502    0 -0.31961776955E+03 -0.48308716918E+03 -0.30733480741E+04  0.31274585714E+04  0.00000000000E+00 0. -1.
         -1    1    3    3    0  502 -0.50510122003E+02 -0.43219474959E+02 -0.23973197021E+03  0.24877824057E+03  0.00000000000E+00 0.  1.
         11    1    5    5    0    0  0.43847767357E+03  0.37813915111E+03 -0.27340918285E+03  0.64031591351E+03  0.00000000000E+00 0. -1.
        -11    1    5    5    0    0  0.20648938141E+03  0.10369771001E+03 -0.98874729384E+02  0.25133104028E+03  0.00000000000E+00 0.  1.
          3    1    6    6  503    0 -0.12674039905E+03  0.64390812737E+02 -0.37872564430E+02  0.14711776457E+03  0.00000000000E+00 0. -1.
         -3    1    6    6    0  503 -0.14809876438E+03 -0.19921029723E+02 -0.89108135152E+02  0.17398376702E+03  0.00000000000E+00 0.  1.
<mgrwt>
<rscale>  0 0.25543716E+04</rscale>
<asrwt>0</asrwt>
<pdfrwt beam="1">  1        1 0.64625614E+00 0.25543716E+04</pdfrwt>
<pdfrwt beam="2">  1       -1 0.59741589E-01 0.25543716E+04</pdfrwt>
<totfact> 0.15910576E-01</totfact>
</mgrwt>
</event>
<event>
12    2  0.3751044E-008  0.1104037E+04  0.7818608E-02  0.9201266E-01
          2   -1    0    0  501    0  0.00000000000E+00  0.00000000000E+00  0.21119387988E+04  0.21119387988E+04  0.00000000000E+00 0. -1.
         -2   -1    0    0    0  501 -0.00000000000E+00 -0.00000000000E+00 -0.14428651003E+03  0.14428651003E+03  0.00000000000E+00 0.  1.
         23    2    1    2    0    0  0.47965915790E+02  0.14082402912E+03  0.22430640078E+03  0.28527685209E+03  0.94537741971E+02 0.  0.
        254    2    1    2    0    0 -0.47965915790E+02 -0.14082402912E+03  0.17433458880E+04  0.19709484567E+04  0.90733169110E+03 0.  0.
         23    2    4    4    0    0  0.80091391481E+02  0.36024577172E+03  0.90944329814E+03  0.98545575890E+03  0.88568014490E+02 0.  0.
         23    2    4    4    0    0 -0.12805730727E+03 -0.50106980084E+03  0.83390258982E+03  0.98549269780E+03  0.91283672512E+02 0.  0.
          1    1    3    3  502    0  0.65097189870E+01  0.80379398594E+02  0.18565935746E+03  0.20241694883E+03  0.00000000000E+00 0. -1.
         -1    1    3    3    0  502  0.41456196803E+02  0.60444630524E+02  0.38647043317E+02  0.82859903269E+02  0.00000000000E+00 0.  1.
         11    1    5    5    0    0 -0.15116784226E+02  0.10930687805E+03  0.29445841522E+03  0.31445551204E+03  0.00000000000E+00 0.  1.
        -11    1    5    5    0    0  0.95208175708E+02  0.25093889367E+03  0.61498488292E+03  0.67100024687E+03  0.00000000000E+00 0. -1.
          4    1    6    6  503    0 -0.10253333091E+02 -0.40963176367E+01  0.55971264860E+01  0.12378953210E+02  0.00000000000E+00 0. -1.
         -4    1    6    6    0  503 -0.11780397418E+03 -0.49697348320E+03  0.82830546333E+03  0.97311374459E+03  0.00000000000E+00 0.  1.
<mgrwt>
<rscale>  0 0.11040367E+04</rscale>
<asrwt>0</asrwt>
<pdfrwt beam="1">  1        2 0.32491364E+00 0.11040367E+04</pdfrwt>
<pdfrwt beam="2">  1       -2 0.22197926E-01 0.11040367E+04</pdfrwt>
<totfact> 0.10239540E+02</totfact>
</mgrwt>
</event>
<event>
12    2  0.3751044E-008  0.1168203E+04  0.7818608E-02  0.9141153E-01
         -1   -1    0    0    0  501 -0.00000000000E+00  0.00000000000E+00  0.15964849568E+03  0.15964849568E+03  0.00000000000E+00 0.  1.
          1   -1    0    0  501    0  0.00000000000E+00 -0.00000000000E+00 -0.21370367984E+04  0.21370367984E+04  0.00000000000E+00 0. -1.
         23    2    1    2    0    0  0.20306122372E+03  0.76607946135E+02 -0.14852466892E+03  0.27923751739E+03  0.93868929115E+02 0.  0.
        254    2    1    2    0    0 -0.20306122372E+03 -0.76607946135E+02 -0.18288636338E+04  0.20174477767E+04  0.82355977480E+03 0.  0.
         23    2    4    4    0    0 -0.13883081320E+02  0.30731673508E+03 -0.12577383538E+04  0.12980238580E+04  0.91235155427E+02 0.  0.
         23    2    4    4    0    0 -0.18917814240E+03 -0.38392468121E+03 -0.57112528000E+03  0.71942391874E+03  0.90554729299E+02 0.  0.
          2    1    3    3  502    0  0.15163712317E+03  0.88701137508E+02 -0.14223690873E+03  0.22603771173E+03  0.00000000000E+00 0.  1.
         -2    1    3    3    0  502  0.51424100547E+02 -0.12093191373E+02 -0.62877601932E+01  0.53199805666E+02  0.00000000000E+00 0. -1.
         11    1    5    5    0    0  0.25017277491E+01  0.21505653084E+02 -0.27955203077E+02  0.35358805627E+02  0.00000000000E+00 0. -1.
        -11    1    5    5    0    0 -0.16384809069E+02  0.28581108199E+03 -0.12297831507E+04  0.12626650523E+04  0.00000000000E+00 0.  1.
          4    1    6    6  503    0 -0.52002361204E+02 -0.97531429365E+02 -0.21866417814E+03  0.24501152643E+03  0.00000000000E+00 0. -1.
         -4    1    6    6    0  503 -0.13717578119E+03 -0.28639325185E+03 -0.35246110186E+03  0.47441239231E+03  0.00000000000E+00 0.  1.
<mgrwt>
<rscale>  0 0.11682033E+04</rscale>
<asrwt>0</asrwt>
<pdfrwt beam="1">  1        1 0.32877489E+00 0.11682033E+04</pdfrwt>
<pdfrwt beam="2">  1       -1 0.24561307E-01 0.11682033E+04</pdfrwt>
<totfact> 0.34556076E+01</totfact>
</mgrwt>
</event>
<event>
12    2  0.3751044E-008  0.1072829E+04  0.7818608E-02  0.9232087E-01
         -1   -1    0    0    0  501 -0.00000000000E+00  0.00000000000E+00  0.54928177782E+03  0.54928177782E+03  0.00000000000E+00 0.  1.
          1   -1    0    0  501    0  0.00000000000E+00 -0.00000000000E+00 -0.52384817175E+03  0.52384817175E+03  0.00000000000E+00 0. -1.
         23    2    1    2    0    0  0.11148505283E+03  0.74160949892E+02  0.71234763765E+01  0.16500721127E+03  0.96165858603E+02 0.  0.
        254    2    1    2    0    0 -0.11148505283E+03 -0.74160949892E+02  0.18310129695E+02  0.90812273831E+03  0.89801051413E+03 0.  0.
         23    2    4    4    0    0  0.17782150315E+03  0.20516978517E+03 -0.27919267654E+03  0.39980356222E+03  0.90438984973E+02 0.  0.
         23    2    4    4    0    0 -0.28930655597E+03 -0.27933073506E+03  0.29750280623E+03  0.50831917609E+03  0.90313466247E+02 0.  0.
          2    1    3    3  502    0  0.30816327421E+02  0.32162331435E+02 -0.42360955583E+02  0.61469603521E+02  0.00000000000E+00 0. -1.
         -2    1    3    3    0  502  0.80668725407E+02  0.41998618457E+02  0.49484431960E+02  0.10353760774E+03  0.00000000000E+00 0.  1.
         11    1    5    5    0    0  0.66863571708E+02  0.11062205202E+03 -0.76723156903E+02  0.15031439858E+03  0.00000000000E+00 0. -1.
        -11    1    5    5    0    0  0.11095793144E+03  0.94547733147E+02 -0.20246951963E+03  0.24948916364E+03  0.00000000000E+00 0.  1.
          3    1    6    6  503    0 -0.10715855880E+03 -0.15908727863E+03  0.11370716259E+03  0.22298214675E+03  0.00000000000E+00 0. -1.
         -3    1    6    6    0  503 -0.18214799717E+03 -0.12024345643E+03  0.18379564364E+03  0.28533702934E+03  0.00000000000E+00 0.  1.
<mgrwt>
<rscale>  0 0.10728285E+04</rscale>
<asrwt>0</asrwt>
<pdfrwt beam="1">  1        1 0.80592026E-01 0.10728285E+04</pdfrwt>
<pdfrwt beam="2">  1       -1 0.84504889E-01 0.10728285E+04</pdfrwt>
<totfact> 0.57531385E+01</totfact>
</mgrwt>
</event>
<event>
12    2  0.3751044E-008  0.1439937E+04  0.7818608E-02  0.8925407E-01
         -2   -1    0    0    0  501 -0.00000000000E+00  0.00000000000E+00  0.32794171283E+03  0.32794171283E+03  0.00000000000E+00 0.  1.
          2   -1    0    0  501    0  0.00000000000E+00 -0.00000000000E+00 -0.15806304099E+04  0.15806304099E+04  0.00000000000E+00 0. -1.
         23    2    1    2    0    0 -0.65861675198E+02 -0.38804051980E+03 -0.64844338683E+03  0.76387998588E+03  0.90114380855E+02 0.  0.
        254    2    1    2    0    0  0.65861675198E+02  0.38804051980E+03 -0.60424531025E+03  0.11446921369E+04  0.88898508872E+03 0.  0.
         23    2    4    4    0    0  0.43817130011E+03  0.37138100721E+03 -0.29513326185E+03  0.65205016102E+03  0.90265328226E+02 0.  0.
         23    2    4    4    0    0 -0.37230962491E+03  0.16659512589E+02 -0.30911204840E+03  0.49264197584E+03  0.90850766264E+02 0.  0.
          1    1    3    3  502    0 -0.81476525089E+02 -0.33144164405E+03 -0.51192835170E+03  0.61527443050E+03  0.00000000000E+00 0. -1.
         -1    1    3    3    0  502  0.15614849891E+02 -0.56598875749E+02 -0.13651503514E+03  0.14860555538E+03  0.00000000000E+00 0.  1.
         11    1    5    5    0    0  0.25381039959E+03  0.16207264144E+03 -0.17551418843E+03  0.34855772891E+03  0.00000000000E+00 0.  1.
        -11    1    5    5    0    0  0.18436090052E+03  0.20930836577E+03 -0.11961907343E+03  0.30349243212E+03  0.00000000000E+00 0. -1.
          3    1    6    6  503    0 -0.33059772258E+03  0.30665668160E+01 -0.30279615832E+03  0.44831882796E+03  0.00000000000E+00 0. -1.
         -3    1    6    6    0  503 -0.41711902331E+02  0.13592945773E+02 -0.63158900849E+01  0.44323147885E+02  0.00000000000E+00 0.  1.
<mgrwt>
<rscale>  0 0.14399370E+04</rscale>
<asrwt>0</asrwt>
<pdfrwt beam="1">  1        2 0.24317390E+00 0.14399370E+04</pdfrwt>
<pdfrwt beam="2">  1       -2 0.50452572E-01 0.14399370E+04</pdfrwt>
<totfact> 0.41218301E+01</totfact>
</mgrwt>
</event>
<event>
12    2  0.3751044E-008  0.2304040E+04  0.7818608E-02  0.8476330E-01
         -1   -1    0    0    0  501 -0.00000000000E+00  0.00000000000E+00  0.98135342301E+03  0.98135342301E+03  0.00000000000E+00 0.  1.
          1   -1    0    0  501    0  0.00000000000E+00 -0.00000000000E+00 -0.13523670788E+04  0.13523670788E+04  0.00000000000E+00 0. -1.
         23    2    1    2    0    0  0.23152410019E+03 -0.99126115843E+02 -0.11081989736E+04  0.11400852196E+04  0.90884251740E+02 0.  0.
        254    2    1    2    0    0 -0.23152410019E+03  0.99126115843E+02  0.73718531777E+03  0.11936352822E+04  0.90437470017E+03 0.  0.
         23    2    4    4    0    0 -0.44254586463E+03 -0.20747113839E+03  0.20553073311E+03  0.53811079281E+03  0.91810824618E+02 0.  0.
         23    2    4    4    0    0  0.21102176444E+03  0.30659725424E+03  0.53165458466E+03  0.65552448936E+03  0.92323872288E+02 0.  0.
          4    1    3    3  502    0  0.19290629007E+03 -0.10376083928E+03 -0.10263677119E+04  0.10494807424E+04  0.00000000000E+00 0. -1.
         -4    1    3    3    0  502  0.38617810121E+02  0.46347234382E+01 -0.81831261641E+02  0.90604477271E+02  0.00000000000E+00 0.  1.
         11    1    5    5    0    0 -0.56834302292E+02 -0.61789056655E+02  0.48207235554E+02  0.96808899380E+02  0.00000000000E+00 0. -1.
        -11    1    5    5    0    0 -0.38571156234E+03 -0.14568208174E+03  0.15732349756E+03  0.44130189343E+03  0.00000000000E+00 0.  1.
          1    1    6    6  503    0  0.33759266683E+02  0.12132371668E+03  0.19929995073E+03  0.23575326652E+03  0.00000000000E+00 0. -1.
         -1    1    6    6    0  503  0.17726249776E+03  0.18527353756E+03  0.33235463393E+03  0.41977122284E+03  0.00000000000E+00 0.  1.
<mgrwt>
<rscale>  0 0.23040400E+04</rscale>
<asrwt>0</asrwt>
<pdfrwt beam="1">  1        1 0.20805647E+00 0.23040400E+04</pdfrwt>
<pdfrwt beam="2">  1       -1 0.15097745E+00 0.23040400E+04</pdfrwt>
<totfact> 0.25716557E+00</totfact>
</mgrwt>
</event>
<event>
12    2  0.3751044E-008  0.1298013E+04  0.7818608E-02  0.9031142E-01
         -2   -1    0    0    0  501 -0.00000000000E+00  0.00000000000E+00  0.46708174079E+03  0.46708174079E+03  0.00000000000E+00 0.  1.
          2   -1    0    0  501    0  0.00000000000E+00 -0.00000000000E+00 -0.90179005680E+03  0.90179005680E+03  0.00000000000E+00 0. -1.
         23    2    1    2    0    0  0.29933336219E+03 -0.12602144196E+03 -0.12995119669E+03  0.36156476422E+03  0.91432486819E+02 0.  0.
        254    2    1    2    0    0 -0.29933336219E+03  0.12602144196E+03 -0.30475711933E+03  0.10073070334E+04  0.90349803107E+03 0.  0.
         23    2    4    4    0    0 -0.16030503952E+03  0.46370195692E+03 -0.37413866202E+03  0.62465914660E+03  0.97478718033E+02 0.  0.
         23    2    4    4    0    0 -0.13902832267E+03 -0.33768051496E+03  0.69381542699E+02  0.38264788677E+03  0.90821815082E+02 0.  0.
          4    1    3    3  502    0  0.17271044398E+03 -0.62735960483E+02 -0.12040469538E+03  0.21968611442E+03  0.00000000000E+00 0. -1.
         -4    1    3    3    0  502  0.12662291821E+03 -0.63285481478E+02 -0.95465013154E+01  0.14187864980E+03  0.00000000000E+00 0.  1.
         11    1    5    5    0    0 -0.33206982335E+02  0.35656495980E+02 -0.13136032102E+02  0.50464291541E+02  0.00000000000E+00 0. -1.
        -11    1    5    5    0    0 -0.12709805719E+03  0.42804546094E+03 -0.36100262992E+03  0.57419485506E+03  0.00000000000E+00 0.  1.
          4    1    6    6  503    0 -0.19759059093E+02 -0.14089838957E+03 -0.11468048400E+00  0.14227715822E+03  0.00000000000E+00 0.  1.
         -4    1    6    6    0  503 -0.11926926358E+03 -0.19678212539E+03  0.69496223183E+02  0.24037072855E+03  0.00000000000E+00 0. -1.
<mgrwt>
<rscale>  0 0.12980134E+04</rscale>
<asrwt>0</asrwt>
<pdfrwt beam="1">  1        2 0.13873693E+00 0.12980134E+04</pdfrwt>
<pdfrwt beam="2">  1       -2 0.71858730E-01 0.12980134E+04</pdfrwt>
<totfact> 0.50325476E+01</totfact>
</mgrwt>
</event>
<event>
12    2  0.3751044E-008  0.1402728E+04  0.7818608E-02  0.8951846E-01
          2   -1    0    0  501    0  0.00000000000E+00  0.00000000000E+00  0.18388062300E+04  0.18388062300E+04  0.00000000000E+00 0. -1.
         -2   -1    0    0    0  501 -0.00000000000E+00 -0.00000000000E+00 -0.26751684836E+03  0.26751684836E+03  0.00000000000E+00 0.  1.
         23    2    1    2    0    0 -0.25763280926E+03  0.11012458452E+03  0.28301814152E+02  0.29369962107E+03  0.83404953150E+02 0.  0.
        254    2    1    2    0    0  0.25763280926E+03 -0.11012458452E+03  0.15429875675E+04  0.18126234573E+04  0.90900554231E+03 0.  0.
         23    2    4    4    0    0  0.34041048432E+03  0.29190610917E+03  0.45273643472E+03  0.64376556742E+03  0.91516949604E+02 0.  0.
         23    2    4    4    0    0 -0.82777675064E+02 -0.40203069369E+03  0.10902511328E+04  0.11688578899E+04  0.95396079787E+02 0.  0.
          1    1    3    3  502    0 -0.95437610207E+02  0.98549339434E+01  0.36957556007E+02  0.10281691549E+03  0.00000000000E+00 0. -1.
         -1    1    3    3    0  502 -0.16219519905E+03  0.10026965057E+03 -0.86557418547E+01  0.19088270558E+03  0.00000000000E+00 0.  1.
         11    1    5    5    0    0  0.45052058376E+02  0.87694287992E+02  0.96878308727E+02  0.13822222257E+03  0.00000000000E+00 0. -1.
        -11    1    5    5    0    0  0.29535842595E+03  0.20421182118E+03  0.35585812599E+03  0.50554334485E+03  0.00000000000E+00 0.  1.
          4    1    6    6  503    0  0.26906513298E+01 -0.16288579436E+03  0.34510297300E+03  0.38162164978E+03  0.00000000000E+00 0. -1.
         -4    1    6    6    0  503 -0.85468326393E+02 -0.23914489932E+03  0.74514815980E+03  0.78723624011E+03  0.00000000000E+00 0.  1.
<mgrwt>
<rscale>  0 0.14027283E+04</rscale>
<asrwt>0</asrwt>
<pdfrwt beam="1">  1        2 0.28289326E+00 0.14027283E+04</pdfrwt>
<pdfrwt beam="2">  1       -2 0.41156439E-01 0.14027283E+04</pdfrwt>
<totfact> 0.44688388E+01</totfact>
</mgrwt>
</event>
<event>
12    2  0.3751044E-008  0.1380212E+04  0.7818608E-02  0.8968268E-01
          1   -1    0    0  501    0  0.00000000000E+00  0.00000000000E+00  0.11914678699E+04  0.11914678699E+04  0.00000000000E+00 0. -1.
         -1   -1    0    0    0  501 -0.00000000000E+00 -0.00000000000E+00 -0.39971388089E+03  0.39971388089E+03  0.00000000000E+00 0.  1.
         23    2    1    2    0    0  0.27873101370E+03  0.11978858242E+03  0.43572373218E+03  0.53902452835E+03  0.93016067992E+02 0.  0.
        254    2    1    2    0    0 -0.27873101370E+03 -0.11978858242E+03  0.35603025680E+03  0.10521572224E+04  0.94246325892E+03 0.  0.
         23    2    4    4    0    0 -0.32280313062E+03  0.36295748858E+03  0.13830108462E+03  0.51291737755E+03  0.89537961384E+02 0.  0.
         23    2    4    4    0    0  0.44072116921E+02 -0.48274607100E+03  0.21772917218E+03  0.53923984485E+03  0.91583280663E+02 0.  0.
          3    1    3    3  502    0  0.26506043766E+03  0.13387866782E+03  0.41673775214E+03  0.51171367714E+03  0.00000000000E+00 0. -1.
         -3    1    3    3    0  502  0.13670576033E+02 -0.14090085406E+02  0.18985980043E+02  0.27310851214E+02  0.00000000000E+00 0.  1.
         11    1    5    5    0    0 -0.24715954531E+03  0.32532135838E+03  0.10295852103E+03  0.42133393420E+03  0.00000000000E+00 0.  1.
        -11    1    5    5    0    0 -0.75643585307E+02  0.37636130209E+02  0.35342563585E+02  0.91583443351E+02  0.00000000000E+00 0. -1.
          2    1    6    6  503    0  0.15694955742E+02 -0.46843031456E+02 -0.36175898903E+01  0.49534717001E+02  0.00000000000E+00 0. -1.
         -2    1    6    6    0  503  0.28377161179E+02 -0.43590303954E+03  0.22134676207E+03  0.48970512785E+03  0.00000000000E+00 0.  1.
<mgrwt>
<rscale>  0 0.13802119E+04</rscale>
<asrwt>0</asrwt>
<pdfrwt beam="1">  1        1 0.18330275E+00 0.13802119E+04</pdfrwt>
<pdfrwt beam="2">  1       -1 0.61494444E-01 0.13802119E+04</pdfrwt>
<totfact> 0.28393411E+01</totfact>
</mgrwt>
</event>
<event>
12    2  0.3751044E-008  0.2222901E+04  0.7818608E-02  0.8508956E-01
          2   -1    0    0  501    0  0.00000000000E+00  0.00000000000E+00  0.36853000403E+04  0.36853000403E+04  0.00000000000E+00 0. -1.
         -2   -1    0    0    0  501 -0.00000000000E+00 -0.00000000000E+00 -0.33520261299E+03  0.33520261299E+03  0.00000000000E+00 0.  1.
         23    2    1    2    0    0 -0.17883784611E+03  0.59133604431E+03  0.26521177640E+04  0.27246285896E+04  0.90614703710E+02 0.  0.
        254    2    1    2    0    0  0.17883784611E+03 -0.59133604431E+03  0.69797966330E+03  0.12958740637E+04  0.90025145715E+03 0.  0.
         23    2    4    4    0    0 -0.15104705476E+03 -0.59665233740E+03  0.72177606710E+03  0.95259015701E+03  0.87510523393E+02 0.  0.
         23    2    4    4    0    0  0.32988490087E+03  0.53162930908E+01 -0.23796403804E+02  0.34328390670E+03  0.91789220344E+02 0.  0.
          1    1    3    3  502    0 -0.63136861430E+02  0.30608074841E+03  0.14908047585E+04  0.15232105947E+04  0.00000000000E+00 0. -1.
         -1    1    3    3    0  502 -0.11570098467E+03  0.28525529591E+03  0.11613130056E+04  0.12014179949E+04  0.00000000000E+00 0.  1.
         11    1    5    5    0    0 -0.12469431231E+03 -0.31503056145E+03  0.39452735099E+03  0.52004303365E+03  0.00000000000E+00 0. -1.
        -11    1    5    5    0    0 -0.26352742447E+02 -0.28162177595E+03  0.32724871611E+03  0.43254712336E+03  0.00000000000E+00 0.  1.
          1    1    6    6  503    0  0.25927556769E+03  0.30211993272E+02 -0.46302347496E+02  0.26510468106E+03  0.00000000000E+00 0. -1.
         -1    1    6    6    0  503  0.70609333177E+02 -0.24895700182E+02  0.22505943692E+02  0.78179225634E+02  0.00000000000E+00 0.  1.
<mgrwt>
<rscale>  0 0.22229010E+04</rscale>
<asrwt>0</asrwt>
<pdfrwt beam="1">  1        2 0.56696921E+00 0.22229010E+04</pdfrwt>
<pdfrwt beam="2">  1       -2 0.51569635E-01 0.22229010E+04</pdfrwt>
<totfact> 0.19479629E+00</totfact>
</mgrwt>
</event>
<event>
12    2  0.3751044E-008  0.1591848E+04  0.7818608E-02  0.8825572E-01
         -2   -1    0    0    0  501 -0.00000000000E+00  0.00000000000E+00  0.26118520246E+04  0.26118520246E+04  0.00000000000E+00 0.  1.
          2   -1    0    0  501    0  0.00000000000E+00 -0.00000000000E+00 -0.24254625648E+03  0.24254625648E+03  0.00000000000E+00 0. -1.
         23    2    1    2    0    0 -0.36601833701E+03  0.29605857651E+03  0.12951885363E+04  0.13811079135E+04  0.91244838646E+02 0.  0.
        254    2    1    2    0    0  0.36601833701E+03 -0.29605857651E+03  0.10741172319E+04  0.14732903676E+04  0.89176038015E+03 0.  0.
         23    2    4    4    0    0 -0.94505542162E+02  0.22615994009E+03  0.51350042829E+03  0.57457124476E+03  0.79811086059E+02 0.  0.
         23    2    4    4    0    0  0.46052387918E+03 -0.52221851660E+03  0.56061680359E+03  0.89871912281E+03  0.92792450445E+02 0.  0.
          4    1    3    3  502    0 -0.16329680062E+02 -0.27486374797E+01  0.81905106957E+02  0.83562312107E+02  0.00000000000E+00 0. -1.
         -4    1    3    3    0  502 -0.34968865695E+03  0.29880721399E+03  0.12132834293E+04  0.12975456014E+04  0.00000000000E+00 0.  1.
         11    1    5    5    0    0 -0.37608870789E+02  0.64672272325E+02  0.24462193812E+03  0.25580622076E+03  0.00000000000E+00 0. -1.
        -11    1    5    5    0    0 -0.56896671373E+02  0.16148766777E+03  0.26887849016E+03  0.31876502400E+03  0.00000000000E+00 0.  1.
          4    1    6    6  503    0  0.18787678473E+03 -0.16854019321E+03  0.16037908634E+03  0.29904002124E+03  0.00000000000E+00 0. -1.
         -4    1    6    6    0  503  0.27264709444E+03 -0.35367832339E+03  0.40023771726E+03  0.59967910157E+03  0.00000000000E+00 0.  1.
<mgrwt>
<rscale>  0 0.15918479E+04</rscale>
<asrwt>0</asrwt>
<pdfrwt beam="1">  1        2 0.37314810E-01 0.15918479E+04</pdfrwt>
<pdfrwt beam="2">  1       -2 0.40182337E+00 0.15918479E+04</pdfrwt>
<totfact> 0.97224419E-01</totfact>
</mgrwt>
</event>
<event>
12    2  0.3751044E-008  0.1918584E+04  0.7818608E-02  0.8645661E-01
          1   -1    0    0  501    0  0.00000000000E+00  0.00000000000E+00  0.20718814589E+04  0.20718814589E+04  0.00000000000E+00 0. -1.
         -1   -1    0    0    0  501 -0.00000000000E+00 -0.00000000000E+00 -0.44415721361E+03  0.44415721361E+03  0.00000000000E+00 0.  1.
         23    2    1    2    0    0  0.19695234711E+03 -0.67530824797E+03  0.32919879003E+03  0.78203130284E+03  0.91485837419E+02 0.  0.
        254    2    1    2    0    0 -0.19695234711E+03  0.67530824797E+03  0.12985254553E+04  0.17340073697E+04  0.90872533986E+03 0.  0.
         23    2    4    4    0    0 -0.27612434513E+03  0.66177878317E+03  0.14000979216E+04  0.15755823209E+04  0.89384831012E+02 0.  0.
         23    2    4    4    0    0  0.79171998025E+02  0.13529464801E+02 -0.10157246635E+03  0.15842504877E+03  0.91270359206E+02 0.  0.
          3    1    3    3  502    0  0.11188946206E+03 -0.36226944480E+03  0.12735926881E+03  0.39997348126E+03  0.00000000000E+00 0. -1.
         -3    1    3    3    0  502  0.85062885042E+02 -0.31303880317E+03  0.20183952122E+03  0.38205782158E+03  0.00000000000E+00 0.  1.
         11    1    5    5    0    0 -0.18279139396E+03  0.47242157966E+03  0.90018324869E+03  0.10329204828E+04  0.00000000000E+00 0. -1.
        -11    1    5    5    0    0 -0.93332951174E+02  0.18935720351E+03  0.49991467293E+03  0.54266183808E+03  0.00000000000E+00 0.  1.
          4    1    6    6  503    0  0.20551709374E+02 -0.25462332774E+02 -0.77323798305E+02  0.83962330439E+02  0.00000000000E+00 0. -1.
         -4    1    6    6    0  503  0.58620288651E+02  0.38991797575E+02 -0.24248668041E+02  0.74462718332E+02  0.00000000000E+00 0.  1.
<mgrwt>
<rscale>  0 0.19185840E+04</rscale>
<asrwt>0</asrwt>
<pdfrwt beam="1">  1        1 0.31875099E+00 0.19185840E+04</pdfrwt>
<pdfrwt beam="2">  1       -1 0.68331880E-01 0.19185840E+04</pdfrwt>
<totfact> 0.53933175E+00</totfact>
</mgrwt>
</event>
<event>
12    2  0.3751044E-008  0.1605492E+04  0.7818608E-02  0.8817181E-01
          1   -1    0    0  501    0  0.00000000000E+00  0.00000000000E+00  0.27812465967E+04  0.27812465967E+04  0.00000000000E+00 0. -1.
         -1   -1    0    0    0  501 -0.00000000000E+00 -0.00000000000E+00 -0.23169503695E+03  0.23169503695E+03  0.00000000000E+00 0.  1.
         23    2    1    2    0    0  0.27385232234E+02 -0.12794810213E+03 -0.11363967660E+03  0.19628319170E+03  0.92154476093E+02 0.  0.
        254    2    1    2    0    0 -0.27385232234E+02  0.12794810213E+03  0.26631912364E+04  0.28166584420E+04  0.90766543917E+03 0.  0.
         23    2    4    4    0    0  0.12111652480E+03 -0.36216954366E+03  0.12505344290E+04  0.13107648280E+04  0.91826386613E+02 0.  0.
         23    2    4    4    0    0 -0.14850175703E+03  0.49011764578E+03  0.14126568074E+04  0.15058936140E+04  0.99238312356E+02 0.  0.
          2    1    3    3  502    0 -0.22974923266E+02 -0.69079252037E+02 -0.21510725874E+02  0.75911142059E+02  0.00000000000E+00 0. -1.
         -2    1    3    3    0  502  0.50360155500E+02 -0.58868850089E+02 -0.92128950728E+02  0.12037204964E+03  0.00000000000E+00 0.  1.
         11    1    5    5    0    0  0.23125094025E+02 -0.92293886699E+02  0.19647081942E+03  0.21829730731E+03  0.00000000000E+00 0.  1.
        -11    1    5    5    0    0  0.97991430773E+02 -0.26987565696E+03  0.10540636095E+04  0.10924675206E+04  0.00000000000E+00 0. -1.
          2    1    6    6  503    0 -0.13425938745E+03  0.44192682080E+03  0.13414842774E+04  0.14187688200E+04  0.00000000000E+00 0. -1.
         -2    1    6    6    0  503 -0.14242369579E+02  0.48190824977E+02  0.71172529950E+02  0.87124793960E+02  0.00000000000E+00 0.  1.
<mgrwt>
<rscale>  0 0.16054919E+04</rscale>
<asrwt>0</asrwt>
<pdfrwt beam="1">  1        1 0.42788407E+00 0.16054919E+04</pdfrwt>
<pdfrwt beam="2">  1       -1 0.35645392E-01 0.16054919E+04</pdfrwt>
<totfact> 0.62111512E+00</totfact>
</mgrwt>
</event>
<event>
12    2  0.3751044E-008  0.1874189E+04  0.7818608E-02  0.8667812E-01
         -1   -1    0    0    0  501 -0.00000000000E+00  0.00000000000E+00  0.28851584035E+03  0.28851584035E+03  0.00000000000E+00 0.  1.
          1   -1    0    0  501    0  0.00000000000E+00 -0.00000000000E+00 -0.30436655519E+04  0.30436655519E+04  0.00000000000E+00 0. -1.
         23    2    1    2    0    0 -0.28993674389E+03  0.63812732903E+03 -0.13815520481E+04  0.15519041329E+04  0.91926994677E+02 0.  0.
        254    2    1    2    0    0  0.28993674389E+03 -0.63812732903E+03 -0.13735976634E+04  0.17802772594E+04  0.88957673970E+03 0.  0.
         23    2    4    4    0    0  0.30766500520E+03 -0.84062904612E+03 -0.11950566845E+04  0.14953980093E+04  0.82096152687E+02 0.  0.
         23    2    4    4    0    0 -0.17728261315E+02  0.20250171710E+03 -0.17854097888E+03  0.28487925010E+03  0.89208011546E+02 0.  0.
          1    1    3    3  502    0 -0.96100174351E+02  0.27899488419E+03 -0.65942636640E+03  0.72243790156E+03  0.00000000000E+00 0. -1.
         -1    1    3    3    0  502 -0.19383656954E+03  0.35913244484E+03 -0.72212568174E+03  0.82946623129E+03  0.00000000000E+00 0.  1.
         11    1    5    5    0    0  0.83093962306E+02 -0.16949845519E+03 -0.29848653657E+03  0.35316928716E+03  0.00000000000E+00 0. -1.
        -11    1    5    5    0    0  0.22457104290E+03 -0.67113059093E+03 -0.89657014794E+03  0.11422287221E+04  0.00000000000E+00 0.  1.
          3    1    6    6  503    0  0.26089464387E+02  0.20490985689E+02 -0.15465726919E+02  0.36602313529E+02  0.00000000000E+00 0. -1.
         -3    1    6    6    0  503 -0.43817725702E+02  0.18201073141E+03 -0.16307525196E+03  0.24827693657E+03  0.00000000000E+00 0.  1.
<mgrwt>
<rscale>  0 0.18741886E+04</rscale>
<asrwt>0</asrwt>
<pdfrwt beam="1">  1        1 0.46825626E+00 0.18741886E+04</pdfrwt>
<pdfrwt beam="2">  1       -1 0.44387051E-01 0.18741886E+04</pdfrwt>
<totfact> 0.26236689E+00</totfact>
</mgrwt>
</event>
<event>
12    2  0.3751044E-008  0.3134742E+04  0.7818608E-02  0.8206268E-01
         -1   -1    0    0    0  501 -0.00000000000E+00  0.00000000000E+00  0.10177584205E+04  0.10177584205E+04  0.00000000000E+00 0.  1.
          1   -1    0    0  501    0  0.00000000000E+00 -0.00000000000E+00 -0.24137861979E+04  0.24137861979E+04  0.00000000000E+00 0. -1.
         23    2    1    2    0    0  0.66983676480E+03 -0.36825061617E+02 -0.20278156725E+04  0.21380028503E+04  0.94775576304E+02 0.  0.
        254    2    1    2    0    0 -0.66983676480E+03  0.36825061617E+02  0.63178789506E+03  0.12935417681E+04  0.90777584504E+03 0.  0.
         23    2    4    4    0    0 -0.62574599168E+03  0.39610149813E+03  0.34287219828E+03  0.82155475872E+03  0.94532715483E+02 0.  0.
         23    2    4    4    0    0 -0.44090773118E+02 -0.35927643652E+03  0.28891569678E+03  0.47198700938E+03  0.90971990542E+02 0.  0.
          1    1    3    3  502    0  0.52697766670E+03 -0.59424554807E+02 -0.15126278736E+04  0.16028973214E+04  0.00000000000E+00 0. -1.
         -1    1    3    3    0  502  0.14285909810E+03  0.22599493191E+02 -0.51518779886E+03  0.53510552894E+03  0.00000000000E+00 0.  1.
         11    1    5    5    0    0 -0.12020589304E+02  0.29945293539E+01 -0.57273063552E+01  0.13647850063E+02  0.00000000000E+00 0. -1.
        -11    1    5    5    0    0 -0.61372540238E+03  0.39310696878E+03  0.34859950464E+03  0.80790690866E+03  0.00000000000E+00 0.  1.
          2    1    6    6  503    0  0.21775055888E+02 -0.19030850795E+03  0.13853727427E+03  0.23639809140E+03  0.00000000000E+00 0. -1.
         -2    1    6    6    0  503 -0.65865829006E+02 -0.16896792857E+03  0.15037842251E+03  0.23558891798E+03  0.00000000000E+00 0.  1.
<mgrwt>
<rscale>  0 0.31347416E+04</rscale>
<asrwt>0</asrwt>
<pdfrwt beam="1">  1        1 0.37135172E+00 0.31347416E+04</pdfrwt>
<pdfrwt beam="2">  1       -1 0.15657822E+00 0.31347416E+04</pdfrwt>
<totfact> 0.40570584E-01</totfact>
</mgrwt>
</event>
<event>
12    2  0.3751044E-008  0.1991660E+04  0.7818608E-02  0.8610530E-01
          2   -1    0    0  501    0  0.00000000000E+00  0.00000000000E+00  0.15795377726E+04  0.15795377726E+04  0.00000000000E+00 0. -1.
         -2   -1    0    0    0  501 -0.00000000000E+00 -0.00000000000E+00 -0.62782784383E+03  0.62782784383E+03  0.00000000000E+00 0.  1.
         23    2    1    2    0    0 -0.39664214431E+03 -0.67936197498E+03  0.33123249683E+03  0.85834085295E+03  0.90423277962E+02 0.  0.
        254    2    1    2    0    0  0.39664214431E+03  0.67936197498E+03  0.62047743197E+03  0.13490247635E+04  0.90333708288E+03 0.  0.
         23    2    4    4    0    0  0.39607092461E+03  0.32783742137E+03  0.79061162889E+03  0.94759236104E+03  0.92276664365E+02 0.  0.
         23    2    4    4    0    0  0.57121969087E+00  0.35152455361E+03 -0.17013419692E+03  0.40143240248E+03  0.92911197991E+02 0.  0.
          2    1    3    3  502    0 -0.36274216219E+03 -0.65907035381E+03  0.31669472535E+03  0.81624209434E+03  0.00000000000E+00 0. -1.
         -2    1    3    3    0  502 -0.33899982114E+02 -0.20291621167E+02  0.14537771486E+02  0.42098758613E+02  0.00000000000E+00 0.  1.
         11    1    5    5    0    0  0.15881007523E+03  0.12117108445E+03  0.22931357355E+03  0.30411804734E+03  0.00000000000E+00 0.  1.
        -11    1    5    5    0    0  0.23726084939E+03  0.20666633692E+03  0.56129805534E+03  0.64347431370E+03  0.00000000000E+00 0. -1.
          3    1    6    6  503    0  0.15321243189E+02  0.31556995110E+03 -0.17673335676E+03  0.36201355488E+03  0.00000000000E+00 0. -1.
         -3    1    6    6    0  503 -0.14750023498E+02  0.35954602513E+02  0.65991598341E+01  0.39418847593E+02  0.00000000000E+00 0.  1.
<mgrwt>
<rscale>  0 0.19916604E+04</rscale>
<asrwt>0</asrwt>
<pdfrwt beam="1">  1        2 0.24300581E+00 0.19916604E+04</pdfrwt>
<pdfrwt beam="2">  1       -2 0.96588899E-01 0.19916604E+04</pdfrwt>
<totfact> 0.95437255E+00</totfact>
</mgrwt>
</event>
<event>
12    2  0.3751044E-008  0.1517882E+04  0.7818608E-02  0.8872648E-01
          1   -1    0    0  501    0  0.00000000000E+00  0.00000000000E+00  0.29813597698E+04  0.29813597698E+04  0.00000000000E+00 0. -1.
         -1   -1    0    0    0  501 -0.00000000000E+00 -0.00000000000E+00 -0.19319758453E+03  0.19319758453E+03  0.00000000000E+00 0.  1.
         23    2    1    2    0    0 -0.27854983834E+02 -0.28720568426E+03  0.16932847747E+04  0.17202193441E+04  0.93157169261E+02 0.  0.
        254    2    1    2    0    0  0.27854983834E+02  0.28720568426E+03  0.10948774106E+04  0.14543380103E+04  0.91273188768E+03 0.  0.
         23    2    4    4    0    0 -0.17542179474E+03  0.42161525217E+03  0.17278669916E+03  0.49675760483E+03  0.91545877094E+02 0.  0.
         23    2    4    4    0    0  0.20327677858E+03 -0.13440956791E+03  0.92209071142E+03  0.95758040546E+03  0.85566185951E+02 0.  0.
          3    1    3    3  502    0 -0.18669560265E+02 -0.72384701672E+02  0.69694062499E+03  0.70093818007E+03  0.00000000000E+00 0. -1.
         -3    1    3    3    0  502 -0.91854235692E+01 -0.21482098259E+03  0.99634414973E+03  0.10192811640E+04  0.00000000000E+00 0.  1.
         11    1    5    5    0    0 -0.16257028481E+03  0.32847932781E+03  0.16642748364E+03  0.40252437642E+03  0.00000000000E+00 0. -1.
        -11    1    5    5    0    0 -0.12851509934E+02  0.93135924362E+02  0.63592155212E+01  0.94233228410E+02  0.00000000000E+00 0.  1.
          3    1    6    6  503    0  0.17836138747E+03 -0.75191406708E+02  0.71650263523E+03  0.74218768413E+03  0.00000000000E+00 0. -1.
         -3    1    6    6    0  503  0.24915391108E+02 -0.59218161202E+02  0.20558807619E+03  0.21539272133E+03  0.00000000000E+00 0.  1.
<mgrwt>
<rscale>  0 0.15178821E+04</rscale>
<asrwt>0</asrwt>
<pdfrwt beam="1">  1        1 0.45867070E+00 0.15178821E+04</pdfrwt>
<pdfrwt beam="2">  1       -1 0.29722707E-01 0.15178821E+04</pdfrwt>
<totfact> 0.62149978E+00</totfact>
</mgrwt>
</event>
<event>
12    2  0.3751044E-008  0.1665860E+04  0.7818608E-02  0.8781079E-01
         -2   -1    0    0    0  501 -0.00000000000E+00  0.00000000000E+00  0.67210588817E+03  0.67210588817E+03  0.00000000000E+00 0. -1.
          2   -1    0    0  501    0  0.00000000000E+00 -0.00000000000E+00 -0.10322370859E+04  0.10322370859E+04  0.00000000000E+00 0.  1.
         23    2    1    2    0    0  0.47338342180E+03  0.33024187515E+03 -0.88347276338E+02  0.59199715642E+03  0.97487598342E+02 0.  0.
        254    2    1    2    0    0 -0.47338342180E+03 -0.33024187515E+03 -0.27178392134E+03  0.11123458176E+04  0.91120533245E+03 0.  0.
         23    2    4    4    0    0  0.23939546858E+03 -0.11956247472E+03  0.67288204608E+02  0.29038267236E+03  0.90493194180E+02 0.  0.
         23    2    4    4    0    0 -0.71277889038E+03 -0.21067940043E+03 -0.33907212595E+03  0.82196314524E+03  0.90630840196E+02 0.  0.
          2    1    3    3  502    0  0.18484157394E+03  0.76554308428E+02 -0.13126667321E+02  0.20049757851E+03  0.00000000000E+00 0.  1.
         -2    1    3    3    0  502  0.28854184787E+03  0.25368756673E+03 -0.75220609017E+02  0.39149957791E+03  0.00000000000E+00 0. -1.
         11    1    5    5    0    0  0.36475520768E+02 -0.39949348905E+02 -0.16955183626E+02  0.56691201655E+02  0.00000000000E+00 0. -1.
        -11    1    5    5    0    0  0.20291994781E+03 -0.79613125818E+02  0.84243388235E+02  0.23369147071E+03  0.00000000000E+00 0.  1.
          4    1    6    6  503    0 -0.64936708896E+03 -0.20538544885E+03 -0.33276375624E+03  0.75801880998E+03  0.00000000000E+00 0.  1.
         -4    1    6    6    0  503 -0.63411801420E+02 -0.52939515762E+01 -0.63083697172E+01  0.63944335254E+02  0.00000000000E+00 0. -1.
<mgrwt>
<rscale>  0 0.16658603E+04</rscale>
<asrwt>0</asrwt>
<pdfrwt beam="1">  1        2 0.15880571E+00 0.16658603E+04</pdfrwt>
<pdfrwt beam="2">  1       -2 0.10340091E+00 0.16658603E+04</pdfrwt>
<totfact> 0.17481901E+01</totfact>
</mgrwt>
</event>
<event>
12    2  0.3751044E-008  0.2828710E+04  0.7818608E-02  0.8294410E-01
         -2   -1    0    0    0  501 -0.00000000000E+00  0.00000000000E+00  0.50607654534E+03  0.50607654534E+03  0.00000000000E+00 0. -1.
          2   -1    0    0  501    0  0.00000000000E+00 -0.00000000000E+00 -0.39527626670E+04  0.39527626670E+04  0.00000000000E+00 0.  1.
         23    2    1    2    0    0  0.61867606434E+03  0.10404936776E+04 -0.22581082935E+04  0.25639267926E+04  0.96334661640E+02 0.  0.
        254    2    1    2    0    0 -0.61867606434E+03 -0.10404936776E+04 -0.11885778282E+04  0.18949124197E+04  0.84414966627E+03 0.  0.
         23    2    4    4    0    0 -0.42622504478E+03 -0.67192142014E+03 -0.12306525669E+04  0.14679178028E+04  0.84443779817E+02 0.  0.
         23    2    4    4    0    0 -0.19245101955E+03 -0.36857225746E+03  0.42074738704E+02  0.42699461686E+03  0.87585474213E+02 0.  0.
          4    1    3    3  502    0  0.15343924621E+03  0.24558335271E+03 -0.62956369690E+03  0.69296842198E+03  0.00000000000E+00 0.  1.
         -4    1    3    3    0  502  0.46523681813E+03  0.79491032489E+03 -0.16285445966E+04  0.18709583706E+04  0.00000000000E+00 0. -1.
         11    1    5    5    0    0 -0.22576775482E+03 -0.28745368931E+03 -0.60086791552E+03  0.70330857702E+03  0.00000000000E+00 0. -1.
        -11    1    5    5    0    0 -0.20045728997E+03 -0.38446773083E+03 -0.62978465134E+03  0.76460922582E+03  0.00000000000E+00 0.  1.
          4    1    6    6  503    0 -0.14886906570E+03 -0.31082323286E+03  0.27425511693E+01  0.34464561857E+03  0.00000000000E+00 0. -1.
         -4    1    6    6    0  503 -0.43581953855E+02 -0.57749024598E+02  0.39332187535E+02  0.82348998295E+02  0.00000000000E+00 0.  1.
<mgrwt>
<rscale>  0 0.28287103E+04</rscale>
<asrwt>0</asrwt>
<pdfrwt beam="1">  1        2 0.60811733E+00 0.28287103E+04</pdfrwt>
<pdfrwt beam="2">  1       -2 0.77857931E-01 0.28287103E+04</pdfrwt>
<totfact> 0.47640987E-01</totfact>
</mgrwt>
</event>
<event>
12    2  0.3751044E-008  0.1454504E+04  0.7818608E-02  0.8915284E-01
          2   -1    0    0  501    0  0.00000000000E+00  0.00000000000E+00  0.21388001416E+04  0.21388001416E+04  0.00000000000E+00 0. -1.
         -2   -1    0    0    0  501 -0.00000000000E+00 -0.00000000000E+00 -0.24728596593E+03  0.24728596593E+03  0.00000000000E+00 0.  1.
         23    2    1    2    0    0 -0.21125490972E+03  0.27861729847E+03  0.17168209567E+03  0.39995090789E+03  0.90717974314E+02 0.  0.
        254    2    1    2    0    0  0.21125490972E+03 -0.27861729847E+03  0.17198320800E+04  0.19861351997E+04  0.92986795405E+03 0.  0.
         23    2    4    4    0    0  0.11093296815E+03 -0.61175974692E+03  0.98808771472E+03  0.11709757684E+04  0.91163626045E+02 0.  0.
         23    2    4    4    0    0  0.10032194157E+03  0.33314244845E+03  0.73174436530E+03  0.81515943131E+03  0.89368335420E+02 0.  0.
          4    1    3    3  502    0  0.15501140247E+01 -0.57846324009E+01  0.21513588097E+01  0.63634244107E+01  0.00000000000E+00 0. -1.
         -4    1    3    3    0  502 -0.21280502374E+03  0.28440193087E+03  0.16953073686E+03  0.39358748348E+03  0.00000000000E+00 0.  1.
         11    1    5    5    0    0  0.65979491091E+02 -0.32273000701E+03  0.60644070313E+03  0.69012917420E+03  0.00000000000E+00 0. -1.
        -11    1    5    5    0    0  0.44953477057E+02 -0.28902973991E+03  0.38164701159E+03  0.48084659416E+03  0.00000000000E+00 0.  1.
          4    1    6    6  503    0  0.99317266611E+02  0.27388703463E+03  0.66429456529E+03  0.72537252268E+03  0.00000000000E+00 0.  1.
         -4    1    6    6    0  503  0.10046749604E+01  0.59255413824E+02  0.67449800013E+02  0.89786908628E+02  0.00000000000E+00 0. -1.
<mgrwt>
<rscale>  0 0.14545037E+04</rscale>
<asrwt>0</asrwt>
<pdfrwt beam="1">  1        2 0.32904616E+00 0.14545037E+04</pdfrwt>
<pdfrwt beam="2">  1       -2 0.38043996E-01 0.14545037E+04</pdfrwt>
<totfact> 0.35376131E+01</totfact>
</mgrwt>
</event>
<event>
12    2  0.3751044E-008  0.1646540E+04  0.7818608E-02  0.8792456E-01
         -1   -1    0    0    0  501 -0.00000000000E+00  0.00000000000E+00  0.67476768086E+03  0.67476768086E+03  0.00000000000E+00 0.  1.
          1   -1    0    0  501    0  0.00000000000E+00 -0.00000000000E+00 -0.10044543708E+04  0.10044543708E+04  0.00000000000E+00 0. -1.
         23    2    1    2    0    0  0.37650796297E+03 -0.19157810693E+03 -0.51210394119E+03  0.67017398156E+03  0.91773099209E+02 0.  0.
        254    2    1    2    0    0 -0.37650796297E+03  0.19157810693E+03  0.18241725126E+03  0.10090480701E+04  0.89802090007E+03 0.  0.
         23    2    4    4    0    0 -0.58201589622E+03  0.41264079701E+02  0.35391172543E+03  0.68900979624E+03  0.95056626279E+02 0.  0.
         23    2    4    4    0    0  0.20550793324E+03  0.15031402723E+03 -0.17149447417E+03  0.32003827385E+03  0.90478310387E+02 0.  0.
          3    1    3    3  502    0  0.35442833648E+03 -0.16074102766E+03 -0.49179556448E+03  0.62715229483E+03  0.00000000000E+00 0. -1.
         -3    1    3    3    0  502  0.22079626492E+02 -0.30837079272E+02 -0.20308376711E+02  0.43021686726E+02  0.00000000000E+00 0.  1.
         11    1    5    5    0    0 -0.11296905355E+03 -0.23807134528E+02  0.93681350906E+02  0.14867744356E+03  0.00000000000E+00 0. -1.
        -11    1    5    5    0    0 -0.46904684266E+03  0.65071214229E+02  0.26023037452E+03  0.54033235269E+03  0.00000000000E+00 0.  1.
          4    1    6    6  503    0  0.23961856157E+01 -0.10670655114E+02 -0.52642550134E+01  0.12137420109E+02  0.00000000000E+00 0. -1.
         -4    1    6    6    0  503  0.20311174763E+03  0.16098468234E+03 -0.16623021915E+03  0.30790085374E+03  0.00000000000E+00 0.  1.
<mgrwt>
<rscale>  0 0.16465398E+04</rscale>
<asrwt>0</asrwt>
<pdfrwt beam="1">  1        1 0.15453144E+00 0.16465398E+04</pdfrwt>
<pdfrwt beam="2">  1       -1 0.10381041E+00 0.16465398E+04</pdfrwt>
<totfact> 0.12546150E+01</totfact>
</mgrwt>
</event>
<event>
12    2  0.3751044E-008  0.1489199E+04  0.7818608E-02  0.8891667E-01
          2   -1    0    0  501    0  0.00000000000E+00  0.00000000000E+00  0.30641301567E+03  0.30641301567E+03  0.00000000000E+00 0. -1.
         -2   -1    0    0    0  501 -0.00000000000E+00 -0.00000000000E+00 -0.18094150570E+04  0.18094150570E+04  0.00000000000E+00 0.  1.
         23    2    1    2    0    0  0.22215406746E+03  0.40620817077E+03 -0.43991315161E+03  0.64540572907E+03  0.93099229188E+02 0.  0.
        254    2    1    2    0    0 -0.22215406746E+03 -0.40620817077E+03 -0.10630888897E+04  0.14704223436E+04  0.90422694797E+03 0.  0.
         23    2    4    4    0    0  0.16528336109E+03 -0.54568585657E+03 -0.47699060212E+03  0.74805470627E+03  0.83511469543E+02 0.  0.
         23    2    4    4    0    0 -0.38743742854E+03  0.13947768580E+03 -0.58609828760E+03  0.72236763734E+03  0.93498742620E+02 0.  0.
          2    1    3    3  502    0  0.10983015281E+03  0.19646400291E+03 -0.27761889877E+03  0.35739756555E+03  0.00000000000E+00 0. -1.
         -2    1    3    3    0  502  0.11232391464E+03  0.20974416786E+03 -0.16229425284E+03  0.28800816352E+03  0.00000000000E+00 0.  1.
         11    1    5    5    0    0  0.15160753195E+03 -0.50039575104E+03 -0.40262098997E+03  0.65991242826E+03  0.00000000000E+00 0.  1.
        -11    1    5    5    0    0  0.13675829138E+02 -0.45290105526E+02 -0.74369612151E+02  0.88142278009E+02  0.00000000000E+00 0. -1.
          1    1    6    6  503    0 -0.72314913834E+02  0.40782173283E+02 -0.64953671806E+02  0.10541163077E+03  0.00000000000E+00 0. -1.
         -1    1    6    6    0  503 -0.31512251471E+03  0.98695512514E+02 -0.52114461580E+03  0.61695600657E+03  0.00000000000E+00 0.  1.
<mgrwt>
<rscale>  0 0.14891989E+04</rscale>
<asrwt>0</asrwt>
<pdfrwt beam="1">  1        2 0.47140465E-01 0.14891989E+04</pdfrwt>
<pdfrwt beam="2">  1       -2 0.27837154E+00 0.14891989E+04</pdfrwt>
<totfact> 0.44780472E+00</totfact>
</mgrwt>
</event>
<event>
12    2  0.3751044E-008  0.2232846E+04  0.7818608E-02  0.8504880E-01
          2   -1    0    0  501    0  0.00000000000E+00  0.00000000000E+00  0.28318421741E+04  0.28318421741E+04  0.00000000000E+00 0.  1.
         -2   -1    0    0    0  501 -0.00000000000E+00 -0.00000000000E+00 -0.44013765393E+03  0.44013765393E+03  0.00000000000E+00 0. -1.
         23    2    1    2    0    0 -0.23879481513E+03  0.84139794563E+03  0.14877944752E+04  0.17268595243E+04  0.59480664134E+02 0.  0.
        254    2    1    2    0    0  0.23879481513E+03 -0.84139794563E+03  0.90391004495E+03  0.15451203038E+04  0.89742404531E+03 0.  0.
         23    2    4    4    0    0  0.26198289331E+03 -0.75638997130E+03  0.10684422750E+04  0.13380915936E+04  0.90329357569E+02 0.  0.
         23    2    4    4    0    0 -0.23188078177E+02 -0.85007974324E+02 -0.16453223002E+03  0.20702871016E+03  0.89587886714E+02 0.  0.
          3    1    3    3  502    0 -0.19059763987E+03  0.73954015051E+03  0.12821891854E+04  0.14923994779E+04  0.00000000000E+00 0.  1.
         -3    1    3    3    0  502 -0.48197175257E+02  0.10185779511E+03  0.20560528983E+03  0.23446004635E+03  0.00000000000E+00 0. -1.
         11    1    5    5    0    0  0.21320314883E+03 -0.62332131909E+03  0.93233387774E+03  0.11415916560E+04  0.00000000000E+00 0.  1.
        -11    1    5    5    0    0  0.48779744477E+02 -0.13306865221E+03  0.13610839723E+03  0.19649993758E+03  0.00000000000E+00 0. -1.
          2    1    6    6  503    0 -0.28238004571E+02 -0.47877314750E+01 -0.59693618000E+01  0.29256461767E+02  0.00000000000E+00 0. -1.
         -2    1    6    6    0  503  0.50499263949E+01 -0.80220242849E+02 -0.15856286822E+03  0.17777224839E+03  0.00000000000E+00 0.  1.
<mgrwt>
<rscale>  0 0.22328461E+04</rscale>
<asrwt>0</asrwt>
<pdfrwt beam="1">  1        2 0.43566802E+00 0.22328461E+04</pdfrwt>
<pdfrwt beam="2">  1       -2 0.67713487E-01 0.22328461E+04</pdfrwt>
<totfact> 0.40316403E+00</totfact>
</mgrwt>
</event>
<event>
12    2  0.3751044E-008  0.2032766E+04  0.7818608E-02  0.8591453E-01
          2   -1    0    0  501    0  0.00000000000E+00  0.00000000000E+00  0.26477905467E+04  0.26477905467E+04  0.00000000000E+00 0. -1.
         -2   -1    0    0    0  501 -0.00000000000E+00 -0.00000000000E+00 -0.39014947236E+03  0.39014947236E+03  0.00000000000E+00 0.  1.
         23    2    1    2    0    0 -0.18406923168E+03  0.42186572698E+03  0.18896550839E+04  0.19469473590E+04  0.89193659171E+02 0.  0.
        254    2    1    2    0    0  0.18406923168E+03 -0.42186572698E+03  0.36798599034E+03  0.10909926600E+04  0.91814983605E+03 0.  0.
         23    2    4    4    0    0 -0.50285105002E+02 -0.61161698796E+03  0.18443071227E+02  0.62017819123E+03  0.87617979057E+02 0.  0.
         23    2    4    4    0    0  0.23435433669E+03  0.18975126098E+03  0.34954291911E+03  0.47081446877E+03  0.92512245292E+02 0.  0.
          1    1    3    3  502    0 -0.18440135072E+03  0.33992649604E+03  0.15386253186E+04  0.15864809334E+04  0.00000000000E+00 0. -1.
         -1    1    3    3    0  502  0.33211903314E+00  0.81939230935E+02  0.35102976531E+03  0.36046642563E+03  0.00000000000E+00 0.  1.
         11    1    5    5    0    0 -0.54325731652E+02 -0.61196669970E+03  0.14533847969E+02  0.61454516465E+03  0.00000000000E+00 0.  1.
        -11    1    5    5    0    0  0.40406266498E+01  0.34971173269E+00  0.39092232576E+01  0.56330265840E+01  0.00000000000E+00 0. -1.
          3    1    6    6  503    0  0.42390515742E+01  0.18519082002E+02  0.45903080734E+00  0.19003596126E+02  0.00000000000E+00 0. -1.
         -3    1    6    6    0  503  0.23011528511E+03  0.17123217898E+03  0.34908388830E+03  0.45181087264E+03  0.00000000000E+00 0.  1.
<mgrwt>
<rscale>  0 0.20327657E+04</rscale>
<asrwt>0</asrwt>
<pdfrwt beam="1">  1        2 0.40735238E+00 0.20327657E+04</pdfrwt>
<pdfrwt beam="2">  1       -2 0.60022997E-01 0.20327657E+04</pdfrwt>
<totfact> 0.68446990E+00</totfact>
</mgrwt>
</event>
<event>
12    2  0.3751044E-008  0.1552129E+04  0.7818608E-02  0.8850509E-01
         -1   -1    0    0    0  501 -0.00000000000E+00  0.00000000000E+00  0.77217130630E+03  0.77217130630E+03  0.00000000000E+00 0.  1.
          1   -1    0    0  501    0  0.00000000000E+00 -0.00000000000E+00 -0.77997696192E+03  0.77997696192E+03  0.00000000000E+00 0. -1.
         23    2    1    2    0    0  0.30816362077E+03  0.26480200102E+03  0.31156921317E+03  0.52023350706E+03  0.92101087742E+02 0.  0.
        254    2    1    2    0    0 -0.30816362077E+03 -0.26480200102E+03 -0.31937486879E+03  0.10319147612E+04  0.89317571091E+03 0.  0.
         23    2    4    4    0    0  0.15819081092E+03 -0.22135673474E+03  0.18239081080E+03  0.33969426441E+03  0.90014713980E+02 0.  0.
         23    2    4    4    0    0 -0.46635443169E+03 -0.43445266289E+02 -0.50176567959E+03  0.69222049675E+03  0.89590578634E+02 0.  0.
          3    1    3    3  502    0  0.10139328597E+03  0.34661041934E+02  0.75842351895E+02  0.13127851541E+03  0.00000000000E+00 0. -1.
         -3    1    3    3    0  502  0.20677033480E+03  0.23014095909E+03  0.23572686127E+03  0.38895499165E+03  0.00000000000E+00 0.  1.
         11    1    5    5    0    0  0.12770286457E+03 -0.21458615495E+03  0.18104311885E+03  0.30843451558E+03  0.00000000000E+00 0.  1.
        -11    1    5    5    0    0  0.30487946349E+02 -0.67705797816E+01  0.13476919537E+01  0.31259748828E+02  0.00000000000E+00 0. -1.
          4    1    6    6  503    0 -0.32147503833E+03 -0.62075527026E+02 -0.30756983223E+03  0.44922018324E+03  0.00000000000E+00 0. -1.
         -4    1    6    6    0  503 -0.14487939336E+03  0.18630260737E+02 -0.19419584736E+03  0.24300031351E+03  0.00000000000E+00 0.  1.
<mgrwt>
<rscale>  0 0.15521286E+04</rscale>
<asrwt>0</asrwt>
<pdfrwt beam="1">  1        1 0.11999645E+00 0.15521286E+04</pdfrwt>
<pdfrwt beam="2">  1       -1 0.11879559E+00 0.15521286E+04</pdfrwt>
<totfact> 0.14078297E+01</totfact>
</mgrwt>
</event>
<event>
12    2  0.3751044E-008  0.1726734E+04  0.7818608E-02  0.8746262E-01
         -1   -1    0    0    0  501 -0.00000000000E+00  0.00000000000E+00  0.19674944862E+04  0.19674944862E+04  0.00000000000E+00 0.  1.
          1   -1    0    0  501    0  0.00000000000E+00 -0.00000000000E+00 -0.37885887905E+03  0.37885887905E+03  0.00000000000E+00 0. -1.
         23    2    1    2    0    0 -0.38678432793E+03  0.43914273869E+03  0.86816470523E+03  0.10518983357E+04  0.10164493119E+03 0.  0.
        254    2    1    2    0    0  0.38678432793E+03 -0.43914273869E+03  0.72047090196E+03  0.12944550296E+04  0.90226772175E+03 0.  0.
         23    2    4    4    0    0  0.51115517340E+03 -0.29220318092E+03  0.58065431193E+02  0.59890338404E+03  0.93012681335E+02 0.  0.
         23    2    4    4    0    0 -0.12437084547E+03 -0.14693955778E+03  0.66240547076E+03  0.69555164552E+03  0.89172546464E+02 0.  0.
          1    1    3    3  502    0 -0.18856396965E+03  0.13981191539E+03  0.35657775325E+03  0.42690916650E+03  0.00000000000E+00 0. -1.
         -1    1    3    3    0  502 -0.19822035828E+03  0.29933082331E+03  0.51158695198E+03  0.62498916923E+03  0.00000000000E+00 0.  1.
         11    1    5    5    0    0  0.39240149994E+03 -0.22456728520E+03  0.45625489822E+01  0.45213960188E+03  0.00000000000E+00 0. -1.
        -11    1    5    5    0    0  0.11875367346E+03 -0.67635895715E+02  0.53502882211E+02  0.14676378216E+03  0.00000000000E+00 0.  1.
          3    1    6    6  503    0 -0.80530250410E+02 -0.10974796100E+03  0.57529306490E+03  0.59117835439E+03  0.00000000000E+00 0. -1.
         -3    1    6    6    0  503 -0.43840595059E+02 -0.37191596776E+02  0.87112405862E+02  0.10437329113E+03  0.00000000000E+00 0.  1.
<mgrwt>
<rscale>  0 0.17267342E+04</rscale>
<asrwt>0</asrwt>
<pdfrwt beam="1">  1        1 0.58285982E-01 0.17267342E+04</pdfrwt>
<pdfrwt beam="2">  1       -1 0.30269145E+00 0.17267342E+04</pdfrwt>
<totfact> 0.19455176E+00</totfact>
</mgrwt>
</event>
<event>
12    2  0.3751044E-008  0.2276416E+04  0.7818608E-02  0.8487278E-01
         -1   -1    0    0    0  501 -0.00000000000E+00  0.00000000000E+00  0.10351633531E+04  0.10351633531E+04  0.00000000000E+00 0.  1.
          1   -1    0    0  501    0  0.00000000000E+00 -0.00000000000E+00 -0.12515105393E+04  0.12515105393E+04  0.00000000000E+00 0. -1.
         23    2    1    2    0    0 -0.23876004265E+03 -0.10219781291E+02 -0.10189332743E+04  0.10509848191E+04  0.96089908195E+02 0.  0.
        254    2    1    2    0    0  0.23876004265E+03  0.10219781291E+02  0.80258608812E+03  0.12356890733E+04  0.90866509514E+03 0.  0.
         23    2    4    4    0    0  0.15561958705E+03 -0.32646026689E+03  0.18006368811E+02  0.37302852490E+03  0.89623040224E+02 0.  0.
         23    2    4    4    0    0  0.83140455606E+02  0.33668004819E+03  0.78457971931E+03  0.86266054839E+03  0.91389800343E+02 0.  0.
          3    1    3    3  502    0 -0.19328122347E+03 -0.36033096504E+02 -0.89728061889E+03  0.91856873691E+03  0.00000000000E+00 0. -1.
         -3    1    3    3    0  502 -0.45478819181E+02  0.25813315213E+02 -0.12165265545E+03  0.13241608216E+03  0.00000000000E+00 0.  1.
         11    1    5    5    0    0  0.72805664603E+02 -0.22378898687E+03  0.41728483380E+02  0.23900510825E+03  0.00000000000E+00 0.  1.
        -11    1    5    5    0    0  0.82813922443E+02 -0.10267128002E+03 -0.23722114569E+02  0.13402341665E+03  0.00000000000E+00 0. -1.
          2    1    6    6  503    0 -0.61050919173E+01  0.16423246660E+03  0.37055997449E+03  0.40536930067E+03  0.00000000000E+00 0. -1.
         -2    1    6    6    0  503  0.89245547524E+02  0.17244758159E+03  0.41401974482E+03  0.45729124773E+03  0.00000000000E+00 0.  1.
<mgrwt>
<rscale>  0 0.22764163E+04</rscale>
<asrwt>0</asrwt>
<pdfrwt beam="1">  1        1 0.19254008E+00 0.22764163E+04</pdfrwt>
<pdfrwt beam="2">  1       -1 0.15925590E+00 0.22764163E+04</pdfrwt>
<totfact> 0.26286890E+00</totfact>
</mgrwt>
</event>
<event>
12    2  0.3751044E-008  0.2370780E+04  0.7818608E-02  0.8450525E-01
          1   -1    0    0  501    0  0.00000000000E+00  0.00000000000E+00  0.27106773482E+04  0.27106773482E+04  0.00000000000E+00 0. -1.
         -1   -1    0    0    0  501 -0.00000000000E+00 -0.00000000000E+00 -0.51837582483E+03  0.51837582483E+03  0.00000000000E+00 0.  1.
         23    2    1    2    0    0 -0.58401313550E+03 -0.73780577014E+03  0.14453357534E+04  0.17270119123E+04  0.90255239805E+02 0.  0.
        254    2    1    2    0    0  0.58401313550E+03  0.73780577014E+03  0.74696576997E+03  0.15020412607E+04  0.90152170828E+03 0.  0.
         23    2    4    4    0    0 -0.21528592767E+03  0.42948772396E+02  0.19472369939E+03  0.30453949092E+03  0.81451548302E+02 0.  0.
         23    2    4    4    0    0  0.79929906317E+03  0.69485699775E+03  0.55224207057E+03  0.11975017698E+04  0.85638451955E+02 0.  0.
          4    1    3    3  502    0 -0.87739056074E+02 -0.14983566272E+03  0.31443866134E+03  0.35919429217E+03  0.00000000000E+00 0. -1.
         -4    1    3    3    0  502 -0.49627407942E+03 -0.58797010743E+03  0.11308970921E+04  0.13678176202E+04  0.00000000000E+00 0.  1.
         11    1    5    5    0    0 -0.66960250825E+02  0.34336801310E+02  0.11068700600E+03  0.13384432903E+03  0.00000000000E+00 0. -1.
        -11    1    5    5    0    0 -0.14832567684E+03  0.86119710861E+01  0.84036693390E+02  0.17069516189E+03  0.00000000000E+00 0.  1.
          4    1    6    6  503    0  0.46182080697E+02  0.19243109110E+02  0.16628636063E+02  0.52721849010E+02  0.00000000000E+00 0. -1.
         -4    1    6    6    0  503  0.75311698247E+03  0.67561388864E+03  0.53561343451E+03  0.11447799208E+04  0.00000000000E+00 0.  1.
<mgrwt>
<rscale>  0 0.23707801E+04</rscale>
<asrwt>0</asrwt>
<pdfrwt beam="1">  1        1 0.41702728E+00 0.23707801E+04</pdfrwt>
<pdfrwt beam="2">  1       -1 0.79750128E-01 0.23707801E+04</pdfrwt>
<totfact> 0.13605883E+00</totfact>
</mgrwt>
</event>
<event>
12    2  0.3751044E-008  0.2412304E+04  0.7818608E-02  0.8434911E-01
         -2   -1    0    0    0  501 -0.00000000000E+00  0.00000000000E+00  0.84427646901E+03  0.84427646901E+03  0.00000000000E+00 0.  1.
          2   -1    0    0  501    0  0.00000000000E+00 -0.00000000000E+00 -0.17231356336E+04  0.17231356336E+04  0.00000000000E+00 0. -1.
         23    2    1    2    0    0 -0.34165704459E+03  0.68769053919E+02 -0.14184532661E+04  0.14636275448E+04  0.93473005977E+02 0.  0.
        254    2    1    2    0    0  0.34165704459E+03 -0.68769053919E+02  0.53959410149E+03  0.11037845578E+04  0.89761898202E+03 0.  0.
         23    2    4    4    0    0 -0.18615350347E+03 -0.24271218683E+03  0.42026186451E+03  0.52801949198E+03  0.92855891909E+02 0.  0.
         23    2    4    4    0    0  0.52781054807E+03  0.17394313292E+03  0.11933223698E+03  0.57576506586E+03  0.91788017460E+02 0.  0.
          1    1    3    3  502    0 -0.22448630735E+03  0.87015755921E+02 -0.10107489279E+04  0.10390280262E+04  0.00000000000E+00 0. -1.
         -1    1    3    3    0  502 -0.11717073725E+03 -0.18246702002E+02 -0.40770433818E+03  0.42459951857E+03  0.00000000000E+00 0.  1.
         11    1    5    5    0    0 -0.18012785938E+03 -0.23768386837E+03  0.36105698723E+03  0.46829671687E+03  0.00000000000E+00 0.  1.
        -11    1    5    5    0    0 -0.60256440920E+01 -0.50283184663E+01  0.59204877278E+02  0.59722775110E+02  0.00000000000E+00 0. -1.
          4    1    6    6  503    0  0.25867701041E+02 -0.10948070320E+02  0.98298087771E+01  0.29759424414E+02  0.00000000000E+00 0. -1.
         -4    1    6    6    0  503  0.50194284702E+03  0.18489120324E+03  0.10950242820E+03  0.54600564145E+03  0.00000000000E+00 0.  1.
<mgrwt>
<rscale>  0 0.24123042E+04</rscale>
<asrwt>0</asrwt>
<pdfrwt beam="1">  1        2 0.26509779E+00 0.24123042E+04</pdfrwt>
<pdfrwt beam="2">  1       -2 0.12988869E+00 0.24123042E+04</pdfrwt>
<totfact> 0.37228992E+00</totfact>
</mgrwt>
</event>
<event>
12    2  0.3751044E-008  0.2785950E+04  0.7818608E-02  0.8307644E-01
          1   -1    0    0  501    0  0.00000000000E+00  0.00000000000E+00  0.68427559309E+03  0.68427559309E+03  0.00000000000E+00 0. -1.
         -1   -1    0    0    0  501 -0.00000000000E+00 -0.00000000000E+00 -0.28356696226E+04  0.28356696226E+04  0.00000000000E+00 0.  1.
         23    2    1    2    0    0  0.52682721510E+03 -0.38193956986E+03 -0.23068018663E+04  0.23984327374E+04  0.87863505669E+02 0.  0.
        254    2    1    2    0    0 -0.52682721510E+03  0.38193956986E+03  0.15540783681E+03  0.11215124783E+04  0.90011882200E+03 0.  0.
         23    2    4    4    0    0  0.10125187041E+03 -0.16314349810E+03  0.18900763281E+03  0.28418382544E+03  0.90381519938E+02 0.  0.
         23    2    4    4    0    0 -0.62807908551E+03  0.54508306797E+03 -0.33599796006E+02  0.83732865289E+03  0.91604792581E+02 0.  0.
          2    1    3    3  502    0  0.34920853156E+03 -0.20694020756E+03 -0.13532035296E+04  0.14127740940E+04  0.00000000000E+00 0. -1.
         -2    1    3    3    0  502  0.17761868355E+03 -0.17499936231E+03 -0.95359833668E+03  0.98565864339E+03  0.00000000000E+00 0.  1.
         11    1    5    5    0    0  0.48997690284E+02 -0.10571392486E+03  0.16672626980E+03  0.20340564546E+03  0.00000000000E+00 0.  1.
        -11    1    5    5    0    0  0.52254180129E+02 -0.57429573243E+02  0.22281363010E+02  0.80778179983E+02  0.00000000000E+00 0. -1.
          1    1    6    6  503    0 -0.14917199112E+03  0.16675773026E+03  0.20183252355E+02  0.22465036659E+03  0.00000000000E+00 0. -1.
         -1    1    6    6    0  503 -0.47890709439E+03  0.37832533771E+03 -0.53783048362E+02  0.61267828630E+03  0.00000000000E+00 0.  1.
<mgrwt>
<rscale>  0 0.27859501E+04</rscale>
<asrwt>0</asrwt>
<pdfrwt beam="1">  1        1 0.10527317E+00 0.27859501E+04</pdfrwt>
<pdfrwt beam="2">  1       -1 0.43625688E+00 0.27859501E+04</pdfrwt>
<totfact> 0.98320073E-02</totfact>
</mgrwt>
</event>
<event>
12    2  0.3751044E-008  0.1582179E+04  0.7818608E-02  0.8831572E-01
         -1   -1    0    0    0  501 -0.00000000000E+00  0.00000000000E+00  0.68986190911E+03  0.68986190911E+03  0.00000000000E+00 0.  1.
          1   -1    0    0  501    0  0.00000000000E+00 -0.00000000000E+00 -0.90717042919E+03  0.90717042919E+03  0.00000000000E+00 0. -1.
         23    2    1    2    0    0 -0.52660817011E+03  0.28316334136E+02  0.50685947197E+01  0.53275229451E+03  0.75374644567E+02 0.  0.
        254    2    1    2    0    0  0.52660817011E+03 -0.28316334136E+02 -0.22237711480E+03  0.10642800438E+04  0.89728615883E+03 0.  0.
         23    2    4    4    0    0  0.44841254616E+03  0.22377780502E+03  0.20862957305E+03  0.55056162108E+03  0.91877539579E+02 0.  0.
         23    2    4    4    0    0  0.78195623951E+02 -0.25209413916E+03 -0.43100668785E+03  0.51371842271E+03  0.92053474999E+02 0.  0.
          2    1    3    3  502    0 -0.46612683476E+03  0.63539615663E+00  0.12688844300E+01  0.46612899489E+03  0.00000000000E+00 0. -1.
         -2    1    3    3    0  502 -0.60481335351E+02  0.27680937980E+02  0.37997102897E+01  0.66623299615E+02  0.00000000000E+00 0.  1.
         11    1    5    5    0    0  0.13585542328E+02 -0.70111235130E+01 -0.13978789938E+01  0.15351771199E+02  0.00000000000E+00 0.  1.
        -11    1    5    5    0    0  0.43482700383E+03  0.23078892853E+03  0.21002745205E+03  0.53520984988E+03  0.00000000000E+00 0. -1.
          1    1    6    6  503    0 -0.11631672826E+02 -0.88366843493E+02 -0.18002765884E+03  0.20088293305E+03  0.00000000000E+00 0. -1.
         -1    1    6    6    0  503  0.89827296777E+02 -0.16372729566E+03 -0.25097902901E+03  0.31283548967E+03  0.00000000000E+00 0.  1.
<mgrwt>
<rscale>  0 0.15821787E+04</rscale>
<asrwt>0</asrwt>
<pdfrwt beam="1">  1        1 0.13956468E+00 0.15821787E+04</pdfrwt>
<pdfrwt beam="2">  1       -1 0.10613260E+00 0.15821787E+04</pdfrwt>
<totfact> 0.14326880E+01</totfact>
</mgrwt>
</event>
<event>
12    2  0.3751044E-008  0.1427337E+04  0.7818608E-02  0.8934265E-01
         -2   -1    0    0    0  501 -0.00000000000E+00  0.00000000000E+00  0.23317635507E+03  0.23317635507E+03  0.00000000000E+00 0.  1.
          2   -1    0    0  501    0  0.00000000000E+00 -0.00000000000E+00 -0.21842801201E+04  0.21842801201E+04  0.00000000000E+00 0. -1.
         23    2    1    2    0    0 -0.40334836078E+03 -0.40723155390E+02 -0.69798842350E+03  0.81257616427E+03  0.93508865257E+02 0.  0.
        254    2    1    2    0    0  0.40334836078E+03  0.40723155390E+02 -0.12531153415E+04  0.16048803109E+04  0.91705751051E+03 0.  0.
         23    2    4    4    0    0  0.19535824034E+03 -0.26242834919E+03 -0.11689030816E+04  0.12171671989E+04  0.90155950454E+02 0.  0.
         23    2    4    4    0    0  0.20799012044E+03  0.30315150458E+03 -0.84212259983E+02  0.38771311203E+03  0.89827766181E+02 0.  0.
          2    1    3    3  502    0 -0.20396919305E+03  0.80066675860E+00 -0.26794800270E+03  0.33674946909E+03  0.00000000000E+00 0. -1.
         -2    1    3    3    0  502 -0.19937916773E+03 -0.41523822149E+02 -0.43004042080E+03  0.47582669518E+03  0.00000000000E+00 0.  1.
         11    1    5    5    0    0  0.10098911069E+02 -0.16996661238E+02 -0.19187954541E+03  0.19289539768E+03  0.00000000000E+00 0. -1.
        -11    1    5    5    0    0  0.18525932927E+03 -0.24543168795E+03 -0.97702353615E+03  0.10242718012E+04  0.00000000000E+00 0.  1.
          3    1    6    6  503    0  0.30214144116E+01  0.61386303307E+02 -0.15712849674E+02  0.63437377181E+02  0.00000000000E+00 0. -1.
         -3    1    6    6    0  503  0.20496870603E+03  0.24176520127E+03 -0.68499410309E+02  0.32427573485E+03  0.00000000000E+00 0.  1.
<mgrwt>
<rscale>  0 0.14273366E+04</rscale>
<asrwt>0</asrwt>
<pdfrwt beam="1">  1        2 0.33604309E+00 0.14273366E+04</pdfrwt>
<pdfrwt beam="2">  1       -2 0.35873286E-01 0.14273366E+04</pdfrwt>
<totfact> 0.37455162E+01</totfact>
</mgrwt>
</event>
<event>
12    2  0.3751044E-008  0.2085305E+04  0.7818608E-02  0.8567744E-01
          2   -1    0    0  501    0  0.00000000000E+00  0.00000000000E+00  0.12181222555E+04  0.12181222555E+04  0.00000000000E+00 0. -1.
         -2   -1    0    0    0  501 -0.00000000000E+00 -0.00000000000E+00 -0.89245917669E+03  0.89245917669E+03  0.00000000000E+00 0.  1.
         23    2    1    2    0    0 -0.14461406740E+03  0.51008167302E+03 -0.57287172319E+03  0.78594556482E+03  0.91825257906E+02 0.  0.
        254    2    1    2    0    0  0.14461406740E+03 -0.51008167302E+03  0.89853480204E+03  0.13246358674E+04  0.81621005208E+03 0.  0.
         23    2    4    4    0    0  0.19578216937E+03 -0.56468792534E+03  0.23312520457E+03  0.64902184752E+03  0.98381332987E+02 0.  0.
         23    2    4    4    0    0 -0.51168101966E+02  0.54606252319E+02  0.66540959747E+03  0.67561401989E+03  0.89913035866E+02 0.  0.
          3    1    3    3  502    0 -0.11282110828E+03  0.25545273542E+03 -0.26285623780E+03  0.38350763260E+03  0.00000000000E+00 0. -1.
         -3    1    3    3    0  502 -0.31792959116E+02  0.25462893760E+03 -0.31001548539E+03  0.40243793223E+03  0.00000000000E+00 0.  1.
         11    1    5    5    0    0  0.17548712719E+03 -0.45164677369E+03  0.14993424835E+03  0.50720885128E+03  0.00000000000E+00 0.  1.
        -11    1    5    5    0    0  0.20295042175E+02 -0.11304115166E+03  0.83190956217E+02  0.14181299623E+03  0.00000000000E+00 0. -1.
          3    1    6    6  503    0 -0.52031937912E+01  0.67647712499E+02  0.43959968966E+03  0.44480464631E+03  0.00000000000E+00 0.  1.
         -3    1    6    6    0  503 -0.45964908174E+02 -0.13041460181E+02  0.22580990781E+03  0.23080937358E+03  0.00000000000E+00 0. -1.
<mgrwt>
<rscale>  0 0.20853051E+04</rscale>
<asrwt>0</asrwt>
<pdfrwt beam="1">  1        2 0.18740342E+00 0.20853051E+04</pdfrwt>
<pdfrwt beam="2">  1       -2 0.13730141E+00 0.20853051E+04</pdfrwt>
<totfact> 0.64399963E+00</totfact>
</mgrwt>
</event>
<event>
12    2  0.3751044E-008  0.1572833E+04  0.7818608E-02  0.8837414E-01
         -3   -1    0    0    0  501 -0.00000000000E+00  0.00000000000E+00  0.91142181253E+03  0.91142181253E+03  0.00000000000E+00 0.  1.
          3   -1    0    0  501    0  0.00000000000E+00 -0.00000000000E+00 -0.67855626520E+03  0.67855626520E+03  0.00000000000E+00 0. -1.
         23    2    1    2    0    0  0.39720299846E+03 -0.31718161475E+03  0.13359489792E+03  0.53287157662E+03  0.87921110705E+02 0.  0.
        254    2    1    2    0    0 -0.39720299846E+03  0.31718161475E+03  0.99270649417E+02  0.10571065011E+04  0.92154494960E+03 0.  0.
         23    2    4    4    0    0 -0.40330676261E+03  0.40271764831E+03 -0.29192012292E+03  0.64661282439E+03  0.89738160668E+02 0.  0.
         23    2    4    4    0    0  0.61037641548E+01 -0.85536033562E+02  0.39119077234E+03  0.41049367671E+03  0.90117530400E+02 0.  0.
          4    1    3    3  502    0  0.74243149970E+02 -0.10285238019E+03  0.16221542995E+02  0.12788196075E+03  0.00000000000E+00 0.  1.
         -4    1    3    3    0  502  0.32295984848E+03 -0.21432923456E+03  0.11737335492E+03  0.40498961587E+03  0.00000000000E+00 0. -1.
         11    1    5    5    0    0 -0.21365344682E+02  0.11709393106E+02 -0.35005437645E+02  0.42649366994E+02  0.00000000000E+00 0. -1.
        -11    1    5    5    0    0 -0.38194141793E+03  0.39100825520E+03 -0.25691468527E+03  0.60396345740E+03  0.00000000000E+00 0.  1.
          1    1    6    6  503    0  0.15899674775E+02  0.65996985603E+01  0.14296340846E+02  0.22377243812E+02  0.00000000000E+00 0. -1.
         -1    1    6    6    0  503 -0.97959106205E+01 -0.92135732123E+02  0.37689443149E+03  0.38811643290E+03  0.00000000000E+00 0.  1.
<mgrwt>
<rscale>  0 0.15728331E+04</rscale>
<asrwt>0</asrwt>
<pdfrwt beam="1">  1        3 0.10439327E+00 0.15728331E+04</pdfrwt>
<pdfrwt beam="2">  1       -3 0.14021874E+00 0.15728331E+04</pdfrwt>
<totfact> 0.76323141E-01</totfact>
</mgrwt>
</event>
<event>
12    2  0.3751044E-008  0.2351084E+04  0.7818608E-02  0.8458048E-01
          1   -1    0    0  501    0  0.00000000000E+00  0.00000000000E+00  0.19070356825E+04  0.19070356825E+04  0.00000000000E+00 0. -1.
         -1   -1    0    0    0  501 -0.00000000000E+00 -0.00000000000E+00 -0.72463171493E+03  0.72463171493E+03  0.00000000000E+00 0.  1.
         23    2    1    2    0    0  0.18230923129E+03  0.59042150864E+03  0.13924405733E+04  0.15261344330E+04  0.91440383727E+02 0.  0.
        254    2    1    2    0    0 -0.18230923129E+03 -0.59042150864E+03 -0.21003660567E+03  0.11055329645E+04  0.89233040187E+03 0.  0.
         23    2    4    4    0    0 -0.46348769032E+03 -0.63776474353E+02 -0.35087246844E+02  0.47648684845E+03  0.83188485369E+02 0.  0.
         23    2    4    4    0    0  0.28117845903E+03 -0.52664503429E+03 -0.17494935883E+03  0.62904611601E+03  0.93141934419E+02 0.  0.
          4    1    3    3  502    0  0.15146909405E+03  0.33926725178E+03  0.83961349330E+03  0.91814812134E+03  0.00000000000E+00 0. -1.
         -4    1    3    3    0  502  0.30840137241E+02  0.25115425686E+03  0.55282707997E+03  0.60798631165E+03  0.00000000000E+00 0.  1.
         11    1    5    5    0    0 -0.38461440289E+03 -0.24511200646E+02 -0.44150861575E+02  0.38791537279E+03  0.00000000000E+00 0. -1.
        -11    1    5    5    0    0 -0.78873287428E+02 -0.39265273707E+02  0.90636147317E+01  0.88571475663E+02  0.00000000000E+00 0.  1.
          1    1    6    6  503    0  0.23631209908E+03 -0.41258564209E+03 -0.10158124310E+03  0.48619859027E+03  0.00000000000E+00 0. -1.
         -1    1    6    6    0  503  0.44866359953E+02 -0.11405939220E+03 -0.73368115734E+02  0.14284752574E+03  0.00000000000E+00 0.  1.
<mgrwt>
<rscale>  0 0.23510836E+04</rscale>
<asrwt>0</asrwt>
<pdfrwt beam="1">  1        1 0.29339010E+00 0.23510836E+04</pdfrwt>
<pdfrwt beam="2">  1       -1 0.11148180E+00 0.23510836E+04</pdfrwt>
<totfact> 0.22923628E+00</totfact>
</mgrwt>
</event>
<event>
12    2  0.3751044E-008  0.2197037E+04  0.7818608E-02  0.8519662E-01
          3   -1    0    0  501    0  0.00000000000E+00  0.00000000000E+00  0.57830917236E+03  0.57830917236E+03  0.00000000000E+00 0.  1.
         -3   -1    0    0    0  501 -0.00000000000E+00 -0.00000000000E+00 -0.20866752460E+04  0.20866752460E+04  0.00000000000E+00 0. -1.
         23    2    1    2    0    0  0.81916759352E+03  0.23571586869E+03 -0.19247457708E+03  0.87889048962E+03  0.93832365917E+02 0.  0.
        254    2    1    2    0    0 -0.81916759352E+03 -0.23571586869E+03 -0.13158914966E+04  0.17860939288E+04  0.85554869797E+03 0.  0.
         23    2    4    4    0    0 -0.85683663369E+03 -0.12806135462E+03 -0.13735846963E+04  0.16267096468E+04  0.94237093552E+02 0.  0.
         23    2    4    4    0    0  0.37669040168E+02 -0.10765451407E+03  0.57693199702E+02  0.15938428195E+03  0.95217608958E+02 0.  0.
          3    1    3    3  502    0  0.51405906545E+02  0.28636265436E+02  0.64284064916E+01  0.59193980571E+02  0.00000000000E+00 0. -1.
         -3    1    3    3    0  502  0.76776168698E+03  0.20707960325E+03 -0.19890298357E+03  0.81969650905E+03  0.00000000000E+00 0.  1.
         11    1    5    5    0    0 -0.19663605134E+03 -0.78821546024E+01 -0.37672092616E+03  0.42502531837E+03  0.00000000000E+00 0.  1.
        -11    1    5    5    0    0 -0.66020058235E+03 -0.12017920002E+03 -0.99686377015E+03  0.12016843285E+04  0.00000000000E+00 0. -1.
          1    1    6    6  503    0  0.44874820224E+02 -0.32126894041E+02  0.62477988659E+02  0.83362976661E+02  0.00000000000E+00 0. -1.
         -1    1    6    6    0  503 -0.72057800568E+01 -0.75527620026E+02 -0.47847889565E+01  0.76021305293E+02  0.00000000000E+00 0.  1.
<mgrwt>
<rscale>  0 0.21970375E+04</rscale>
<asrwt>0</asrwt>
<pdfrwt beam="1">  1        3 0.88970643E-01 0.21970375E+04</pdfrwt>
<pdfrwt beam="2">  1       -3 0.32102696E+00 0.21970375E+04</pdfrwt>
<totfact> 0.79316050E-02</totfact>
</mgrwt>
</event>
<event>
12    2  0.3751044E-008  0.1411838E+04  0.7818608E-02  0.8945294E-01
          2   -1    0    0  501    0  0.00000000000E+00  0.00000000000E+00  0.22239478758E+04  0.22239478758E+04  0.00000000000E+00 0. -1.
         -2   -1    0    0    0  501 -0.00000000000E+00 -0.00000000000E+00 -0.22407084918E+03  0.22407084918E+03  0.00000000000E+00 0.  1.
         23    2    1    2    0    0 -0.17481892394E+03 -0.34164414582E+03  0.86615660773E+03  0.95188058896E+03  0.92558132978E+02 0.  0.
        254    2    1    2    0    0  0.17481892394E+03  0.34164414582E+03  0.11337204189E+04  0.14961381360E+04  0.89767753415E+03 0.  0.
         23    2    4    4    0    0  0.32347392155E+03  0.24363510133E+03  0.80994874391E+02  0.42453592272E+03  0.98372452838E+02 0.  0.
         23    2    4    4    0    0 -0.14865499761E+03  0.98009044489E+02  0.10527255445E+04  0.10716022133E+04  0.91630510299E+02 0.  0.
          3    1    3    3  502    0 -0.12664165298E+03 -0.31110628062E+03  0.77007027441E+03  0.84013894900E+03  0.00000000000E+00 0. -1.
         -3    1    3    3    0  502 -0.48177270956E+02 -0.30537865200E+02  0.96086333325E+02  0.11174163995E+03  0.00000000000E+00 0.  1.
         11    1    5    5    0    0  0.30649449768E+03  0.19039861665E+03  0.72136054181E+02  0.36795940081E+03  0.00000000000E+00 0. -1.
        -11    1    5    5    0    0  0.16979423868E+02  0.53236484675E+02  0.88588202095E+01  0.56576521906E+02  0.00000000000E+00 0.  1.
          3    1    6    6  503    0 -0.15042677725E+03  0.63602545933E+02  0.79658448254E+03  0.81315455910E+03  0.00000000000E+00 0. -1.
         -3    1    6    6    0  503  0.17717796376E+01  0.34406498556E+02  0.25614106192E+03  0.25844765418E+03  0.00000000000E+00 0.  1.
<mgrwt>
<rscale>  0 0.14118384E+04</rscale>
<asrwt>0</asrwt>
<pdfrwt beam="1">  1        2 0.34214581E+00 0.14118384E+04</pdfrwt>
<pdfrwt beam="2">  1       -2 0.34472440E-01 0.14118384E+04</pdfrwt>
<totfact> 0.38455058E+01</totfact>
</mgrwt>
</event>
<event>
12    2  0.3751044E-008  0.1568703E+04  0.7818608E-02  0.8840009E-01
         -2   -1    0    0    0  501 -0.00000000000E+00  0.00000000000E+00  0.70789703612E+03  0.70789703612E+03  0.00000000000E+00 0. -1.
          2   -1    0    0  501    0  0.00000000000E+00 -0.00000000000E+00 -0.86906332442E+03  0.86906332442E+03  0.00000000000E+00 0.  1.
         23    2    1    2    0    0  0.10645037263E+03  0.82942552085E+02 -0.56018082600E+03  0.58234721962E+03  0.84347955499E+02 0.  0.
        254    2    1    2    0    0 -0.10645037263E+03 -0.82942552085E+02  0.39901453770E+03  0.99461314092E+03  0.90101695324E+03 0.  0.
         23    2    4    4    0    0  0.30242751307E+03 -0.15431226146E+03  0.44454942261E+03  0.56674587243E+03  0.91115421729E+02 0.  0.
         23    2    4    4    0    0 -0.40887788570E+03  0.71369709375E+02 -0.45534884908E+02  0.42786726849E+03  0.93392788115E+02 0.  0.
          4    1    3    3  502    0  0.19406682005E+02 -0.17165427584E+02 -0.74570760148E+02  0.78943457485E+02  0.00000000000E+00 0. -1.
         -4    1    3    3    0  502  0.87043690623E+02  0.10010797967E+03 -0.48561006585E+03  0.50340376213E+03  0.00000000000E+00 0.  1.
         11    1    5    5    0    0  0.20440460736E+02  0.11862390636E+02  0.38875373182E+02  0.45495311701E+02  0.00000000000E+00 0. -1.
        -11    1    5    5    0    0  0.28198705234E+03 -0.16617465210E+03  0.40567404942E+03  0.52125056073E+03  0.00000000000E+00 0.  1.
          2    1    6    6  503    0 -0.42105468125E+01  0.16167723296E+02  0.13927153568E+01  0.16764952643E+02  0.00000000000E+00 0. -1.
         -2    1    6    6    0  503 -0.40466733889E+03  0.55201986078E+02 -0.46927600265E+02  0.41110231585E+03  0.00000000000E+00 0.  1.
<mgrwt>
<rscale>  0 0.15687031E+04</rscale>
<asrwt>0</asrwt>
<pdfrwt beam="1">  1        2 0.13370205E+00 0.15687031E+04</pdfrwt>
<pdfrwt beam="2">  1       -2 0.10890724E+00 0.15687031E+04</pdfrwt>
<totfact> 0.19920401E+01</totfact>
</mgrwt>
</event>
<event>
12    2  0.3751044E-008  0.1362189E+04  0.7818608E-02  0.8981652E-01
         -1   -1    0    0    0  501 -0.00000000000E+00  0.00000000000E+00  0.24422557693E+03  0.24422557693E+03  0.00000000000E+00 0.  1.
          1   -1    0    0  501    0  0.00000000000E+00 -0.00000000000E+00 -0.18994309431E+04  0.18994309431E+04  0.00000000000E+00 0. -1.
         23    2    1    2    0    0 -0.28370614510E+02  0.15628355017E+03  0.78594726359E+02  0.19917995428E+03  0.90918003460E+02 0.  0.
        254    2    1    2    0    0  0.28370614510E+02 -0.15628355017E+03 -0.17338000926E+04  0.19444765658E+04  0.86585039936E+03 0.  0.
         23    2    4    4    0    0  0.31374822528E+03  0.19518068892E+03 -0.50698403623E+03  0.63369583503E+03  0.89465904956E+02 0.  0.
         23    2    4    4    0    0 -0.28537761077E+03 -0.35146423910E+03 -0.12268160563E+04  0.13107807308E+04  0.90005532836E+02 0.  0.
          4    1    3    3  502    0  0.15268072461E+02 -0.22356376807E+01 -0.28585684506E+01  0.15693423020E+02  0.00000000000E+00 0. -1.
         -4    1    3    3    0  502 -0.43638686970E+02  0.15851918785E+03  0.81453294810E+02  0.18348653126E+03  0.00000000000E+00 0.  1.
         11    1    5    5    0    0  0.32169275060E+02  0.58897739505E+02 -0.81081296261E+02  0.10525199561E+03  0.00000000000E+00 0. -1.
        -11    1    5    5    0    0  0.28157895021E+03  0.13628294942E+03 -0.42590273997E+03  0.52844383942E+03  0.00000000000E+00 0.  1.
          2    1    6    6  503    0 -0.26006449705E+03 -0.33027991403E+03 -0.11859384817E+04  0.12582402182E+04  0.00000000000E+00 0.  1.
         -2    1    6    6    0  503 -0.25313113717E+02 -0.21184325065E+02 -0.40877574627E+02  0.52540512577E+02  0.00000000000E+00 0. -1.
<mgrwt>
<rscale>  0 0.13621889E+04</rscale>
<asrwt>0</asrwt>
<pdfrwt beam="1">  1        1 0.29222015E+00 0.13621889E+04</pdfrwt>
<pdfrwt beam="2">  1       -1 0.37573165E-01 0.13621889E+04</pdfrwt>
<totfact> 0.23298236E+01</totfact>
</mgrwt>
</event>
<event>
12    2  0.3751044E-008  0.1870181E+04  0.7818608E-02  0.8669843E-01
         -1   -1    0    0    0  501 -0.00000000000E+00  0.00000000000E+00  0.40142142104E+03  0.40142142104E+03  0.00000000000E+00 0.  1.
          1   -1    0    0  501    0  0.00000000000E+00 -0.00000000000E+00 -0.21782444456E+04  0.21782444456E+04  0.00000000000E+00 0. -1.
         23    2    1    2    0    0  0.36931476257E+03 -0.41062072821E+02 -0.15541102453E+04  0.16005601787E+04  0.91949678502E+02 0.  0.
        254    2    1    2    0    0 -0.36931476257E+03  0.41062072821E+02 -0.22271277927E+03  0.97910568797E+03  0.87804753771E+03 0.  0.
         23    2    4    4    0    0 -0.39536962468E+03  0.23607941227E+03 -0.46021648235E+03  0.65745316296E+03  0.91623260356E+02 0.  0.
         23    2    4    4    0    0  0.26054862115E+02 -0.19501733945E+03  0.23750370308E+03  0.32165252501E+03  0.91333013421E+02 0.  0.
          4    1    3    3  502    0  0.27742684207E+03  0.36409658212E+00 -0.10218646648E+04  0.10588546541E+04  0.00000000000E+00 0. -1.
         -4    1    3    3    0  502  0.91887920495E+02 -0.41426169403E+02 -0.53224558046E+03  0.54170552459E+03  0.00000000000E+00 0.  1.
         11    1    5    5    0    0 -0.36176688151E+03  0.21675715551E+03 -0.37709543507E+03  0.56573837431E+03  0.00000000000E+00 0. -1.
        -11    1    5    5    0    0 -0.33602743175E+02  0.19322256761E+02 -0.83121047281E+02  0.91714788646E+02  0.00000000000E+00 0.  1.
          2    1    6    6  503    0  0.48879034943E+02 -0.99578507034E+02  0.82685224884E+02  0.13835420317E+03  0.00000000000E+00 0. -1.
         -2    1    6    6    0  503 -0.22824172829E+02 -0.95438832420E+02  0.15481847819E+03  0.18329832184E+03  0.00000000000E+00 0.  1.
<mgrwt>
<rscale>  0 0.18701807E+04</rscale>
<asrwt>0</asrwt>
<pdfrwt beam="1">  1        1 0.33511454E+00 0.18701807E+04</pdfrwt>
<pdfrwt beam="2">  1       -1 0.61757140E-01 0.18701807E+04</pdfrwt>
<totfact> 0.56244007E+00</totfact>
</mgrwt>
</event>
<event>
12    2  0.3751044E-008  0.1082228E+04  0.7818608E-02  0.9222689E-01
          2   -1    0    0  501    0  0.00000000000E+00  0.00000000000E+00  0.13265424675E+04  0.13265424675E+04  0.00000000000E+00 0. -1.
         -2   -1    0    0    0  501 -0.00000000000E+00 -0.00000000000E+00 -0.22072738302E+03  0.22072738302E+03  0.00000000000E+00 0.  1.
         23    2    1    2    0    0  0.11435985417E+03 -0.80077991763E+02  0.23469666119E+03  0.28785313124E+03  0.91028794215E+02 0.  0.
        254    2    1    2    0    0 -0.11435985417E+03  0.80077991763E+02  0.87111842331E+03  0.12594167193E+04  0.89877277687E+03 0.  0.
         23    2    4    4    0    0 -0.38545313209E+03  0.33455668328E+03  0.58932711860E+03  0.78410761946E+03  0.83761654785E+02 0.  0.
         23    2    4    4    0    0  0.27109327791E+03 -0.25447869152E+03  0.28179130472E+03  0.47530909986E+03  0.90892415670E+02 0.  0.
          4    1    3    3  502    0  0.10056105911E+03 -0.10004269339E+03  0.20811528403E+03  0.25185916413E+03  0.00000000000E+00 0. -1.
         -4    1    3    3    0  502  0.13798795067E+02  0.19964701624E+02  0.26581377160E+02  0.35993967105E+02  0.00000000000E+00 0.  1.
         11    1    5    5    0    0 -0.37078147753E+03  0.33842279142E+03  0.57025619732E+03  0.75973746808E+03  0.00000000000E+00 0.  1.
        -11    1    5    5    0    0 -0.14671654559E+02 -0.38661081346E+01  0.19070921279E+02  0.24370151375E+02  0.00000000000E+00 0. -1.
          3    1    6    6  503    0  0.13765235914E+02  0.70212433718E+01  0.71796397977E+01  0.17038979015E+02  0.00000000000E+00 0. -1.
         -3    1    6    6    0  503  0.25732804200E+03 -0.26149993489E+03  0.27461166492E+03  0.45827012084E+03  0.00000000000E+00 0.  1.
<mgrwt>
<rscale>  0 0.10822278E+04</rscale>
<asrwt>0</asrwt>
<pdfrwt beam="1">  1        2 0.20408345E+00 0.10822278E+04</pdfrwt>
<pdfrwt beam="2">  1       -2 0.33958060E-01 0.10822278E+04</pdfrwt>
<totfact> 0.12855926E+02</totfact>
</mgrwt>
</event>
<event>
12    2  0.3751044E-008  0.1942577E+04  0.7818608E-02  0.8633949E-01
         -1   -1    0    0    0  501 -0.00000000000E+00  0.00000000000E+00  0.39573672011E+03  0.39573672011E+03  0.00000000000E+00 0. -1.
          1   -1    0    0  501    0  0.00000000000E+00 -0.00000000000E+00 -0.23839104503E+04  0.23839104503E+04  0.00000000000E+00 0.  1.
         23    2    1    2    0    0 -0.13566020944E+03  0.30810186106E+03 -0.17510732809E+04  0.17853654738E+04  0.89116725554E+02 0.  0.
        254    2    1    2    0    0  0.13566020944E+03 -0.30810186106E+03 -0.23710044930E+03  0.99428169661E+03  0.90501327059E+03 0.  0.
         23    2    4    4    0    0  0.82081711753E+01 -0.20434418662E+03  0.32898817917E+03  0.39779885499E+03  0.90480861612E+02 0.  0.
         23    2    4    4    0    0  0.12745203826E+03 -0.10375767443E+03 -0.56608862847E+03  0.59648284162E+03  0.91245646510E+02 0.  0.
          1    1    3    3  502    0 -0.76920451888E+02  0.77186799696E+02 -0.61423216875E+03  0.62382346469E+03  0.00000000000E+00 0. -1.
         -1    1    3    3    0  502 -0.58739757548E+02  0.23091506136E+03 -0.11368411121E+04  0.11615420091E+04  0.00000000000E+00 0.  1.
         11    1    5    5    0    0 -0.29835816016E+02 -0.13216781661E+03  0.24935352008E+03  0.28378809989E+03  0.00000000000E+00 0. -1.
        -11    1    5    5    0    0  0.38043987191E+02 -0.72176370013E+02  0.79634659091E+02  0.11401075510E+03  0.00000000000E+00 0.  1.
          1    1    6    6  503    0  0.12622331791E+02 -0.22420579531E+02 -0.20093905102E+02  0.32646143242E+02  0.00000000000E+00 0. -1.
         -1    1    6    6    0  503  0.11482970647E+03 -0.81337094904E+02 -0.54599472337E+03  0.56383669838E+03  0.00000000000E+00 0.  1.
<mgrwt>
<rscale>  0 0.19425765E+04</rscale>
<asrwt>0</asrwt>
<pdfrwt beam="1">  1        1 0.36675546E+00 0.19425765E+04</pdfrwt>
<pdfrwt beam="2">  1       -1 0.60882572E-01 0.19425765E+04</pdfrwt>
<totfact> 0.41586082E+00</totfact>
</mgrwt>
</event>
<event>
12    2  0.3751044E-008  0.1498608E+04  0.7818608E-02  0.8885379E-01
         -1   -1    0    0    0  501 -0.00000000000E+00  0.00000000000E+00  0.15458594119E+04  0.15458594119E+04  0.00000000000E+00 0.  1.
          1   -1    0    0  501    0  0.00000000000E+00 -0.00000000000E+00 -0.36320040745E+03  0.36320040745E+03  0.00000000000E+00 0. -1.
         23    2    1    2    0    0 -0.10902660961E+03 -0.40852250400E+03  0.12251382470E+03  0.44956516567E+03  0.91223697917E+02 0.  0.
        254    2    1    2    0    0  0.10902660961E+03  0.40852250400E+03  0.10601451798E+04  0.14594946537E+04  0.90963696281E+03 0.  0.
         23    2    4    4    0    0  0.72722662892E+02  0.53411855306E+03  0.19640211982E+03  0.58110145906E+03  0.92379102794E+02 0.  0.
         23    2    4    4    0    0  0.36303946722E+02 -0.12559604906E+03  0.86374305993E+03  0.87839319463E+03  0.91816048170E+02 0.  0.
          1    1    3    3  502    0 -0.94881393972E+02 -0.28699508458E+03  0.47310001491E+02  0.30595243705E+03  0.00000000000E+00 0. -1.
         -1    1    3    3    0  502 -0.14145215643E+02 -0.12152741942E+03  0.75203823207E+02  0.14361272862E+03  0.00000000000E+00 0.  1.
         11    1    5    5    0    0  0.36061679690E+02  0.11403372611E+03  0.79162261590E+02  0.14342523869E+03  0.00000000000E+00 0. -1.
        -11    1    5    5    0    0  0.36660983202E+02  0.42008482695E+03  0.11723985823E+03  0.43767622037E+03  0.00000000000E+00 0.  1.
          2    1    6    6  503    0 -0.27358784058E+02 -0.12839822045E+02  0.15511370429E+03  0.15803045704E+03  0.00000000000E+00 0. -1.
         -2    1    6    6    0  503  0.63662730780E+02 -0.11275622701E+03  0.70862935565E+03  0.72036273759E+03  0.00000000000E+00 0.  1.
<mgrwt>
<rscale>  0 0.14986084E+04</rscale>
<asrwt>0</asrwt>
<pdfrwt beam="1">  1        1 0.55876987E-01 0.14986084E+04</pdfrwt>
<pdfrwt beam="2">  1       -1 0.23782452E+00 0.14986084E+04</pdfrwt>
<totfact> 0.55306455E+00</totfact>
</mgrwt>
</event>
<event>
12    2  0.3751044E-008  0.1847650E+04  0.7818608E-02  0.8681362E-01
          2   -1    0    0  501    0  0.00000000000E+00  0.00000000000E+00  0.77604123565E+03  0.77604123565E+03  0.00000000000E+00 0.  1.
         -2   -1    0    0    0  501 -0.00000000000E+00 -0.00000000000E+00 -0.10997516574E+04  0.10997516574E+04  0.00000000000E+00 0. -1.
         23    2    1    2    0    0  0.67601076265E+03 -0.14224845569E+03 -0.25910295305E+02  0.69719074228E+03  0.90434580482E+02 0.  0.
        254    2    1    2    0    0 -0.67601076265E+03  0.14224845569E+03 -0.29780012647E+03  0.11786021508E+04  0.90729980721E+03 0.  0.
         23    2    4    4    0    0 -0.85643498351E+03  0.15506815780E+03 -0.76056298229E+02  0.87857500798E+03  0.92641619206E+02 0.  0.
         23    2    4    4    0    0  0.18042422085E+03 -0.12819702106E+02 -0.22174382824E+03  0.30002714282E+03  0.90159396791E+02 0.  0.
          1    1    3    3  502    0  0.45703274933E+03 -0.77020500129E+02 -0.55532155700E+02  0.46679215044E+03  0.00000000000E+00 0. -1.
         -1    1    3    3    0  502  0.21897801333E+03 -0.65227955563E+02  0.29621860395E+02  0.23039859184E+03  0.00000000000E+00 0.  1.
         11    1    5    5    0    0 -0.75099106336E+03  0.16641748482E+03 -0.65164573053E+02  0.77196423368E+03  0.00000000000E+00 0. -1.
        -11    1    5    5    0    0 -0.10544392015E+03 -0.11349327017E+02 -0.10891725176E+02  0.10661077430E+03  0.00000000000E+00 0.  1.
          3    1    6    6  503    0  0.16416032789E+03 -0.40671687714E+02 -0.19504328294E+03  0.25815631244E+03  0.00000000000E+00 0. -1.
         -3    1    6    6    0  503  0.16263892966E+02  0.27851985608E+02 -0.26700545301E+02  0.41870830373E+02  0.00000000000E+00 0.  1.
<mgrwt>
<rscale>  0 0.18476500E+04</rscale>
<asrwt>0</asrwt>
<pdfrwt beam="1">  1        2 0.11939096E+00 0.18476500E+04</pdfrwt>
<pdfrwt beam="2">  1       -2 0.16919256E+00 0.18476500E+04</pdfrwt>
<totfact> 0.72805538E+00</totfact>
</mgrwt>
</event>
<event>
12    2  0.3751044E-008  0.2461709E+04  0.7818608E-02  0.8416755E-01
          2   -1    0    0  501    0  0.00000000000E+00  0.00000000000E+00  0.12080638046E+04  0.12080638046E+04  0.00000000000E+00 0. -1.
         -2   -1    0    0    0  501 -0.00000000000E+00 -0.00000000000E+00 -0.12540756036E+04  0.12540756036E+04  0.00000000000E+00 0.  1.
         23    2    1    2    0    0  0.19664302533E+03  0.28331367237E+03 -0.10318635801E+04  0.10919553376E+04  0.93214242587E+02 0.  0.
        254    2    1    2    0    0 -0.19664302533E+03 -0.28331367237E+03  0.98585178105E+03  0.13701840706E+04  0.88688530080E+03 0.  0.
         23    2    4    4    0    0  0.33548174312E+03 -0.69109952721E+02  0.50319854712E+03  0.61546871124E+03  0.90932783770E+02 0.  0.
         23    2    4    4    0    0 -0.53212476844E+03 -0.21420371965E+03  0.48265323393E+03  0.75471535936E+03  0.87184440896E+02 0.  0.
          2    1    3    3  502    0  0.91882883501E+01  0.79106544733E+02 -0.20923975203E+03  0.22388287985E+03  0.00000000000E+00 0. -1.
         -2    1    3    3    0  502  0.18745473698E+03  0.20420712763E+03 -0.82262382803E+03  0.86807245771E+03  0.00000000000E+00 0.  1.
         11    1    5    5    0    0  0.12097449052E+03  0.17230578036E+02  0.15281795114E+03  0.19566564943E+03  0.00000000000E+00 0. -1.
        -11    1    5    5    0    0  0.21450725260E+03 -0.86340530757E+02  0.35038059598E+03  0.41980306181E+03  0.00000000000E+00 0.  1.
          4    1    6    6  503    0 -0.27850280739E+03 -0.12314400853E+03  0.31075573175E+03  0.43508319363E+03  0.00000000000E+00 0. -1.
         -4    1    6    6    0  503 -0.25362196105E+03 -0.91059711118E+02  0.17189750217E+03  0.31963216573E+03  0.00000000000E+00 0.  1.
<mgrwt>
<rscale>  0 0.24617094E+04</rscale>
<asrwt>0</asrwt>
<pdfrwt beam="1">  1        2 0.18585597E+00 0.24617094E+04</pdfrwt>
<pdfrwt beam="2">  1       -2 0.19293471E+00 0.24617094E+04</pdfrwt>
<totfact> 0.24826842E+00</totfact>
</mgrwt>
</event>
<event>
12    2  0.3751044E-008  0.1561435E+04  0.7818608E-02  0.8844597E-01
          1   -1    0    0  501    0  0.00000000000E+00  0.00000000000E+00  0.17591868057E+04  0.17591868057E+04  0.00000000000E+00 0. -1.
         -1   -1    0    0    0  501 -0.00000000000E+00 -0.00000000000E+00 -0.34647806681E+03  0.34647806681E+03  0.00000000000E+00 0.  1.
         23    2    1    2    0    0 -0.21886510076E+03 -0.54595898387E+02 -0.15327608385E+03  0.28689844033E+03  0.89075881872E+02 0.  0.
        254    2    1    2    0    0  0.21886510076E+03  0.54595898387E+02  0.15659848228E+04  0.18187664322E+04  0.89706199638E+03 0.  0.
         23    2    4    4    0    0  0.98663012785E+02 -0.11874414176E+03  0.15816780904E+04  0.15918727415E+04  0.92296706696E+02 0.  0.
         23    2    4    4    0    0  0.12020208797E+03  0.17334004014E+03 -0.15693267635E+02  0.22689369075E+03  0.82092367379E+02 0.  0.
          1    1    3    3  502    0 -0.76094667247E+02 -0.24348906525E+02 -0.68883134243E+01  0.80191748293E+02  0.00000000000E+00 0. -1.
         -1    1    3    3    0  502 -0.14277043351E+03 -0.30246991861E+02 -0.14638777043E+03  0.20670669203E+03  0.00000000000E+00 0.  1.
         11    1    5    5    0    0  0.17438461394E+02 -0.40555920893E+02  0.88764112024E+03  0.88873822973E+03  0.00000000000E+00 0.  1.
        -11    1    5    5    0    0  0.81224551391E+02 -0.78188220865E+02  0.69403697016E+03  0.70313451172E+03  0.00000000000E+00 0. -1.
          3    1    6    6  503    0  0.30083963957E+02  0.11401054421E+03 -0.34930115104E+00  0.11791340505E+03  0.00000000000E+00 0. -1.
         -3    1    6    6    0  503  0.90118124015E+02  0.59329495933E+02 -0.15343966484E+02  0.10898028570E+03  0.00000000000E+00 0.  1.
<mgrwt>
<rscale>  0 0.15614348E+04</rscale>
<asrwt>0</asrwt>
<pdfrwt beam="1">  1        1 0.27064412E+00 0.15614348E+04</pdfrwt>
<pdfrwt beam="2">  1       -1 0.53304319E-01 0.15614348E+04</pdfrwt>
<totfact> 0.14842174E+01</totfact>
</mgrwt>
</event>
<event>
12    2  0.3751044E-008  0.1852684E+04  0.7818608E-02  0.8678774E-01
          2   -1    0    0  501    0  0.00000000000E+00  0.00000000000E+00  0.15198773738E+04  0.15198773738E+04  0.00000000000E+00 0. -1.
         -2   -1    0    0    0  501 -0.00000000000E+00 -0.00000000000E+00 -0.56459139508E+03  0.56459139508E+03  0.00000000000E+00 0.  1.
         23    2    1    2    0    0 -0.58915623366E+02  0.56287606468E+03  0.98166320122E+03  0.11368324599E+04  0.91787180322E+02 0.  0.
        254    2    1    2    0    0  0.58915623366E+02 -0.56287606468E+03 -0.26377222478E+02  0.94763630896E+03  0.75961720711E+03 0.  0.
         23    2    4    4    0    0 -0.22396942088E+03 -0.53093109537E+03 -0.18142267705E+03  0.61106718141E+03  0.91862848449E+02 0.  0.
         23    2    4    4    0    0  0.28288504424E+03 -0.31944969307E+02  0.15504545457E+03  0.33656912755E+03  0.90527649465E+02 0.  0.
          3    1    3    3  502    0 -0.69305989212E+02  0.35997511105E+03  0.69075455729E+03  0.78200208384E+03  0.00000000000E+00 0. -1.
         -3    1    3    3    0  502  0.10390365846E+02  0.20290095363E+03  0.29090864392E+03  0.35483037609E+03  0.00000000000E+00 0.  1.
         11    1    5    5    0    0 -0.10774546179E+03 -0.15527744170E+03 -0.39981207987E+02  0.19318039608E+03  0.00000000000E+00 0.  1.
        -11    1    5    5    0    0 -0.11622395909E+03 -0.37565365367E+03 -0.14144146907E+03  0.41788678533E+03  0.00000000000E+00 0. -1.
          4    1    6    6  503    0  0.11205708633E+03 -0.62732657855E+01  0.11196600401E+03  0.15853242732E+03  0.00000000000E+00 0. -1.
         -4    1    6    6    0  503  0.17082795792E+03 -0.25671703521E+02  0.43079450565E+02  0.17803670023E+03  0.00000000000E+00 0.  1.
<mgrwt>
<rscale>  0 0.18526842E+04</rscale>
<asrwt>0</asrwt>
<pdfrwt beam="1">  1        2 0.23382729E+00 0.18526842E+04</pdfrwt>
<pdfrwt beam="2">  1       -2 0.86860215E-01 0.18526842E+04</pdfrwt>
<totfact> 0.13335981E+01</totfact>
</mgrwt>
</event>
<event>
12    2  0.3751044E-008  0.1499078E+04  0.7818608E-02  0.8885066E-01
          1   -1    0    0  501    0  0.00000000000E+00  0.00000000000E+00  0.14273555073E+04  0.14273555073E+04  0.00000000000E+00 0. -1.
         -1   -1    0    0    0  501 -0.00000000000E+00 -0.00000000000E+00 -0.39360116834E+03  0.39360116834E+03  0.00000000000E+00 0.  1.
         23    2    1    2    0    0  0.20964405228E+03  0.25826315540E+03 -0.88901360532E+02  0.35631832323E+03  0.91699560929E+02 0.  0.
        254    2    1    2    0    0 -0.20964405228E+03 -0.25826315540E+03  0.11226556995E+04  0.14646383524E+04  0.87986316985E+03 0.  0.
         23    2    4    4    0    0 -0.56189994457E+02  0.29583041902E+03  0.19690366532E+03  0.37112030921E+03  0.91028996466E+02 0.  0.
         23    2    4    4    0    0 -0.15345405782E+03 -0.55409357442E+03  0.92575203422E+03  0.10935180432E+04  0.90537533316E+02 0.  0.
          3    1    3    3  502    0  0.11469018697E+02  0.66433802460E+02 -0.32318935438E+02  0.74762972700E+02  0.00000000000E+00 0. -1.
         -3    1    3    3    0  502  0.19817503358E+03  0.19182935294E+03 -0.56582425094E+02  0.28155535053E+03  0.00000000000E+00 0.  1.
         11    1    5    5    0    0 -0.59713609543E+02  0.30149580446E+03  0.19562371415E+03  0.36432687632E+03  0.00000000000E+00 0.  1.
        -11    1    5    5    0    0  0.35236150869E+01 -0.56653854374E+01  0.12799511642E+01  0.67934328890E+01  0.00000000000E+00 0. -1.
          2    1    6    6  503    0 -0.92070283243E+02 -0.27747914587E+03  0.55041371104E+03  0.62323901253E+03  0.00000000000E+00 0. -1.
         -2    1    6    6    0  503 -0.61383774576E+02 -0.27661442856E+03  0.37533832319E+03  0.47027903070E+03  0.00000000000E+00 0.  1.
<mgrwt>
<rscale>  0 0.14990781E+04</rscale>
<asrwt>0</asrwt>
<pdfrwt beam="1">  1        1 0.21959315E+00 0.14990781E+04</pdfrwt>
<pdfrwt beam="2">  1       -1 0.60554027E-01 0.14990781E+04</pdfrwt>
<totfact> 0.19665600E+01</totfact>
</mgrwt>
</event>
<event>
12    2  0.3751044E-008  0.2884306E+04  0.7818608E-02  0.8277562E-01
         -2   -1    0    0    0  501 -0.00000000000E+00  0.00000000000E+00  0.13294141050E+04  0.13294141050E+04  0.00000000000E+00 0.  1.
          2   -1    0    0  501    0  0.00000000000E+00 -0.00000000000E+00 -0.15644525349E+04  0.15644525349E+04  0.00000000000E+00 0. -1.
         23    2    1    2    0    0 -0.22556699883E+03 -0.32357256808E+03  0.11379355764E+04  0.12075915613E+04  0.88319449146E+02 0.  0.
        254    2    1    2    0    0  0.22556699883E+03  0.32357256808E+03 -0.13729740063E+04  0.16862750786E+04  0.89603925189E+03 0.  0.
         23    2    4    4    0    0  0.12725807505E+03  0.12449519899E+03 -0.14267438393E+04  0.14406280761E+04  0.90097715756E+02 0.  0.
         23    2    4    4    0    0  0.98308923780E+02  0.19907736909E+03  0.53769832971E+02  0.24564700253E+03  0.90303995109E+02 0.  0.
          3    1    3    3  502    0 -0.16925116551E+02  0.15764502560E+01  0.34102015534E+02  0.38103703615E+02  0.00000000000E+00 0. -1.
         -3    1    3    3    0  502 -0.20864188228E+03 -0.32514901833E+03  0.11038335609E+04  0.11694878577E+04  0.00000000000E+00 0.  1.
         11    1    5    5    0    0  0.67821153272E+02  0.98014646490E+01 -0.59102520742E+03  0.59498451521E+03  0.00000000000E+00 0.  1.
        -11    1    5    5    0    0  0.59436921775E+02  0.11469373434E+03 -0.83571863189E+03  0.84564356088E+03  0.00000000000E+00 0. -1.
          4    1    6    6  503    0  0.82737205626E+02  0.68026485585E+02  0.32776375918E+02  0.11201490416E+03  0.00000000000E+00 0. -1.
         -4    1    6    6    0  503  0.15571718154E+02  0.13105088351E+03  0.20993457053E+02  0.13363209837E+03  0.00000000000E+00 0.  1.
<mgrwt>
<rscale>  0 0.28843060E+04</rscale>
<asrwt>0</asrwt>
<pdfrwt beam="1">  1        2 0.24068500E+00 0.28843060E+04</pdfrwt>
<pdfrwt beam="2">  1       -2 0.20452525E+00 0.28843060E+04</pdfrwt>
<totfact> 0.12536917E+00</totfact>
</mgrwt>
</event>
<event>
12    2  0.3751044E-008  0.1568977E+04  0.7818608E-02  0.8839836E-01
         -1   -1    0    0    0  501 -0.00000000000E+00  0.00000000000E+00  0.47070768234E+03  0.47070768234E+03  0.00000000000E+00 0.  1.
          1   -1    0    0  501    0  0.00000000000E+00 -0.00000000000E+00 -0.13074409435E+04  0.13074409435E+04  0.00000000000E+00 0. -1.
         23    2    1    2    0    0  0.41798347106E+03 -0.11498706683E+03  0.53462300495E+02  0.44543696135E+03  0.87313580562E+02 0.  0.
        254    2    1    2    0    0 -0.41798347106E+03  0.11498706683E+03 -0.89019556166E+03  0.13327116645E+04  0.89204261954E+03 0.  0.
         23    2    4    4    0    0  0.24180558920E+03  0.99879119844E+02 -0.46576483839E+03  0.54195105679E+03  0.91259419897E+02 0.  0.
         23    2    4    4    0    0 -0.65978906026E+03  0.15107946987E+02 -0.42443072327E+03  0.79076060771E+03  0.98035941147E+02 0.  0.
          3    1    3    3  502    0  0.12598718107E+01 -0.10200593180E+02 -0.55935813847E+01  0.11701603775E+02  0.00000000000E+00 0. -1.
         -3    1    3    3    0  502  0.41672359925E+03 -0.10478647365E+03  0.59055881880E+02  0.43373535758E+03  0.00000000000E+00 0.  1.
         11    1    5    5    0    0  0.17875795013E+03  0.92737799944E+02 -0.27458388406E+03  0.34051580530E+03  0.00000000000E+00 0. -1.
        -11    1    5    5    0    0  0.63047639070E+02  0.71413199003E+01 -0.19118095433E+03  0.20143525149E+03  0.00000000000E+00 0.  1.
          3    1    6    6  503    0 -0.11739736718E+03  0.98665461535E+01 -0.12255984787E+03  0.17000119666E+03  0.00000000000E+00 0. -1.
         -3    1    6    6    0  503 -0.54239169308E+03  0.52414008336E+01 -0.30187087539E+03  0.62075941106E+03  0.00000000000E+00 0.  1.
<mgrwt>
<rscale>  0 0.15689774E+04</rscale>
<asrwt>0</asrwt>
<pdfrwt beam="1">  1        1 0.20114476E+00 0.15689774E+04</pdfrwt>
<pdfrwt beam="2">  1       -1 0.72416567E-01 0.15689774E+04</pdfrwt>
<totfact> 0.16533718E+01</totfact>
</mgrwt>
</event>
<event>
12    2  0.3751044E-008  0.1827497E+04  0.7818608E-02  0.8691812E-01
          2   -1    0    0  501    0  0.00000000000E+00  0.00000000000E+00  0.33875247104E+04  0.33875247104E+04  0.00000000000E+00 0.  1.
         -2   -1    0    0    0  501 -0.00000000000E+00 -0.00000000000E+00 -0.24647390523E+03  0.24647390523E+03  0.00000000000E+00 0. -1.
         23    2    1    2    0    0  0.37650578628E+03  0.57937278795E+03  0.11834786654E+04  0.13735917560E+04  0.93290546787E+02 0.  0.
        254    2    1    2    0    0 -0.37650578628E+03 -0.57937278795E+03  0.19575721398E+04  0.22604068597E+04  0.89438305792E+03 0.  0.
         23    2    4    4    0    0  0.21801332044E+03 -0.17658285679E+03  0.10948883916E+04  0.11344144437E+04  0.96975392655E+02 0.  0.
         23    2    4    4    0    0 -0.59451910672E+03 -0.40278993116E+03  0.86268374822E+03  0.11259924160E+04  0.89123367282E+02 0.  0.
          3    1    3    3  502    0  0.82349376947E+02  0.73734795545E+02  0.22539574848E+03  0.25104080025E+03  0.00000000000E+00 0. -1.
         -3    1    3    3    0  502  0.29415640933E+03  0.50563799241E+03  0.95808291693E+03  0.11225509557E+04  0.00000000000E+00 0.  1.
         11    1    5    5    0    0  0.21861965214E+03 -0.18455683478E+03  0.10287116478E+04  0.10677562606E+04  0.00000000000E+00 0.  1.
        -11    1    5    5    0    0 -0.60633169847E+00  0.79739779844E+01  0.66176743734E+02  0.66658183100E+02  0.00000000000E+00 0. -1.
          2    1    6    6  503    0 -0.59960868176E+01 -0.52357390131E+01  0.32525742257E+02  0.33485667523E+02  0.00000000000E+00 0. -1.
         -2    1    6    6    0  503 -0.58852301990E+03 -0.39755419214E+03  0.83015800596E+03  0.10925067485E+04  0.00000000000E+00 0.  1.
<mgrwt>
<rscale>  0 0.18274971E+04</rscale>
<asrwt>0</asrwt>
<pdfrwt beam="1">  1        2 0.52115761E+00 0.18274971E+04</pdfrwt>
<pdfrwt beam="2">  1       -2 0.37919065E-01 0.18274971E+04</pdfrwt>
<totfact> 0.60524227E+00</totfact>
</mgrwt>
</event>
<event>
12    2  0.3751044E-008  0.2586517E+04  0.7818608E-02  0.8372795E-01
          2   -1    0    0  501    0  0.00000000000E+00  0.00000000000E+00  0.20346830193E+04  0.20346830193E+04  0.00000000000E+00 0. -1.
         -2   -1    0    0    0  501 -0.00000000000E+00 -0.00000000000E+00 -0.82200415255E+03  0.82200415255E+03  0.00000000000E+00 0.  1.
         23    2    1    2    0    0  0.29393238852E+03 -0.10513076453E+04  0.89314110877E+03  0.14133493663E+04  0.90616648107E+02 0.  0.
        254    2    1    2    0    0 -0.29393238852E+03  0.10513076453E+04  0.31953775795E+03  0.14433378055E+04  0.88852441054E+03 0.  0.
         23    2    4    4    0    0 -0.46924458755E+02  0.19731164366E+03 -0.28620849268E+03  0.36372691818E+03  0.96167459018E+02 0.  0.
         23    2    4    4    0    0 -0.24700792976E+03  0.85399600162E+03  0.60574625063E+03  0.10796108874E+04  0.91154044415E+02 0.  0.
          1    1    3    3  502    0  0.27645204118E+03 -0.10312374072E+04  0.88046489379E+03  0.13838694846E+04  0.00000000000E+00 0. -1.
         -1    1    3    3    0  502  0.17480347339E+02 -0.20070238058E+02  0.12676214980E+02  0.29479881699E+02  0.00000000000E+00 0.  1.
         11    1    5    5    0    0 -0.58165738261E+02  0.20201423093E+03 -0.25665653673E+03  0.33176133056E+03  0.00000000000E+00 0.  1.
        -11    1    5    5    0    0  0.11241279506E+02 -0.47025872667E+01 -0.29551955947E+02  0.31965587625E+02  0.00000000000E+00 0. -1.
          4    1    6    6  503    0 -0.17956408015E+03  0.56758679762E+03  0.45310181636E+03  0.74813052852E+03  0.00000000000E+00 0.  1.
         -4    1    6    6    0  503 -0.67443849610E+02  0.28640920400E+03  0.15264443427E+03  0.33148035885E+03  0.00000000000E+00 0. -1.
<mgrwt>
<rscale>  0 0.25865173E+04</rscale>
<asrwt>0</asrwt>
<pdfrwt beam="1">  1        2 0.31302816E+00 0.25865173E+04</pdfrwt>
<pdfrwt beam="2">  1       -2 0.12646218E+00 0.25865173E+04</pdfrwt>
<totfact> 0.26352215E+00</totfact>
</mgrwt>
</event>
<event>
12    2  0.3751044E-008  0.1655200E+04  0.7818608E-02  0.8787336E-01
          2   -1    0    0  501    0  0.00000000000E+00  0.00000000000E+00  0.94162701987E+03  0.94162701987E+03  0.00000000000E+00 0. -1.
         -2   -1    0    0    0  501 -0.00000000000E+00 -0.00000000000E+00 -0.72738132108E+03  0.72738132108E+03  0.00000000000E+00 0.  1.
         23    2    1    2    0    0 -0.45650345543E+03 -0.34513987659E+03 -0.16744391147E+02  0.57966282421E+03  0.90618297840E+02 0.  0.
        254    2    1    2    0    0  0.45650345543E+03  0.34513987659E+03  0.23099008994E+03  0.10893455167E+04  0.89766379785E+03 0.  0.
         23    2    4    4    0    0  0.29677016500E+03 -0.22864893085E+03 -0.10540518068E+03  0.39932702435E+03  0.89436881915E+02 0.  0.
         23    2    4    4    0    0  0.15973329043E+03  0.57378880744E+03  0.33639527062E+03  0.69001849240E+03  0.90638965890E+02 0.  0.
          3    1    3    3  502    0 -0.21183425729E+03 -0.12764211494E+03 -0.43855784241E+02  0.25117641585E+03  0.00000000000E+00 0. -1.
         -3    1    3    3    0  502 -0.24466919814E+03 -0.21749776165E+03  0.27111393094E+02  0.32848640836E+03  0.00000000000E+00 0.  1.
         11    1    5    5    0    0  0.13621721962E+03 -0.76452583750E+02 -0.83221799249E+02  0.17699151492E+03  0.00000000000E+00 0.  1.
        -11    1    5    5    0    0  0.16055294538E+03 -0.15219634710E+03 -0.22183381433E+02  0.22233550943E+03  0.00000000000E+00 0. -1.
          3    1    6    6  503    0  0.15197461827E+03  0.48747175122E+03  0.25343885024E+03  0.57004933440E+03  0.00000000000E+00 0. -1.
         -3    1    6    6    0  503  0.77586721611E+01  0.86317056215E+02  0.82956420385E+02  0.11996915800E+03  0.00000000000E+00 0.  1.
<mgrwt>
<rscale>  0 0.16552002E+04</rscale>
<asrwt>0</asrwt>
<pdfrwt beam="1">  1        2 0.14486570E+00 0.16552002E+04</pdfrwt>
<pdfrwt beam="2">  1       -2 0.11190482E+00 0.16552002E+04</pdfrwt>
<totfact> 0.16548884E+01</totfact>
</mgrwt>
</event>
<event>
12    2  0.3751044E-008  0.3215527E+04  0.7818608E-02  0.8184728E-01
          3   -1    0    0  501    0  0.00000000000E+00  0.00000000000E+00  0.15279419387E+04  0.15279419387E+04  0.00000000000E+00 0. -1.
         -3   -1    0    0    0  501 -0.00000000000E+00 -0.00000000000E+00 -0.16917554331E+04  0.16917554331E+04  0.00000000000E+00 0.  1.
         23    2    1    2    0    0  0.11204660882E+04  0.21796360642E+03 -0.10134315891E+04  0.15299223932E+04  0.10327901441E+03 0.  0.
        254    2    1    2    0    0 -0.11204660882E+04 -0.21796360642E+03  0.84961809476E+03  0.16897749786E+04  0.91133757899E+03 0.  0.
         23    2    4    4    0    0 -0.20741286447E+03 -0.10717648715E+03 -0.17731750872E+03  0.30763018832E+03  0.93209109662E+02 0.  0.
         23    2    4    4    0    0 -0.91305322374E+03 -0.11078711927E+03  0.10269356035E+04  0.13821447903E+04  0.98931857749E+02 0.  0.
          1    1    3    3  502    0  0.20822216377E+03  0.22867979399E+02 -0.13976705029E+03  0.25182184638E+03  0.00000000000E+00 0. -1.
         -1    1    3    3    0  502  0.91224392443E+03  0.19509562702E+03 -0.87366453880E+03  0.12781005468E+04  0.00000000000E+00 0.  1.
         11    1    5    5    0    0 -0.30985345811E+02 -0.61751835488E+02 -0.44641531380E+02  0.82257201297E+02  0.00000000000E+00 0. -1.
        -11    1    5    5    0    0 -0.17642751866E+03 -0.45424651665E+02 -0.13267597734E+03  0.22537298703E+03  0.00000000000E+00 0.  1.
          4    1    6    6  503    0 -0.85608497148E+03 -0.83253653669E+02  0.93396948512E+03  0.12696895874E+04  0.00000000000E+00 0. -1.
         -4    1    6    6    0  503 -0.56968252255E+02 -0.27533465600E+02  0.92966118364E+02  0.11245520289E+03  0.00000000000E+00 0.  1.
<mgrwt>
<rscale>  0 0.32155274E+04</rscale>
<asrwt>0</asrwt>
<pdfrwt beam="1">  1        3 0.23506799E+00 0.32155274E+04</pdfrwt>
<pdfrwt beam="2">  1       -3 0.26027007E+00 0.32155274E+04</pdfrwt>
<totfact> 0.12529461E-02</totfact>
</mgrwt>
</event>
<event>
12    2  0.3751044E-008  0.3756226E+04  0.7818608E-02  0.8055614E-01
          1   -1    0    0  501    0  0.00000000000E+00  0.00000000000E+00  0.25542762058E+04  0.25542762058E+04  0.00000000000E+00 0. -1.
         -1   -1    0    0    0  501 -0.00000000000E+00 -0.00000000000E+00 -0.13809426868E+04  0.13809426868E+04  0.00000000000E+00 0.  1.
         23    2    1    2    0    0  0.12086854803E+04  0.99724707305E+03  0.14142261101E+04  0.21128104017E+04  0.92249597006E+02 0.  0.
        254    2    1    2    0    0 -0.12086854803E+04 -0.99724707305E+03 -0.24089259103E+03  0.18224084909E+04  0.89873308187E+03 0.  0.
         23    2    4    4    0    0 -0.62937770003E+02 -0.45970468396E+03  0.14843525530E+03  0.49551624809E+03  0.90629839239E+02 0.  0.
         23    2    4    4    0    0 -0.11457477103E+04 -0.53754238909E+03 -0.38932784632E+03  0.13268922428E+04  0.85890724231E+02 0.  0.
          4    1    3    3  502    0  0.89676788460E+03  0.71797149006E+03  0.98551571463E+03  0.15135775247E+04  0.00000000000E+00 0. -1.
         -4    1    3    3    0  502  0.31191759567E+03  0.27927558298E+03  0.42871039547E+03  0.59923287704E+03  0.00000000000E+00 0.  1.
         11    1    5    5    0    0 -0.66073645121E+01 -0.12872205305E+03  0.83436429402E+02  0.15354042451E+03  0.00000000000E+00 0. -1.
        -11    1    5    5    0    0 -0.56330405491E+02 -0.33098263092E+03  0.64998825895E+02  0.34197582359E+03  0.00000000000E+00 0.  1.
          2    1    6    6  503    0 -0.56880338912E+03 -0.31426602400E+03 -0.19821706203E+03  0.67940446936E+03  0.00000000000E+00 0. -1.
         -2    1    6    6    0  503 -0.57694432115E+03 -0.22327636509E+03 -0.19111078429E+03  0.64748777346E+03  0.00000000000E+00 0.  1.
<mgrwt>
<rscale>  0 0.37562263E+04</rscale>
<asrwt>0</asrwt>
<pdfrwt beam="1">  1        1 0.39296557E+00 0.37562263E+04</pdfrwt>
<pdfrwt beam="2">  1       -1 0.21245272E+00 0.37562263E+04</pdfrwt>
<totfact> 0.12269485E-01</totfact>
</mgrwt>
</event>
<event>
12    2  0.3751044E-008  0.1848217E+04  0.7818608E-02  0.8681071E-01
          2   -1    0    0  501    0  0.00000000000E+00  0.00000000000E+00  0.72029343762E+03  0.72029343762E+03  0.00000000000E+00 0. -1.
         -2   -1    0    0    0  501 -0.00000000000E+00 -0.00000000000E+00 -0.11855947234E+04  0.11855947234E+04  0.00000000000E+00 0.  1.
         23    2    1    2    0    0 -0.17378253153E+03 -0.35342307952E+03  0.41968658003E+03  0.58320047857E+03  0.94221713763E+02 0.  0.
        254    2    1    2    0    0  0.17378253153E+03  0.35342307952E+03 -0.88498786580E+03  0.13226876824E+04  0.90066139101E+03 0.  0.
         23    2    4    4    0    0 -0.24544954024E+03 -0.12739304318E+03 -0.10110696530E+03  0.30792241196E+03  0.90106210115E+02 0.  0.
         23    2    4    4    0    0  0.41923207177E+03  0.48081612270E+03 -0.78388090050E+03  0.10147652705E+04  0.91321487815E+02 0.  0.
          1    1    3    3  502    0 -0.98180894515E+02 -0.19387916044E+03  0.29779524459E+03  0.36866058184E+03  0.00000000000E+00 0. -1.
         -1    1    3    3    0  502 -0.75601637014E+02 -0.15954391907E+03  0.12189133544E+03  0.21453989673E+03  0.00000000000E+00 0.  1.
         11    1    5    5    0    0 -0.22317772206E+03 -0.11384760628E+03 -0.57396236950E+02  0.25702898883E+03  0.00000000000E+00 0.  1.
        -11    1    5    5    0    0 -0.22271818179E+02 -0.13545436899E+02 -0.43710728348E+02  0.50893423136E+02  0.00000000000E+00 0. -1.
          1    1    6    6  503    0  0.25080056263E+03  0.28965976509E+03 -0.39880228614E+03  0.55303432548E+03  0.00000000000E+00 0. -1.
         -1    1    6    6    0  503  0.16843150914E+03  0.19115635761E+03 -0.38507861436E+03  0.46173094499E+03  0.00000000000E+00 0.  1.
<mgrwt>
<rscale>  0 0.18482165E+04</rscale>
<asrwt>0</asrwt>
<pdfrwt beam="1">  1        2 0.11081438E+00 0.18482165E+04</pdfrwt>
<pdfrwt beam="2">  1       -2 0.18239918E+00 0.18482165E+04</pdfrwt>
<totfact> 0.64810756E+00</totfact>
</mgrwt>
</event>
<event>
12    2  0.3751044E-008  0.1863633E+04  0.7818608E-02  0.8673173E-01
         -2   -1    0    0    0  501 -0.00000000000E+00  0.00000000000E+00  0.49726382092E+03  0.49726382092E+03  0.00000000000E+00 0. -1.
          2   -1    0    0  501    0  0.00000000000E+00 -0.00000000000E+00 -0.17461198663E+04  0.17461198663E+04  0.00000000000E+00 0.  1.
         23    2    1    2    0    0 -0.14491227573E+03  0.52101088783E+03 -0.10404939351E+04  0.11755664207E+04  0.82926881804E+02 0.  0.
        254    2    1    2    0    0  0.14491227573E+03 -0.52101088783E+03 -0.20836211028E+03  0.10678172665E+04  0.89686511397E+03 0.  0.
         23    2    4    4    0    0  0.47983653948E+03 -0.30833371222E+03 -0.30126290531E+03  0.65044324193E+03  0.83691637236E+02 0.  0.
         23    2    4    4    0    0 -0.33492426374E+03 -0.21267717561E+03  0.92900795037E+02  0.41737402454E+03  0.90358592102E+02 0.  0.
          2    1    3    3  502    0 -0.14423928288E+03  0.45792557829E+03 -0.95938967331E+03  0.10728137542E+04  0.00000000000E+00 0.  1.
         -2    1    3    3    0  502 -0.67299285687E+00  0.63085309546E+02 -0.81104261742E+02  0.10275266650E+03  0.00000000000E+00 0. -1.
         11    1    5    5    0    0  0.23721589732E+03 -0.12169788927E+03 -0.10339737137E+03  0.28595939327E+03  0.00000000000E+00 0. -1.
        -11    1    5    5    0    0  0.24262064216E+03 -0.18663582295E+03 -0.19786553394E+03  0.36448384866E+03  0.00000000000E+00 0.  1.
          3    1    6    6  503    0 -0.29084824148E+02 -0.48092534891E+02  0.32271414272E+02  0.64809436714E+02  0.00000000000E+00 0. -1.
         -3    1    6    6    0  503 -0.30583943960E+03 -0.16458464072E+03  0.60629380765E+02  0.35256458782E+03  0.00000000000E+00 0.  1.
<mgrwt>
<rscale>  0 0.18636333E+04</rscale>
<asrwt>0</asrwt>
<pdfrwt beam="1">  1        2 0.26863383E+00 0.18636333E+04</pdfrwt>
<pdfrwt beam="2">  1       -2 0.76502126E-01 0.18636333E+04</pdfrwt>
<totfact> 0.13265814E+01</totfact>
</mgrwt>
</event>
<event>
12    2  0.3751044E-008  0.1953409E+04  0.7818608E-02  0.8628718E-01
         -4   -1    0    0    0  501 -0.00000000000E+00  0.00000000000E+00  0.16266151922E+04  0.16266151922E+04  0.00000000000E+00 0.  1.
          4   -1    0    0  501    0  0.00000000000E+00 -0.00000000000E+00 -0.58646455186E+03  0.58646455186E+03  0.00000000000E+00 0. -1.
         23    2    1    2    0    0  0.68261288148E+03 -0.14765607733E+03  0.63030735543E+02  0.70721750527E+03  0.91766350080E+02 0.  0.
        254    2    1    2    0    0 -0.68261288148E+03  0.14765607733E+03  0.97711990476E+03  0.15058622388E+04  0.90834746145E+03 0.  0.
         23    2    4    4    0    0 -0.58184882161E+03  0.47460326058E+03  0.48206941549E+03  0.89691252043E+03  0.90911175376E+02 0.  0.
         23    2    4    4    0    0 -0.10076405987E+03 -0.32694718325E+03  0.49505048927E+03  0.60894971832E+03  0.93257257766E+02 0.  0.
          2    1    3    3  502    0  0.59731204200E+03 -0.12596196829E+03  0.85424355537E+02  0.61639712320E+03  0.00000000000E+00 0. -1.
         -2    1    3    3    0  502  0.85300839475E+02 -0.21694109035E+02 -0.22393619994E+02  0.90820382064E+02  0.00000000000E+00 0.  1.
         11    1    5    5    0    0 -0.69056564288E+02  0.22270684939E+02  0.45360578982E+02  0.85570874744E+02  0.00000000000E+00 0.  1.
        -11    1    5    5    0    0 -0.51279225732E+03  0.45233257564E+03  0.43670883651E+03  0.81134164569E+03  0.00000000000E+00 0. -1.
          4    1    6    6  503    0 -0.49386672380E+02 -0.28156012744E+03  0.40705924338E+03  0.49740564572E+03  0.00000000000E+00 0. -1.
         -4    1    6    6    0  503 -0.51377387489E+02 -0.45387055812E+02  0.87991245890E+02  0.11154407261E+03  0.00000000000E+00 0.  1.
<mgrwt>
<rscale>  0 0.19534095E+04</rscale>
<asrwt>0</asrwt>
<pdfrwt beam="1">  1        4 0.90225316E-01 0.19534095E+04</pdfrwt>
<pdfrwt beam="2">  1       -4 0.25024849E+00 0.19534095E+04</pdfrwt>
<totfact> 0.12357473E-01</totfact>
</mgrwt>
</event>
<event>
12    2  0.4244877E-008  0.2054587E+04  0.7818608E-02  0.8581516E-01
         -1   -1    0    0    0  501 -0.00000000000E+00  0.00000000000E+00  0.11940267433E+04  0.11940267433E+04  0.00000000000E+00 0.  1.
          1   -1    0    0  501    0  0.00000000000E+00 -0.00000000000E+00 -0.88384322102E+03  0.88384322102E+03  0.00000000000E+00 0. -1.
         23    2    1    2    0    0 -0.24674570818E+02 -0.19766522782E+01 -0.71348614768E+03  0.71993905412E+03  0.92935553560E+02 0.  0.
        254    2    1    2    0    0  0.24674570818E+02  0.19766522782E+01  0.10236696700E+04  0.13579309102E+04  0.89188789773E+03 0.  0.
         23    2    4    4    0    0  0.26494875787E+02 -0.43073717031E+03  0.41598369209E+03  0.60643348341E+03  0.92101299563E+02 0.  0.
         23    2    4    4    0    0 -0.18203049689E+01  0.43271382259E+03  0.60768597791E+03  0.75149742684E+03  0.90672868205E+02 0.  0.
          2    1    3    3  502    0 -0.33563061864E+02 -0.34206776755E+01 -0.70913650090E+03  0.70993855866E+03  0.00000000000E+00 0. -1.
         -2    1    3    3    0  502  0.88884910458E+01  0.14440253974E+01 -0.43496467812E+01  0.10000495465E+02  0.00000000000E+00 0.  1.
         11    1    5    5    0    0  0.40423831265E+02 -0.12476194048E+03  0.16274504401E+03  0.20901095014E+03  0.00000000000E+00 0.  1.
        -11    1    5    5    0    0 -0.13928955479E+02 -0.30597522983E+03  0.25323864808E+03  0.39742253327E+03  0.00000000000E+00 0. -1.
          4    1    6    6  503    0  0.33402523403E+02  0.29842248764E+03  0.45470061031E+03  0.54490765706E+03  0.00000000000E+00 0. -1.
         -4    1    6    6    0  503 -0.35222828372E+02  0.13429133494E+03  0.15298536760E+03  0.20658976978E+03  0.00000000000E+00 0.  1.
<mgrwt>
<rscale>  0 0.20545875E+04</rscale>
<asrwt>0</asrwt>
<pdfrwt beam="1">  1        1 0.13597588E+00 0.20545875E+04</pdfrwt>
<pdfrwt beam="2">  1       -1 0.18369642E+00 0.20545875E+04</pdfrwt>
<totfact> 0.33921803E+00</totfact>
</mgrwt>
</event>
<event>
12    2  0.3751044E-008  0.1555223E+04  0.7818608E-02  0.8848538E-01
          2   -1    0    0  501    0  0.00000000000E+00  0.00000000000E+00  0.95561543054E+03  0.95561543054E+03  0.00000000000E+00 0. -1.
         -2   -1    0    0    0  501 -0.00000000000E+00 -0.00000000000E+00 -0.63276491298E+03  0.63276491298E+03  0.00000000000E+00 0.  1.
         23    2    1    2    0    0 -0.38714772945E+03  0.49765714845E+02 -0.23620868855E+03  0.46544203955E+03  0.92096453990E+02 0.  0.
        254    2    1    2    0    0  0.38714772945E+03 -0.49765714845E+02  0.55905920611E+03  0.11229383040E+04  0.89223497342E+03 0.  0.
         23    2    4    4    0    0  0.60875585972E+03 -0.10755355033E+01  0.61742959901E+03  0.87171279174E+03  0.89883413500E+02 0.  0.
         23    2    4    4    0    0 -0.22160813027E+03 -0.48690179342E+02 -0.58370392897E+02  0.25122551224E+03  0.90698722529E+02 0.  0.
          3    1    3    3  502    0 -0.18676310785E+03  0.20262404762E+02 -0.60662914526E+02  0.19741077149E+03  0.00000000000E+00 0. -1.
         -3    1    3    3    0  502 -0.20038462160E+03  0.29503310083E+02 -0.17554577402E+03  0.26803126806E+03  0.00000000000E+00 0.  1.
         11    1    5    5    0    0  0.31061903801E+03 -0.35408236548E+02  0.27481012020E+03  0.41624335689E+03  0.00000000000E+00 0.  1.
        -11    1    5    5    0    0  0.29813682171E+03  0.34332701045E+02  0.34261947881E+03  0.45546943484E+03  0.00000000000E+00 0. -1.
          2    1    6    6  503    0 -0.34272911352E+02 -0.45002137623E+02 -0.74298780273E+01  0.57052852082E+02  0.00000000000E+00 0. -1.
         -2    1    6    6    0  503 -0.18733521891E+03 -0.36880417189E+01 -0.50940514870E+02  0.19417266016E+03  0.00000000000E+00 0.  1.
<mgrwt>
<rscale>  0 0.15552233E+04</rscale>
<asrwt>0</asrwt>
<pdfrwt beam="1">  1        2 0.14701776E+00 0.15552233E+04</pdfrwt>
<pdfrwt beam="2">  1       -2 0.97348448E-01 0.15552233E+04</pdfrwt>
<totfact> 0.22801693E+01</totfact>
</mgrwt>
</event>
<event>
12    2  0.3751044E-008  0.1120108E+04  0.7818608E-02  0.9185812E-01
         -1   -1    0    0    0  501 -0.00000000000E+00  0.00000000000E+00  0.59641762189E+03  0.59641762189E+03  0.00000000000E+00 0.  1.
          1   -1    0    0  501    0  0.00000000000E+00 -0.00000000000E+00 -0.52590779042E+03  0.52590779042E+03  0.00000000000E+00 0. -1.
         23    2    1    2    0    0  0.70489204837E+02 -0.55674889925E+02 -0.14351253905E+03  0.19190058573E+03  0.90341377961E+02 0.  0.
        254    2    1    2    0    0 -0.70489204837E+02  0.55674889925E+02  0.21402237051E+03  0.93042482659E+03  0.90100852464E+03 0.  0.
         23    2    4    4    0    0  0.39535659385E+03 -0.56491437884E+02  0.41139426110E+02  0.41309372981E+03  0.97241238015E+02 0.  0.
         23    2    4    4    0    0 -0.46584579868E+03  0.11216632781E+03  0.17288294440E+03  0.51733109678E+03  0.90273794558E+02 0.  0.
          4    1    3    3  502    0  0.14650434685E+02 -0.14132917759E+02 -0.11483796370E+03  0.11662818059E+03  0.00000000000E+00 0. -1.
         -4    1    3    3    0  502  0.55838770151E+02 -0.41541972166E+02 -0.28674575343E+02  0.75272405134E+02  0.00000000000E+00 0.  1.
         11    1    5    5    0    0  0.10767996087E+03 -0.67278127829E+01 -0.31210318066E+02  0.11231349604E+03  0.00000000000E+00 0. -1.
        -11    1    5    5    0    0  0.28767663297E+03 -0.49763625101E+02  0.72349744176E+02  0.30078023377E+03  0.00000000000E+00 0.  1.
          2    1    6    6  503    0 -0.29607786497E+03  0.34396959777E+02  0.13295238699E+03  0.32637645468E+03  0.00000000000E+00 0. -1.
         -2    1    6    6    0  503 -0.16976793372E+03  0.77769368032E+02  0.39930557412E+02  0.19095464210E+03  0.00000000000E+00 0.  1.
<mgrwt>
<rscale>  0 0.11201083E+04</rscale>
<asrwt>0</asrwt>
<pdfrwt beam="1">  1        1 0.80908891E-01 0.11201083E+04</pdfrwt>
<pdfrwt beam="2">  1       -1 0.91756557E-01 0.11201083E+04</pdfrwt>
<totfact> 0.47608854E+01</totfact>
</mgrwt>
</event>
<event>
12    2  0.3751044E-008  0.1350647E+04  0.7818608E-02  0.8990338E-01
         -1   -1    0    0    0  501 -0.00000000000E+00  0.00000000000E+00  0.28339611923E+03  0.28339611923E+03  0.00000000000E+00 0.  1.
          1   -1    0    0  501    0  0.00000000000E+00 -0.00000000000E+00 -0.16092739840E+04  0.16092739840E+04  0.00000000000E+00 0. -1.
         23    2    1    2    0    0 -0.80543749249E+02 -0.29591850498E+03 -0.11830341799E+03  0.34393634371E+03  0.10120006270E+03 0.  0.
        254    2    1    2    0    0  0.80543749249E+02  0.29591850498E+03 -0.12075744468E+04  0.15487337595E+04  0.91993758279E+03 0.  0.
         23    2    4    4    0    0 -0.31803986923E+03 -0.38137041476E+02 -0.14629774226E+03  0.36335789763E+03  0.89566400101E+02 0.  0.
         23    2    4    4    0    0  0.39858361848E+03  0.33405554645E+03 -0.10612767045E+04  0.11853758619E+04  0.91354700731E+02 0.  0.
          2    1    3    3  502    0  0.23531475328E+02 -0.45465017051E+02 -0.26189776926E+02  0.57503934839E+02  0.00000000000E+00 0. -1.
         -2    1    3    3    0  502 -0.10407522458E+03 -0.25045348793E+03 -0.92113641059E+02  0.28643240887E+03  0.00000000000E+00 0.  1.
         11    1    5    5    0    0 -0.31820881829E+03 -0.47038729179E+02 -0.13468669471E+03  0.34872625340E+03  0.00000000000E+00 0. -1.
        -11    1    5    5    0    0  0.16894905661E+00  0.89016877035E+01 -0.11611047542E+02  0.14631644227E+02  0.00000000000E+00 0.  1.
          2    1    6    6  503    0  0.38915830339E+03  0.31326601844E+03 -0.96759771881E+03  0.10889559811E+04  0.00000000000E+00 0. -1.
         -2    1    6    6    0  503  0.94253150930E+01  0.20789528010E+02 -0.93678985738E+02  0.96419880774E+02  0.00000000000E+00 0.  1.
<mgrwt>
<rscale>  0 0.13506473E+04</rscale>
<asrwt>0</asrwt>
<pdfrwt beam="1">  1        1 0.24758062E+00 0.13506473E+04</pdfrwt>
<pdfrwt beam="2">  1       -1 0.43599402E-01 0.13506473E+04</pdfrwt>
<totfact> 0.27960258E+01</totfact>
</mgrwt>
</event>
<event>
12    2  0.3751044E-008  0.2304147E+04  0.7818608E-02  0.8476288E-01
          2   -1    0    0  501    0  0.00000000000E+00  0.00000000000E+00  0.29372276636E+04  0.29372276636E+04  0.00000000000E+00 0. -1.
         -2   -1    0    0    0  501 -0.00000000000E+00 -0.00000000000E+00 -0.45187957775E+03  0.45187957775E+03  0.00000000000E+00 0.  1.
         23    2    1    2    0    0 -0.18477979704E+03  0.11873791714E+02 -0.35098440917E+03  0.40684300926E+03  0.89702945239E+02 0.  0.
        254    2    1    2    0    0  0.18477979704E+03 -0.11873791714E+02  0.28363324950E+04  0.29822642321E+04  0.90268121025E+03 0.  0.
         23    2    4    4    0    0  0.31523940007E+03  0.15555708308E+03  0.42230671892E+03  0.55729671953E+03  0.93074074277E+02 0.  0.
         23    2    4    4    0    0 -0.13045960303E+03 -0.16743087479E+03  0.24140257761E+04  0.24249675126E+04  0.88849217374E+02 0.  0.
          3    1    3    3  502    0 -0.10690490932E+03  0.11959006441E+02 -0.11114168705E+03  0.15467434200E+03  0.00000000000E+00 0. -1.
         -3    1    3    3    0  502 -0.77874887719E+02 -0.85214726294E-01 -0.23984272211E+03  0.25216866726E+03  0.00000000000E+00 0.  1.
         11    1    5    5    0    0  0.52015653276E+02  0.15126563396E+02  0.23012716416E+02  0.58855978649E+02  0.00000000000E+00 0.  1.
        -11    1    5    5    0    0  0.26322374679E+03  0.14043051968E+03  0.39929400251E+03  0.49844074088E+03  0.00000000000E+00 0. -1.
          1    1    6    6  503    0 -0.28064594965E+02 -0.50640704267E+02  0.11464666060E+04  0.11479276027E+04  0.00000000000E+00 0. -1.
         -1    1    6    6    0  503 -0.10239500806E+03 -0.11679017052E+03  0.12675591702E+04  0.12770399099E+04  0.00000000000E+00 0.  1.
<mgrwt>
<rscale>  0 0.23041469E+04</rscale>
<asrwt>0</asrwt>
<pdfrwt beam="1">  1        2 0.45188117E+00 0.23041469E+04</pdfrwt>
<pdfrwt beam="2">  1       -2 0.69519937E-01 0.23041469E+04</pdfrwt>
<totfact> 0.32608453E+00</totfact>
</mgrwt>
</event>
<event>
12    2  0.3751044E-008  0.1333661E+04  0.7818608E-02  0.9003290E-01
          1   -1    0    0  501    0  0.00000000000E+00  0.00000000000E+00  0.11382186242E+04  0.11382186242E+04  0.00000000000E+00 0. -1.
         -1   -1    0    0    0  501 -0.00000000000E+00 -0.00000000000E+00 -0.39066541273E+03  0.39066541273E+03  0.00000000000E+00 0.  1.
         23    2    1    2    0    0 -0.31318689837E+03 -0.19615851993E+02  0.25045447259E+02  0.32776013162E+03  0.91261243078E+02 0.  0.
        254    2    1    2    0    0  0.31318689837E+03  0.19615851993E+02  0.72250776424E+03  0.12011239053E+04  0.90675815499E+03 0.  0.
         23    2    4    4    0    0 -0.84507957204E+02  0.10502831635E+03  0.76373365116E+03  0.78062435196E+03  0.88953622159E+02 0.  0.
         23    2    4    4    0    0  0.39769485558E+03 -0.85412464354E+02 -0.41225886917E+02  0.42049955339E+03  0.98304696861E+02 0.  0.
          3    1    3    3  502    0 -0.11267412165E+03 -0.36887356899E+02  0.42033152576E+02  0.12578919152E+03  0.00000000000E+00 0. -1.
         -3    1    3    3    0  502 -0.20051277672E+03  0.17271504906E+02 -0.16987705317E+02  0.20197094010E+03  0.00000000000E+00 0.  1.
         11    1    5    5    0    0 -0.91327400065E+02  0.11405578748E+03  0.64450551039E+03  0.66086062796E+03  0.00000000000E+00 0. -1.
        -11    1    5    5    0    0  0.68194428616E+01 -0.90274711320E+01  0.11922814077E+03  0.11976372400E+03  0.00000000000E+00 0.  1.
          2    1    6    6  503    0  0.26021393805E+03 -0.78951042757E+02  0.13793571315E+02  0.27227710759E+03  0.00000000000E+00 0. -1.
         -2    1    6    6    0  503  0.13748091753E+03 -0.64614215966E+01 -0.55019458232E+02  0.14822244580E+03  0.00000000000E+00 0.  1.
<mgrwt>
<rscale>  0 0.13336606E+04</rscale>
<asrwt>0</asrwt>
<pdfrwt beam="1">  1        1 0.17511056E+00 0.13336606E+04</pdfrwt>
<pdfrwt beam="2">  1       -1 0.60102372E-01 0.13336606E+04</pdfrwt>
<totfact> 0.32651902E+01</totfact>
</mgrwt>
</event>
<event>
12    2  0.3751044E-008  0.2214600E+04  0.7818608E-02  0.8512376E-01
         -2   -1    0    0    0  501 -0.00000000000E+00  0.00000000000E+00  0.59067997516E+03  0.59067997516E+03  0.00000000000E+00 0. -1.
          2   -1    0    0  501    0  0.00000000000E+00 -0.00000000000E+00 -0.20757657339E+04  0.20757657339E+04  0.00000000000E+00 0.  1.
         23    2    1    2    0    0 -0.11832159028E+03 -0.46823979310E+03 -0.15336746951E+04  0.16105290008E+04  0.91635634027E+02 0.  0.
        254    2    1    2    0    0  0.11832159028E+03  0.46823979310E+03  0.48588936336E+02  0.10559167083E+04  0.93773701407E+03 0.  0.
         23    2    4    4    0    0 -0.35408662170E+02  0.71685070205E+03  0.13844478890E+03  0.73696296796E+03  0.93908222133E+02 0.  0.
         23    2    4    4    0    0  0.15373025245E+03 -0.24861090896E+03 -0.89855852561E+02  0.31895374033E+03  0.90647888348E+02 0.  0.
          2    1    3    3  502    0 -0.45670310639E+02 -0.98118053724E+02 -0.24612922693E+03  0.26887269495E+03  0.00000000000E+00 0. -1.
         -2    1    3    3    0  502 -0.72651279645E+02 -0.37012173937E+03 -0.12875454682E+04  0.13416563059E+04  0.00000000000E+00 0.  1.
         11    1    5    5    0    0 -0.61574226107E+02  0.31815524314E+03  0.71245876031E+02  0.33179831059E+03  0.00000000000E+00 0.  1.
        -11    1    5    5    0    0  0.26165563938E+02  0.39869545891E+03  0.67198912867E+02  0.40516465737E+03  0.00000000000E+00 0. -1.
          1    1    6    6  503    0  0.25902563017E+01 -0.71515997164E+02 -0.73239372023E+01  0.71936689764E+02  0.00000000000E+00 0. -1.
         -1    1    6    6    0  503  0.15113999615E+03 -0.17709491179E+03 -0.82531915359E+02  0.24701705057E+03  0.00000000000E+00 0.  1.
<mgrwt>
<rscale>  0 0.22146000E+04</rscale>
<asrwt>0</asrwt>
<pdfrwt beam="1">  1        2 0.31934858E+00 0.22146000E+04</pdfrwt>
<pdfrwt beam="2">  1       -2 0.90873841E-01 0.22146000E+04</pdfrwt>
<totfact> 0.57188105E+00</totfact>
</mgrwt>
</event>
<event>
12    2  0.3751044E-008  0.1933712E+04  0.7818608E-02  0.8638255E-01
         -2   -1    0    0    0  501 -0.00000000000E+00  0.00000000000E+00  0.49953056113E+03  0.49953056113E+03  0.00000000000E+00 0.  1.
          2   -1    0    0  501    0  0.00000000000E+00 -0.00000000000E+00 -0.18713777641E+04  0.18713777641E+04  0.00000000000E+00 0. -1.
         23    2    1    2    0    0  0.24260494481E+02 -0.43676030871E+03 -0.13048201008E+04  0.13791248340E+04  0.89898128526E+02 0.  0.
        254    2    1    2    0    0 -0.24260494481E+02  0.43676030871E+03 -0.67027102119E+02  0.99178349115E+03  0.88757744566E+03 0.  0.
         23    2    4    4    0    0 -0.27386754816E+03  0.57452681155E+03 -0.18633393585E+03  0.66947469910E+03  0.91605381707E+02 0.  0.
         23    2    4    4    0    0  0.24960705368E+03 -0.13776650284E+03  0.11930683373E+03  0.32230879206E+03  0.91463360488E+02 0.  0.
          1    1    3    3  502    0  0.12481014911E+02 -0.42434833782E+03 -0.11991949151E+04  0.12721225302E+04  0.00000000000E+00 0. -1.
         -1    1    3    3    0  502  0.11779479570E+02 -0.12411970887E+02 -0.10562518574E+03  0.10700230382E+03  0.00000000000E+00 0.  1.
         11    1    5    5    0    0 -0.12327146460E+03  0.26495056754E+03 -0.13314912510E+03  0.32112824034E+03  0.00000000000E+00 0.  1.
        -11    1    5    5    0    0 -0.15059608355E+03  0.30957624401E+03 -0.53184810746E+02  0.34834645876E+03  0.00000000000E+00 0. -1.
          3    1    6    6  503    0  0.19741596441E+02  0.61775253428E+01  0.30636670791E+02  0.36966174357E+02  0.00000000000E+00 0. -1.
         -3    1    6    6    0  503  0.22986545723E+03 -0.14394402819E+03  0.88670162940E+02  0.28534261770E+03  0.00000000000E+00 0.  1.
<mgrwt>
<rscale>  0 0.19337119E+04</rscale>
<asrwt>0</asrwt>
<pdfrwt beam="1">  1        2 0.28790427E+00 0.19337119E+04</pdfrwt>
<pdfrwt beam="2">  1       -2 0.76850856E-01 0.19337119E+04</pdfrwt>
<totfact> 0.11126134E+01</totfact>
</mgrwt>
</event>
<event>
12    2  0.3751044E-008  0.1874637E+04  0.7818608E-02  0.8667585E-01
         -1   -1    0    0    0  501 -0.00000000000E+00  0.00000000000E+00  0.10047578258E+04  0.10047578258E+04  0.00000000000E+00 0.  1.
          1   -1    0    0  501    0  0.00000000000E+00 -0.00000000000E+00 -0.87440529445E+03  0.87440529445E+03  0.00000000000E+00 0. -1.
         23    2    1    2    0    0 -0.45537303505E+03 -0.17610909808E+03 -0.47475980260E+03  0.68712230616E+03  0.91439477119E+02 0.  0.
        254    2    1    2    0    0  0.45537303505E+03  0.17610909808E+03  0.60511233395E+03  0.11920408141E+04  0.90356037444E+03 0.  0.
         23    2    4    4    0    0  0.82831632712E+02  0.21857010813E+03 -0.18560788829E+03  0.31231913978E+03  0.91972742332E+02 0.  0.
         23    2    4    4    0    0  0.37254140234E+03 -0.42461010047E+02  0.79072022225E+03  0.87972167430E+03  0.89898390073E+02 0.  0.
          3    1    3    3  502    0 -0.19018819584E+03 -0.11153979378E+03 -0.25188077631E+03  0.33474856371E+03  0.00000000000E+00 0. -1.
         -3    1    3    3    0  502 -0.26518483921E+03 -0.64569304303E+02 -0.22287902630E+03  0.35237374245E+03  0.00000000000E+00 0.  1.
         11    1    5    5    0    0  0.91309854478E+02  0.20453522215E+03 -0.19170334827E+03  0.29482591535E+03  0.00000000000E+00 0. -1.
        -11    1    5    5    0    0 -0.84782217663E+01  0.14034885976E+02  0.60954599738E+01  0.17493224431E+02  0.00000000000E+00 0.  1.
          1    1    6    6  503    0  0.36766403720E+03 -0.54034528321E+02  0.77586251708E+03  0.86026694689E+03  0.00000000000E+00 0. -1.
         -1    1    6    6    0  503  0.48773651370E+01  0.11573518273E+02  0.14857705171E+02  0.19454727417E+02  0.00000000000E+00 0.  1.
<mgrwt>
<rscale>  0 0.18746366E+04</rscale>
<asrwt>0</asrwt>
<pdfrwt beam="1">  1        1 0.13452389E+00 0.18746366E+04</pdfrwt>
<pdfrwt beam="2">  1       -1 0.15457813E+00 0.18746366E+04</pdfrwt>
<totfact> 0.57600270E+00</totfact>
</mgrwt>
</event>
<event>
12    2  0.3751044E-008  0.2333239E+04  0.7818608E-02  0.8464930E-01
          2   -1    0    0  501    0  0.00000000000E+00  0.00000000000E+00  0.83711155184E+03  0.83711155184E+03  0.00000000000E+00 0. -1.
         -2   -1    0    0    0  501 -0.00000000000E+00 -0.00000000000E+00 -0.16258302387E+04  0.16258302387E+04  0.00000000000E+00 0.  1.
         23    2    1    2    0    0  0.88118489029E+03 -0.22165469854E+03 -0.74943972388E+03  0.11813469886E+04  0.91121850254E+02 0.  0.
        254    2    1    2    0    0 -0.88118489029E+03  0.22165469854E+03 -0.39278962999E+02  0.12815948019E+04  0.90295336707E+03 0.  0.
         23    2    4    4    0    0 -0.15424912780E+03  0.37013881614E+03  0.24877644824E+03  0.48057031246E+03  0.90898665435E+02 0.  0.
         23    2    4    4    0    0 -0.72693576249E+03 -0.14848411761E+03 -0.28805541124E+03  0.80102448945E+03  0.90449857871E+02 0.  0.
          2    1    3    3  502    0  0.10146315189E+03  0.28877120657E+01 -0.92689140282E+02  0.13745685431E+03  0.00000000000E+00 0. -1.
         -2    1    3    3    0  502  0.77972173840E+03 -0.22454241060E+03 -0.65675058360E+03  0.10438901343E+04  0.00000000000E+00 0.  1.
         11    1    5    5    0    0 -0.14824124898E+03  0.35222905668E+03  0.20675467707E+03  0.43449772469E+03  0.00000000000E+00 0. -1.
        -11    1    5    5    0    0 -0.60078788200E+01  0.17909759463E+02  0.42021771168E+02  0.46072587773E+02  0.00000000000E+00 0.  1.
          3    1    6    6  503    0 -0.60546311791E+03 -0.14292945696E+03 -0.26968721136E+03  0.67804543268E+03  0.00000000000E+00 0. -1.
         -3    1    6    6    0  503 -0.12147264458E+03 -0.55546606471E+01 -0.18368199882E+02  0.12297905677E+03  0.00000000000E+00 0.  1.
<mgrwt>
<rscale>  0 0.23332392E+04</rscale>
<asrwt>0</asrwt>
<pdfrwt beam="1">  1        2 0.12878639E+00 0.23332392E+04</pdfrwt>
<pdfrwt beam="2">  1       -2 0.25012773E+00 0.23332392E+04</pdfrwt>
<totfact> 0.18791947E+00</totfact>
</mgrwt>
</event>
<event>
12    2  0.3751044E-008  0.1167487E+04  0.7818608E-02  0.9141801E-01
          2   -1    0    0  501    0  0.00000000000E+00  0.00000000000E+00  0.14527104517E+04  0.14527104517E+04  0.00000000000E+00 0. -1.
         -2   -1    0    0    0  501 -0.00000000000E+00 -0.00000000000E+00 -0.23456598723E+03  0.23456598723E+03  0.00000000000E+00 0.  1.
         23    2    1    2    0    0  0.17854161780E+03  0.50568653804E+02  0.43751126620E+03  0.48404474799E+03  0.91917963271E+02 0.  0.
        254    2    1    2    0    0 -0.17854161780E+03 -0.50568653804E+02  0.78063319829E+03  0.12032316910E+04  0.89662925105E+03 0.  0.
         23    2    4    4    0    0 -0.18808742472E+02 -0.40671333548E+03  0.66727859037E+03  0.78693521211E+03  0.90756844569E+02 0.  0.
         23    2    4    4    0    0 -0.15973287533E+03  0.35614468168E+03  0.11335460792E+03  0.41629647886E+03  0.89999252349E+02 0.  0.
          3    1    3    3  502    0  0.18812534119E+03  0.51199136231E+02  0.42894381659E+03  0.47117437679E+03  0.00000000000E+00 0. -1.
         -3    1    3    3    0  502 -0.95837233896E+01 -0.63048242654E+00  0.85674496006E+01  0.12870371197E+02  0.00000000000E+00 0.  1.
         11    1    5    5    0    0 -0.27017425007E+02 -0.14569464930E+03  0.17200604674E+03  0.22703072964E+03  0.00000000000E+00 0. -1.
        -11    1    5    5    0    0  0.82086825356E+01 -0.26101868618E+03  0.49527254364E+03  0.55990448247E+03  0.00000000000E+00 0.  1.
          4    1    6    6  503    0 -0.15301624898E+03  0.36001300797E+03  0.11614261919E+03  0.40805936621E+03  0.00000000000E+00 0. -1.
         -4    1    6    6    0  503 -0.67166263514E+01 -0.38683262925E+01 -0.27880112767E+01  0.82371126451E+01  0.00000000000E+00 0.  1.
<mgrwt>
<rscale>  0 0.11674870E+04</rscale>
<asrwt>0</asrwt>
<pdfrwt beam="1">  1        2 0.22349391E+00 0.11674870E+04</pdfrwt>
<pdfrwt beam="2">  1       -2 0.36087076E-01 0.11674870E+04</pdfrwt>
<totfact> 0.96376356E+01</totfact>
</mgrwt>
</event>
<event>
12    2  0.3751044E-008  0.2444264E+04  0.7818608E-02  0.8423115E-01
          2   -1    0    0  501    0  0.00000000000E+00  0.00000000000E+00  0.21837862471E+04  0.21837862471E+04  0.00000000000E+00 0. -1.
         -2   -1    0    0    0  501 -0.00000000000E+00 -0.00000000000E+00 -0.68395281617E+03  0.68395281617E+03  0.00000000000E+00 0.  1.
         23    2    1    2    0    0  0.20568652158E+03  0.33330512009E+03  0.17897397716E+04  0.18343228586E+04  0.90402717617E+02 0.  0.
        254    2    1    2    0    0 -0.20568652158E+03 -0.33330512009E+03 -0.28990634066E+03  0.10334162047E+04  0.91131998631E+03 0.  0.
         23    2    4    4    0    0  0.33825222314E+03 -0.21017457140E+03 -0.22175173729E+03  0.46360761172E+03  0.84677433440E+02 0.  0.
         23    2    4    4    0    0 -0.54393874472E+03 -0.12313054869E+03 -0.68154603377E+02  0.56980859294E+03  0.94901488876E+02 0.  0.
          2    1    3    3  502    0  0.69006025699E+02  0.13638952363E+03  0.89862183559E+03  0.91152901059E+03  0.00000000000E+00 0.  1.
         -2    1    3    3    0  502  0.13668049589E+03  0.19691559646E+03  0.89111793602E+03  0.92279384804E+03  0.00000000000E+00 0. -1.
         11    1    5    5    0    0  0.88073295067E+02 -0.93915807738E+02 -0.95018945302E+02  0.16001776218E+03  0.00000000000E+00 0. -1.
        -11    1    5    5    0    0  0.25017892807E+03 -0.11625876366E+03 -0.12673279199E+03  0.30358984954E+03  0.00000000000E+00 0.  1.
          1    1    6    6  503    0 -0.26108796429E+03 -0.59939632868E+02  0.14976589060E+02  0.26829830955E+03  0.00000000000E+00 0. -1.
         -1    1    6    6    0  503 -0.28285078043E+03 -0.63190915827E+02 -0.83131192437E+02  0.30151028339E+03  0.00000000000E+00 0.  1.
<mgrwt>
<rscale>  0 0.24442641E+04</rscale>
<asrwt>0</asrwt>
<pdfrwt beam="1">  1        2 0.33596711E+00 0.24442641E+04</pdfrwt>
<pdfrwt beam="2">  1       -2 0.10522351E+00 0.24442641E+04</pdfrwt>
<totfact> 0.34550442E+00</totfact>
</mgrwt>
</event>
<event>
12    2  0.3751044E-008  0.1300379E+04  0.7818608E-02  0.9029265E-01
          2   -1    0    0  501    0  0.00000000000E+00  0.00000000000E+00  0.19825039866E+04  0.19825039866E+04  0.00000000000E+00 0. -1.
         -2   -1    0    0    0  501 -0.00000000000E+00 -0.00000000000E+00 -0.21323848036E+03  0.21323848036E+03  0.00000000000E+00 0.  1.
         23    2    1    2    0    0 -0.10182954024E+03 -0.22242719314E+03  0.90924016460E+02  0.27612678339E+03  0.90198183051E+02 0.  0.
        254    2    1    2    0    0  0.10182954024E+03  0.22242719314E+03  0.16783414898E+04  0.19196156836E+04  0.89902786652E+03 0.  0.
         23    2    4    4    0    0  0.19668577109E+03  0.52839995265E+03  0.82397959954E+03  0.10017901822E+04  0.82154648412E+02 0.  0.
         23    2    4    4    0    0 -0.94856230849E+02 -0.30597275951E+03  0.85436189024E+03  0.91782550133E+03  0.99259142232E+02 0.  0.
          2    1    3    3  502    0  0.13391414538E+02 -0.12601787766E+02 -0.36411347534E+01  0.18745476802E+02  0.00000000000E+00 0. -1.
         -2    1    3    3    0  502 -0.11522095477E+03 -0.20982540537E+03  0.94565151213E+02  0.25738130659E+03  0.00000000000E+00 0.  1.
         11    1    5    5    0    0  0.22626188791E+02  0.16600977066E+03  0.23028174793E+03  0.28478214797E+03  0.00000000000E+00 0. -1.
        -11    1    5    5    0    0  0.17405958230E+03  0.36239018199E+03  0.59369785161E+03  0.71700803426E+03  0.00000000000E+00 0.  1.
          1    1    6    6  503    0 -0.68810710563E+02 -0.30089992899E+03  0.77867030546E+03  0.83761752952E+03  0.00000000000E+00 0. -1.
         -1    1    6    6    0  503 -0.26045520286E+02 -0.50728305206E+01  0.75691584777E+02  0.80207971814E+02  0.00000000000E+00 0.  1.
<mgrwt>
<rscale>  0 0.13003786E+04</rscale>
<asrwt>0</asrwt>
<pdfrwt beam="1">  1        2 0.30500060E+00 0.13003786E+04</pdfrwt>
<pdfrwt beam="2">  1       -2 0.32805921E-01 0.13003786E+04</pdfrwt>
<totfact> 0.58087214E+01</totfact>
</mgrwt>
</event>
<event>
12    2  0.3751044E-008  0.1905759E+04  0.7818608E-02  0.8651995E-01
         -2   -1    0    0    0  501 -0.00000000000E+00  0.00000000000E+00  0.18122974136E+03  0.18122974136E+03  0.00000000000E+00 0.  1.
          2   -1    0    0  501    0  0.00000000000E+00 -0.00000000000E+00 -0.50100987474E+04  0.50100987474E+04  0.00000000000E+00 0. -1.
         23    2    1    2    0    0  0.54341846903E+03  0.10784744623E+03 -0.32101951295E+04  0.32590916238E+04  0.96905824681E+02 0.  0.
        254    2    1    2    0    0 -0.54341846903E+03 -0.10784744623E+03 -0.16186738766E+04  0.19322368650E+04  0.89805316074E+03 0.  0.
         23    2    4    4    0    0  0.14134076499E+03  0.78940312147E+02 -0.89665248721E+03  0.91561592722E+03  0.90321972033E+02 0.  0.
         23    2    4    4    0    0 -0.68475923402E+03 -0.18678775838E+03 -0.72202138939E+03  0.10166209378E+04  0.91751670974E+02 0.  0.
          3    1    3    3  502    0  0.20549299540E+03  0.26667981045E+02 -0.14698558304E+04  0.14843903511E+04  0.00000000000E+00 0. -1.
         -3    1    3    3    0  502  0.33792547363E+03  0.81179465186E+02 -0.17403392991E+04  0.17747012727E+04  0.00000000000E+00 0.  1.
         11    1    5    5    0    0  0.32359356428E+02  0.61498616884E+02 -0.46059532152E+03  0.46580817730E+03  0.00000000000E+00 0.  1.
        -11    1    5    5    0    0  0.10898140856E+03  0.17441695262E+02 -0.43605716569E+03  0.44980774992E+03  0.00000000000E+00 0. -1.
          4    1    6    6  503    0 -0.32838098398E+02  0.15299467063E+01 -0.13415480427E+02  0.35505725713E+02  0.00000000000E+00 0.  1.
         -4    1    6    6    0  503 -0.65192113562E+03 -0.18831770508E+03 -0.70860590896E+03  0.98111521206E+03  0.00000000000E+00 0. -1.
<mgrwt>
<rscale>  0 0.19057585E+04</rscale>
<asrwt>0</asrwt>
<pdfrwt beam="1">  1        2 0.77078436E+00 0.19057585E+04</pdfrwt>
<pdfrwt beam="2">  1       -2 0.27881501E-01 0.19057585E+04</pdfrwt>
<totfact> 0.37749137E-01</totfact>
</mgrwt>
</event>
<event>
12    2  0.3751044E-008  0.1165096E+04  0.7818608E-02  0.9143969E-01
         -2   -1    0    0    0  501 -0.00000000000E+00  0.00000000000E+00  0.31920170403E+03  0.31920170403E+03  0.00000000000E+00 0.  1.
          2   -1    0    0  501    0  0.00000000000E+00 -0.00000000000E+00 -0.10631589997E+04  0.10631589997E+04  0.00000000000E+00 0. -1.
         23    2    1    2    0    0 -0.17529764178E+03  0.10235599992E+03 -0.25112509817E+03  0.33522372305E+03  0.90028415706E+02 0.  0.
        254    2    1    2    0    0  0.17529764178E+03 -0.10235599992E+03 -0.49283219755E+03  0.10471369807E+04  0.90133582393E+03 0.  0.
         23    2    4    4    0    0  0.23732368332E+03  0.34602479311E+03 -0.10256587650E+03  0.44278759713E+03  0.97393064656E+02 0.  0.
         23    2    4    4    0    0 -0.62026041537E+02 -0.44838079302E+03 -0.39026632106E+03  0.60434938359E+03  0.89653838233E+02 0.  0.
          2    1    3    3  502    0 -0.82533927759E+02  0.27192465957E+02 -0.47124421529E+02  0.98853379004E+02  0.00000000000E+00 0.  1.
         -2    1    3    3    0  502 -0.92763714024E+02  0.75163533961E+02 -0.20400067664E+03  0.23637034405E+03  0.00000000000E+00 0. -1.
         11    1    5    5    0    0 -0.61734741774E+01  0.32989856646E+02 -0.18625026237E+01  0.33614153879E+02  0.00000000000E+00 0. -1.
        -11    1    5    5    0    0  0.24349715750E+03  0.31303493646E+03 -0.10070337387E+03  0.40917344325E+03  0.00000000000E+00 0.  1.
          2    1    6    6  503    0  0.21379061665E+02 -0.13398197724E+03 -0.10231089087E+03  0.16992867001E+03  0.00000000000E+00 0. -1.
         -2    1    6    6    0  503 -0.83405103201E+02 -0.31439881579E+03 -0.28795543018E+03  0.43442071357E+03  0.00000000000E+00 0.  1.
<mgrwt>
<rscale>  0 0.11650960E+04</rscale>
<asrwt>0</asrwt>
<pdfrwt beam="1">  1        2 0.16356292E+00 0.11650960E+04</pdfrwt>
<pdfrwt beam="2">  1       -2 0.49107955E-01 0.11650960E+04</pdfrwt>
<totfact> 0.89142580E+01</totfact>
</mgrwt>
</event>
<event>
12    2  0.3751044E-008  0.1842650E+04  0.7818608E-02  0.8683942E-01
         -2   -1    0    0    0  501 -0.00000000000E+00  0.00000000000E+00  0.29598181480E+03  0.29598181480E+03  0.00000000000E+00 0.  1.
          2   -1    0    0  501    0  0.00000000000E+00 -0.00000000000E+00 -0.28678769689E+04  0.28678769689E+04  0.00000000000E+00 0. -1.
         23    2    1    2    0    0 -0.28238107265E+03 -0.29121678843E+02  0.11158514829E+03  0.31813385967E+03  0.90392283837E+02 0.  0.
        254    2    1    2    0    0  0.28238107265E+03  0.29121678843E+02 -0.26834803024E+04  0.28457249240E+04  0.90360205157E+03 0.  0.
         23    2    4    4    0    0  0.42154894394E+03 -0.16864784508E+03 -0.24628720352E+04  0.25060597002E+04  0.91929055873E+02 0.  0.
         23    2    4    4    0    0 -0.13916787129E+03  0.19776952392E+03 -0.22060826715E+03  0.33966522382E+03  0.90686138660E+02 0.  0.
          3    1    3    3  502    0  0.12782864017E+01 -0.41782206825E+00 -0.86182031995E+01  0.87225006617E+01  0.00000000000E+00 0. -1.
         -3    1    3    3    0  502 -0.28365935905E+03 -0.28703856775E+02  0.12020335149E+03  0.30941135900E+03  0.00000000000E+00 0.  1.
         11    1    5    5    0    0  0.42357498186E+03 -0.15789613173E+03 -0.23906162236E+04  0.24329802470E+04  0.00000000000E+00 0.  1.
        -11    1    5    5    0    0 -0.20260379192E+01 -0.10751713352E+02 -0.72255811632E+02  0.73079453229E+02  0.00000000000E+00 0. -1.
          3    1    6    6  503    0  0.64721905802E+01  0.24810637445E+02 -0.50758231185E+02  0.56866994068E+02  0.00000000000E+00 0. -1.
         -3    1    6    6    0  503 -0.14564006187E+03  0.17295888648E+03 -0.16985003597E+03  0.28279822975E+03  0.00000000000E+00 0.  1.
<mgrwt>
<rscale>  0 0.18426496E+04</rscale>
<asrwt>0</asrwt>
<pdfrwt beam="1">  1        2 0.44121184E+00 0.18426496E+04</pdfrwt>
<pdfrwt beam="2">  1       -2 0.45535664E-01 0.18426496E+04</pdfrwt>
<totfact> 0.90708388E+00</totfact>
</mgrwt>
</event>
<event>
12    2  0.3751044E-008  0.1527550E+04  0.7818608E-02  0.8866336E-01
         -1   -1    0    0    0  501 -0.00000000000E+00  0.00000000000E+00  0.56022892190E+03  0.56022892190E+03  0.00000000000E+00 0.  1.
          1   -1    0    0  501    0  0.00000000000E+00 -0.00000000000E+00 -0.10412747988E+04  0.10412747988E+04  0.00000000000E+00 0. -1.
         23    2    1    2    0    0 -0.24964872503E+03 -0.20381104818E+03  0.23595599832E+03  0.41013486686E+03  0.93123287088E+02 0.  0.
        254    2    1    2    0    0  0.24964872503E+03  0.20381104818E+03 -0.71700187518E+03  0.11913688538E+04  0.89521205730E+03 0.  0.
         23    2    4    4    0    0  0.50152265794E+03  0.30648791432E+02 -0.13455856437E+03  0.52713339900E+03  0.85435872187E+02 0.  0.
         23    2    4    4    0    0 -0.25187393291E+03  0.17316225675E+03 -0.58244331081E+03  0.66423545480E+03  0.92427722408E+02 0.  0.
          1    1    3    3  502    0 -0.16406701839E+03 -0.10510530870E+03  0.91167278958E+02  0.21511993211E+03  0.00000000000E+00 0. -1.
         -1    1    3    3    0  502 -0.85581706644E+02 -0.98705739482E+02  0.14478871937E+03  0.19501493475E+03  0.00000000000E+00 0.  1.
         11    1    5    5    0    0  0.44766389245E+03  0.37010839086E+02 -0.14477657254E+03  0.47194599137E+03  0.00000000000E+00 0. -1.
        -11    1    5    5    0    0  0.53858765483E+02 -0.63620476536E+01  0.10218008169E+02  0.55187407627E+02  0.00000000000E+00 0.  1.
          1    1    6    6  503    0 -0.17035379369E+03  0.16404824785E+03 -0.45227220859E+03  0.51037475772E+03  0.00000000000E+00 0. -1.
         -1    1    6    6    0  503 -0.81520139212E+02  0.91140088982E+01 -0.13017110222E+03  0.15386069709E+03  0.00000000000E+00 0.  1.
<mgrwt>
<rscale>  0 0.15275500E+04</rscale>
<asrwt>0</asrwt>
<pdfrwt beam="1">  1        1 0.16019612E+00 0.15275500E+04</pdfrwt>
<pdfrwt beam="2">  1       -1 0.86189066E-01 0.15275500E+04</pdfrwt>
<totfact> 0.18023048E+01</totfact>
</mgrwt>
</event>
<event>
12    2  0.3751044E-008  0.2259599E+04  0.7818608E-02  0.8494023E-01
         -2   -1    0    0    0  501 -0.00000000000E+00  0.00000000000E+00  0.69364240924E+03  0.69364240924E+03  0.00000000000E+00 0.  1.
          2   -1    0    0  501    0  0.00000000000E+00 -0.00000000000E+00 -0.18402092550E+04  0.18402092550E+04  0.00000000000E+00 0. -1.
         23    2    1    2    0    0  0.44287791287E+02 -0.28419080509E+03 -0.14849523492E+04  0.15152985740E+04  0.91216591445E+02 0.  0.
        254    2    1    2    0    0 -0.44287791287E+02  0.28419080509E+03  0.33838550348E+03  0.10185530903E+04  0.91663505640E+03 0.  0.
         23    2    4    4    0    0 -0.31403523342E+03  0.20001841562E+03  0.53841287929E+03  0.66051979084E+03  0.88161619191E+02 0.  0.
         23    2    4    4    0    0  0.26974744213E+03  0.84172389471E+02 -0.20002737581E+03  0.35803329945E+03  0.91259074912E+02 0.  0.
          3    1    3    3  502    0  0.71376451134E+02 -0.22436905852E+03 -0.11192237677E+04  0.11437210824E+04  0.00000000000E+00 0. -1.
         -3    1    3    3    0  502 -0.27088659847E+02 -0.59821746563E+02 -0.36572858154E+03  0.37157749152E+03  0.00000000000E+00 0.  1.
         11    1    5    5    0    0 -0.10737687993E+03  0.11633070186E+03  0.19658359646E+03  0.25240391624E+03  0.00000000000E+00 0. -1.
        -11    1    5    5    0    0 -0.20665835349E+03  0.83687713759E+02  0.34182928283E+03  0.40811587460E+03  0.00000000000E+00 0.  1.
          3    1    6    6  503    0  0.69486157734E+02  0.25672789927E+02 -0.80452454066E+01  0.74512711888E+02  0.00000000000E+00 0. -1.
         -3    1    6    6    0  503  0.20026128440E+03  0.58499599544E+02 -0.19198213041E+03  0.28352058756E+03  0.00000000000E+00 0.  1.
<mgrwt>
<rscale>  0 0.22595992E+04</rscale>
<asrwt>0</asrwt>
<pdfrwt beam="1">  1        2 0.28310911E+00 0.22595992E+04</pdfrwt>
<pdfrwt beam="2">  1       -2 0.10671422E+00 0.22595992E+04</pdfrwt>
<totfact> 0.52710711E+00</totfact>
</mgrwt>
</event>
<event>
12    2  0.3751044E-008  0.1632505E+04  0.7818608E-02  0.8800824E-01
          1   -1    0    0  501    0  0.00000000000E+00  0.00000000000E+00  0.77727456969E+03  0.77727456969E+03  0.00000000000E+00 0. -1.
         -1   -1    0    0    0  501 -0.00000000000E+00 -0.00000000000E+00 -0.85718517031E+03  0.85718517031E+03  0.00000000000E+00 0.  1.
         23    2    1    2    0    0  0.35670664374E+03 -0.77719373795E+02  0.40519491792E+03  0.55352116940E+03  0.94460746966E+02 0.  0.
        254    2    1    2    0    0 -0.35670664374E+03  0.77719373795E+02 -0.48510551853E+03  0.10809385706E+04  0.89432706463E+03 0.  0.
         23    2    4    4    0    0  0.25315046935E+03 -0.12132735870E+03 -0.26312996076E+03  0.39604375309E+03  0.93849826899E+02 0.  0.
         23    2    4    4    0    0 -0.60985711310E+03  0.19904673250E+03 -0.22197555778E+03  0.68489481751E+03  0.90898089559E+02 0.  0.
          2    1    3    3  502    0  0.23923855811E+03 -0.54329641448E+02  0.33320164950E+03  0.41377546672E+03  0.00000000000E+00 0. -1.
         -2    1    3    3    0  502  0.11746808564E+03 -0.23389732347E+02  0.71993268414E+02  0.13974570269E+03  0.00000000000E+00 0.  1.
         11    1    5    5    0    0  0.18788009414E+03 -0.13087183481E+03 -0.18976256214E+03  0.29738224041E+03  0.00000000000E+00 0. -1.
        -11    1    5    5    0    0  0.65270375209E+02  0.95444761063E+01 -0.73367398612E+02  0.98661512674E+02  0.00000000000E+00 0.  1.
          2    1    6    6  503    0 -0.31440199290E+03  0.58800799085E+02 -0.90541075305E+02  0.33242116874E+03  0.00000000000E+00 0.  1.
         -2    1    6    6    0  503 -0.29545512020E+03  0.14024593341E+03 -0.13143448247E+03  0.35247364876E+03  0.00000000000E+00 0. -1.
<mgrwt>
<rscale>  0 0.16325051E+04</rscale>
<asrwt>0</asrwt>
<pdfrwt beam="1">  1        1 0.11958070E+00 0.16325051E+04</pdfrwt>
<pdfrwt beam="2">  1       -1 0.13187464E+00 0.16325051E+04</pdfrwt>
<totfact> 0.10837560E+01</totfact>
</mgrwt>
</event>
<event>
12    2  0.3751044E-008  0.2808060E+04  0.7818608E-02  0.8300770E-01
          1   -1    0    0  501    0  0.00000000000E+00  0.00000000000E+00  0.18022791664E+04  0.18022791664E+04  0.00000000000E+00 0. -1.
         -1   -1    0    0    0  501 -0.00000000000E+00 -0.00000000000E+00 -0.10937816843E+04  0.10937816843E+04  0.00000000000E+00 0.  1.
         23    2    1    2    0    0 -0.41601229863E+03  0.79117502662E+03 -0.59201742973E+03  0.10760846405E+04  0.91920406609E+02 0.  0.
        254    2    1    2    0    0  0.41601229863E+03 -0.79117502662E+03  0.13005149118E+04  0.18199762101E+04  0.90661470008E+03 0.  0.
         23    2    4    4    0    0  0.10466643854E+03 -0.60487284125E+02  0.92479808426E+03  0.93674078627E+03  0.87281321588E+02 0.  0.
         23    2    4    4    0    0  0.31134586009E+03 -0.73068774249E+03  0.37571682750E+03  0.88323542388E+03  0.90004766001E+02 0.  0.
          4    1    3    3  502    0 -0.18278930451E+03  0.39449272462E+03 -0.33610380790E+03  0.54954727668E+03  0.00000000000E+00 0.  1.
         -4    1    3    3    0  502 -0.23322299412E+03  0.39668230200E+03 -0.25591362183E+03  0.52653736387E+03  0.00000000000E+00 0. -1.
         11    1    5    5    0    0  0.73747526674E+02 -0.52716772945E+02  0.85744502882E+03  0.86222371417E+03  0.00000000000E+00 0. -1.
        -11    1    5    5    0    0  0.30918911870E+02 -0.77705111805E+01  0.67353055446E+02  0.74517072092E+02  0.00000000000E+00 0.  1.
          4    1    6    6  503    0  0.21711374496E+03 -0.56049732518E+03  0.24630217850E+03  0.64958478502E+03  0.00000000000E+00 0. -1.
         -4    1    6    6    0  503  0.94232115130E+02 -0.17019041731E+03  0.12941464900E+03  0.23365063886E+03  0.00000000000E+00 0.  1.
<mgrwt>
<rscale>  0 0.28080598E+04</rscale>
<asrwt>0</asrwt>
<pdfrwt beam="1">  1        1 0.27727372E+00 0.28080598E+04</pdfrwt>
<pdfrwt beam="2">  1       -1 0.16827411E+00 0.28080598E+04</pdfrwt>
<totfact> 0.88989371E-01</totfact>
</mgrwt>
</event>
<event>
12    2  0.3751044E-008  0.1192818E+04  0.7818608E-02  0.9119167E-01
          2   -1    0    0  501    0  0.00000000000E+00  0.00000000000E+00  0.20588591582E+04  0.20588591582E+04  0.00000000000E+00 0. -1.
         -2   -1    0    0    0  501 -0.00000000000E+00 -0.00000000000E+00 -0.17276727084E+03  0.17276727084E+03  0.00000000000E+00 0.  1.
         23    2    1    2    0    0  0.12213905582E+03 -0.20802987732E+03  0.43972320756E+03  0.50990494846E+03  0.91935729659E+02 0.  0.
        254    2    1    2    0    0 -0.12213905582E+03  0.20802987732E+03  0.14463686798E+04  0.17217214805E+04  0.90230156816E+03 0.  0.
         23    2    4    4    0    0 -0.20265397927E+03  0.52740258114E+03  0.72771666477E+03  0.92584721677E+03  0.91648277149E+02 0.  0.
         23    2    4    4    0    0  0.80514923451E+02 -0.31937270382E+03  0.71865201499E+03  0.79587426376E+03  0.92051877920E+02 0.  0.
          3    1    3    3  502    0  0.71082932463E+02 -0.14352675958E+03  0.36571555275E+03  0.39925002133E+03  0.00000000000E+00 0. -1.
         -3    1    3    3    0  502  0.51056123353E+02 -0.64503117737E+02  0.74007654805E+02  0.11065492714E+03  0.00000000000E+00 0.  1.
         11    1    5    5    0    0 -0.48514191165E+02  0.24674434818E+03  0.34316393963E+03  0.42543846742E+03  0.00000000000E+00 0.  1.
        -11    1    5    5    0    0 -0.15413978810E+03  0.28065823296E+03  0.38455272514E+03  0.50040874934E+03  0.00000000000E+00 0. -1.
          2    1    6    6  503    0  0.51186396068E+02 -0.14643544075E+03  0.23677085571E+03  0.28306151905E+03  0.00000000000E+00 0. -1.
         -2    1    6    6    0  503  0.29328527383E+02 -0.17293726306E+03  0.48188115928E+03  0.51281274471E+03  0.00000000000E+00 0.  1.
<mgrwt>
<rscale>  0 0.11928176E+04</rscale>
<asrwt>0</asrwt>
<pdfrwt beam="1">  1        2 0.31674755E+00 0.11928176E+04</pdfrwt>
<pdfrwt beam="2">  1       -2 0.26579582E-01 0.11928176E+04</pdfrwt>
<totfact> 0.78606436E+01</totfact>
</mgrwt>
</event>
<event>
12    2  0.3751044E-008  0.2331330E+04  0.7818608E-02  0.8465670E-01
         -1   -1    0    0    0  501 -0.00000000000E+00  0.00000000000E+00  0.11191253828E+04  0.11191253828E+04  0.00000000000E+00 0.  1.
          1   -1    0    0  501    0  0.00000000000E+00 -0.00000000000E+00 -0.12141395693E+04  0.12141395693E+04  0.00000000000E+00 0. -1.
         23    2    1    2    0    0 -0.92561829363E+03  0.14505610016E+03  0.21226210912E+03  0.96528773382E+03  0.94417733455E+02 0.  0.
        254    2    1    2    0    0  0.92561829363E+03 -0.14505610016E+03 -0.30727629557E+03  0.13679772183E+04  0.94822594889E+03 0.  0.
         23    2    4    4    0    0  0.57106816216E+03 -0.37768055932E+03  0.18165972040E+03  0.71424129116E+03  0.91536425882E+02 0.  0.
         23    2    4    4    0    0  0.35455013147E+03  0.23262445916E+03 -0.48893601598E+03  0.65373592710E+03  0.92153675635E+02 0.  0.
          4    1    3    3  502    0 -0.53734599733E+03  0.93053637594E+02  0.76461863559E+02  0.55067787035E+03  0.00000000000E+00 0. -1.
         -4    1    3    3    0  502 -0.38827229630E+03  0.52002462565E+02  0.13580024556E+03  0.41460986347E+03  0.00000000000E+00 0.  1.
         11    1    5    5    0    0  0.76667579929E+02 -0.31290733039E+02 -0.32954730856E+01  0.82872721261E+02  0.00000000000E+00 0. -1.
        -11    1    5    5    0    0  0.49440058223E+03 -0.34638982628E+03  0.18495519349E+03  0.63136856990E+03  0.00000000000E+00 0.  1.
          2    1    6    6  503    0  0.14740949073E+02  0.74266183109E+01 -0.58971518085E+02  0.61237979917E+02  0.00000000000E+00 0. -1.
         -2    1    6    6    0  503  0.33980918240E+03  0.22519784085E+03 -0.42996449789E+03  0.59249794718E+03  0.00000000000E+00 0.  1.
<mgrwt>
<rscale>  0 0.23313296E+04</rscale>
<asrwt>0</asrwt>
<pdfrwt beam="1">  1        1 0.18679070E+00 0.23313296E+04</pdfrwt>
<pdfrwt beam="2">  1       -1 0.17217314E+00 0.23313296E+04</pdfrwt>
<totfact> 0.22311837E+00</totfact>
</mgrwt>
</event>
<event>
12    2  0.3751044E-008  0.2121336E+04  0.7818608E-02  0.8551903E-01
          1   -1    0    0  501    0  0.00000000000E+00  0.00000000000E+00  0.73233927003E+03  0.73233927003E+03  0.00000000000E+00 0. -1.
         -1   -1    0    0    0  501 -0.00000000000E+00 -0.00000000000E+00 -0.15361955447E+04  0.15361955447E+04  0.00000000000E+00 0.  1.
         23    2    1    2    0    0  0.21636254691E+03  0.62537964177E+03  0.26680951287E+03  0.71955327224E+03  0.93043792844E+02 0.  0.
        254    2    1    2    0    0 -0.21636254691E+03 -0.62537964177E+03 -0.10706657876E+04  0.15489815425E+04  0.90283228918E+03 0.  0.
         23    2    4    4    0    0  0.21019405291E+02  0.74140302954E+02 -0.71323515928E+03  0.72333553685E+03  0.92581350829E+02 0.  0.
         23    2    4    4    0    0 -0.23738195220E+03 -0.69951994472E+03 -0.35743062828E+03  0.82564600567E+03  0.90864340360E+02 0.  0.
          3    1    3    3  502    0  0.15198455472E+03  0.41668452377E+03  0.22440976969E+03  0.49707649508E+03  0.00000000000E+00 0. -1.
         -3    1    3    3    0  502  0.64377992188E+02  0.20869511800E+03  0.42399743172E+02  0.22247677716E+03  0.00000000000E+00 0.  1.
         11    1    5    5    0    0  0.50755290998E+02  0.17254196050E+02 -0.25068993750E+03  0.25635766345E+03  0.00000000000E+00 0. -1.
        -11    1    5    5    0    0 -0.29735885707E+02  0.56886106904E+02 -0.46254522178E+03  0.46697787340E+03  0.00000000000E+00 0.  1.
          4    1    6    6  503    0 -0.42572537624E+02 -0.48347245894E+02 -0.26194888380E+02  0.69541709230E+02  0.00000000000E+00 0. -1.
         -4    1    6    6    0  503 -0.19480941458E+03 -0.65117269883E+03 -0.33123573990E+03  0.75610429644E+03  0.00000000000E+00 0.  1.
<mgrwt>
<rscale>  0 0.21213357E+04</rscale>
<asrwt>0</asrwt>
<pdfrwt beam="1">  1        1 0.11266758E+00 0.21213357E+04</pdfrwt>
<pdfrwt beam="2">  1       -1 0.23633777E+00 0.21213357E+04</pdfrwt>
<totfact> 0.19995657E+00</totfact>
</mgrwt>
</event>
<event>
12    2  0.3751044E-008  0.2083716E+04  0.7818608E-02  0.8568451E-01
          1   -1    0    0  501    0  0.00000000000E+00  0.00000000000E+00  0.18535569562E+04  0.18535569562E+04  0.00000000000E+00 0. -1.
         -1   -1    0    0    0  501 -0.00000000000E+00 -0.00000000000E+00 -0.58561339142E+03  0.58561339142E+03  0.00000000000E+00 0.  1.
         23    2    1    2    0    0  0.51819183340E+03 -0.14161335519E+03 -0.24494725679E+03  0.59753373876E+03  0.92034188106E+02 0.  0.
        254    2    1    2    0    0 -0.51819183340E+03  0.14161335519E+03  0.15128908216E+04  0.18416366089E+04  0.90233565956E+03 0.  0.
         23    2    4    4    0    0 -0.65008640638E+03  0.37663745226E+03  0.98561810105E+03  0.12427088377E+04  0.91728446754E+02 0.  0.
         23    2    4    4    0    0  0.13189457298E+03 -0.23502409707E+03  0.52727272053E+03  0.59892777118E+03  0.89807843136E+02 0.  0.
          2    1    3    3  502    0  0.36191068721E+03 -0.75217799275E+02 -0.20657919703E+03  0.42345250913E+03  0.00000000000E+00 0.  1.
         -2    1    3    3    0  502  0.15628114620E+03 -0.66395555914E+02 -0.38368059755E+02  0.17408122963E+03  0.00000000000E+00 0. -1.
         11    1    5    5    0    0 -0.14619566506E+03  0.71823199113E+02  0.27676281969E+03  0.32113766951E+03  0.00000000000E+00 0.  1.
        -11    1    5    5    0    0 -0.50389074133E+03  0.30481425314E+03  0.70885528135E+03  0.92157116818E+03  0.00000000000E+00 0. -1.
          1    1    6    6  503    0  0.11409708219E+03 -0.17723885277E+03  0.32137198699E+03  0.38433281036E+03  0.00000000000E+00 0. -1.
         -1    1    6    6    0  503  0.17797490786E+02 -0.57785244302E+02  0.20590073354E+03  0.21459496082E+03  0.00000000000E+00 0.  1.
<mgrwt>
<rscale>  0 0.20837157E+04</rscale>
<asrwt>0</asrwt>
<pdfrwt beam="1">  1        1 0.28516261E+00 0.20837157E+04</pdfrwt>
<pdfrwt beam="2">  1       -1 0.90094369E-01 0.20837157E+04</pdfrwt>
<totfact> 0.41577421E+00</totfact>
</mgrwt>
</event>
<event>
12    2  0.3751044E-008  0.1415233E+04  0.7818608E-02  0.8942866E-01
          2   -1    0    0  501    0  0.00000000000E+00  0.00000000000E+00  0.10215172791E+04  0.10215172791E+04  0.00000000000E+00 0. -1.
         -2   -1    0    0    0  501 -0.00000000000E+00 -0.00000000000E+00 -0.49017359440E+03  0.49017359440E+03  0.00000000000E+00 0.  1.
         23    2    1    2    0    0 -0.15110812150E+03 -0.34661352672E+03 -0.23490021486E+02  0.38915740420E+03  0.88978103189E+02 0.  0.
        254    2    1    2    0    0  0.15110812150E+03  0.34661352672E+03  0.55483370614E+03  0.11225334693E+04  0.89959232259E+03 0.  0.
         23    2    4    4    0    0 -0.37007788988E+03  0.18324364979E+03  0.24364866867E+03  0.48765392304E+03  0.88914538424E+02 0.  0.
         23    2    4    4    0    0  0.52118601138E+03  0.16336987693E+03  0.31118503747E+03  0.63487954622E+03  0.88945688606E+02 0.  0.
          1    1    3    3  502    0 -0.36944423102E+02 -0.39886342309E+02  0.22149956211E+02  0.58706313641E+02  0.00000000000E+00 0. -1.
         -1    1    3    3    0  502 -0.11416369840E+03 -0.30672718441E+03 -0.45639977697E+02  0.33045109056E+03  0.00000000000E+00 0.  1.
         11    1    5    5    0    0 -0.23413284125E+02  0.40113695302E+02  0.17120690767E+02  0.49501600749E+02  0.00000000000E+00 0. -1.
        -11    1    5    5    0    0 -0.34666460576E+03  0.14312995449E+03  0.22652797791E+03  0.43815232229E+03  0.00000000000E+00 0.  1.
          4    1    6    6  503    0  0.21710308857E+03  0.38373379212E+02  0.16340588989E+03  0.27442257952E+03  0.00000000000E+00 0.  1.
         -4    1    6    6    0  503  0.30408292281E+03  0.12499649772E+03  0.14777914758E+03  0.36045696671E+03  0.00000000000E+00 0. -1.
<mgrwt>
<rscale>  0 0.14152326E+04</rscale>
<asrwt>0</asrwt>
<pdfrwt beam="1">  1        2 0.15715650E+00 0.14152326E+04</pdfrwt>
<pdfrwt beam="2">  1       -2 0.75411322E-01 0.14152326E+04</pdfrwt>
<totfact> 0.37434573E+01</totfact>
</mgrwt>
</event>
<event>
12    2  0.3751044E-008  0.1219393E+04  0.7818608E-02  0.9096049E-01
         -2   -1    0    0    0  501 -0.00000000000E+00  0.00000000000E+00  0.28167685859E+03  0.28167685859E+03  0.00000000000E+00 0.  1.
          2   -1    0    0  501    0  0.00000000000E+00 -0.00000000000E+00 -0.13197031263E+04  0.13197031263E+04  0.00000000000E+00 0. -1.
         23    2    1    2    0    0 -0.25844411993E+03 -0.85735191378E+00 -0.20861508621E+03  0.34250712805E+03  0.83646759557E+02 0.  0.
        254    2    1    2    0    0  0.25844411993E+03  0.85735191378E+00 -0.82941118147E+03  0.12588728568E+04  0.91106743082E+03 0.  0.
         23    2    4    4    0    0 -0.30896665520E+03 -0.18181160166E+02 -0.11832626989E+03  0.34437312898E+03  0.93812564200E+02 0.  0.
         23    2    4    4    0    0  0.56741077514E+03  0.19038512080E+02 -0.71108491158E+03  0.91449972784E+03  0.91381333170E+02 0.  0.
          3    1    3    3  502    0 -0.42491499751E+02 -0.27597048454E+02 -0.19769834852E+02  0.54387231999E+02  0.00000000000E+00 0. -1.
         -3    1    3    3    0  502 -0.21595262018E+03  0.26739696541E+02 -0.18884525136E+03  0.28811989605E+03  0.00000000000E+00 0.  1.
         11    1    5    5    0    0 -0.20643580784E+03  0.25330045559E+02 -0.50718371030E+02  0.21407874048E+03  0.00000000000E+00 0. -1.
        -11    1    5    5    0    0 -0.10253084737E+03 -0.43511205725E+02 -0.67607898861E+02  0.13029438850E+03  0.00000000000E+00 0.  1.
          1    1    6    6  503    0  0.17326221104E+03  0.25751679934E+02 -0.28064971582E+03  0.33082806075E+03  0.00000000000E+00 0. -1.
         -1    1    6    6    0  503  0.39414856410E+03 -0.67131678547E+01 -0.43043519576E+03  0.58367166709E+03  0.00000000000E+00 0.  1.
<mgrwt>
<rscale>  0 0.12193930E+04</rscale>
<asrwt>0</asrwt>
<pdfrwt beam="1">  1        2 0.20303125E+00 0.12193930E+04</pdfrwt>
<pdfrwt beam="2">  1       -2 0.43334901E-01 0.12193930E+04</pdfrwt>
<totfact> 0.80073136E+01</totfact>
</mgrwt>
</event>
<event>
12    2  0.3751044E-008  0.3923067E+04  0.7818608E-02  0.8020249E-01
          2   -1    0    0  501    0  0.00000000000E+00  0.00000000000E+00  0.32467451873E+04  0.32467451873E+04  0.00000000000E+00 0. -1.
         -2   -1    0    0    0  501 -0.00000000000E+00 -0.00000000000E+00 -0.11850678544E+04  0.11850678544E+04  0.00000000000E+00 0.  1.
         23    2    1    2    0    0  0.66908184515E+03  0.17334110772E+04  0.10917420555E+04  0.21570094552E+04  0.91676584142E+02 0.  0.
        254    2    1    2    0    0 -0.66908184515E+03 -0.17334110772E+04  0.96993527739E+03  0.22748035866E+04  0.88406585561E+03 0.  0.
         23    2    4    4    0    0 -0.48201704492E+03 -0.23731178544E+03  0.20728776084E+03  0.58268630989E+03  0.88869594587E+02 0.  0.
         23    2    4    4    0    0 -0.18706480024E+03 -0.14960992917E+04  0.76264751656E+03  0.16921172767E+04  0.91232194121E+02 0.  0.
          4    1    3    3  502    0  0.31371931076E+03  0.85381720272E+03  0.58472484914E+03  0.10813541375E+04  0.00000000000E+00 0. -1.
         -4    1    3    3    0  502  0.35536253439E+03  0.87959387446E+03  0.50701720635E+03  0.10756553176E+04  0.00000000000E+00 0.  1.
         11    1    5    5    0    0 -0.38430645714E+03 -0.14692643435E+03  0.15919464661E+03  0.44115956934E+03  0.00000000000E+00 0. -1.
        -11    1    5    5    0    0 -0.97710587779E+02 -0.90385351088E+02  0.48093114230E+02  0.14152674055E+03  0.00000000000E+00 0.  1.
          4    1    6    6  503    0 -0.18319710480E+03 -0.13405306321E+04  0.70907305087E+03  0.15275366268E+04  0.00000000000E+00 0. -1.
         -4    1    6    6    0  503 -0.38676954330E+01 -0.15556865961E+03  0.53574465686E+02  0.16458064982E+03  0.00000000000E+00 0.  1.
<mgrwt>
<rscale>  0 0.39230668E+04</rscale>
<asrwt>0</asrwt>
<pdfrwt beam="1">  1        2 0.49949926E+00 0.39230668E+04</pdfrwt>
<pdfrwt beam="2">  1       -2 0.18231813E+00 0.39230668E+04</pdfrwt>
<totfact> 0.16744699E-01</totfact>
</mgrwt>
</event>
<event>
12    2  0.3751044E-008  0.1614662E+04  0.7818608E-02  0.8811591E-01
         -2   -1    0    0    0  501 -0.00000000000E+00  0.00000000000E+00  0.18034186482E+03  0.18034186482E+03  0.00000000000E+00 0. -1.
          2   -1    0    0  501    0  0.00000000000E+00 -0.00000000000E+00 -0.36141523879E+04  0.36141523879E+04  0.00000000000E+00 0.  1.
         23    2    1    2    0    0 -0.17276130531E+03 -0.67438206481E+02 -0.24430580851E+04  0.24518125241E+04  0.91964481329E+02 0.  0.
        254    2    1    2    0    0  0.17276130531E+03  0.67438206481E+02 -0.99075243804E+03  0.13426817287E+04  0.88702280171E+03 0.  0.
         23    2    4    4    0    0  0.11634945693E+03 -0.39988610674E+03 -0.44128545568E+03  0.61344495190E+03  0.90198454147E+02 0.  0.
         23    2    4    4    0    0  0.56411848381E+02  0.46732431322E+03 -0.54946698236E+03  0.72923677678E+03  0.91093367132E+02 0.  0.
          3    1    3    3  502    0 -0.73943508921E+01  0.19004077340E+02 -0.25042801028E+03  0.25125687993E+03  0.00000000000E+00 0. -1.
         -3    1    3    3    0  502 -0.16536695442E+03 -0.86442283821E+02 -0.21926300748E+04  0.22005556441E+04  0.00000000000E+00 0.  1.
         11    1    5    5    0    0 -0.13126199233E+02 -0.77540719657E+02 -0.76277020379E+02  0.10955840520E+03  0.00000000000E+00 0. -1.
        -11    1    5    5    0    0  0.12947565616E+03 -0.32234538708E+03 -0.36500843530E+03  0.50388654671E+03  0.00000000000E+00 0.  1.
          1    1    6    6  503    0  0.45316553628E+02  0.15734927342E+03 -0.13920708919E+03  0.21492091001E+03  0.00000000000E+00 0. -1.
         -1    1    6    6    0  503  0.11095294753E+02  0.30997503980E+03 -0.41025989318E+03  0.51431586678E+03  0.00000000000E+00 0.  1.
<mgrwt>
<rscale>  0 0.16146616E+04</rscale>
<asrwt>0</asrwt>
<pdfrwt beam="1">  1        2 0.55602339E+00 0.16146616E+04</pdfrwt>
<pdfrwt beam="2">  1       -2 0.27744905E-01 0.16146616E+04</pdfrwt>
<totfact> 0.77602656E+00</totfact>
</mgrwt>
</event>
<event>
12    2  0.3751044E-008  0.1585514E+04  0.7818608E-02  0.8829497E-01
         -2   -1    0    0    0  501 -0.00000000000E+00  0.00000000000E+00  0.25209124666E+03  0.25209124666E+03  0.00000000000E+00 0.  1.
          2   -1    0    0  501    0  0.00000000000E+00 -0.00000000000E+00 -0.24930005694E+04  0.24930005694E+04  0.00000000000E+00 0. -1.
         23    2    1    2    0    0 -0.87423637990E+02 -0.50016217747E+03 -0.48534316825E+03  0.70832067100E+03  0.91406158105E+02 0.  0.
        254    2    1    2    0    0  0.87423637990E+02  0.50016217747E+03 -0.17555661545E+04  0.20367711450E+04  0.89923249402E+03 0.  0.
         23    2    4    4    0    0 -0.21644619496E+03  0.52525434708E+03 -0.56844548879E+03  0.80858783562E+03  0.89123115622E+02 0.  0.
         23    2    4    4    0    0  0.30386983295E+03 -0.25092169610E+02 -0.11871206657E+04  0.12281833094E+04  0.78817982218E+02 0.  0.
          4    1    3    3  502    0 -0.39895816774E+02 -0.12209823341E+03 -0.17388965449E+03  0.21618803560E+03  0.00000000000E+00 0. -1.
         -4    1    3    3    0  502 -0.47527821216E+02 -0.37806394406E+03 -0.31145351377E+03  0.49213263540E+03  0.00000000000E+00 0.  1.
         11    1    5    5    0    0 -0.21413747847E+03  0.50839495071E+03 -0.52341591109E+03  0.76045019664E+03  0.00000000000E+00 0. -1.
        -11    1    5    5    0    0 -0.23087164929E+01  0.16859396373E+02 -0.45029577708E+02  0.48137638979E+02  0.00000000000E+00 0.  1.
          2    1    6    6  503    0  0.17449447164E+03 -0.31044267079E+02 -0.81861583050E+03  0.83758220199E+03  0.00000000000E+00 0. -1.
         -2    1    6    6    0  503  0.12937536131E+03  0.59520974691E+01 -0.36850483518E+03  0.39060110743E+03  0.00000000000E+00 0.  1.
<mgrwt>
<rscale>  0 0.15855140E+04</rscale>
<asrwt>0</asrwt>
<pdfrwt beam="1">  1        2 0.38353855E+00 0.15855140E+04</pdfrwt>
<pdfrwt beam="2">  1       -2 0.38783269E-01 0.15855140E+04</pdfrwt>
<totfact> 0.21238658E+01</totfact>
</mgrwt>
</event>
<event>
12    2  0.3751044E-008  0.2163984E+04  0.7818608E-02  0.8533570E-01
          2   -1    0    0  501    0  0.00000000000E+00  0.00000000000E+00  0.33104519072E+04  0.33104519072E+04  0.00000000000E+00 0. -1.
         -2   -1    0    0    0  501 -0.00000000000E+00 -0.00000000000E+00 -0.35363968747E+03  0.35363968747E+03  0.00000000000E+00 0.  1.
         23    2    1    2    0    0  0.39933855150E+03  0.77453980452E+03  0.15894492973E+04  0.18150410218E+04  0.92960499279E+02 0.  0.
        254    2    1    2    0    0 -0.39933855150E+03 -0.77453980452E+03  0.13673629224E+04  0.18490505729E+04  0.88877639036E+03 0.  0.
         23    2    4    4    0    0 -0.59221335031E+03 -0.20131238094E+03  0.65502368589E+03  0.91030772023E+03  0.91437352529E+02 0.  0.
         23    2    4    4    0    0  0.19287479881E+03 -0.57322742359E+03  0.71233923650E+03  0.93874285266E+03  0.89557737748E+02 0.  0.
          1    1    3    3  502    0  0.45715133257E+02  0.15479848076E+03  0.25461088555E+03  0.30146168264E+03  0.00000000000E+00 0. -1.
         -1    1    3    3    0  502  0.35362341824E+03  0.61974132376E+03  0.13348384118E+04  0.15135793391E+04  0.00000000000E+00 0.  1.
         11    1    5    5    0    0 -0.29815329169E+03 -0.56446233857E+02  0.33898031179E+03  0.45496067351E+03  0.00000000000E+00 0. -1.
        -11    1    5    5    0    0 -0.29406005862E+03 -0.14486614708E+03  0.31604337410E+03  0.45534704672E+03  0.00000000000E+00 0.  1.
          3    1    6    6  503    0  0.14682234023E+02 -0.69915770707E+01  0.31583366652E+02  0.35524065011E+02  0.00000000000E+00 0. -1.
         -3    1    6    6    0  503  0.17819256478E+03 -0.56623584652E+03  0.68075586985E+03  0.90321878765E+03  0.00000000000E+00 0.  1.
<mgrwt>
<rscale>  0 0.21639845E+04</rscale>
<asrwt>0</asrwt>
<pdfrwt beam="1">  1        2 0.50930027E+00 0.21639845E+04</pdfrwt>
<pdfrwt beam="2">  1       -2 0.54406108E-01 0.21639845E+04</pdfrwt>
<totfact> 0.32042383E+00</totfact>
</mgrwt>
</event>
<event>
12    2  0.3751044E-008  0.1224643E+04  0.7818608E-02  0.9091556E-01
          2   -1    0    0  501    0  0.00000000000E+00  0.00000000000E+00  0.69280561754E+03  0.69280561754E+03  0.00000000000E+00 0. -1.
         -2   -1    0    0    0  501 -0.00000000000E+00 -0.00000000000E+00 -0.54118733621E+03  0.54118733621E+03  0.00000000000E+00 0.  1.
         23    2    1    2    0    0  0.22690102068E+03  0.26761794199E+02 -0.91618419340E+02  0.26327699586E+03  0.93384018815E+02 0.  0.
        254    2    1    2    0    0 -0.22690102068E+03 -0.26761794199E+02  0.24323670067E+03  0.97071595789E+03  0.91155093744E+03 0.  0.
         23    2    4    4    0    0 -0.21252653217E+02 -0.10388269879E+03 -0.32590332122E+03  0.35448474507E+03  0.90571349373E+02 0.  0.
         23    2    4    4    0    0 -0.20564836747E+03  0.77120904589E+02  0.56914002189E+03  0.61623121283E+03  0.87072717760E+02 0.  0.
          3    1    3    3  502    0  0.58238001597E+02 -0.26216029127E+02 -0.51378260488E+02  0.81967497607E+02  0.00000000000E+00 0. -1.
         -3    1    3    3    0  502  0.16866301909E+03  0.52977823326E+02 -0.40240158852E+02  0.18130949825E+03  0.00000000000E+00 0.  1.
         11    1    5    5    0    0 -0.24602802801E+02 -0.11580284195E+03 -0.31910757795E+03  0.34036045953E+03  0.00000000000E+00 0. -1.
        -11    1    5    5    0    0  0.33501495842E+01  0.11920143162E+02 -0.67957432714E+01  0.14124285534E+02  0.00000000000E+00 0.  1.
          3    1    6    6  503    0 -0.14030771554E+03  0.92047544975E+02  0.43587222958E+03  0.46705846112E+03  0.00000000000E+00 0. -1.
         -3    1    6    6    0  503 -0.65340651921E+02 -0.14926640387E+02  0.13326779231E+03  0.14917275171E+03  0.00000000000E+00 0.  1.
<mgrwt>
<rscale>  0 0.12246430E+04</rscale>
<asrwt>0</asrwt>
<pdfrwt beam="1">  1        2 0.10658548E+00 0.12246430E+04</pdfrwt>
<pdfrwt beam="2">  1       -2 0.83259590E-01 0.12246430E+04</pdfrwt>
<totfact> 0.51675248E+01</totfact>
</mgrwt>
</event>
<event>
12    2  0.3751044E-008  0.2779029E+04  0.7818608E-02  0.8309809E-01
         -2   -1    0    0    0  501 -0.00000000000E+00  0.00000000000E+00  0.14611649700E+04  0.14611649700E+04  0.00000000000E+00 0.  1.
          2   -1    0    0  501    0  0.00000000000E+00 -0.00000000000E+00 -0.13213779825E+04  0.13213779825E+04  0.00000000000E+00 0. -1.
         23    2    1    2    0    0 -0.92318966378E+03  0.36109296308E+03 -0.68216551329E+03  0.12066968754E+04  0.90001545920E+02 0.  0.
        254    2    1    2    0    0  0.92318966378E+03 -0.36109296308E+03  0.82195250081E+03  0.15758460771E+04  0.90830482873E+03 0.  0.
         23    2    4    4    0    0  0.80838713289E+03 -0.20820195294E+03  0.99498501626E+03  0.13020344261E+04  0.91981814810E+02 0.  0.
         23    2    4    4    0    0  0.11480253089E+03 -0.15289101014E+03 -0.17303251545E+03  0.27381165105E+03  0.92072182383E+02 0.  0.
          3    1    3    3  502    0 -0.53687284171E+03  0.17676265693E+03 -0.34910564891E+03  0.66434346475E+03  0.00000000000E+00 0. -1.
         -3    1    3    3    0  502 -0.38631682207E+03  0.18433030615E+03 -0.33305986438E+03  0.54235341065E+03  0.00000000000E+00 0.  1.
         11    1    5    5    0    0  0.53400575860E+03 -0.10903125490E+03  0.59417717378E+03  0.80628560610E+03  0.00000000000E+00 0. -1.
        -11    1    5    5    0    0  0.27438137429E+03 -0.99170698039E+02  0.40080784247E+03  0.49574881996E+03  0.00000000000E+00 0.  1.
          2    1    6    6  503    0  0.46695655157E+02 -0.13330381415E+03 -0.11906891336E+03  0.18473710296E+03  0.00000000000E+00 0. -1.
         -2    1    6    6    0  503  0.68106875734E+02 -0.19587195988E+02 -0.53963602086E+02  0.89074548098E+02  0.00000000000E+00 0.  1.
<mgrwt>
<rscale>  0 0.27790295E+04</rscale>
<asrwt>0</asrwt>
<pdfrwt beam="1">  1        2 0.20328892E+00 0.27790295E+04</pdfrwt>
<pdfrwt beam="2">  1       -2 0.22479461E+00 0.27790295E+04</pdfrwt>
<totfact> 0.12907292E+00</totfact>
</mgrwt>
</event>
<event>
12    2  0.3751044E-008  0.3003897E+04  0.7818608E-02  0.8242619E-01
          1   -1    0    0  501    0  0.00000000000E+00  0.00000000000E+00  0.39171709381E+04  0.39171709381E+04  0.00000000000E+00 0. -1.
         -1   -1    0    0    0  501 -0.00000000000E+00 -0.00000000000E+00 -0.57588734617E+03  0.57588734617E+03  0.00000000000E+00 0.  1.
         23    2    1    2    0    0 -0.29995921105E+03 -0.64591055390E+03  0.32689696307E+04  0.33469058600E+04  0.91871741951E+02 0.  0.
        254    2    1    2    0    0  0.29995921105E+03  0.64591055390E+03  0.72313961180E+02  0.11461524243E+04  0.89513133046E+03 0.  0.
         23    2    4    4    0    0  0.86713907428E+02 -0.21700304747E+03  0.99104346306E+01  0.25087650667E+03  0.90725853709E+02 0.  0.
         23    2    4    4    0    0  0.21324530362E+03  0.86291360138E+03  0.62403526549E+02  0.89527591761E+03  0.86783210167E+02 0.  0.
          1    1    3    3  502    0 -0.24262691124E+03 -0.57177251058E+03  0.27221065415E+04  0.27920701361E+04  0.00000000000E+00 0. -1.
         -1    1    3    3    0  502 -0.57332299806E+02 -0.74138043328E+02  0.54686308928E+03  0.55483572388E+03  0.00000000000E+00 0.  1.
         11    1    5    5    0    0  0.40750523058E+02 -0.14854097390E+03  0.46164381476E+02  0.16079855774E+03  0.00000000000E+00 0. -1.
        -11    1    5    5    0    0  0.45963384370E+02 -0.68462073578E+02 -0.36253946845E+02  0.90077948929E+02  0.00000000000E+00 0.  1.
          4    1    6    6  503    0  0.17538580238E+03  0.80319227190E+03  0.51497909262E+02  0.82372934874E+03  0.00000000000E+00 0. -1.
         -4    1    6    6    0  503  0.37859501240E+02  0.59721329483E+02  0.10905617288E+02  0.71546568875E+02  0.00000000000E+00 0.  1.
<mgrwt>
<rscale>  0 0.30038969E+04</rscale>
<asrwt>0</asrwt>
<pdfrwt beam="1">  1        1 0.60264167E+00 0.30038969E+04</pdfrwt>
<pdfrwt beam="2">  1       -1 0.88598056E-01 0.30038969E+04</pdfrwt>
<totfact> 0.12044566E-01</totfact>
</mgrwt>
</event>
<event>
12    2  0.3751044E-008  0.1318181E+04  0.7818608E-02  0.9015271E-01
          1   -1    0    0  501    0  0.00000000000E+00  0.00000000000E+00  0.66553127544E+03  0.66553127544E+03  0.00000000000E+00 0. -1.
         -1   -1    0    0    0  501 -0.00000000000E+00 -0.00000000000E+00 -0.65271171954E+03  0.65271171954E+03  0.00000000000E+00 0.  1.
         23    2    1    2    0    0  0.14626336998E+03 -0.18688094138E+03  0.15287509744E+03  0.29889871809E+03  0.98245552610E+02 0.  0.
        254    2    1    2    0    0 -0.14626336998E+03  0.18688094138E+03 -0.14005554153E+03  0.10193442769E+04  0.98139173650E+03 0.  0.
         23    2    4    4    0    0 -0.67341553738E+02  0.49144852589E+03 -0.36450851323E+03  0.62221412304E+03  0.90705127924E+02 0.  0.
         23    2    4    4    0    0 -0.78921816245E+02 -0.30456758451E+03  0.22445297170E+03  0.39713015385E+03  0.91340877924E+02 0.  0.
          1    1    3    3  502    0  0.13615355433E+03 -0.12637981097E+03  0.76404553633E+02  0.20086638045E+03  0.00000000000E+00 0.  1.
         -1    1    3    3    0  502  0.10109815651E+02 -0.60501130413E+02  0.76470543804E+02  0.98032337641E+02  0.00000000000E+00 0. -1.
         11    1    5    5    0    0 -0.48824131625E+02  0.47936324055E+03 -0.35279429061E+03  0.59719069292E+03  0.00000000000E+00 0. -1.
        -11    1    5    5    0    0 -0.18517422114E+02  0.12085285341E+02 -0.11714222624E+02  0.25023430124E+02  0.00000000000E+00 0.  1.
          3    1    6    6  503    0 -0.89124923933E+02 -0.26525106906E+03  0.16413268406E+03  0.32440856906E+03  0.00000000000E+00 0. -1.
         -3    1    6    6    0  503  0.10203107688E+02 -0.39316515451E+02  0.60320287639E+02  0.72721584791E+02  0.00000000000E+00 0.  1.
<mgrwt>
<rscale>  0 0.13181807E+04</rscale>
<asrwt>0</asrwt>
<pdfrwt beam="1">  1        1 0.10238943E+00 0.13181807E+04</pdfrwt>
<pdfrwt beam="2">  1       -1 0.10041719E+00 0.13181807E+04</pdfrwt>
<totfact> 0.27249310E+01</totfact>
</mgrwt>
</event>
<event>
12    2  0.3751044E-008  0.1993513E+04  0.7818608E-02  0.8609660E-01
         -2   -1    0    0    0  501 -0.00000000000E+00  0.00000000000E+00  0.80491525434E+03  0.80491525434E+03  0.00000000000E+00 0.  1.
          2   -1    0    0  501    0  0.00000000000E+00 -0.00000000000E+00 -0.12343206187E+04  0.12343206187E+04  0.00000000000E+00 0. -1.
         23    2    1    2    0    0 -0.57447192591E+03 -0.52989343963E+03 -0.29758661292E+03  0.84104466014E+03  0.89405129217E+02 0.  0.
        254    2    1    2    0    0  0.57447192591E+03  0.52989343963E+03 -0.13181875145E+03  0.11981912129E+04  0.89859943715E+03 0.  0.
         23    2    4    4    0    0  0.44039657955E+03  0.74804682493E+02 -0.43264733480E+03  0.62896408344E+03  0.94165886284E+02 0.  0.
         23    2    4    4    0    0  0.13407534636E+03  0.45508875714E+03  0.30082858335E+03  0.56922712948E+03  0.91867910622E+02 0.  0.
          1    1    3    3  502    0 -0.51140852348E+01 -0.12795578718E+02 -0.18015663450E+02  0.22681376327E+02  0.00000000000E+00 0. -1.
         -1    1    3    3    0  502 -0.56935784068E+03 -0.51709786091E+03 -0.27957094947E+03  0.81836328381E+03  0.00000000000E+00 0.  1.
         11    1    5    5    0    0  0.52778022231E+02  0.21664413123E+02 -0.20331415790E+02  0.60565938403E+02  0.00000000000E+00 0. -1.
        -11    1    5    5    0    0  0.38761855732E+03  0.53140269370E+02 -0.41231591901E+03  0.56839814503E+03  0.00000000000E+00 0.  1.
          2    1    6    6  503    0  0.21789160668E+01  0.14537802637E+03  0.10960242626E+03  0.18207748369E+03  0.00000000000E+00 0. -1.
         -2    1    6    6    0  503  0.13189643029E+03  0.30971073077E+03  0.19122615708E+03  0.38714964579E+03  0.00000000000E+00 0.  1.
<mgrwt>
<rscale>  0 0.19935130E+04</rscale>
<asrwt>0</asrwt>
<pdfrwt beam="1">  1        2 0.18989548E+00 0.19935130E+04</pdfrwt>
<pdfrwt beam="2">  1       -2 0.12383312E+00 0.19935130E+04</pdfrwt>
<totfact> 0.82468314E+00</totfact>
</mgrwt>
</event>
<event>
12    2  0.3751044E-008  0.1126207E+04  0.7818608E-02  0.9180018E-01
          1   -1    0    0  501    0  0.00000000000E+00  0.00000000000E+00  0.41830924372E+03  0.41830924372E+03  0.00000000000E+00 0. -1.
         -1   -1    0    0    0  501 -0.00000000000E+00 -0.00000000000E+00 -0.75801738831E+03  0.75801738831E+03  0.00000000000E+00 0.  1.
         23    2    1    2    0    0  0.75750406224E+01 -0.18467436888E+03  0.64726119209E+01  0.20574700651E+03  0.90155045472E+02 0.  0.
        254    2    1    2    0    0 -0.75750406224E+01  0.18467436888E+03 -0.34618075651E+03  0.97057962551E+03  0.88770585755E+03 0.  0.
         23    2    4    4    0    0  0.31434925894E+03  0.36065471389E+03 -0.47639169372E+02  0.48957159470E+03  0.92323218294E+02 0.  0.
         23    2    4    4    0    0 -0.32192429956E+03 -0.17598034501E+03 -0.29854158714E+03  0.48100803081E+03  0.87391704281E+02 0.  0.
          4    1    3    3  502    0  0.67249117642E+01 -0.19200939212E+03  0.17011410466E+02  0.19287876810E+03  0.00000000000E+00 0. -1.
         -4    1    3    3    0  502  0.85012885823E+00  0.73350232399E+01 -0.10538798545E+02  0.12868238410E+02  0.00000000000E+00 0.  1.
         11    1    5    5    0    0  0.16661232262E+03  0.17304857399E+03  0.20926505367E+02  0.24112941263E+03  0.00000000000E+00 0.  1.
        -11    1    5    5    0    0  0.14773693632E+03  0.18760613989E+03 -0.68565674739E+02  0.24844218207E+03  0.00000000000E+00 0. -1.
          1    1    6    6  503    0 -0.57068009721E+02 -0.51727859127E+02 -0.26327584300E+02  0.81398223804E+02  0.00000000000E+00 0. -1.
         -1    1    6    6    0  503 -0.26485628984E+03 -0.12425248588E+03 -0.27221400284E+03  0.39960980701E+03  0.00000000000E+00 0.  1.
<mgrwt>
<rscale>  0 0.11262072E+04</rscale>
<asrwt>0</asrwt>
<pdfrwt beam="1">  1        1 0.64355269E-01 0.11262072E+04</pdfrwt>
<pdfrwt beam="2">  1       -1 0.11661806E+00 0.11262072E+04</pdfrwt>
<totfact> 0.37322688E+01</totfact>
</mgrwt>
</event>
<event>
12    2  0.3751044E-008  0.2638109E+04  0.7818608E-02  0.8355371E-01
         -2   -1    0    0    0  501 -0.00000000000E+00  0.00000000000E+00  0.82521426188E+03  0.82521426188E+03  0.00000000000E+00 0.  1.
          2   -1    0    0  501    0  0.00000000000E+00 -0.00000000000E+00 -0.21084277284E+04  0.21084277284E+04  0.00000000000E+00 0. -1.
         23    2    1    2    0    0 -0.19862286974E+03 -0.79862185663E+03 -0.14768863976E+04  0.16931696312E+04  0.91553561453E+02 0.  0.
        254    2    1    2    0    0  0.19862286974E+03  0.79862185663E+03  0.19367293109E+03  0.12404723590E+04  0.90775247446E+03 0.  0.
         23    2    4    4    0    0 -0.12023998705E+03 -0.14533925934E+03  0.10887168604E+03  0.23644892094E+03  0.92053752789E+02 0.  0.
         23    2    4    4    0    0  0.31886285679E+03  0.94396111597E+03  0.84801245041E+02  0.10040234380E+04  0.90198132276E+02 0.  0.
          1    1    3    3  502    0 -0.20596956811E+03 -0.79123941402E+03 -0.14589164854E+04  0.16723996486E+04  0.00000000000E+00 0. -1.
         -1    1    3    3    0  502  0.73466983765E+01 -0.73824426117E+01 -0.17969912195E+02  0.20769982673E+02  0.00000000000E+00 0.  1.
         11    1    5    5    0    0 -0.10367999127E+03 -0.60319034585E+02  0.42248497954E+02  0.12717256820E+03  0.00000000000E+00 0.  1.
        -11    1    5    5    0    0 -0.16559995776E+02 -0.85020224751E+02  0.66623188090E+02  0.10927635274E+03  0.00000000000E+00 0. -1.
          4    1    6    6  503    0  0.24943738374E+03  0.64543617973E+03  0.87877265909E+02  0.69751651190E+03  0.00000000000E+00 0.  1.
         -4    1    6    6    0  503  0.69425473047E+02  0.29852493624E+03 -0.30760208685E+01  0.30650692613E+03  0.00000000000E+00 0. -1.
<mgrwt>
<rscale>  0 0.26381089E+04</rscale>
<asrwt>0</asrwt>
<pdfrwt beam="1">  1        2 0.32437349E+00 0.26381089E+04</pdfrwt>
<pdfrwt beam="2">  1       -2 0.12695604E+00 0.26381089E+04</pdfrwt>
<totfact> 0.23632386E+00</totfact>
</mgrwt>
</event>
<event>
12    2  0.3751044E-008  0.1500931E+04  0.7818608E-02  0.8883834E-01
         -1   -1    0    0    0  501 -0.00000000000E+00  0.00000000000E+00  0.32353285817E+03  0.32353285817E+03  0.00000000000E+00 0.  1.
          1   -1    0    0  501    0  0.00000000000E+00 -0.00000000000E+00 -0.17407761431E+04  0.17407761431E+04  0.00000000000E+00 0. -1.
         23    2    1    2    0    0 -0.19054168982E+03  0.39218683974E+03 -0.19411490195E+03  0.48554455268E+03  0.89197896000E+02 0.  0.
        254    2    1    2    0    0  0.19054168982E+03 -0.39218683974E+03 -0.12231283830E+04  0.15787644486E+04  0.89796296699E+03 0.  0.
         23    2    4    4    0    0  0.26443042582E+03 -0.57943807213E+03 -0.47600104636E+03  0.79993820148E+03  0.87476857084E+02 0.  0.
         23    2    4    4    0    0 -0.73888735999E+02  0.18725123238E+03 -0.74712733665E+03  0.77882624714E+03  0.88591741882E+02 0.  0.
          1    1    3    3  502    0 -0.29304773253E+02  0.30056878421E+02 -0.46253265941E+02  0.62462390973E+02  0.00000000000E+00 0. -1.
         -1    1    3    3    0  502 -0.16123691657E+03  0.36212996132E+03 -0.14786163601E+03  0.42308216171E+03  0.00000000000E+00 0.  1.
         11    1    5    5    0    0  0.22778116114E+03 -0.42020156905E+03 -0.33008406835E+03  0.58086926944E+03  0.00000000000E+00 0. -1.
        -11    1    5    5    0    0  0.36649264674E+02 -0.15923650308E+03 -0.14591697800E+03  0.21906893204E+03  0.00000000000E+00 0.  1.
          4    1    6    6  503    0 -0.29178154355E+02  0.46950593627E+02 -0.36761176089E+03  0.37174471035E+03  0.00000000000E+00 0. -1.
         -4    1    6    6    0  503 -0.44710581644E+02  0.14030063876E+03 -0.37951557576E+03  0.40708153678E+03  0.00000000000E+00 0.  1.
<mgrwt>
<rscale>  0 0.15009308E+04</rscale>
<asrwt>0</asrwt>
<pdfrwt beam="1">  1        1 0.26781172E+00 0.15009308E+04</pdfrwt>
<pdfrwt beam="2">  1       -1 0.49774286E-01 0.15009308E+04</pdfrwt>
<totfact> 0.17508541E+01</totfact>
</mgrwt>
</event>
<event>
12    2  0.3751044E-008  0.1308165E+04  0.7818608E-02  0.9023116E-01
         -2   -1    0    0    0  501 -0.00000000000E+00  0.00000000000E+00  0.18514954061E+03  0.18514954061E+03  0.00000000000E+00 0. -1.
          2   -1    0    0  501    0  0.00000000000E+00 -0.00000000000E+00 -0.23106922824E+04  0.23106922824E+04  0.00000000000E+00 0.  1.
         23    2    1    2    0    0  0.25609800898E+03 -0.67698522903E+02 -0.19294377426E+03  0.34111570386E+03  0.94674934334E+02 0.  0.
        254    2    1    2    0    0 -0.25609800898E+03  0.67698522903E+02 -0.19325989675E+04  0.21547261192E+04  0.91527951962E+03 0.  0.
         23    2    4    4    0    0 -0.53849868140E+03  0.25424620204E+03 -0.11841789376E+04  0.13285271947E+04  0.89904336186E+02 0.  0.
         23    2    4    4    0    0  0.28240067242E+03 -0.18654767913E+03 -0.74842002990E+03  0.82619892443E+03  0.89005309949E+02 0.  0.
          4    1    3    3  502    0  0.17554633989E+03 -0.63719843424E+02 -0.18010471318E+03  0.25945027193E+03  0.00000000000E+00 0. -1.
         -4    1    3    3    0  502  0.80551669088E+02 -0.39786794786E+01 -0.12839061075E+02  0.81665431931E+02  0.00000000000E+00 0.  1.
         11    1    5    5    0    0 -0.32232374013E+02  0.37018489461E+02 -0.13239922643E+03  0.14120499161E+03  0.00000000000E+00 0.  1.
        -11    1    5    5    0    0 -0.50626630738E+03  0.21722771258E+03 -0.10517797112E+04  0.11873222031E+04  0.00000000000E+00 0. -1.
          4    1    6    6  503    0  0.95726502159E+02 -0.79574355594E+02 -0.18390785589E+03  0.22207597966E+03  0.00000000000E+00 0.  1.
         -4    1    6    6    0  503  0.18667417026E+03 -0.10697332354E+03 -0.56451217401E+03  0.60412294477E+03  0.00000000000E+00 0. -1.
<mgrwt>
<rscale>  0 0.13081645E+04</rscale>
<asrwt>0</asrwt>
<pdfrwt beam="1">  1        2 0.35549111E+00 0.13081645E+04</pdfrwt>
<pdfrwt beam="2">  1       -2 0.28484545E-01 0.13081645E+04</pdfrwt>
<totfact> 0.49601370E+01</totfact>
</mgrwt>
</event>
<event>
12    2  0.3751044E-008  0.1933040E+04  0.7818608E-02  0.8638583E-01
         -1   -1    0    0    0  501 -0.00000000000E+00  0.00000000000E+00  0.34519677350E+03  0.34519677350E+03  0.00000000000E+00 0.  1.
          1   -1    0    0  501    0  0.00000000000E+00 -0.00000000000E+00 -0.27061684662E+04  0.27061684662E+04  0.00000000000E+00 0. -1.
         23    2    1    2    0    0 -0.44704131784E+03 -0.36445921118E+03 -0.16211235104E+03  0.60611843200E+03  0.91775175143E+02 0.  0.
        254    2    1    2    0    0  0.44704131784E+03  0.36445921118E+03 -0.21988593416E+04  0.24452468077E+04  0.90087351481E+03 0.  0.
         23    2    4    4    0    0  0.65015179102E+03  0.31710554192E+02 -0.15291407218E+04  0.16651401742E+04  0.10352556274E+03 0.  0.
         23    2    4    4    0    0 -0.20311047317E+03  0.33274865699E+03 -0.66971861984E+03  0.78010663346E+03  0.89820914956E+02 0.  0.
          3    1    3    3  502    0 -0.84587378904E+02 -0.51721517882E+02 -0.62309012829E+02  0.11710061128E+03  0.00000000000E+00 0. -1.
         -3    1    3    3    0  502 -0.36245393894E+03 -0.31273769330E+03 -0.99803338211E+02  0.48901782072E+03  0.00000000000E+00 0.  1.
         11    1    5    5    0    0  0.22511096572E+03  0.32687429155E+02 -0.64973509831E+03  0.68840330686E+03  0.00000000000E+00 0. -1.
        -11    1    5    5    0    0  0.42504082530E+03 -0.97687496272E+00 -0.87940562346E+03  0.97673686735E+03  0.00000000000E+00 0.  1.
          1    1    6    6  503    0 -0.76635324282E+02  0.11784753229E+03 -0.16219899695E+03  0.21463813362E+03  0.00000000000E+00 0. -1.
         -1    1    6    6    0  503 -0.12647514889E+03  0.21490112470E+03 -0.50751962289E+03  0.56546849984E+03  0.00000000000E+00 0.  1.
<mgrwt>
<rscale>  0 0.19330397E+04</rscale>
<asrwt>0</asrwt>
<pdfrwt beam="1">  1        1 0.41633362E+00 0.19330397E+04</pdfrwt>
<pdfrwt beam="2">  1       -1 0.53107194E-01 0.19330397E+04</pdfrwt>
<totfact> 0.32450179E+00</totfact>
</mgrwt>
</event>
<event>
12    2  0.3751044E-008  0.2279359E+04  0.7818608E-02  0.8486104E-01
         -2   -1    0    0    0  501 -0.00000000000E+00  0.00000000000E+00  0.76813296028E+03  0.76813296028E+03  0.00000000000E+00 0.  1.
          2   -1    0    0  501    0  0.00000000000E+00 -0.00000000000E+00 -0.16909438725E+04  0.16909438725E+04  0.00000000000E+00 0. -1.
         23    2    1    2    0    0 -0.64896398843E+03  0.42084969583E+03  0.22406572392E+03  0.81038021056E+03  0.90784978226E+02 0.  0.
        254    2    1    2    0    0  0.64896398843E+03 -0.42084969583E+03 -0.11468766362E+04  0.16486966222E+04  0.89699822121E+03 0.  0.
         23    2    4    4    0    0  0.59573168463E+03 -0.67136810178E+02 -0.11264820399E+04  0.12792163345E+04  0.89604982553E+02 0.  0.
         23    2    4    4    0    0  0.53232303799E+02 -0.35371288565E+03 -0.20394596290E+02  0.36948028776E+03  0.90295403204E+02 0.  0.
          3    1    3    3  502    0 -0.14109413806E+03  0.13828740482E+03  0.53154967845E+02  0.20458839834E+03  0.00000000000E+00 0. -1.
         -3    1    3    3    0  502 -0.50786985036E+03  0.28256229101E+03  0.17091075607E+03  0.60579181222E+03  0.00000000000E+00 0.  1.
         11    1    5    5    0    0  0.31064741708E+03 -0.25345991288E+01 -0.64572245689E+03  0.71656523309E+03  0.00000000000E+00 0. -1.
        -11    1    5    5    0    0  0.28508426754E+03 -0.64602211049E+02 -0.48075958298E+03  0.56265110140E+03  0.00000000000E+00 0.  1.
          1    1    6    6  503    0  0.11015490206E+00  0.56458668648E+01 -0.57398246785E+00  0.56760375818E+01  0.00000000000E+00 0. -1.
         -1    1    6    6    0  503  0.53122148897E+02 -0.35935875252E+03 -0.19820613822E+02  0.36380425018E+03  0.00000000000E+00 0.  1.
<mgrwt>
<rscale>  0 0.22793593E+04</rscale>
<asrwt>0</asrwt>
<pdfrwt beam="1">  1        2 0.26014521E+00 0.22793593E+04</pdfrwt>
<pdfrwt beam="2">  1       -2 0.11817430E+00 0.22793593E+04</pdfrwt>
<totfact> 0.49704086E+00</totfact>
</mgrwt>
</event>
<event>
12    2  0.3751044E-008  0.1519781E+04  0.7818608E-02  0.8871404E-01
         -2   -1    0    0    0  501 -0.00000000000E+00  0.00000000000E+00  0.48693561512E+03  0.48693561512E+03  0.00000000000E+00 0.  1.
          2   -1    0    0  501    0  0.00000000000E+00 -0.00000000000E+00 -0.11858516896E+04  0.11858516896E+04  0.00000000000E+00 0. -1.
         23    2    1    2    0    0 -0.28126246344E+03  0.33091253742E+03 -0.47303543620E+03  0.64888072140E+03  0.93123498319E+02 0.  0.
        254    2    1    2    0    0  0.28126246344E+03 -0.33091253742E+03 -0.22588063827E+03  0.10239065833E+04  0.89930581443E+03 0.  0.
         23    2    4    4    0    0  0.53573803430E+03 -0.41303728188E+03 -0.36250078903E+02  0.68358456824E+03  0.91426233107E+02 0.  0.
         23    2    4    4    0    0 -0.25447557086E+03  0.82124744459E+02 -0.18963055937E+03  0.34032201508E+03  0.91416820567E+02 0.  0.
          4    1    3    3  502    0 -0.28002045599E+03  0.30515844371E+03 -0.46300618569E+03  0.62121482558E+03  0.00000000000E+00 0. -1.
         -4    1    3    3    0  502 -0.12420074485E+01  0.25754093709E+02 -0.10029250512E+02  0.27665895813E+02  0.00000000000E+00 0.  1.
         11    1    5    5    0    0  0.23570108178E+02 -0.45768664357E+02 -0.12090013319E+02  0.52881840538E+02  0.00000000000E+00 0. -1.
        -11    1    5    5    0    0  0.51216792612E+03 -0.36726861752E+03 -0.24160065584E+02  0.63070272771E+03  0.00000000000E+00 0.  1.
          3    1    6    6  503    0 -0.11846023661E+02 -0.67125078028E+01  0.72994048138E+01  0.15448862360E+02  0.00000000000E+00 0. -1.
         -3    1    6    6    0  503 -0.24262954720E+03  0.88837252262E+02 -0.19692996418E+03  0.32487315272E+03  0.00000000000E+00 0.  1.
<mgrwt>
<rscale>  0 0.15197808E+04</rscale>
<asrwt>0</asrwt>
<pdfrwt beam="1">  1        2 0.18243872E+00 0.15197808E+04</pdfrwt>
<pdfrwt beam="2">  1       -2 0.74913172E-01 0.15197808E+04</pdfrwt>
<totfact> 0.29835049E+01</totfact>
</mgrwt>
</event>
<event>
12    2  0.3751044E-008  0.1448395E+04  0.7818608E-02  0.8919514E-01
         -2   -1    0    0    0  501 -0.00000000000E+00  0.00000000000E+00  0.75446944565E+03  0.75446944565E+03  0.00000000000E+00 0.  1.
          2   -1    0    0  501    0  0.00000000000E+00 -0.00000000000E+00 -0.69513970491E+03  0.69513970491E+03  0.00000000000E+00 0. -1.
         23    2    1    2    0    0 -0.36673691241E+03 -0.10805134900E+03  0.22602042226E+03  0.45351016333E+03  0.91734290274E+02 0.  0.
        254    2    1    2    0    0  0.36673691241E+03  0.10805134900E+03 -0.16669068153E+03  0.99609898723E+03  0.90457523297E+03 0.  0.
         23    2    4    4    0    0 -0.14939226417E+02  0.11623242859E+03 -0.47564842022E+03  0.49797331814E+03  0.89458638372E+02 0.  0.
         23    2    4    4    0    0  0.38167613883E+03 -0.81810795923E+01  0.30895773869E+03  0.49812566909E+03  0.83250783142E+02 0.  0.
          4    1    3    3  502    0 -0.35874957948E+03 -0.11242451092E+03  0.23276657589E+03  0.44217735162E+03  0.00000000000E+00 0. -1.
         -4    1    3    3    0  502 -0.79873329326E+01  0.43731619181E+01 -0.67461536222E+01  0.11332811709E+02  0.00000000000E+00 0.  1.
         11    1    5    5    0    0 -0.41048871082E+02  0.11379233237E+03 -0.37957746407E+03  0.39838769554E+03  0.00000000000E+00 0.  1.
        -11    1    5    5    0    0  0.26109644666E+02  0.24400962203E+01 -0.96070956149E+02  0.99585622605E+02  0.00000000000E+00 0. -1.
          2    1    6    6  503    0  0.93797136647E+02  0.17698791348E+02  0.11768626355E+03  0.15152955714E+03  0.00000000000E+00 0. -1.
         -2    1    6    6    0  503  0.28787900218E+03 -0.25879870940E+02  0.19127147515E+03  0.34659611196E+03  0.00000000000E+00 0.  1.
<mgrwt>
<rscale>  0 0.14483945E+04</rscale>
<asrwt>0</asrwt>
<pdfrwt beam="1">  1        2 0.10694457E+00 0.14483945E+04</pdfrwt>
<pdfrwt beam="2">  1       -2 0.11607222E+00 0.14483945E+04</pdfrwt>
<totfact> 0.23108095E+01</totfact>
</mgrwt>
</event>
<event>
12    2  0.3751044E-008  0.2580515E+04  0.7818608E-02  0.8374850E-01
          2   -1    0    0  501    0  0.00000000000E+00  0.00000000000E+00  0.15672243892E+04  0.15672243892E+04  0.00000000000E+00 0. -1.
         -2   -1    0    0    0  501 -0.00000000000E+00 -0.00000000000E+00 -0.10622376332E+04  0.10622376332E+04  0.00000000000E+00 0.  1.
         23    2    1    2    0    0 -0.42493434470E+03  0.39500829404E+03  0.12150897598E+04  0.13493269113E+04  0.87402743039E+02 0.  0.
        254    2    1    2    0    0  0.42493434470E+03 -0.39500829404E+03 -0.71010300390E+03  0.12801351111E+04  0.89325185523E+03 0.  0.
         23    2    4    4    0    0  0.15842483117E+03 -0.56087641187E+03 -0.11488060274E+03  0.60100643401E+03  0.91271048562E+02 0.  0.
         23    2    4    4    0    0  0.26650951353E+03  0.16586811783E+03 -0.59522240116E+03  0.67912867710E+03  0.91577835221E+02 0.  0.
          3    1    3    3  502    0 -0.38141268537E+03  0.38523265437E+03  0.11209754312E+04  0.12451769962E+04  0.00000000000E+00 0. -1.
         -3    1    3    3    0  502 -0.43521659334E+02  0.97756396779E+01  0.94114328645E+02  0.10414991512E+03  0.00000000000E+00 0.  1.
         11    1    5    5    0    0  0.13693024803E+03 -0.51281568872E+03 -0.12952851929E+03  0.54635836292E+03  0.00000000000E+00 0.  1.
        -11    1    5    5    0    0  0.21494583138E+02 -0.48060723155E+02  0.14647916551E+02  0.54648071089E+02  0.00000000000E+00 0. -1.
          4    1    6    6  503    0  0.20811016760E+03  0.12885906218E+03 -0.53127542877E+03  0.58495134924E+03  0.00000000000E+00 0.  1.
         -4    1    6    6    0  503  0.58399345930E+02  0.37009055648E+02 -0.63946972393E+02  0.94177327862E+02  0.00000000000E+00 0. -1.
<mgrwt>
<rscale>  0 0.25805152E+04</rscale>
<asrwt>0</asrwt>
<pdfrwt beam="1">  1        2 0.24111144E+00 0.25805152E+04</pdfrwt>
<pdfrwt beam="2">  1       -2 0.16342117E+00 0.25805152E+04</pdfrwt>
<totfact> 0.24507416E+00</totfact>
</mgrwt>
</event>
<event>
12    2  0.3751044E-008  0.1847868E+04  0.7818608E-02  0.8681250E-01
         -2   -1    0    0    0  501 -0.00000000000E+00  0.00000000000E+00  0.42016258660E+03  0.42016258660E+03  0.00000000000E+00 0.  1.
          2   -1    0    0  501    0  0.00000000000E+00 -0.00000000000E+00 -0.20317230256E+04  0.20317230256E+04  0.00000000000E+00 0. -1.
         23    2    1    2    0    0  0.49782366682E+03  0.27905307197E+03 -0.11611184033E+04  0.12970990693E+04  0.92579850648E+02 0.  0.
        254    2    1    2    0    0 -0.49782366682E+03 -0.27905307197E+03 -0.45044203570E+03  0.11547865430E+04  0.89718164941E+03 0.  0.
         23    2    4    4    0    0 -0.96115222094E+02 -0.16472297394E+02  0.26067380964E+03  0.29255702596E+03  0.90162663593E+02 0.  0.
         23    2    4    4    0    0 -0.40170844473E+03 -0.26258077457E+03 -0.71111584534E+03  0.86222951700E+03  0.86230254264E+02 0.  0.
          1    1    3    3  502    0  0.29726540489E+03  0.12828898765E+03 -0.58270462803E+03  0.66661043258E+03  0.00000000000E+00 0. -1.
         -1    1    3    3    0  502  0.20055826194E+03  0.15076408431E+03 -0.57841377529E+03  0.63048863669E+03  0.00000000000E+00 0.  1.
         11    1    5    5    0    0 -0.74047679958E+01  0.22541904275E+02  0.14047245395E+02  0.27573413655E+02  0.00000000000E+00 0. -1.
        -11    1    5    5    0    0 -0.88710454098E+02 -0.39014201669E+02  0.24662656424E+03  0.26498361230E+03  0.00000000000E+00 0.  1.
          2    1    6    6  503    0 -0.11556091259E+03 -0.11722576090E+03 -0.27936174280E+03  0.32425173381E+03  0.00000000000E+00 0. -1.
         -2    1    6    6    0  503 -0.28614753213E+03 -0.14535501367E+03 -0.43175410254E+03  0.53797778319E+03  0.00000000000E+00 0.  1.
<mgrwt>
<rscale>  0 0.18478680E+04</rscale>
<asrwt>0</asrwt>
<pdfrwt beam="1">  1        2 0.31257277E+00 0.18478680E+04</pdfrwt>
<pdfrwt beam="2">  1       -2 0.64640398E-01 0.18478680E+04</pdfrwt>
<totfact> 0.13328734E+01</totfact>
</mgrwt>
</event>
<event>
12    2  0.3751044E-008  0.1275345E+04  0.7818608E-02  0.9049348E-01
          1   -1    0    0  501    0  0.00000000000E+00  0.00000000000E+00  0.12572983922E+04  0.12572983922E+04  0.00000000000E+00 0. -1.
         -1   -1    0    0    0  501 -0.00000000000E+00 -0.00000000000E+00 -0.32341276600E+03  0.32341276600E+03  0.00000000000E+00 0.  1.
         23    2    1    2    0    0 -0.15331112070E+03  0.41691926409E+02  0.56016264834E+03  0.58991466604E+03  0.94734387385E+02 0.  0.
        254    2    1    2    0    0  0.15331112070E+03 -0.41691926409E+02  0.37372297782E+03  0.99079649212E+03  0.90375124243E+03 0.  0.
         23    2    4    4    0    0  0.25405197959E+03  0.29476123851E+03 -0.82464520522E+02  0.40779197601E+03  0.89818163481E+02 0.  0.
         23    2    4    4    0    0 -0.10074085889E+03 -0.33645316492E+03  0.45618749834E+03  0.58300451611E+03  0.91857385869E+02 0.  0.
          1    1    3    3  502    0 -0.12632978168E+03  0.70789357202E+02  0.45641285763E+03  0.47883509002E+03  0.00000000000E+00 0. -1.
         -1    1    3    3    0  502 -0.26981339017E+02 -0.29097430793E+02  0.10374979072E+03  0.11107957601E+03  0.00000000000E+00 0.  1.
         11    1    5    5    0    0  0.61975580499E+02  0.45914203385E+02 -0.49652976418E+02  0.91730609493E+02  0.00000000000E+00 0.  1.
        -11    1    5    5    0    0  0.19207639909E+03  0.24884703512E+03 -0.32811544103E+02  0.31606136652E+03  0.00000000000E+00 0. -1.
          3    1    6    6  503    0 -0.25139889285E+02 -0.23577538621E+03  0.29586563115E+03  0.37915500587E+03  0.00000000000E+00 0. -1.
         -3    1    6    6    0  503 -0.75600969610E+02 -0.10067777870E+03  0.16032186718E+03  0.20384951024E+03  0.00000000000E+00 0.  1.
<mgrwt>
<rscale>  0 0.12753452E+04</rscale>
<asrwt>0</asrwt>
<pdfrwt beam="1">  1        1 0.19343052E+00 0.12753452E+04</pdfrwt>
<pdfrwt beam="2">  1       -1 0.49755811E-01 0.12753452E+04</pdfrwt>
<totfact> 0.38706884E+01</totfact>
</mgrwt>
</event>
<event>
12    2  0.3751044E-008  0.2754365E+04  0.7818608E-02  0.8317578E-01
         -2   -1    0    0    0  501 -0.00000000000E+00  0.00000000000E+00  0.20171299013E+04  0.20171299013E+04  0.00000000000E+00 0.  1.
          2   -1    0    0  501    0  0.00000000000E+00 -0.00000000000E+00 -0.94026279210E+03  0.94026279210E+03  0.00000000000E+00 0. -1.
         23    2    1    2    0    0  0.17028024621E+03 -0.10335510230E+04  0.11467778742E+04  0.15558893599E+04  0.92027867385E+02 0.  0.
        254    2    1    2    0    0 -0.17028024621E+03  0.10335510230E+04 -0.69910764944E+02  0.14015033335E+04  0.92849394150E+03 0.  0.
         23    2    4    4    0    0 -0.37972688522E+03  0.55657080136E+03  0.31227003632E+03  0.74843823191E+03  0.93186088675E+02 0.  0.
         23    2    4    4    0    0  0.20944663900E+03  0.47698022160E+03 -0.38218080127E+03  0.65306510157E+03  0.95151645522E+02 0.  0.
          4    1    3    3  502    0  0.91749372393E+02 -0.35305014750E+03  0.44147223408E+03  0.57267799631E+03  0.00000000000E+00 0. -1.
         -4    1    3    3    0  502  0.78530873818E+02 -0.68050087545E+03  0.70530564009E+03  0.98321136363E+03  0.00000000000E+00 0.  1.
         11    1    5    5    0    0 -0.21601560470E+03  0.37111142542E+03  0.23371620782E+03  0.48888618036E+03  0.00000000000E+00 0.  1.
        -11    1    5    5    0    0 -0.16371128052E+03  0.18545937594E+03  0.78553828507E+02  0.25955205155E+03  0.00000000000E+00 0. -1.
          2    1    6    6  503    0  0.18656504042E+03  0.34879366541E+03 -0.31990446430E+03  0.50872625411E+03  0.00000000000E+00 0.  1.
         -2    1    6    6    0  503  0.22881598580E+02  0.12818655619E+03 -0.62276336970E+02  0.14433884747E+03  0.00000000000E+00 0. -1.
<mgrwt>
<rscale>  0 0.27543654E+04</rscale>
<asrwt>0</asrwt>
<pdfrwt beam="1">  1        2 0.14465581E+00 0.27543654E+04</pdfrwt>
<pdfrwt beam="2">  1       -2 0.31032768E+00 0.27543654E+04</pdfrwt>
<totfact> 0.66107484E-01</totfact>
</mgrwt>
</event>
<event>
12    2  0.3751044E-008  0.1654517E+04  0.7818608E-02  0.8787738E-01
         -2   -1    0    0    0  501 -0.00000000000E+00  0.00000000000E+00  0.96523549049E+03  0.96523549049E+03  0.00000000000E+00 0.  1.
          2   -1    0    0  501    0  0.00000000000E+00 -0.00000000000E+00 -0.70900520721E+03  0.70900520721E+03  0.00000000000E+00 0. -1.
         23    2    1    2    0    0 -0.53171285127E+03 -0.16778133641E+02 -0.12544248251E+03  0.55415025436E+03  0.91359870919E+02 0.  0.
        254    2    1    2    0    0  0.53171285127E+03  0.16778133641E+02  0.38167276580E+03  0.11200904433E+04  0.90880605144E+03 0.  0.
         23    2    4    4    0    0 -0.63700654634E+02 -0.13815191917E+03 -0.20061002609E+03  0.26763674094E+03  0.90781696184E+02 0.  0.
         23    2    4    4    0    0  0.59541350590E+03  0.15493005281E+03  0.58228279188E+03  0.85245370240E+03  0.95412267256E+02 0.  0.
          1    1    3    3  502    0 -0.53498599870E+03 -0.18357712892E+02 -0.12705740469E+03  0.55017325318E+03  0.00000000000E+00 0. -1.
         -1    1    3    3    0  502  0.32731474330E+01  0.15795792509E+01  0.16149221776E+01  0.39770011777E+01  0.00000000000E+00 0.  1.
         11    1    5    5    0    0 -0.77206199915E+02 -0.14224942663E+03 -0.17482904257E+03  0.23824544237E+03  0.00000000000E+00 0.  1.
        -11    1    5    5    0    0  0.13505545281E+02  0.40975074600E+01 -0.25780983511E+02  0.29391298568E+02  0.00000000000E+00 0. -1.
          2    1    6    6  503    0  0.38505436720E+03  0.61330957905E+02  0.40197688748E+03  0.56001229465E+03  0.00000000000E+00 0. -1.
         -2    1    6    6    0  503  0.21035913871E+03  0.93599094907E+02  0.18030590440E+03  0.29244140775E+03  0.00000000000E+00 0.  1.
<mgrwt>
<rscale>  0 0.16545174E+04</rscale>
<asrwt>0</asrwt>
<pdfrwt beam="1">  1        2 0.10907772E+00 0.16545174E+04</pdfrwt>
<pdfrwt beam="2">  1       -2 0.14849777E+00 0.16545174E+04</pdfrwt>
<totfact> 0.11839418E+01</totfact>
</mgrwt>
</event>
<event>
12    2  0.3751044E-008  0.1848986E+04  0.7818608E-02  0.8680675E-01
          2   -1    0    0  501    0  0.00000000000E+00  0.00000000000E+00  0.12351581821E+04  0.12351581821E+04  0.00000000000E+00 0. -1.
         -2   -1    0    0    0  501 -0.00000000000E+00 -0.00000000000E+00 -0.69196555591E+03  0.69196555591E+03  0.00000000000E+00 0.  1.
         23    2    1    2    0    0 -0.44320944521E+03 -0.11016931943E+03 -0.34686279840E+03  0.58071096569E+03  0.91321046256E+02 0.  0.
        254    2    1    2    0    0  0.44320944521E+03  0.11016931943E+03  0.89005542457E+03  0.13464127723E+04  0.90114194406E+03 0.  0.
         23    2    4    4    0    0  0.36290896774E+03  0.28809689537E+03  0.43947811350E+02  0.47350164747E+03  0.87003793303E+02 0.  0.
         23    2    4    4    0    0  0.80300477470E+02 -0.17792757593E+03  0.84610761322E+03  0.87291112483E+03  0.89271214514E+02 0.  0.
          3    1    3    3  502    0 -0.28948798635E+03 -0.11064789497E+03 -0.25729064767E+03  0.40279613737E+03  0.00000000000E+00 0.  1.
         -3    1    3    3    0  502 -0.15372145886E+03  0.47857553862E+00 -0.89572150728E+02  0.17791482832E+03  0.00000000000E+00 0. -1.
         11    1    5    5    0    0  0.27081872358E+03  0.23592559937E+03  0.66522723284E+02  0.36527926603E+03  0.00000000000E+00 0. -1.
        -11    1    5    5    0    0  0.92090244160E+02  0.52171295995E+02 -0.22574911934E+02  0.10822238144E+03  0.00000000000E+00 0.  1.
          1    1    6    6  503    0  0.10520645969E+02 -0.12262135936E+03  0.42321751474E+03  0.44074907435E+03  0.00000000000E+00 0. -1.
         -1    1    6    6    0  503  0.69779831501E+02 -0.55306216573E+02  0.42289009848E+03  0.43216205047E+03  0.00000000000E+00 0.  1.
<mgrwt>
<rscale>  0 0.18489856E+04</rscale>
<asrwt>0</asrwt>
<pdfrwt beam="1">  1        2 0.19002434E+00 0.18489856E+04</pdfrwt>
<pdfrwt beam="2">  1       -2 0.10645624E+00 0.18489856E+04</pdfrwt>
<totfact> 0.12072064E+01</totfact>
</mgrwt>
</event>
<event>
12    2  0.3751044E-008  0.1122137E+04  0.7818608E-02  0.9183880E-01
         -2   -1    0    0    0  501 -0.00000000000E+00  0.00000000000E+00  0.15234193183E+03  0.15234193183E+03  0.00000000000E+00 0.  1.
          2   -1    0    0  501    0  0.00000000000E+00 -0.00000000000E+00 -0.20663898478E+04  0.20663898478E+04  0.00000000000E+00 0. -1.
         23    2    1    2    0    0 -0.34091472699E+02 -0.15023066818E+03 -0.15123446867E+03  0.23433648110E+03  0.91160516068E+02 0.  0.
        254    2    1    2    0    0  0.34091472699E+02  0.15023066818E+03 -0.17628134473E+04  0.19843952986E+04  0.89809908621E+03 0.  0.
         23    2    4    4    0    0  0.42722716603E+03  0.81777720669E+02 -0.56866825228E+03  0.72204915554E+03  0.93598904224E+02 0.  0.
         23    2    4    4    0    0 -0.39313569334E+03  0.68452947511E+02 -0.11941451951E+04  0.12623461430E+04  0.91068976644E+02 0.  0.
          4    1    3    3  502    0 -0.47161687138E+02 -0.14588390436E+03 -0.10432236765E+03  0.18544404730E+03  0.00000000000E+00 0. -1.
         -4    1    3    3    0  502  0.13070214440E+02 -0.43467638152E+01 -0.46912101023E+02  0.48892433807E+02  0.00000000000E+00 0.  1.
         11    1    5    5    0    0  0.32284812738E+03  0.31779617866E+02 -0.36955934816E+03  0.49174685487E+03  0.00000000000E+00 0. -1.
        -11    1    5    5    0    0  0.10437903866E+03  0.49998102803E+02 -0.19910890412E+03  0.23030230067E+03  0.00000000000E+00 0.  1.
          4    1    6    6  503    0 -0.31209766483E+03  0.27938506937E+02 -0.10031813687E+04  0.10509797196E+04  0.00000000000E+00 0. -1.
         -4    1    6    6    0  503 -0.81038028506E+02  0.40514440573E+02 -0.19096382640E+03  0.21136642343E+03  0.00000000000E+00 0.  1.
<mgrwt>
<rscale>  0 0.11221369E+04</rscale>
<asrwt>0</asrwt>
<pdfrwt beam="1">  1        2 0.31790613E+00 0.11221369E+04</pdfrwt>
<pdfrwt beam="2">  1       -2 0.23437220E-01 0.11221369E+04</pdfrwt>
<totfact> 0.98330204E+01</totfact>
</mgrwt>
</event>
<event>
12    2  0.3751044E-008  0.1389151E+04  0.7818608E-02  0.8961710E-01
         -2   -1    0    0    0  501 -0.00000000000E+00  0.00000000000E+00  0.37157423830E+03  0.37157423830E+03  0.00000000000E+00 0.  1.
          2   -1    0    0  501    0  0.00000000000E+00 -0.00000000000E+00 -0.12983539159E+04  0.12983539159E+04  0.00000000000E+00 0. -1.
         23    2    1    2    0    0 -0.53173377409E+02 -0.24922867382E+03  0.98442748860E+02  0.28744012784E+03  0.89378478236E+02 0.  0.
        254    2    1    2    0    0  0.53173377409E+02  0.24922867382E+03 -0.10252224265E+04  0.13824880264E+04  0.89176778334E+03 0.  0.
         23    2    4    4    0    0  0.38273407235E+03  0.15907727416E+03 -0.92093786224E+03  0.10141797778E+04  0.92968415238E+02 0.  0.
         23    2    4    4    0    0 -0.32956069494E+03  0.90151399659E+02 -0.10428456423E+03  0.36830824861E+03  0.89655837232E+02 0.  0.
          1    1    3    3  502    0  0.46432396636E+01 -0.15893913697E+03  0.34838629755E+02  0.16277880409E+03  0.00000000000E+00 0. -1.
         -1    1    3    3    0  502 -0.57816617072E+02 -0.90289536847E+02  0.63604119105E+02  0.12466132376E+03  0.00000000000E+00 0.  1.
         11    1    5    5    0    0  0.23052811939E+03  0.12351058922E+03 -0.48423520959E+03  0.55034699753E+03  0.00000000000E+00 0. -1.
        -11    1    5    5    0    0  0.15220595295E+03  0.35566684939E+02 -0.43670265265E+03  0.46383278023E+03  0.00000000000E+00 0.  1.
          1    1    6    6  503    0 -0.17926285638E+03  0.51096665218E+02 -0.10309788645E+03  0.21301458886E+03  0.00000000000E+00 0. -1.
         -1    1    6    6    0  503 -0.15029783855E+03  0.39054734442E+02 -0.11866777851E+01  0.15529365975E+03  0.00000000000E+00 0.  1.
<mgrwt>
<rscale>  0 0.13891506E+04</rscale>
<asrwt>0</asrwt>
<pdfrwt beam="1">  1        2 0.19974676E+00 0.13891506E+04</pdfrwt>
<pdfrwt beam="2">  1       -2 0.57165267E-01 0.13891506E+04</pdfrwt>
<totfact> 0.46279445E+01</totfact>
</mgrwt>
</event>
<event>
12    2  0.3751044E-008  0.2669952E+04  0.7818608E-02  0.8344821E-01
         -1   -1    0    0    0  501 -0.00000000000E+00  0.00000000000E+00  0.89699806224E+03  0.89699806224E+03  0.00000000000E+00 0.  1.
          1   -1    0    0  501    0  0.00000000000E+00 -0.00000000000E+00 -0.19868059433E+04  0.19868059433E+04  0.00000000000E+00 0. -1.
         23    2    1    2    0    0 -0.67876856705E+03 -0.93324430071E+03 -0.75727286436E+03  0.13834673025E+04  0.94063241973E+02 0.  0.
        254    2    1    2    0    0  0.67876856705E+03  0.93324430071E+03 -0.33253501669E+03  0.15003367031E+04  0.89931028728E+03 0.  0.
         23    2    4    4    0    0  0.41698503404E+03  0.38702644879E+03  0.27431396156E+03  0.63798739261E+03  0.90076483842E+02 0.  0.
         23    2    4    4    0    0  0.26178353301E+03  0.54621785191E+03 -0.60684897825E+03  0.86234931045E+03  0.92174242198E+02 0.  0.
          2    1    3    3  502    0 -0.14904165532E+03 -0.17435924575E+03 -0.19098544234E+03  0.29847948135E+03  0.00000000000E+00 0. -1.
         -2    1    3    3    0  502 -0.52972691173E+03 -0.75888505495E+03 -0.56628742201E+03  0.10849878211E+04  0.00000000000E+00 0.  1.
         11    1    5    5    0    0  0.40239230730E+03  0.34013792192E+03  0.25010209294E+03  0.58323617154E+03  0.00000000000E+00 0. -1.
        -11    1    5    5    0    0  0.14592726737E+02  0.46888526871E+02  0.24211868623E+02  0.54751221064E+02  0.00000000000E+00 0.  1.
          2    1    6    6  503    0  0.22591161829E+03  0.46310694377E+03 -0.55788318553E+03  0.75943251797E+03  0.00000000000E+00 0. -1.
         -2    1    6    6    0  503  0.35871914719E+02  0.83110908145E+02 -0.48965792715E+02  0.10291679248E+03  0.00000000000E+00 0.  1.
<mgrwt>
<rscale>  0 0.26699521E+04</rscale>
<asrwt>0</asrwt>
<pdfrwt beam="1">  1        1 0.30566245E+00 0.26699521E+04</pdfrwt>
<pdfrwt beam="2">  1       -1 0.13799970E+00 0.26699521E+04</pdfrwt>
<totfact> 0.11588544E+00</totfact>
</mgrwt>
</event>
<event>
12    2  0.3751044E-008  0.1724057E+04  0.7818608E-02  0.8747761E-01
          2   -1    0    0  501    0  0.00000000000E+00  0.00000000000E+00  0.93991187818E+03  0.93991187818E+03  0.00000000000E+00 0. -1.
         -2   -1    0    0    0  501 -0.00000000000E+00 -0.00000000000E+00 -0.79059876347E+03  0.79059876347E+03  0.00000000000E+00 0.  1.
         23    2    1    2    0    0  0.39940218146E+03  0.38805796619E+03 -0.23457454071E+03  0.61094348071E+03  0.90086812556E+02 0.  0.
        254    2    1    2    0    0 -0.39940218146E+03 -0.38805796619E+03  0.38388765542E+03  0.11195671609E+04  0.89216019199E+03 0.  0.
         23    2    4    4    0    0 -0.63821218334E+03 -0.80862919315E+02  0.18806022056E+03  0.67636877732E+03  0.90854134155E+02 0.  0.
         23    2    4    4    0    0  0.23881000188E+03 -0.30719504688E+03  0.19582743486E+03  0.44319838361E+03  0.81715415710E+02 0.  0.
          3    1    3    3  502    0  0.26010677515E+02  0.59789840264E+02 -0.12332782536E+02  0.66358706051E+02  0.00000000000E+00 0. -1.
         -3    1    3    3    0  502  0.37339150394E+03  0.32826812593E+03 -0.22224175818E+03  0.54458477466E+03  0.00000000000E+00 0.  1.
         11    1    5    5    0    0 -0.43149249875E+03 -0.46996620531E+02  0.16988402584E+03  0.46610625512E+03  0.00000000000E+00 0.  1.
        -11    1    5    5    0    0 -0.20671968459E+03 -0.33866298784E+02  0.18176194712E+02  0.21026252220E+03  0.00000000000E+00 0. -1.
          3    1    6    6  503    0  0.11505411955E+03 -0.13606951363E+03  0.45308728809E+02  0.18386202401E+03  0.00000000000E+00 0. -1.
         -3    1    6    6    0  503  0.12375588233E+03 -0.17112553325E+03  0.15051870605E+03  0.25933635960E+03  0.00000000000E+00 0.  1.
<mgrwt>
<rscale>  0 0.17240570E+04</rscale>
<asrwt>0</asrwt>
<pdfrwt beam="1">  1        2 0.14460183E+00 0.17240570E+04</pdfrwt>
<pdfrwt beam="2">  1       -2 0.12163058E+00 0.17240570E+04</pdfrwt>
<totfact> 0.13444574E+01</totfact>
</mgrwt>
</event>
<event>
12    2  0.3751044E-008  0.1774241E+04  0.7818608E-02  0.8720119E-01
          2   -1    0    0  501    0  0.00000000000E+00  0.00000000000E+00  0.13109623536E+04  0.13109623536E+04  0.00000000000E+00 0.  1.
         -2   -1    0    0    0  501 -0.00000000000E+00 -0.00000000000E+00 -0.60030933922E+03  0.60030933922E+03  0.00000000000E+00 0. -1.
         23    2    1    2    0    0 -0.57351535721E+03 -0.23251385007E+03  0.49836812831E+03  0.79963034295E+03  0.89751538302E+02 0.  0.
        254    2    1    2    0    0  0.57351535721E+03  0.23251385007E+03  0.21228488610E+03  0.11116413499E+04  0.89872079229E+03 0.  0.
         23    2    4    4    0    0 -0.39216778681E+02 -0.19307516444E+03  0.28306069402E+03  0.35668622904E+03  0.91026010738E+02 0.  0.
         23    2    4    4    0    0  0.61273213589E+03  0.42558901452E+03 -0.70775807922E+02  0.75495512085E+03  0.91549658027E+02 0.  0.
          1    1    3    3  502    0 -0.52068251936E+03 -0.19208128806E+03  0.41508910648E+03  0.69304002302E+03  0.00000000000E+00 0.  1.
         -1    1    3    3    0  502 -0.52832837844E+02 -0.40432562016E+02  0.83279021835E+02  0.10659031993E+03  0.00000000000E+00 0. -1.
         11    1    5    5    0    0 -0.25495491764E+02 -0.11004525272E+03  0.84625827370E+02  0.14114357373E+03  0.00000000000E+00 0.  1.
        -11    1    5    5    0    0 -0.13721286918E+02 -0.83029911723E+02  0.19843486665E+03  0.21554265531E+03  0.00000000000E+00 0. -1.
          3    1    6    6  503    0  0.60455087155E+03  0.42022556132E+03 -0.81128951070E+02  0.74071126992E+03  0.00000000000E+00 0. -1.
         -3    1    6    6    0  503  0.81812643345E+01  0.53634531931E+01  0.10353143149E+02  0.14243850930E+02  0.00000000000E+00 0.  1.
<mgrwt>
<rscale>  0 0.17742412E+04</rscale>
<asrwt>0</asrwt>
<pdfrwt beam="1">  1        2 0.20168652E+00 0.17742412E+04</pdfrwt>
<pdfrwt beam="2">  1       -2 0.92355283E-01 0.17742412E+04</pdfrwt>
<totfact> 0.15341628E+01</totfact>
</mgrwt>
</event>
<event>
12    2  0.3751044E-008  0.1707880E+04  0.7818608E-02  0.8756883E-01
          2   -1    0    0  501    0  0.00000000000E+00  0.00000000000E+00  0.19900605526E+04  0.19900605526E+04  0.00000000000E+00 0. -1.
         -2   -1    0    0    0  501 -0.00000000000E+00 -0.00000000000E+00 -0.36642764249E+03  0.36642764249E+03  0.00000000000E+00 0.  1.
         23    2    1    2    0    0 -0.14762812925E+03 -0.42784350505E+03  0.19871388447E+02  0.46295481837E+03  0.95331854166E+02 0.  0.
        254    2    1    2    0    0  0.14762812925E+03  0.42784350505E+03  0.16037615216E+04  0.18935333767E+04  0.89920715132E+03 0.  0.
         23    2    4    4    0    0 -0.18164331011E+03  0.40741896024E+03  0.14504695143E+04  0.15202510566E+04  0.91197378552E+02 0.  0.
         23    2    4    4    0    0  0.32927143936E+03  0.20424544810E+02  0.15329200733E+03  0.37328232010E+03  0.83692342411E+02 0.  0.
          4    1    3    3  502    0 -0.57471263931E+02 -0.85852073522E+02  0.34655746769E+02  0.10897038813E+03  0.00000000000E+00 0. -1.
         -4    1    3    3    0  502 -0.90156865320E+02 -0.34199143153E+03 -0.14784358322E+02  0.35398443024E+03  0.00000000000E+00 0.  1.
         11    1    5    5    0    0 -0.38419685567E+02  0.12450469745E+03  0.30424140426E+03  0.33096876588E+03  0.00000000000E+00 0. -1.
        -11    1    5    5    0    0 -0.14322362454E+03  0.28291426279E+03  0.11462281100E+04  0.11892822907E+04  0.00000000000E+00 0.  1.
          1    1    6    6  503    0  0.22189017541E+03 -0.25333910318E+02  0.93210102349E+02  0.24200243829E+03  0.00000000000E+00 0. -1.
         -1    1    6    6    0  503  0.10738126395E+03  0.45758455128E+02  0.60081904979E+02  0.13127988181E+03  0.00000000000E+00 0.  1.
<mgrwt>
<rscale>  0 0.17078796E+04</rscale>
<asrwt>0</asrwt>
<pdfrwt beam="1">  1        2 0.30616316E+00 0.17078796E+04</pdfrwt>
<pdfrwt beam="2">  1       -2 0.56373485E-01 0.17078796E+04</pdfrwt>
<totfact> 0.19004207E+01</totfact>
</mgrwt>
</event>
<event>
12    2  0.3800490E-008  0.2493537E+04  0.7818608E-02  0.8405292E-01
          1   -1    0    0  501    0  0.00000000000E+00  0.00000000000E+00  0.29692234112E+04  0.29692234112E+04  0.00000000000E+00 0. -1.
         -1   -1    0    0    0  501 -0.00000000000E+00 -0.00000000000E+00 -0.52351454497E+03  0.52351454497E+03  0.00000000000E+00 0.  1.
         23    2    1    2    0    0 -0.48821285653E+03 -0.10512600372E+03  0.24099256805E+04  0.24627811992E+04  0.90256187853E+02 0.  0.
        254    2    1    2    0    0  0.48821285653E+03  0.10512600372E+03  0.35783185752E+02  0.10299567570E+04  0.90007067225E+03 0.  0.
         23    2    4    4    0    0  0.59751859536E+03 -0.27408306674E+02 -0.27369972051E+03  0.66426018882E+03  0.92468234348E+02 0.  0.
         23    2    4    4    0    0 -0.10930573883E+03  0.13253431039E+03  0.30948290626E+03  0.36569656822E+03  0.91876127289E+02 0.  0.
          3    1    3    3  502    0 -0.43680720825E+03 -0.75470529516E+02  0.19965376088E+04  0.20451549480E+04  0.00000000000E+00 0. -1.
         -3    1    3    3    0  502 -0.51405648281E+02 -0.29655474202E+02  0.41338807171E+03  0.41762625116E+03  0.00000000000E+00 0.  1.
         11    1    5    5    0    0  0.25529753845E+03  0.13953267172E+01 -0.16523755836E+03  0.30410891267E+03  0.00000000000E+00 0.  1.
        -11    1    5    5    0    0  0.34222105691E+03 -0.28803633391E+02 -0.10846216215E+03  0.36015127614E+03  0.00000000000E+00 0. -1.
          1    1    6    6  503    0 -0.81969174466E+02  0.86176684473E+02  0.12093765197E+03  0.16962099567E+03  0.00000000000E+00 0.  1.
         -1    1    6    6    0  503 -0.27336564362E+02  0.46357625918E+02  0.18854525429E+03  0.19607557254E+03  0.00000000000E+00 0. -1.
<mgrwt>
<rscale>  0 0.24935370E+04</rscale>
<asrwt>0</asrwt>
<pdfrwt beam="1">  1        1 0.45680359E+00 0.24935370E+04</pdfrwt>
<pdfrwt beam="2">  1       -1 0.80540701E-01 0.24935370E+04</pdfrwt>
<totfact> 0.86027128E-01</totfact>
</mgrwt>
</event>
<event>
12    2  0.3751044E-008  0.1330402E+04  0.7818608E-02  0.9005797E-01
          1   -1    0    0  501    0  0.00000000000E+00  0.00000000000E+00  0.14228216091E+04  0.14228216091E+04  0.00000000000E+00 0. -1.
         -1   -1    0    0    0  501 -0.00000000000E+00 -0.00000000000E+00 -0.31099654641E+03  0.31099654641E+03  0.00000000000E+00 0.  1.
         23    2    1    2    0    0  0.28134172735E+03  0.80604423464E+02  0.36159808276E+02  0.30909659013E+03  0.92644102161E+02 0.  0.
        254    2    1    2    0    0 -0.28134172735E+03 -0.80604423464E+02  0.10756652544E+04  0.14247215654E+04  0.88720096859E+03 0.  0.
         23    2    4    4    0    0 -0.39986124389E+03 -0.28049837549E+03  0.10642861056E+04  0.11747058919E+04  0.93062693393E+02 0.  0.
         23    2    4    4    0    0  0.11851951654E+03  0.19989395203E+03  0.11379148785E+02  0.25001567344E+03  0.91508928954E+02 0.  0.
          3    1    3    3  502    0  0.92961865730E+02  0.59823977917E+02  0.45028626584E+02  0.11936663699E+03  0.00000000000E+00 0. -1.
         -3    1    3    3    0  502  0.18837986162E+03  0.20780445547E+02 -0.88688183078E+01  0.18972995314E+03  0.00000000000E+00 0.  1.
         11    1    5    5    0    0 -0.19775002010E+03 -0.83373526505E+02  0.47956948590E+03  0.52539804642E+03  0.00000000000E+00 0. -1.
        -11    1    5    5    0    0 -0.20211122379E+03 -0.19712484899E+03  0.58471661973E+03  0.64930784552E+03  0.00000000000E+00 0.  1.
          1    1    6    6  503    0  0.96652719196E+02  0.82005465343E+02 -0.13792802271E+02  0.12750249358E+03  0.00000000000E+00 0. -1.
         -1    1    6    6    0  503  0.21866797344E+02  0.11788848669E+03  0.25171951056E+02  0.12251317986E+03  0.00000000000E+00 0.  1.
<mgrwt>
<rscale>  0 0.13304024E+04</rscale>
<asrwt>0</asrwt>
<pdfrwt beam="1">  1        1 0.21889563E+00 0.13304024E+04</pdfrwt>
<pdfrwt beam="2">  1       -1 0.47845623E-01 0.13304024E+04</pdfrwt>
<totfact> 0.31671631E+01</totfact>
</mgrwt>
</event>
<event>
12    2  0.3751044E-008  0.1819721E+04  0.7818608E-02  0.8695882E-01
          2   -1    0    0  501    0  0.00000000000E+00  0.00000000000E+00  0.23718159434E+04  0.23718159434E+04  0.00000000000E+00 0. -1.
         -2   -1    0    0    0  501 -0.00000000000E+00 -0.00000000000E+00 -0.34903489186E+03  0.34903489186E+03  0.00000000000E+00 0.  1.
         23    2    1    2    0    0 -0.11672477266E+03  0.65956545363E+03  0.95343368306E+03  0.11688990778E+04  0.92940872570E+02 0.  0.
        254    2    1    2    0    0  0.11672477266E+03 -0.65956545363E+03  0.10693473685E+04  0.15519517575E+04  0.90354811879E+03 0.  0.
         23    2    4    4    0    0  0.22405550515E+03 -0.58734576158E+03  0.11924502787E+04  0.13508914802E+04  0.88284828969E+02 0.  0.
         23    2    4    4    0    0 -0.10733073249E+03 -0.72219692058E+02 -0.12310291025E+03  0.20106027730E+03  0.92386895916E+02 0.  0.
          3    1    3    3  502    0 -0.11704951126E+03  0.63430625195E+03  0.87880958273E+03  0.10901152655E+04  0.00000000000E+00 0. -1.
         -3    1    3    3    0  502  0.32473859456E+00  0.25259201684E+02  0.74624100334E+02  0.78783812269E+02  0.00000000000E+00 0.  1.
         11    1    5    5    0    0  0.18154604624E+03 -0.53934538551E+03  0.10983606246E+04  0.12370321230E+04  0.00000000000E+00 0.  1.
        -11    1    5    5    0    0  0.42509458913E+02 -0.48000376066E+02  0.94089654160E+02  0.11385935719E+03  0.00000000000E+00 0. -1.
          1    1    6    6  503    0 -0.29963908175E+02  0.21432367314E+02 -0.36618871537E+02  0.51943468448E+02  0.00000000000E+00 0. -1.
         -1    1    6    6    0  503 -0.77366824312E+02 -0.93652059372E+02 -0.86484038714E+02  0.14911680885E+03  0.00000000000E+00 0.  1.
<mgrwt>
<rscale>  0 0.18197214E+04</rscale>
<asrwt>0</asrwt>
<pdfrwt beam="1">  1        2 0.36489475E+00 0.18197214E+04</pdfrwt>
<pdfrwt beam="2">  1       -2 0.53697677E-01 0.18197214E+04</pdfrwt>
<totfact> 0.12716642E+01</totfact>
</mgrwt>
</event>
<event>
12    2  0.3751044E-008  0.1100800E+04  0.7818608E-02  0.9204413E-01
         -1   -1    0    0    0  501 -0.00000000000E+00  0.00000000000E+00  0.48493633293E+03  0.48493633293E+03  0.00000000000E+00 0.  1.
          1   -1    0    0  501    0  0.00000000000E+00 -0.00000000000E+00 -0.62470053830E+03  0.62470053830E+03  0.00000000000E+00 0. -1.
         23    2    1    2    0    0 -0.10964439689E+03 -0.68421689970E+02  0.77056818852E+02  0.18065658102E+03  0.99978125148E+02 0.  0.
        254    2    1    2    0    0  0.10964439689E+03  0.68421689970E+02 -0.21682102423E+03  0.92898029021E+03  0.89402997803E+03 0.  0.
         23    2    4    4    0    0 -0.16905062105E+03 -0.29003784704E+03 -0.29890568844E+03  0.45889247803E+03  0.92399299883E+02 0.  0.
         23    2    4    4    0    0  0.27869501794E+03  0.35845953701E+03  0.82084664216E+02  0.47008781217E+03  0.89891636729E+02 0.  0.
          3    1    3    3  502    0 -0.71773607258E+02 -0.61166735050E+02 -0.21080023246E+00  0.94301986258E+02  0.00000000000E+00 0. -1.
         -3    1    3    3    0  502 -0.37870789630E+02 -0.72549549205E+01  0.77267619085E+02  0.86354594766E+02  0.00000000000E+00 0.  1.
         11    1    5    5    0    0 -0.13017699768E+02 -0.23264085240E+02 -0.68198770453E+02  0.73223974630E+02  0.00000000000E+00 0.  1.
        -11    1    5    5    0    0 -0.15603292129E+03 -0.26677376180E+03 -0.23070691799E+03  0.38566850341E+03  0.00000000000E+00 0. -1.
          3    1    6    6  503    0  0.16878635930E+03  0.18195290894E+03  0.47115515666E+01  0.24822952056E+03  0.00000000000E+00 0. -1.
         -3    1    6    6    0  503  0.10990865864E+03  0.17650662807E+03  0.77373112649E+02  0.22185829161E+03  0.00000000000E+00 0.  1.
<mgrwt>
<rscale>  0 0.11007997E+04</rscale>
<asrwt>0</asrwt>
<pdfrwt beam="1">  1        1 0.96107776E-01 0.11007997E+04</pdfrwt>
<pdfrwt beam="2">  1       -1 0.74605589E-01 0.11007997E+04</pdfrwt>
<totfact> 0.58197903E+01</totfact>
</mgrwt>
</event>
<event>
12    2  0.3751044E-008  0.1487006E+04  0.7818608E-02  0.8893140E-01
         -1   -1    0    0    0  501 -0.00000000000E+00  0.00000000000E+00  0.72782915571E+03  0.72782915571E+03  0.00000000000E+00 0.  1.
          1   -1    0    0  501    0  0.00000000000E+00 -0.00000000000E+00 -0.75951469089E+03  0.75951469089E+03  0.00000000000E+00 0. -1.
         23    2    1    2    0    0  0.24283436724E+03 -0.25645726225E+03  0.30943406827E+03  0.47846830391E+03  0.91889161319E+02 0.  0.
        254    2    1    2    0    0 -0.24283436724E+03  0.25645726225E+03 -0.34111960346E+03  0.10088755427E+04  0.88132197266E+03 0.  0.
         23    2    4    4    0    0  0.15756245073E+03 -0.24087957730E+03 -0.79217888678E+02  0.31164090151E+03  0.89418571689E+02 0.  0.
         23    2    4    4    0    0 -0.40039681797E+03  0.49733683956E+03 -0.26190171478E+03  0.69723464118E+03  0.99408716091E+02 0.  0.
          2    1    3    3  502    0  0.66701435658E+02 -0.12415223069E+03  0.15465884340E+03  0.20924200282E+03  0.00000000000E+00 0. -1.
         -2    1    3    3    0  502  0.17613293158E+03 -0.13230503157E+03  0.15477522487E+03  0.26922630109E+03  0.00000000000E+00 0.  1.
         11    1    5    5    0    0  0.84206653097E+02 -0.11762994380E+03  0.60339483525E+01  0.14478940789E+03  0.00000000000E+00 0. -1.
        -11    1    5    5    0    0  0.73355797633E+02 -0.12324963350E+03 -0.85251837030E+02  0.16685149362E+03  0.00000000000E+00 0.  1.
          4    1    6    6  503    0 -0.20608962879E+02  0.95879296351E+00 -0.13620500233E+02  0.24721785160E+02  0.00000000000E+00 0.  1.
         -4    1    6    6    0  503 -0.37978785509E+03  0.49637804659E+03 -0.24828121454E+03  0.67251285602E+03  0.00000000000E+00 0. -1.
<mgrwt>
<rscale>  0 0.14870063E+04</rscale>
<asrwt>0</asrwt>
<pdfrwt beam="1">  1        1 0.11684841E+00 0.14870063E+04</pdfrwt>
<pdfrwt beam="2">  1       -1 0.11197372E+00 0.14870063E+04</pdfrwt>
<totfact> 0.17018833E+01</totfact>
</mgrwt>
</event>
<event>
12    2  0.3751044E-008  0.1336640E+04  0.7818608E-02  0.9001004E-01
          2   -1    0    0  501    0  0.00000000000E+00  0.00000000000E+00  0.23463312542E+04  0.23463312542E+04  0.00000000000E+00 0. -1.
         -2   -1    0    0    0  501 -0.00000000000E+00 -0.00000000000E+00 -0.19036165649E+03  0.19036165649E+03  0.00000000000E+00 0.  1.
         23    2    1    2    0    0 -0.70751038487E+02  0.12396681531E+03  0.12185128831E+04  0.12302107558E+04  0.90947109273E+02 0.  0.
        254    2    1    2    0    0  0.70751038487E+02 -0.12396681531E+03  0.93745671460E+03  0.13064821549E+04  0.89871967180E+03 0.  0.
         23    2    4    4    0    0 -0.57744558500E+02  0.34043350053E+03  0.64120769834E+03  0.73423882725E+03  0.93434151710E+02 0.  0.
         23    2    4    4    0    0  0.12849559699E+03 -0.46440031584E+03  0.29624901626E+03  0.57224332761E+03  0.86718940085E+02 0.  0.
          4    1    3    3  502    0 -0.86026673435E+02  0.12711255193E+03  0.11208932589E+04  0.11313531223E+04  0.00000000000E+00 0. -1.
         -4    1    3    3    0  502  0.15275634947E+02 -0.31457366268E+01  0.97619624142E+02  0.98857633492E+02  0.00000000000E+00 0.  1.
         11    1    5    5    0    0  0.18607212303E+02  0.16250364998E+03  0.31359082970E+03  0.35368470857E+03  0.00000000000E+00 0. -1.
        -11    1    5    5    0    0 -0.76351770803E+02  0.17792985055E+03  0.32761686865E+03  0.38055411868E+03  0.00000000000E+00 0.  1.
          2    1    6    6  503    0 -0.72362222566E+01 -0.10695379863E+03  0.61756911862E+02  0.12371497127E+03  0.00000000000E+00 0. -1.
         -2    1    6    6    0  503  0.13573181924E+03 -0.35744651721E+03  0.23449210439E+03  0.44852835634E+03  0.00000000000E+00 0.  1.
<mgrwt>
<rscale>  0 0.13366398E+04</rscale>
<asrwt>0</asrwt>
<pdfrwt beam="1">  1        2 0.36097402E+00 0.13366398E+04</pdfrwt>
<pdfrwt beam="2">  1       -2 0.29286410E-01 0.13366398E+04</pdfrwt>
<totfact> 0.44872474E+01</totfact>
</mgrwt>
</event>
<event>
12    2  0.3751044E-008  0.1751041E+04  0.7818608E-02  0.8732778E-01
          2   -1    0    0  501    0  0.00000000000E+00  0.00000000000E+00  0.10208326550E+04  0.10208326550E+04  0.00000000000E+00 0. -1.
         -2   -1    0    0    0  501 -0.00000000000E+00 -0.00000000000E+00 -0.75089271778E+03  0.75089271778E+03  0.00000000000E+00 0.  1.
         23    2    1    2    0    0  0.50824918452E+02  0.63670010550E+03  0.15474968786E+03  0.66361013162E+03  0.91982303820E+02 0.  0.
        254    2    1    2    0    0 -0.50824918452E+02 -0.63670010550E+03  0.11519024934E+03  0.11081152412E+04  0.89815388295E+03 0.  0.
         23    2    4    4    0    0 -0.33904389333E+02 -0.23238228375E+03 -0.38395535184E+03  0.45926244914E+03  0.91374239067E+02 0.  0.
         23    2    4    4    0    0 -0.16920529118E+02 -0.40431782175E+03  0.49914560119E+03  0.64885279201E+03  0.90024492410E+02 0.  0.
          1    1    3    3  502    0  0.13839487112E+02  0.34629437987E+03  0.38812316781E+02  0.34873732933E+03  0.00000000000E+00 0. -1.
         -1    1    3    3    0  502  0.36985431340E+02  0.29040572562E+03  0.11593737108E+03  0.31487280229E+03  0.00000000000E+00 0.  1.
         11    1    5    5    0    0  0.26986321566E+02 -0.40927126636E+02 -0.10062289684E+03  0.11192970390E+03  0.00000000000E+00 0.  1.
        -11    1    5    5    0    0 -0.60890710899E+02 -0.19145515712E+03 -0.28333245500E+03  0.34733274524E+03  0.00000000000E+00 0. -1.
          2    1    6    6  503    0  0.27269838113E+01 -0.37972030722E+03  0.47986829217E+03  0.61193833512E+03  0.00000000000E+00 0. -1.
         -2    1    6    6    0  503 -0.19647512930E+02 -0.24597514523E+02  0.19277309022E+02  0.36914456899E+02  0.00000000000E+00 0.  1.
<mgrwt>
<rscale>  0 0.17510406E+04</rscale>
<asrwt>0</asrwt>
<pdfrwt beam="1">  1        2 0.15705118E+00 0.17510406E+04</pdfrwt>
<pdfrwt beam="2">  1       -2 0.11552196E+00 0.17510406E+04</pdfrwt>
<totfact> 0.13501318E+01</totfact>
</mgrwt>
</event>
<event>
12    2  0.3751044E-008  0.2948365E+04  0.7818608E-02  0.8258631E-01
         -1   -1    0    0    0  501 -0.00000000000E+00  0.00000000000E+00  0.27416583823E+04  0.27416583823E+04  0.00000000000E+00 0.  1.
          1   -1    0    0  501    0  0.00000000000E+00 -0.00000000000E+00 -0.79266430813E+03  0.79266430813E+03  0.00000000000E+00 0. -1.
         23    2    1    2    0    0  0.10317884931E+04  0.84536225402E+03  0.84568210334E+03  0.15821357229E+04  0.93543523060E+02 0.  0.
        254    2    1    2    0    0 -0.10317884931E+04 -0.84536225402E+03  0.11033119708E+04  0.19521869675E+04  0.90250308388E+03 0.  0.
         23    2    4    4    0    0 -0.87473110629E+03 -0.16264944429E+03  0.70724172655E+03  0.11412548810E+04  0.10325935163E+03 0.  0.
         23    2    4    4    0    0 -0.15705738677E+03 -0.68271280973E+03  0.39607024424E+03  0.81093208649E+03  0.99876960391E+02 0.  0.
          1    1    3    3  502    0  0.56414897614E+03  0.41692470229E+03  0.40753121028E+03  0.81127798073E+03  0.00000000000E+00 0. -1.
         -1    1    3    3    0  502  0.46763951692E+03  0.42843755172E+03  0.43815089306E+03  0.77085774213E+03  0.00000000000E+00 0.  1.
         11    1    5    5    0    0 -0.85121105856E+03 -0.16179454331E+03  0.70603821049E+03  0.11176885501E+04  0.00000000000E+00 0. -1.
        -11    1    5    5    0    0 -0.23520047731E+02 -0.85490097558E+00  0.12035160541E+01  0.23566330895E+02  0.00000000000E+00 0.  1.
          1    1    6    6  503    0 -0.15737151962E+03 -0.63899611718E+03  0.39431160615E+03  0.76717890723E+03  0.00000000000E+00 0. -1.
         -1    1    6    6    0  503  0.31413285614E+00 -0.43716692556E+02  0.17586380916E+01  0.43753179261E+02  0.00000000000E+00 0.  1.
<mgrwt>
<rscale>  0 0.29483655E+04</rscale>
<asrwt>0</asrwt>
<pdfrwt beam="1">  1        1 0.12194836E+00 0.29483655E+04</pdfrwt>
<pdfrwt beam="2">  1       -1 0.42179359E+00 0.29483655E+04</pdfrwt>
<totfact> 0.97117003E-02</totfact>
</mgrwt>
</event>
<event>
12    2  0.3980728E-008  0.1439515E+04  0.7818608E-02  0.8925702E-01
         -1   -1    0    0    0  501 -0.00000000000E+00  0.00000000000E+00  0.47929681835E+03  0.47929681835E+03  0.00000000000E+00 0.  1.
          1   -1    0    0  501    0  0.00000000000E+00 -0.00000000000E+00 -0.10808554074E+04  0.10808554074E+04  0.00000000000E+00 0. -1.
         23    2    1    2    0    0  0.14666465715E+03  0.36869580870E+03  0.26461202067E+02  0.40902310302E+03  0.95669130749E+02 0.  0.
        254    2    1    2    0    0 -0.14666465715E+03 -0.36869580870E+03 -0.62801979108E+03  0.11511291227E+04  0.87934195745E+03 0.  0.
         23    2    4    4    0    0 -0.10341792537E+03 -0.15769845654E+03 -0.82147858443E+03  0.84762219782E+03  0.89845729331E+02 0.  0.
         23    2    4    4    0    0 -0.43246731773E+02 -0.21099735216E+03  0.19345879335E+03  0.30350692488E+03  0.91104260589E+02 0.  0.
          3    1    3    3  502    0  0.10219503090E+02  0.12025798169E+02  0.22054961512E+02  0.27119723308E+02  0.00000000000E+00 0. -1.
         -3    1    3    3    0  502  0.13644515406E+03  0.35667001053E+03  0.44062405552E+01  0.38190337971E+03  0.00000000000E+00 0.  1.
         11    1    5    5    0    0 -0.96593710767E+02 -0.14962993908E+03 -0.59958505622E+03  0.62547718046E+03  0.00000000000E+00 0. -1.
        -11    1    5    5    0    0 -0.68242146081E+01 -0.80685174611E+01 -0.22189352821E+03  0.22214501736E+03  0.00000000000E+00 0.  1.
          3    1    6    6  503    0 -0.29567595031E+02 -0.21101369288E+03  0.19609506330E+03  0.28957606101E+03  0.00000000000E+00 0. -1.
         -3    1    6    6    0  503 -0.13679136741E+02  0.16340720047E-01 -0.26362699463E+01  0.13930863873E+02  0.00000000000E+00 0.  1.
<mgrwt>
<rscale>  0 0.14395146E+04</rscale>
<asrwt>0</asrwt>
<pdfrwt beam="1">  1        1 0.16628545E+00 0.14395146E+04</pdfrwt>
<pdfrwt beam="2">  1       -1 0.73737972E-01 0.14395146E+04</pdfrwt>
<totfact> 0.23607868E+01</totfact>
</mgrwt>
</event>
<event>
12    2  0.3751044E-008  0.2018562E+04  0.7818608E-02  0.8597991E-01
          1   -1    0    0  501    0  0.00000000000E+00  0.00000000000E+00  0.15476566082E+04  0.15476566082E+04  0.00000000000E+00 0. -1.
         -1   -1    0    0    0  501 -0.00000000000E+00 -0.00000000000E+00 -0.65818723714E+03  0.65818723714E+03  0.00000000000E+00 0.  1.
         23    2    1    2    0    0 -0.25124067421E+03 -0.34112503761E+03 -0.38908907233E+03  0.58201674862E+03  0.88684958176E+02 0.  0.
        254    2    1    2    0    0  0.25124067421E+03  0.34112503761E+03  0.12785584434E+04  0.16238270967E+04  0.90698102472E+03 0.  0.
         23    2    4    4    0    0  0.21444239543E+03  0.63341812623E+03  0.10101830925E+04  0.12149145646E+04  0.91342516615E+02 0.  0.
         23    2    4    4    0    0  0.36798278778E+02 -0.29229308862E+03  0.26837535095E+03  0.40891253215E+03  0.91622960976E+02 0.  0.
          3    1    3    3  502    0 -0.10757835803E+03 -0.11452477117E+03 -0.19725836979E+03  0.25219018772E+03  0.00000000000E+00 0. -1.
         -3    1    3    3    0  502 -0.14366231617E+03 -0.22660026645E+03 -0.19183070254E+03  0.32982656091E+03  0.00000000000E+00 0.  1.
         11    1    5    5    0    0  0.17642767780E+03  0.43073758767E+03  0.64312109712E+03  0.79389315432E+03  0.00000000000E+00 0. -1.
        -11    1    5    5    0    0  0.38014717627E+02  0.20268053856E+03  0.36706199536E+03  0.42102141027E+03  0.00000000000E+00 0.  1.
          2    1    6    6  503    0 -0.22108712996E+02 -0.17075397801E+03  0.13181082008E+03  0.21684051394E+03  0.00000000000E+00 0. -1.
         -2    1    6    6    0  503  0.58906991775E+02 -0.12153911061E+03  0.13656453087E+03  0.19207201821E+03  0.00000000000E+00 0.  1.
<mgrwt>
<rscale>  0 0.20185617E+04</rscale>
<asrwt>0</asrwt>
<pdfrwt beam="1">  1        1 0.23810102E+00 0.20185617E+04</pdfrwt>
<pdfrwt beam="2">  1       -1 0.10125958E+00 0.20185617E+04</pdfrwt>
<totfact> 0.52001523E+00</totfact>
</mgrwt>
</event>
<event>
12    2  0.3751044E-008  0.1968793E+04  0.7818608E-02  0.8621351E-01
         -2   -1    0    0    0  501 -0.00000000000E+00  0.00000000000E+00  0.34951068434E+03  0.34951068434E+03  0.00000000000E+00 0.  1.
          2   -1    0    0  501    0  0.00000000000E+00 -0.00000000000E+00 -0.27725520697E+04  0.27725520697E+04  0.00000000000E+00 0. -1.
         23    2    1    2    0    0  0.19830909644E+03  0.52075643991E+03 -0.18118918119E+04  0.18978199315E+04  0.90855858953E+02 0.  0.
        254    2    1    2    0    0 -0.19830909644E+03 -0.52075643991E+03 -0.61114957348E+03  0.12242428225E+04  0.90263664885E+03 0.  0.
         23    2    4    4    0    0 -0.19000983609E+02 -0.38546434759E+03 -0.81502641637E+03  0.90677840682E+03  0.95053769292E+02 0.  0.
         23    2    4    4    0    0 -0.17930811284E+03 -0.13529209231E+03  0.20387684289E+03  0.31746441568E+03  0.93608432230E+02 0.  0.
          3    1    3    3  502    0  0.44318072253E+02  0.20400333849E+03 -0.78121128316E+03  0.80862384492E+03  0.00000000000E+00 0.  1.
         -3    1    3    3    0  502  0.15399102419E+03  0.31675310141E+03 -0.10306805287E+04  0.10891960866E+04  0.00000000000E+00 0. -1.
         11    1    5    5    0    0  0.29622344923E+02 -0.16273983550E+03 -0.28003260497E+03  0.32523836985E+03  0.00000000000E+00 0. -1.
        -11    1    5    5    0    0 -0.48623328532E+02 -0.22272451209E+03 -0.53499381140E+03  0.58154003697E+03  0.00000000000E+00 0.  1.
          2    1    6    6  503    0  0.10865602774E+02 -0.88362235523E+01  0.19167832843E+02  0.23739123535E+02  0.00000000000E+00 0. -1.
         -2    1    6    6    0  503 -0.19017371561E+03 -0.12645586876E+03  0.18470901005E+03  0.29372529215E+03  0.00000000000E+00 0.  1.
<mgrwt>
<rscale>  0 0.19687931E+04</rscale>
<asrwt>0</asrwt>
<pdfrwt beam="1">  1        2 0.42654648E+00 0.19687931E+04</pdfrwt>
<pdfrwt beam="2">  1       -2 0.53770873E-01 0.19687931E+04</pdfrwt>
<totfact> 0.73023690E+00</totfact>
</mgrwt>
</event>
<event>
12    2  0.3751044E-008  0.1084107E+04  0.7818608E-02  0.9220822E-01
         -1   -1    0    0    0  501 -0.00000000000E+00  0.00000000000E+00  0.33269032145E+03  0.33269032145E+03  0.00000000000E+00 0.  1.
          1   -1    0    0  501    0  0.00000000000E+00 -0.00000000000E+00 -0.88316997806E+03  0.88316997806E+03  0.00000000000E+00 0. -1.
         23    2    1    2    0    0  0.11862687952E+03  0.11371583743E+03 -0.96399881606E+02  0.21152347736E+03  0.91900033061E+02 0.  0.
        254    2    1    2    0    0 -0.11862687952E+03 -0.11371583743E+03 -0.45407977501E+03  0.10043368221E+04  0.88062499511E+03 0.  0.
         23    2    4    4    0    0 -0.40458781320E+03  0.15531185590E+02  0.34884181374E+02  0.41631265556E+03  0.90370375409E+02 0.  0.
         23    2    4    4    0    0  0.28596093369E+03 -0.12924702302E+03 -0.48896395638E+03  0.58802416658E+03  0.90599234495E+02 0.  0.
          3    1    3    3  502    0  0.94721429269E+02  0.12881490868E+03 -0.79252167099E+02  0.17845541699E+03  0.00000000000E+00 0. -1.
         -3    1    3    3    0  502  0.23905450246E+02 -0.15099071256E+02 -0.17147714507E+02  0.33068060377E+02  0.00000000000E+00 0.  1.
         11    1    5    5    0    0 -0.25058286198E+03  0.28130738421E+02  0.61424368853E+02  0.25953046497E+03  0.00000000000E+00 0. -1.
        -11    1    5    5    0    0 -0.15400495122E+03 -0.12599552831E+02 -0.26540187479E+02  0.15678219058E+03  0.00000000000E+00 0.  1.
          3    1    6    6  503    0  0.11599098943E+03 -0.81443650534E+02 -0.28469800694E+03  0.31802505089E+03  0.00000000000E+00 0. -1.
         -3    1    6    6    0  503  0.16996994425E+03 -0.47803372483E+02 -0.20426594944E+03  0.26999911569E+03  0.00000000000E+00 0.  1.
<mgrwt>
<rscale>  0 0.10841072E+04</rscale>
<asrwt>0</asrwt>
<pdfrwt beam="1">  1        1 0.13587230E+00 0.10841072E+04</pdfrwt>
<pdfrwt beam="2">  1       -1 0.51183128E-01 0.10841072E+04</pdfrwt>
<totfact> 0.71914731E+01</totfact>
</mgrwt>
</event>
<event>
12    2  0.3751044E-008  0.1292919E+04  0.7818608E-02  0.9035199E-01
         -2   -1    0    0    0  501 -0.00000000000E+00  0.00000000000E+00  0.53017667697E+03  0.53017667697E+03  0.00000000000E+00 0. -1.
          2   -1    0    0  501    0  0.00000000000E+00 -0.00000000000E+00 -0.78824677187E+03  0.78824677187E+03  0.00000000000E+00 0.  1.
         23    2    1    2    0    0 -0.16201826351E+03  0.23676486318E+03  0.93714977767E+02  0.31398094981E+03  0.86568017426E+02 0.  0.
        254    2    1    2    0    0  0.16201826351E+03 -0.23676486318E+03 -0.35178507267E+03  0.10044424990E+04  0.89601589179E+03 0.  0.
         23    2    4    4    0    0 -0.23521611058E+03  0.68587865154E+02 -0.41519416332E+03  0.49029676321E+03  0.89296186005E+02 0.  0.
         23    2    4    4    0    0  0.39723437409E+03 -0.30535272834E+03  0.63409090653E+02  0.51414573581E+03  0.96383028662E+02 0.  0.
          2    1    3    3  502    0 -0.64217203376E+02  0.86464979909E+02 -0.76868894157E+01  0.10797745241E+03  0.00000000000E+00 0. -1.
         -2    1    3    3    0  502 -0.97801060130E+02  0.15029988327E+03  0.10140186718E+03  0.20600349740E+03  0.00000000000E+00 0.  1.
         11    1    5    5    0    0 -0.18341657276E+02 -0.15299675419E+02 -0.71050047985E+02  0.74957359733E+02  0.00000000000E+00 0. -1.
        -11    1    5    5    0    0 -0.21687445331E+03  0.83887540572E+02 -0.34414411533E+03  0.41533940348E+03  0.00000000000E+00 0.  1.
          3    1    6    6  503    0  0.11253195107E+03 -0.14436622354E+03  0.27898611481E+02  0.18515771394E+03  0.00000000000E+00 0. -1.
         -3    1    6    6    0  503  0.28470242302E+03 -0.16098650480E+03  0.35510479172E+02  0.32898802187E+03  0.00000000000E+00 0.  1.
<mgrwt>
<rscale>  0 0.12929193E+04</rscale>
<asrwt>0</asrwt>
<pdfrwt beam="1">  1        2 0.12126873E+00 0.12929193E+04</pdfrwt>
<pdfrwt beam="2">  1       -2 0.81565643E-01 0.12929193E+04</pdfrwt>
<totfact> 0.45603096E+01</totfact>
</mgrwt>
</event>
<event>
12    2  0.3751044E-008  0.1965584E+04  0.7818608E-02  0.8622883E-01
         -1   -1    0    0    0  501 -0.00000000000E+00  0.00000000000E+00  0.10325924845E+04  0.10325924845E+04  0.00000000000E+00 0.  1.
          1   -1    0    0  501    0  0.00000000000E+00 -0.00000000000E+00 -0.93539310722E+03  0.93539310722E+03  0.00000000000E+00 0. -1.
         23    2    1    2    0    0 -0.27874930771E+03  0.37721143967E+03  0.64790714373E+03  0.80498207119E+03  0.90679773227E+02 0.  0.
        254    2    1    2    0    0  0.27874930771E+03 -0.37721143967E+03 -0.55070776648E+03  0.11630035205E+04  0.91066376773E+03 0.  0.
         23    2    4    4    0    0 -0.77639668785E+02 -0.95538222259E+02 -0.66778107616E+03  0.68514010852E+03  0.91268464155E+02 0.  0.
         23    2    4    4    0    0  0.35638897650E+03 -0.28167321742E+03  0.11707330968E+03  0.47786341198E+03  0.91073468639E+02 0.  0.
          1    1    3    3  502    0  0.16956383817E+01 -0.23737090838E+01  0.16123832773E+02  0.16385593295E+02  0.00000000000E+00 0. -1.
         -1    1    3    3    0  502 -0.28044494609E+03  0.37958514876E+03  0.63178331095E+03  0.78859647789E+03  0.00000000000E+00 0.  1.
         11    1    5    5    0    0 -0.24444947953E+02 -0.28076841582E+02 -0.55299201941E+02  0.66662330059E+02  0.00000000000E+00 0.  1.
        -11    1    5    5    0    0 -0.53194720832E+02 -0.67461380677E+02 -0.61248187422E+03  0.61847777846E+03  0.00000000000E+00 0. -1.
          2    1    6    6  503    0  0.31661788657E+03 -0.23841666082E+03  0.13107593337E+03  0.41745693258E+03  0.00000000000E+00 0. -1.
         -2    1    6    6    0  503  0.39771089931E+02 -0.43256556592E+02 -0.14002623695E+02  0.60406479395E+02  0.00000000000E+00 0.  1.
<mgrwt>
<rscale>  0 0.19655838E+04</rscale>
<asrwt>0</asrwt>
<pdfrwt beam="1">  1        1 0.14390663E+00 0.19655838E+04</pdfrwt>
<pdfrwt beam="2">  1       -1 0.15886038E+00 0.19655838E+04</pdfrwt>
<totfact> 0.47235840E+00</totfact>
</mgrwt>
</event>
<event>
12    2  0.3751044E-008  0.1285520E+04  0.7818608E-02  0.9041128E-01
         -1   -1    0    0    0  501 -0.00000000000E+00  0.00000000000E+00  0.27600468714E+03  0.27600468714E+03  0.00000000000E+00 0.  1.
          1   -1    0    0  501    0  0.00000000000E+00 -0.00000000000E+00 -0.14968595092E+04  0.14968595092E+04  0.00000000000E+00 0. -1.
         23    2    1    2    0    0  0.58271252556E+02 -0.29781426844E+03 -0.44983722019E+03  0.54982856241E+03  0.88707643490E+02 0.  0.
        254    2    1    2    0    0 -0.58271252556E+02  0.29781426844E+03 -0.77101760187E+03  0.12230356339E+04  0.89958831813E+03 0.  0.
         23    2    4    4    0    0  0.20371819951E+03  0.34267118475E+03 -0.70073806749E+01  0.40912989703E+03  0.91725261467E+02 0.  0.
         23    2    4    4    0    0 -0.26198945206E+03 -0.44856916313E+02 -0.76401022119E+03  0.81390573689E+03  0.89890569757E+02 0.  0.
          2    1    3    3  502    0  0.29514367308E+02 -0.19709812861E+03 -0.21765436476E+03  0.29511386392E+03  0.00000000000E+00 0. -1.
         -2    1    3    3    0  502  0.28756885248E+02 -0.10071613983E+03 -0.23218285543E+03  0.25471469849E+03  0.00000000000E+00 0.  1.
         11    1    5    5    0    0 -0.80646539219E+01  0.25215688884E+02 -0.74957050813E+01  0.27514636168E+02  0.00000000000E+00 0. -1.
        -11    1    5    5    0    0  0.21178285343E+03  0.31745549587E+03  0.48832440647E+00  0.38161526086E+03  0.00000000000E+00 0.  1.
          3    1    6    6  503    0 -0.70233738244E+02  0.14453000707E+02 -0.12492156344E+03  0.14403841234E+03  0.00000000000E+00 0. -1.
         -3    1    6    6    0  503 -0.19175571382E+03 -0.59309917020E+02 -0.63908865775E+03  0.66986732455E+03  0.00000000000E+00 0.  1.
<mgrwt>
<rscale>  0 0.12855197E+04</rscale>
<asrwt>0</asrwt>
<pdfrwt beam="1">  1        1 0.23028607E+00 0.12855197E+04</pdfrwt>
<pdfrwt beam="2">  1       -1 0.42462260E-01 0.12855197E+04</pdfrwt>
<totfact> 0.35276756E+01</totfact>
</mgrwt>
</event>
<event>
12    2  0.3751044E-008  0.1982791E+04  0.7818608E-02  0.8614709E-01
         -2   -1    0    0    0  501 -0.00000000000E+00  0.00000000000E+00  0.44941791049E+03  0.44941791049E+03  0.00000000000E+00 0.  1.
          2   -1    0    0  501    0  0.00000000000E+00 -0.00000000000E+00 -0.21869738575E+04  0.21869738575E+04  0.00000000000E+00 0. -1.
         23    2    1    2    0    0  0.17853337803E+03 -0.75152119580E+03 -0.49227782923E+03  0.91952330577E+03  0.80792164739E+02 0.  0.
        254    2    1    2    0    0 -0.17853337803E+03  0.75152119580E+03 -0.12452781177E+04  0.17168684622E+04  0.89457333468E+03 0.  0.
         23    2    4    4    0    0  0.27847431775E+03  0.19602536555E+03 -0.10990353707E+03  0.36973957179E+03  0.93030499829E+02 0.  0.
         23    2    4    4    0    0 -0.45700769579E+03  0.55549583025E+03 -0.11353745807E+04  0.13471288904E+04  0.90824872618E+02 0.  0.
          1    1    3    3  502    0  0.22611899565E+02 -0.17837409152E+03 -0.81949423375E+02  0.19759636261E+03  0.00000000000E+00 0. -1.
         -1    1    3    3    0  502  0.15592147847E+03 -0.57314710429E+03 -0.41032840585E+03  0.72192694315E+03  0.00000000000E+00 0.  1.
         11    1    5    5    0    0  0.26239486501E+03  0.19149883326E+03 -0.12417624087E+03  0.34776803637E+03  0.00000000000E+00 0. -1.
        -11    1    5    5    0    0  0.16079452744E+02  0.45265322846E+01  0.14272703793E+02  0.21971535418E+02  0.00000000000E+00 0.  1.
          1    1    6    6  503    0 -0.25112505929E+03  0.28082281215E+03 -0.67290828997E+03  0.77118792388E+03  0.00000000000E+00 0. -1.
         -1    1    6    6    0  503 -0.20588263650E+03  0.27467301810E+03 -0.46246629070E+03  0.57594096652E+03  0.00000000000E+00 0.  1.
<mgrwt>
<rscale>  0 0.19827912E+04</rscale>
<asrwt>0</asrwt>
<pdfrwt beam="1">  1        2 0.33645752E+00 0.19827912E+04</pdfrwt>
<pdfrwt beam="2">  1       -2 0.69141217E-01 0.19827912E+04</pdfrwt>
<totfact> 0.93310241E+00</totfact>
</mgrwt>
</event>
<event>
12    2  0.3751044E-008  0.3241296E+04  0.7818608E-02  0.8177995E-01
          1   -1    0    0  501    0  0.00000000000E+00  0.00000000000E+00  0.19594412433E+04  0.19594412433E+04  0.00000000000E+00 0. -1.
         -1   -1    0    0    0  501 -0.00000000000E+00 -0.00000000000E+00 -0.13404335274E+04  0.13404335274E+04  0.00000000000E+00 0.  1.
         23    2    1    2    0    0  0.98785246378E+03  0.88756088078E+03  0.96407063694E+03  0.16436897541E+04  0.93096764664E+02 0.  0.
        254    2    1    2    0    0 -0.98785246378E+03 -0.88756088078E+03 -0.34506292096E+03  0.16561850166E+04  0.92750395276E+03 0.  0.
         23    2    4    4    0    0 -0.56543098704E+03 -0.15267904595E+03 -0.51690824446E+03  0.78647839784E+03  0.91274557846E+02 0.  0.
         23    2    4    4    0    0 -0.42242147674E+03 -0.73488183483E+03  0.17184532350E+03  0.86970661872E+03  0.91474435027E+02 0.  0.
          3    1    3    3  502    0  0.57572052150E+03  0.57809383441E+03  0.58716996964E+03  0.10051940974E+04  0.00000000000E+00 0. -1.
         -3    1    3    3    0  502  0.41213194228E+03  0.30946704637E+03  0.37690066730E+03  0.63849565672E+03  0.00000000000E+00 0.  1.
         11    1    5    5    0    0 -0.20397695119E+02 -0.26113306142E+02 -0.31931963633E+02  0.46017616467E+02  0.00000000000E+00 0. -1.
        -11    1    5    5    0    0 -0.54503329192E+03 -0.12656573980E+03 -0.48497628082E+03  0.74046078138E+03  0.00000000000E+00 0.  1.
          2    1    6    6  503    0 -0.75814164920E+02 -0.10871220332E+03  0.59355716738E+02  0.14522132027E+03  0.00000000000E+00 0. -1.
         -2    1    6    6    0  503 -0.34660731182E+03 -0.62616963152E+03  0.11248960676E+03  0.72448529845E+03  0.00000000000E+00 0.  1.
<mgrwt>
<rscale>  0 0.32412965E+04</rscale>
<asrwt>0</asrwt>
<pdfrwt beam="1">  1        1 0.30145250E+00 0.32412965E+04</pdfrwt>
<pdfrwt beam="2">  1       -1 0.20622054E+00 0.32412965E+04</pdfrwt>
<totfact> 0.36109807E-01</totfact>
</mgrwt>
</event>
<event>
12    2  0.3751044E-008  0.1651439E+04  0.7818608E-02  0.8789556E-01
         -1   -1    0    0    0  501 -0.00000000000E+00  0.00000000000E+00  0.59867017856E+03  0.59867017856E+03  0.00000000000E+00 0.  1.
          1   -1    0    0  501    0  0.00000000000E+00 -0.00000000000E+00 -0.11388789601E+04  0.11388789601E+04  0.00000000000E+00 0. -1.
         23    2    1    2    0    0 -0.29349180959E+03  0.34145918635E+03 -0.56939741252E+03  0.72987747015E+03  0.75999275022E+02 0.  0.
        254    2    1    2    0    0  0.29349180959E+03 -0.34145918635E+03  0.29188630957E+02  0.10076716685E+04  0.90100965431E+03 0.  0.
         23    2    4    4    0    0  0.49543400480E+02  0.12704017543E+03 -0.32553143141E+03  0.36454107978E+03  0.91245445396E+02 0.  0.
         23    2    4    4    0    0  0.24394840911E+03 -0.46849936179E+03  0.35472006237E+03  0.64313058875E+03  0.93745150505E+02 0.  0.
          1    1    3    3  502    0 -0.13974307017E+03  0.21952798148E+03 -0.31486654672E+03  0.40848696742E+03  0.00000000000E+00 0. -1.
         -1    1    3    3    0  502 -0.15374873942E+03  0.12193120488E+03 -0.25453086581E+03  0.32139050273E+03  0.00000000000E+00 0.  1.
         11    1    5    5    0    0  0.23369199058E+02 -0.54855981714E+01 -0.23110645575E+02  0.33321362379E+02  0.00000000000E+00 0.  1.
        -11    1    5    5    0    0  0.26174201422E+02  0.13252577360E+03 -0.30242078584E+03  0.33121971740E+03  0.00000000000E+00 0. -1.
          1    1    6    6  503    0  0.12351468286E+02 -0.10241481767E+03  0.73463373131E+02  0.12664209742E+03  0.00000000000E+00 0.  1.
         -1    1    6    6    0  503  0.23159694082E+03 -0.36608454412E+03  0.28125668924E+03  0.51648849133E+03  0.00000000000E+00 0. -1.
<mgrwt>
<rscale>  0 0.16514392E+04</rscale>
<asrwt>0</asrwt>
<pdfrwt beam="1">  1        1 0.17521215E+00 0.16514392E+04</pdfrwt>
<pdfrwt beam="2">  1       -1 0.92103106E-01 0.16514392E+04</pdfrwt>
<totfact> 0.13001961E+01</totfact>
</mgrwt>
</event>
<event>
12    2  0.3751044E-008  0.1939653E+04  0.7818608E-02  0.8635367E-01
         -2   -1    0    0    0  501 -0.00000000000E+00  0.00000000000E+00  0.10334535232E+04  0.10334535232E+04  0.00000000000E+00 0. -1.
          2   -1    0    0  501    0  0.00000000000E+00 -0.00000000000E+00 -0.91011659308E+03  0.91011659308E+03  0.00000000000E+00 0.  1.
         23    2    1    2    0    0  0.68374576281E+03 -0.26491007515E+03  0.23584411005E+03  0.77683187590E+03  0.10079535253E+03 0.  0.
        254    2    1    2    0    0 -0.68374576281E+03  0.26491007515E+03 -0.11250717991E+03  0.11667382404E+04  0.90051909476E+03 0.  0.
         23    2    4    4    0    0  0.12806730680E+03 -0.14792220815E+03 -0.12838953424E+03  0.25128971060E+03  0.91544696278E+02 0.  0.
         23    2    4    4    0    0 -0.81181306961E+03  0.41283228330E+03  0.15882354336E+02  0.91544852981E+03  0.91229421952E+02 0.  0.
          3    1    3    3  502    0  0.35017752848E+03 -0.16208014338E+03  0.16982049727E+03  0.42158424499E+03  0.00000000000E+00 0. -1.
         -3    1    3    3    0  502  0.33356823433E+03 -0.10282993177E+03  0.66023612776E+02  0.35524763091E+03  0.00000000000E+00 0.  1.
         11    1    5    5    0    0  0.10441865677E+03 -0.85971366775E+02 -0.12612888060E+03  0.18494006139E+03  0.00000000000E+00 0.  1.
        -11    1    5    5    0    0  0.23648650031E+02 -0.61950841372E+02 -0.22606536414E+01  0.66349649207E+02  0.00000000000E+00 0. -1.
          2    1    6    6  503    0 -0.11544602026E+03  0.78751491775E+02 -0.25184415994E+02  0.14199942204E+03  0.00000000000E+00 0. -1.
         -2    1    6    6    0  503 -0.69636704936E+03  0.33408079152E+03  0.41066770330E+02  0.77344910777E+03  0.00000000000E+00 0.  1.
<mgrwt>
<rscale>  0 0.19396528E+04</rscale>
<asrwt>0</asrwt>
<pdfrwt beam="1">  1        2 0.14001794E+00 0.19396528E+04</pdfrwt>
<pdfrwt beam="2">  1       -2 0.15899285E+00 0.19396528E+04</pdfrwt>
<totfact> 0.69035153E+00</totfact>
</mgrwt>
</event>
<event>
12    2  0.3751044E-008  0.1862856E+04  0.7818608E-02  0.8673569E-01
         -1   -1    0    0    0  501 -0.00000000000E+00  0.00000000000E+00  0.88423168467E+03  0.88423168467E+03  0.00000000000E+00 0.  1.
          1   -1    0    0  501    0  0.00000000000E+00 -0.00000000000E+00 -0.98114377492E+03  0.98114377492E+03  0.00000000000E+00 0. -1.
         23    2    1    2    0    0  0.41194442966E+03 -0.27277792463E+03  0.46710534121E+03  0.68599927244E+03  0.91113076471E+02 0.  0.
        254    2    1    2    0    0 -0.41194442966E+03  0.27277792463E+03 -0.56401743147E+03  0.11793761871E+04  0.91033319093E+03 0.  0.
         23    2    4    4    0    0  0.58677690626E+02  0.34519915906E+03  0.82805863509E+02  0.37090689499E+03  0.90053222716E+02 0.  0.
         23    2    4    4    0    0 -0.47062212029E+03 -0.72421234435E+02 -0.64682329497E+03  0.80846929216E+03  0.92261617905E+02 0.  0.
          2    1    3    3  502    0  0.14008977976E+03 -0.82231449636E+02  0.98679325652E+02  0.19006516518E+03  0.00000000000E+00 0. -1.
         -2    1    3    3    0  502  0.27185464991E+03 -0.19054647499E+03  0.36842601556E+03  0.49593410727E+03  0.00000000000E+00 0.  1.
         11    1    5    5    0    0  0.48390765655E+01  0.75118880947E+01  0.21793645552E+02  0.23554365014E+02  0.00000000000E+00 0. -1.
        -11    1    5    5    0    0  0.53838614060E+02  0.33768727097E+03  0.61012217957E+02  0.34735252997E+03  0.00000000000E+00 0.  1.
          2    1    6    6  503    0 -0.12345896505E+03 -0.42695015825E+02 -0.12355636184E+03  0.17980866214E+03  0.00000000000E+00 0. -1.
         -2    1    6    6    0  503 -0.34716315523E+03 -0.29726218610E+02 -0.52326693314E+03  0.62866063002E+03  0.00000000000E+00 0.  1.
<mgrwt>
<rscale>  0 0.18628563E+04</rscale>
<asrwt>0</asrwt>
<pdfrwt beam="1">  1        1 0.15094520E+00 0.18628563E+04</pdfrwt>
<pdfrwt beam="2">  1       -1 0.13603564E+00 0.18628563E+04</pdfrwt>
<totfact> 0.66380734E+00</totfact>
</mgrwt>
</event>
<event>
12    2  0.3751044E-008  0.1158260E+04  0.7818608E-02  0.9150197E-01
          2   -1    0    0  501    0  0.00000000000E+00  0.00000000000E+00  0.20775120525E+04  0.20775120525E+04  0.00000000000E+00 0. -1.
         -2   -1    0    0    0  501 -0.00000000000E+00 -0.00000000000E+00 -0.16143910104E+03  0.16143910104E+03  0.00000000000E+00 0.  1.
         23    2    1    2    0    0  0.18733200886E+02  0.14773161844E+03  0.13123232018E+03  0.23511191025E+03  0.12601636632E+03 0.  0.
        254    2    1    2    0    0 -0.18733200886E+02 -0.14773161844E+03  0.17848406313E+04  0.20038392433E+04  0.89863233303E+03 0.  0.
         23    2    4    4    0    0 -0.23059986214E+03  0.24132641009E+03  0.12800282212E+04  0.13260458312E+04  0.92252732586E+02 0.  0.
         23    2    4    4    0    0  0.21186666125E+03 -0.38905802853E+03  0.50481241008E+03  0.67779341212E+03  0.91185023044E+02 0.  0.
          1    1    3    3  502    0  0.47986948845E+02  0.32217861356E+02  0.93858806910E+02  0.11022800681E+03  0.00000000000E+00 0. -1.
         -1    1    3    3    0  502 -0.29253747959E+02  0.11551375709E+03  0.37373513265E+02  0.12488390344E+03  0.00000000000E+00 0.  1.
         11    1    5    5    0    0 -0.12178254028E+03  0.19004519171E+03  0.86052411631E+03  0.88963470973E+03  0.00000000000E+00 0. -1.
        -11    1    5    5    0    0 -0.10881732186E+03  0.51281218380E+02  0.41950410489E+03  0.43641112144E+03  0.00000000000E+00 0.  1.
          2    1    6    6  503    0  0.30771657260E+02 -0.18312627982E+02  0.19449208859E+02  0.40749465756E+02  0.00000000000E+00 0.  1.
         -2    1    6    6    0  503  0.18109500399E+03 -0.37074540055E+03  0.48536320122E+03  0.63704394636E+03  0.00000000000E+00 0. -1.
<mgrwt>
<rscale>  0 0.11582602E+04</rscale>
<asrwt>0</asrwt>
<pdfrwt beam="1">  1        2 0.31961722E+00 0.11582602E+04</pdfrwt>
<pdfrwt beam="2">  1       -2 0.24836786E-01 0.11582602E+04</pdfrwt>
<totfact> 0.87074774E+01</totfact>
</mgrwt>
</event>
<event>
12    2  0.3751044E-008  0.1704782E+04  0.7818608E-02  0.8758642E-01
          2   -1    0    0  501    0  0.00000000000E+00  0.00000000000E+00  0.34952324198E+03  0.34952324198E+03  0.00000000000E+00 0. -1.
         -2   -1    0    0    0  501 -0.00000000000E+00 -0.00000000000E+00 -0.20787458593E+04  0.20787458593E+04  0.00000000000E+00 0.  1.
         23    2    1    2    0    0  0.12511026606E+03  0.11501335286E+03  0.21173252897E+03  0.28637032623E+03  0.91085947933E+02 0.  0.
        254    2    1    2    0    0 -0.12511026606E+03 -0.11501335286E+03 -0.19409551463E+04  0.21418987751E+04  0.88968692958E+03 0.  0.
         23    2    4    4    0    0 -0.26595263197E+03 -0.42387757125E+03 -0.14597252771E+04  0.15458259361E+04  0.91525635866E+02 0.  0.
         23    2    4    4    0    0  0.14084236591E+03  0.30886421839E+03 -0.48122986916E+03  0.59607283900E+03  0.92124725180E+02 0.  0.
          4    1    3    3  502    0  0.54745469962E+02 -0.81979923842E+00  0.41095436354E+02  0.68458552726E+02  0.00000000000E+00 0.  1.
         -4    1    3    3    0  502  0.70364796095E+02  0.11583315210E+03  0.17063709261E+03  0.21791177350E+03  0.00000000000E+00 0. -1.
         11    1    5    5    0    0 -0.38132245999E+02 -0.13412059449E+03 -0.36599018915E+03  0.39165191255E+03  0.00000000000E+00 0.  1.
        -11    1    5    5    0    0 -0.22782038597E+03 -0.28975697675E+03 -0.10937350880E+04  0.11541740235E+04  0.00000000000E+00 0. -1.
          4    1    6    6  503    0  0.14728013488E+03  0.31151189601E+03 -0.46857965415E+03  0.58163389840E+03  0.00000000000E+00 0. -1.
         -4    1    6    6    0  503 -0.64377689609E+01 -0.26476776207E+01 -0.12650215013E+02  0.14438940607E+02  0.00000000000E+00 0.  1.
<mgrwt>
<rscale>  0 0.17047815E+04</rscale>
<asrwt>0</asrwt>
<pdfrwt beam="1">  1        2 0.53772807E-01 0.17047815E+04</pdfrwt>
<pdfrwt beam="2">  1       -2 0.31980705E+00 0.17047815E+04</pdfrwt>
<totfact> 0.21204606E+00</totfact>
</mgrwt>
</event>
<event>
12    2  0.3751044E-008  0.1587482E+04  0.7818608E-02  0.8828275E-01
         -2   -1    0    0    0  501 -0.00000000000E+00  0.00000000000E+00  0.93453592228E+03  0.93453592228E+03  0.00000000000E+00 0.  1.
          2   -1    0    0  501    0  0.00000000000E+00 -0.00000000000E+00 -0.67415784044E+03  0.67415784044E+03  0.00000000000E+00 0. -1.
         23    2    1    2    0    0 -0.57273000144E+02 -0.52334898319E+03 -0.25340057503E+02  0.53561248426E+03  0.95206407485E+02 0.  0.
        254    2    1    2    0    0  0.57273000144E+02  0.52334898319E+03  0.28571813934E+03  0.10730812785E+04  0.89033376903E+03 0.  0.
         23    2    4    4    0    0 -0.26885613101E+03  0.20729817919E+03 -0.19762431319E+03  0.40312179509E+03  0.90529874851E+02 0.  0.
         23    2    4    4    0    0  0.32612913115E+03  0.31605080401E+03  0.48334245253E+03  0.66995948337E+03  0.94749469862E+02 0.  0.
          1    1    3    3  502    0  0.88121264431E+01 -0.24229332799E+03  0.20321088449E+02  0.24330363128E+03  0.00000000000E+00 0. -1.
         -1    1    3    3    0  502 -0.66085126587E+02 -0.28105565521E+03 -0.45661145953E+02  0.29230885298E+03  0.00000000000E+00 0.  1.
         11    1    5    5    0    0 -0.20183513930E+03  0.17373916895E+03 -0.11086148255E+03  0.28846661956E+03  0.00000000000E+00 0.  1.
        -11    1    5    5    0    0 -0.67020991704E+02  0.33559010237E+02 -0.86762830634E+02  0.11465517553E+03  0.00000000000E+00 0. -1.
          3    1    6    6  503    0  0.41827664852E+02  0.30231380522E+02  0.10543807161E+03  0.11739112769E+03  0.00000000000E+00 0. -1.
         -3    1    6    6    0  503  0.28430146630E+03  0.28581942349E+03  0.37790438093E+03  0.55256835568E+03  0.00000000000E+00 0.  1.
<mgrwt>
<rscale>  0 0.15874819E+04</rscale>
<asrwt>0</asrwt>
<pdfrwt beam="1">  1        2 0.10371659E+00 0.15874819E+04</pdfrwt>
<pdfrwt beam="2">  1       -2 0.14377476E+00 0.15874819E+04</pdfrwt>
<totfact> 0.13809806E+01</totfact>
</mgrwt>
</event>
<event>
12    2  0.3751044E-008  0.1428922E+04  0.7818608E-02  0.8933145E-01
         -1   -1    0    0    0  501 -0.00000000000E+00  0.00000000000E+00  0.31860938381E+03  0.31860938381E+03  0.00000000000E+00 0.  1.
          1   -1    0    0  501    0  0.00000000000E+00 -0.00000000000E+00 -0.16021331870E+04  0.16021331870E+04  0.00000000000E+00 0. -1.
         23    2    1    2    0    0 -0.24208071017E+03 -0.31808087776E+03 -0.21496307363E+03  0.46293214580E+03  0.91205995172E+02 0.  0.
        254    2    1    2    0    0  0.24208071017E+03  0.31808087776E+03 -0.10685607295E+04  0.14578104250E+04  0.90752999260E+03 0.  0.
         23    2    4    4    0    0 -0.11791911325E+03  0.53502562303E+03 -0.52398095021E+03  0.76365578100E+03  0.91960758471E+02 0.  0.
         23    2    4    4    0    0  0.35999982342E+03 -0.21694474527E+03 -0.54457977932E+03  0.69415464399E+03  0.92836621870E+02 0.  0.
          4    1    3    3  502    0 -0.12453092644E+03 -0.21760229713E+03 -0.16613653130E+03  0.30076578660E+03  0.00000000000E+00 0.  1.
         -4    1    3    3    0  502 -0.11754978372E+03 -0.10047858063E+03 -0.48826542330E+02  0.16216635920E+03  0.00000000000E+00 0. -1.
         11    1    5    5    0    0 -0.14305179491E+02  0.27464072207E+03 -0.27152531262E+03  0.38646883415E+03  0.00000000000E+00 0.  1.
        -11    1    5    5    0    0 -0.10361393376E+03  0.26038490096E+03 -0.25245563759E+03  0.37718694685E+03  0.00000000000E+00 0. -1.
          4    1    6    6  503    0  0.99310696258E+02 -0.23417684811E+02 -0.17175079861E+03  0.19977321937E+03  0.00000000000E+00 0. -1.
         -4    1    6    6    0  503  0.26068912716E+03 -0.19352706046E+03 -0.37282898071E+03  0.49438142462E+03  0.00000000000E+00 0.  1.
<mgrwt>
<rscale>  0 0.14289222E+04</rscale>
<asrwt>0</asrwt>
<pdfrwt beam="1">  1        1 0.24648203E+00 0.14289222E+04</pdfrwt>
<pdfrwt beam="2">  1       -1 0.49016828E-01 0.14289222E+04</pdfrwt>
<totfact> 0.22552963E+01</totfact>
</mgrwt>
</event>
<event>
12    2  0.3751044E-008  0.1707256E+04  0.7818608E-02  0.8757237E-01
          1   -1    0    0  501    0  0.00000000000E+00  0.00000000000E+00  0.10431054673E+04  0.10431054673E+04  0.00000000000E+00 0. -1.
         -1   -1    0    0    0  501 -0.00000000000E+00 -0.00000000000E+00 -0.69856858046E+03  0.69856858046E+03  0.00000000000E+00 0.  1.
         23    2    1    2    0    0 -0.33736961124E+03 -0.48465130096E+03  0.30588289458E+03  0.67122303264E+03  0.90944357922E+02 0.  0.
        254    2    1    2    0    0  0.33736961124E+03  0.48465130096E+03  0.38653992291E+02  0.10704510152E+04  0.89200118084E+03 0.  0.
         23    2    4    4    0    0 -0.24495633317E+03  0.28538060693E+03 -0.15769665074E+03  0.41796847255E+03  0.91562625693E+02 0.  0.
         23    2    4    4    0    0  0.58232594440E+03  0.19927069403E+03  0.19635064303E+03  0.65248254260E+03  0.91474468331E+02 0.  0.
          4    1    3    3  502    0 -0.32740493992E+03 -0.42363601595E+03  0.26828097430E+03  0.59886237974E+03  0.00000000000E+00 0. -1.
         -4    1    3    3    0  502 -0.99646713161E+01 -0.61015285007E+02  0.37601920277E+02  0.72360652896E+02  0.00000000000E+00 0.  1.
         11    1    5    5    0    0 -0.20714059858E+02  0.73548125482E+02 -0.49620389073E+02  0.91107530147E+02  0.00000000000E+00 0.  1.
        -11    1    5    5    0    0 -0.22424227331E+03  0.21183248145E+03 -0.10807626167E+03  0.32686094241E+03  0.00000000000E+00 0. -1.
          3    1    6    6  503    0  0.56735688206E+03  0.17784417849E+03  0.17836493094E+03  0.62075472776E+03  0.00000000000E+00 0. -1.
         -3    1    6    6    0  503  0.14969062343E+02  0.21426515532E+02  0.17985712088E+02  0.31727814841E+02  0.00000000000E+00 0.  1.
<mgrwt>
<rscale>  0 0.17072559E+04</rscale>
<asrwt>0</asrwt>
<pdfrwt beam="1">  1        1 0.16047776E+00 0.17072559E+04</pdfrwt>
<pdfrwt beam="2">  1       -1 0.10747209E+00 0.17072559E+04</pdfrwt>
<totfact> 0.10743312E+01</totfact>
</mgrwt>
</event>
<event>
12    2  0.3751044E-008  0.3035453E+04  0.7818608E-02  0.8233679E-01
          2   -1    0    0  501    0  0.00000000000E+00  0.00000000000E+00  0.16525420922E+04  0.16525420922E+04  0.00000000000E+00 0. -1.
         -2   -1    0    0    0  501 -0.00000000000E+00 -0.00000000000E+00 -0.13939090384E+04  0.13939090384E+04  0.00000000000E+00 0.  1.
         23    2    1    2    0    0 -0.84023122809E+03 -0.42938375297E+03  0.11383340109E+04  0.14815631758E+04  0.94160499455E+02 0.  0.
        254    2    1    2    0    0  0.84023122809E+03  0.42938375297E+03 -0.87970095709E+03  0.15648879547E+04  0.88579998478E+03 0.  0.
         23    2    4    4    0    0  0.93779499313E+03  0.17191582553E+03 -0.83687986730E+03  0.12717589228E+04  0.89377542809E+02 0.  0.
         23    2    4    4    0    0 -0.97563765035E+02  0.25746792745E+03 -0.42821089788E+02  0.29312903197E+03  0.91008580606E+02 0.  0.
          3    1    3    3  502    0 -0.16546626985E+03 -0.10870046602E+03  0.29031976506E+03  0.35139784256E+03  0.00000000000E+00 0. -1.
         -3    1    3    3    0  502 -0.67476495824E+03 -0.32068328696E+03  0.84801424583E+03  0.11301653333E+04  0.00000000000E+00 0.  1.
         11    1    5    5    0    0  0.87692758200E+03  0.15251766223E+03 -0.75014393040E+03  0.11640358833E+04  0.00000000000E+00 0. -1.
        -11    1    5    5    0    0  0.60867411127E+02  0.19398163298E+02 -0.86735936903E+02  0.10772303944E+03  0.00000000000E+00 0.  1.
          1    1    6    6  503    0 -0.80566935056E+02  0.20158182078E+03 -0.70828306542E+02  0.22834822202E+03  0.00000000000E+00 0. -1.
         -1    1    6    6    0  503 -0.16996829979E+02  0.55886106671E+02  0.28007216754E+02  0.64780809955E+02  0.00000000000E+00 0.  1.
<mgrwt>
<rscale>  0 0.30354528E+04</rscale>
<asrwt>0</asrwt>
<pdfrwt beam="1">  1        2 0.25423725E+00 0.30354528E+04</pdfrwt>
<pdfrwt beam="2">  1       -2 0.21444754E+00 0.30354528E+04</pdfrwt>
<totfact> 0.95392697E-01</totfact>
</mgrwt>
</event>
<event>
12    2  0.3751044E-008  0.1582830E+04  0.7818608E-02  0.8831166E-01
         -2   -1    0    0    0  501 -0.00000000000E+00  0.00000000000E+00  0.21751333847E+03  0.21751333847E+03  0.00000000000E+00 0. -1.
          2   -1    0    0  501    0  0.00000000000E+00 -0.00000000000E+00 -0.28795377776E+04  0.28795377776E+04  0.00000000000E+00 0.  1.
         23    2    1    2    0    0 -0.17205135365E+03 -0.40272937284E+03 -0.29767801378E+03  0.53718743388E+03  0.90363284521E+02 0.  0.
        254    2    1    2    0    0  0.17205135365E+03  0.40272937284E+03 -0.23643464253E+04  0.25598636822E+04  0.87805206926E+03 0.  0.
         23    2    4    4    0    0 -0.34314963821E+01 -0.26826626222E+03 -0.66929490353E+03  0.72611365676E+03  0.85479892565E+02 0.  0.
         23    2    4    4    0    0  0.17548285003E+03  0.67099563505E+03 -0.16950515218E+04  0.18337500254E+04  0.91706713196E+02 0.  0.
          2    1    3    3  502    0 -0.17817877453E+03 -0.35329594490E+03 -0.24882718945E+03  0.46741915941E+03  0.00000000000E+00 0. -1.
         -2    1    3    3    0  502  0.61274208775E+01 -0.49433427938E+02 -0.48850824336E+02  0.69768274470E+02  0.00000000000E+00 0.  1.
         11    1    5    5    0    0 -0.15565609888E+02 -0.25705479678E+03 -0.65654490495E+03  0.70524511269E+03  0.00000000000E+00 0.  1.
        -11    1    5    5    0    0  0.12134113506E+02 -0.11211465437E+02 -0.12749998579E+02  0.20868544069E+02  0.00000000000E+00 0. -1.
          1    1    6    6  503    0  0.85443004196E+02  0.43001990067E+03 -0.11594631985E+04  0.12395856286E+04  0.00000000000E+00 0. -1.
         -1    1    6    6    0  503  0.90039845834E+02  0.24097573439E+03 -0.53558832334E+03  0.59416439686E+03  0.00000000000E+00 0.  1.
<mgrwt>
<rscale>  0 0.15828302E+04</rscale>
<asrwt>0</asrwt>
<pdfrwt beam="1">  1        2 0.44300578E+00 0.15828302E+04</pdfrwt>
<pdfrwt beam="2">  1       -2 0.33463593E-01 0.15828302E+04</pdfrwt>
<totfact> 0.16657468E+01</totfact>
</mgrwt>
</event>
<event>
12    2  0.3751044E-008  0.1553705E+04  0.7818608E-02  0.8849505E-01
         -1   -1    0    0    0  501 -0.00000000000E+00  0.00000000000E+00  0.34320807762E+03  0.34320807762E+03  0.00000000000E+00 0.  1.
          1   -1    0    0  501    0  0.00000000000E+00 -0.00000000000E+00 -0.17584079191E+04  0.17584079191E+04  0.00000000000E+00 0. -1.
         23    2    1    2    0    0  0.12480933218E+03 -0.43324378058E+01  0.19662304484E+03  0.26324849299E+03  0.12264994042E+03 0.  0.
        254    2    1    2    0    0 -0.12480933218E+03  0.43324378058E+01 -0.16118228863E+04  0.18383675037E+04  0.87522906858E+03 0.  0.
         23    2    4    4    0    0  0.68940061589E+02 -0.97457961549E+02 -0.15938476546E+04  0.16003859791E+04  0.81450289828E+02 0.  0.
         23    2    4    4    0    0 -0.19374939377E+03  0.10179039935E+03 -0.17975231771E+02  0.23798152466E+03  0.91716869436E+02 0.  0.
          2    1    3    3  502    0  0.63875654814E+02  0.51938030616E+02  0.54621063629E+02  0.98798374957E+02  0.00000000000E+00 0. -1.
         -2    1    3    3    0  502  0.60933677362E+02 -0.56270468421E+02  0.14200198121E+03  0.16445011804E+03  0.00000000000E+00 0.  1.
         11    1    5    5    0    0  0.85136922111E+02 -0.95844942214E+02 -0.14017272815E+04  0.14075773230E+04  0.00000000000E+00 0. -1.
        -11    1    5    5    0    0 -0.16196860522E+02 -0.16130193348E+01 -0.19212037304E+03  0.19280865608E+03  0.00000000000E+00 0.  1.
          3    1    6    6  503    0 -0.19628600060E+03  0.11187957441E+03 -0.21606738007E+02  0.22696273775E+03  0.00000000000E+00 0. -1.
         -3    1    6    6    0  503  0.25366068311E+01 -0.10089175055E+02  0.36315062362E+01  0.11018786913E+02  0.00000000000E+00 0.  1.
<mgrwt>
<rscale>  0 0.15537050E+04</rscale>
<asrwt>0</asrwt>
<pdfrwt beam="1">  1        1 0.27052429E+00 0.15537050E+04</pdfrwt>
<pdfrwt beam="2">  1       -1 0.52801244E-01 0.15537050E+04</pdfrwt>
<totfact> 0.15144216E+01</totfact>
</mgrwt>
</event>
<event>
12    2  0.3751044E-008  0.3353146E+04  0.7818608E-02  0.8149503E-01
          2   -1    0    0  501    0  0.00000000000E+00  0.00000000000E+00  0.17765509773E+04  0.17765509773E+04  0.00000000000E+00 0. -1.
         -2   -1    0    0    0  501 -0.00000000000E+00 -0.00000000000E+00 -0.15822214022E+04  0.15822214022E+04  0.00000000000E+00 0.  1.
         23    2    1    2    0    0  0.10189508399E+04  0.11691479847E+04  0.73648389336E+02  0.15557257641E+04  0.98441574266E+02 0.  0.
        254    2    1    2    0    0 -0.10189508399E+04 -0.11691479847E+04  0.12068118573E+03  0.18030466153E+04  0.91172656218E+03 0.  0.
         23    2    4    4    0    0 -0.77255307160E+03 -0.92653717402E+03 -0.30452108966E+03  0.12475082038E+04  0.90742719785E+02 0.  0.
         23    2    4    4    0    0 -0.24639776829E+03 -0.24261081072E+03  0.42520227539E+03  0.55553841156E+03  0.90852000644E+02 0.  0.
          4    1    3    3  502    0  0.23947125217E+03  0.28691074879E+03  0.59232928370E+02  0.37838181536E+03  0.00000000000E+00 0. -1.
         -4    1    3    3    0  502  0.77947958772E+03  0.88223723595E+03  0.14415460966E+02  0.11773439488E+04  0.00000000000E+00 0.  1.
         11    1    5    5    0    0 -0.32166148848E+03 -0.42636677431E+03 -0.96794759270E+02  0.54279274574E+03  0.00000000000E+00 0.  1.
        -11    1    5    5    0    0 -0.45089158313E+03 -0.50017039971E+03 -0.20772633039E+03  0.70471545805E+03  0.00000000000E+00 0. -1.
          1    1    6    6  503    0 -0.30140637332E+02 -0.80751216852E+02  0.83995621076E+02  0.12035149107E+03  0.00000000000E+00 0. -1.
         -1    1    6    6    0  503 -0.21625713096E+03 -0.16185959386E+03  0.34120665431E+03  0.43518692049E+03  0.00000000000E+00 0.  1.
<mgrwt>
<rscale>  0 0.33531460E+04</rscale>
<asrwt>0</asrwt>
<pdfrwt beam="1">  1        2 0.27331554E+00 0.33531460E+04</pdfrwt>
<pdfrwt beam="2">  1       -2 0.24341868E+00 0.33531460E+04</pdfrwt>
<totfact> 0.52172201E-01</totfact>
</mgrwt>
</event>
<event>
12    2  0.3751044E-008  0.1628447E+04  0.7818608E-02  0.8803260E-01
         -2   -1    0    0    0  501 -0.00000000000E+00  0.00000000000E+00  0.84165034648E+03  0.84165034648E+03  0.00000000000E+00 0.  1.
          2   -1    0    0  501    0  0.00000000000E+00 -0.00000000000E+00 -0.78769036554E+03  0.78769036554E+03  0.00000000000E+00 0. -1.
         23    2    1    2    0    0 -0.10652230139E+03  0.33078923405E+03  0.46192873044E+03  0.58702209744E+03  0.10221679327E+03 0.  0.
        254    2    1    2    0    0  0.10652230139E+03 -0.33078923405E+03 -0.40796874949E+03  0.10423186146E+04  0.89399165303E+03 0.  0.
         23    2    4    4    0    0  0.11500383689E+03  0.56766757452E+01  0.25485622872E+03  0.29371679476E+03  0.89776116313E+02 0.  0.
         23    2    4    4    0    0 -0.84815355021E+01 -0.33646590979E+03 -0.66282497821E+03  0.74860181983E+03  0.88241078914E+02 0.  0.
          1    1    3    3  502    0 -0.23649715215E+02  0.16440302204E+03  0.14944448524E+03  0.22343078762E+03  0.00000000000E+00 0. -1.
         -1    1    3    3    0  502 -0.82872586170E+02  0.16638621201E+03  0.31248424519E+03  0.36359130982E+03  0.00000000000E+00 0.  1.
         11    1    5    5    0    0  0.54592479515E+02 -0.24818884440E+01  0.33453573075E+02  0.64075269343E+02  0.00000000000E+00 0. -1.
        -11    1    5    5    0    0  0.60411357372E+02  0.81585641891E+01  0.22140265564E+03  0.22964152541E+03  0.00000000000E+00 0.  1.
          4    1    6    6  503    0  0.10086440612E+02 -0.62742034221E+02 -0.65378972241E+02  0.91174059653E+02  0.00000000000E+00 0. -1.
         -4    1    6    6    0  503 -0.18567976114E+02 -0.27372387557E+03 -0.59744600597E+03  0.65742776017E+03  0.00000000000E+00 0.  1.
<mgrwt>
<rscale>  0 0.16284470E+04</rscale>
<asrwt>0</asrwt>
<pdfrwt beam="1">  1        2 0.12118313E+00 0.16284470E+04</pdfrwt>
<pdfrwt beam="2">  1       -2 0.12948467E+00 0.16284470E+04</pdfrwt>
<totfact> 0.14757402E+01</totfact>
</mgrwt>
</event>
<event>
12    2  0.3751044E-008  0.1162468E+04  0.7818608E-02  0.9146358E-01
         -1   -1    0    0    0  501 -0.00000000000E+00  0.00000000000E+00  0.32687290089E+03  0.32687290089E+03  0.00000000000E+00 0.  1.
          1   -1    0    0  501    0  0.00000000000E+00 -0.00000000000E+00 -0.10335304062E+04  0.10335304062E+04  0.00000000000E+00 0. -1.
         23    2    1    2    0    0 -0.11182180016E+03 -0.22905866364E+03 -0.23602434826E+03  0.35895906654E+03  0.90399845690E+02 0.  0.
        254    2    1    2    0    0  0.11182180016E+03  0.22905866364E+03 -0.47063315703E+03  0.10014442405E+04  0.84641775265E+03 0.  0.
         23    2    4    4    0    0  0.21963157341E+03  0.44527580613E+03 -0.50636993692E+02  0.50846596513E+03  0.97288031132E+02 0.  0.
         23    2    4    4    0    0 -0.10780977325E+03 -0.21621714249E+03 -0.41999616334E+03  0.49297827540E+03  0.90873554377E+02 0.  0.
          2    1    3    3  502    0 -0.55098452525E+02 -0.91303388752E+02 -0.15845460114E+03  0.19099740546E+03  0.00000000000E+00 0. -1.
         -2    1    3    3    0  502 -0.56723347636E+02 -0.13775527489E+03 -0.77569747123E+02  0.16796166109E+03  0.00000000000E+00 0.  1.
         11    1    5    5    0    0  0.23068468656E+02  0.11673710356E+03  0.15315035392E+02  0.11997606388E+03  0.00000000000E+00 0. -1.
        -11    1    5    5    0    0  0.19656310475E+03  0.32853870257E+03 -0.65952029084E+02  0.38848990125E+03  0.00000000000E+00 0.  1.
          4    1    6    6  503    0 -0.28007791764E+02 -0.21780462932E+01 -0.30720366510E+02  0.41628370178E+02  0.00000000000E+00 0. -1.
         -4    1    6    6    0  503 -0.79801981483E+02 -0.21403909619E+03 -0.38927579683E+03  0.45134990522E+03  0.00000000000E+00 0.  1.
<mgrwt>
<rscale>  0 0.11624682E+04</rscale>
<asrwt>0</asrwt>
<pdfrwt beam="1">  1        1 0.15900468E+00 0.11624682E+04</pdfrwt>
<pdfrwt beam="2">  1       -1 0.50288138E-01 0.11624682E+04</pdfrwt>
<totfact> 0.56119822E+01</totfact>
</mgrwt>
</event>
<event>
12    2  0.3751044E-008  0.2709018E+04  0.7818608E-02  0.8332085E-01
         -2   -1    0    0    0  501 -0.00000000000E+00  0.00000000000E+00  0.99507494020E+03  0.99507494020E+03  0.00000000000E+00 0.  1.
          2   -1    0    0  501    0  0.00000000000E+00 -0.00000000000E+00 -0.18437747988E+04  0.18437747988E+04  0.00000000000E+00 0. -1.
         23    2    1    2    0    0  0.84622617502E+03  0.36843890023E+03  0.37223387308E+03  0.10002537885E+04  0.10051677804E+03 0.  0.
        254    2    1    2    0    0 -0.84622617502E+03 -0.36843890023E+03 -0.12209337317E+04  0.18385959505E+04  0.10187786460E+04 0.  0.
         23    2    4    4    0    0  0.22783615948E+03 -0.44005988978E+02 -0.20953205387E+03  0.32529098708E+03  0.89803686119E+02 0.  0.
         23    2    4    4    0    0 -0.10740623345E+04 -0.32443291125E+03 -0.10114016778E+04  0.15133049634E+04  0.91060123711E+02 0.  0.
          4    1    3    3  502    0  0.94955070734E+02  0.12306095335E+02  0.22979502342E+02  0.98468080962E+02  0.00000000000E+00 0. -1.
         -4    1    3    3    0  502  0.75127110428E+03  0.35613280489E+03  0.34925437074E+03  0.90178570755E+03  0.00000000000E+00 0.  1.
         11    1    5    5    0    0  0.14238833492E+03 -0.15790306394E+02 -0.70473839366E+02  0.15965692510E+03  0.00000000000E+00 0. -1.
        -11    1    5    5    0    0  0.85447824566E+02 -0.28215682584E+02 -0.13905821450E+03  0.16563406198E+03  0.00000000000E+00 0.  1.
          1    1    6    6  503    0 -0.90021816732E+03 -0.30619821648E+03 -0.85146879751E+03  0.12763812948E+04  0.00000000000E+00 0. -1.
         -1    1    6    6    0  503 -0.17384416718E+03 -0.18234694771E+02 -0.15993288034E+03  0.23692366866E+03  0.00000000000E+00 0.  1.
<mgrwt>
<rscale>  0 0.27090176E+04</rscale>
<asrwt>0</asrwt>
<pdfrwt beam="1">  1        2 0.28365766E+00 0.27090176E+04</pdfrwt>
<pdfrwt beam="2">  1       -2 0.15308845E+00 0.27090176E+04</pdfrwt>
<totfact> 0.20301943E+00</totfact>
</mgrwt>
</event>
<event>
12    2  0.3751044E-008  0.2349614E+04  0.7818608E-02  0.8458612E-01
          2   -1    0    0  501    0  0.00000000000E+00  0.00000000000E+00  0.16403964618E+04  0.16403964618E+04  0.00000000000E+00 0. -1.
         -2   -1    0    0    0  501 -0.00000000000E+00 -0.00000000000E+00 -0.84136469541E+03  0.84136469541E+03  0.00000000000E+00 0.  1.
         23    2    1    2    0    0 -0.48537696173E+03 -0.87434911192E+03  0.42686502522E+03  0.10910514832E+04  0.90013469471E+02 0.  0.
        254    2    1    2    0    0  0.48537696173E+03  0.87434911192E+03  0.37216674120E+03  0.13907096741E+04  0.89190142383E+03 0.  0.
         23    2    4    4    0    0  0.33393082137E+03  0.11276960636E+03  0.47896948731E+03  0.60148238286E+03  0.90235855048E+02 0.  0.
         23    2    4    4    0    0  0.15144614036E+03  0.76157950555E+03 -0.10680274611E+03  0.78922729122E+03  0.92377561728E+02 0.  0.
          2    1    3    3  502    0 -0.17086516055E+03 -0.27098229908E+03  0.17846087263E+03  0.36670777544E+03  0.00000000000E+00 0. -1.
         -2    1    3    3    0  502 -0.31451180118E+03 -0.60336681283E+03  0.24840415259E+03  0.72434370774E+03  0.00000000000E+00 0.  1.
         11    1    5    5    0    0  0.11387704623E+03  0.67567735543E+02  0.12406582368E+03  0.18145442720E+03  0.00000000000E+00 0. -1.
        -11    1    5    5    0    0  0.22005377514E+03  0.45201870821E+02  0.35490366363E+03  0.42002795566E+03  0.00000000000E+00 0.  1.
          2    1    6    6  503    0  0.12514661270E+02  0.10333456796E+02  0.52753102060E+01  0.17065344234E+02  0.00000000000E+00 0. -1.
         -2    1    6    6    0  503  0.13893147909E+03  0.75124604876E+03 -0.11207805632E+03  0.77216194698E+03  0.00000000000E+00 0.  1.
<mgrwt>
<rscale>  0 0.23496142E+04</rscale>
<asrwt>0</asrwt>
<pdfrwt beam="1">  1        2 0.25236869E+00 0.23496142E+04</pdfrwt>
<pdfrwt beam="2">  1       -2 0.12944072E+00 0.23496142E+04</pdfrwt>
<totfact> 0.41978187E+00</totfact>
</mgrwt>
</event>
<event>
12    2  0.3751044E-008  0.1284771E+04  0.7818608E-02  0.9041730E-01
         -1   -1    0    0    0  501 -0.00000000000E+00  0.00000000000E+00  0.98087600613E+03  0.98087600613E+03  0.00000000000E+00 0.  1.
          1   -1    0    0  501    0  0.00000000000E+00 -0.00000000000E+00 -0.42070438380E+03  0.42070438380E+03  0.00000000000E+00 0. -1.
         23    2    1    2    0    0 -0.12336048849E+03  0.17269741569E+03 -0.11292783285E+03  0.25757666536E+03  0.92470728351E+02 0.  0.
        254    2    1    2    0    0  0.12336048849E+03 -0.17269741569E+03  0.67309945518E+03  0.11440037246E+04  0.90035517311E+03 0.  0.
         23    2    4    4    0    0 -0.34344920476E+03 -0.58077851536E+02  0.68836345757E+02  0.36649597068E+03  0.90832047953E+02 0.  0.
         23    2    4    4    0    0  0.46680969325E+03 -0.11461956416E+03  0.60426310943E+03  0.77750775388E+03  0.91298782777E+02 0.  0.
          1    1    3    3  502    0 -0.12106029670E+03  0.17426381583E+03 -0.12426912168E+03  0.24589893767E+03  0.00000000000E+00 0. -1.
         -1    1    3    3    0  502 -0.23001917855E+01 -0.15664001378E+01  0.11341288833E+02  0.11677727691E+02  0.00000000000E+00 0.  1.
         11    1    5    5    0    0  0.42193089428E+01 -0.44781935555E-01  0.76635063016E+01  0.87483656880E+01  0.00000000000E+00 0. -1.
        -11    1    5    5    0    0 -0.34766851371E+03 -0.58033069601E+02  0.61172839455E+02  0.35774760499E+03  0.00000000000E+00 0.  1.
          4    1    6    6  503    0  0.15419810241E+03  0.32256969724E+01  0.16875024363E+03  0.22861343931E+03  0.00000000000E+00 0. -1.
         -4    1    6    6    0  503  0.31261159084E+03 -0.11784526113E+03  0.43551286580E+03  0.54889431458E+03  0.00000000000E+00 0.  1.
<mgrwt>
<rscale>  0 0.12847705E+04</rscale>
<asrwt>0</asrwt>
<pdfrwt beam="1">  1        1 0.64723752E-01 0.12847705E+04</pdfrwt>
<pdfrwt beam="2">  1       -1 0.15090400E+00 0.12847705E+04</pdfrwt>
<totfact> 0.18935848E+01</totfact>
</mgrwt>
</event>
<event>
12    2  0.3751044E-008  0.1271337E+04  0.7818608E-02  0.9052609E-01
          1   -1    0    0  501    0  0.00000000000E+00  0.00000000000E+00  0.86176576959E+03  0.86176576959E+03  0.00000000000E+00 0. -1.
         -1   -1    0    0    0  501 -0.00000000000E+00 -0.00000000000E+00 -0.46889140069E+03  0.46889140069E+03  0.00000000000E+00 0.  1.
         23    2    1    2    0    0  0.15888364341E+03  0.23555320746E+03  0.22441707880E+03  0.37226210689E+03  0.86525864809E+02 0.  0.
        254    2    1    2    0    0 -0.15888364341E+03 -0.23555320746E+03  0.16845729010E+03  0.95839506340E+03  0.89967433734E+03 0.  0.
         23    2    4    4    0    0  0.29885314017E+03 -0.31688798701E+03 -0.22588616949E+02  0.44629604690E+03  0.94544805084E+02 0.  0.
         23    2    4    4    0    0 -0.45773678357E+03  0.81334779551E+02  0.19104590704E+03  0.51209901649E+03  0.98023235464E+02 0.  0.
          2    1    3    3  502    0  0.29845868320E+02  0.30749219961E+02  0.10168140201E+01  0.42864020982E+02  0.00000000000E+00 0. -1.
         -2    1    3    3    0  502  0.12903777509E+03  0.20480398750E+03  0.22340026478E+03  0.32939808591E+03  0.00000000000E+00 0.  1.
         11    1    5    5    0    0  0.95197203648E+02 -0.16919776589E+03 -0.81781024218E+01  0.19431230770E+03  0.00000000000E+00 0. -1.
        -11    1    5    5    0    0  0.20365593652E+03 -0.14769022112E+03 -0.14410514528E+02  0.25198373920E+03  0.00000000000E+00 0.  1.
          4    1    6    6  503    0 -0.24841636417E+03  0.79314189673E+02  0.14268611458E+03  0.29725537499E+03  0.00000000000E+00 0. -1.
         -4    1    6    6    0  503 -0.20932041941E+03  0.20205898782E+01  0.48359792467E+02  0.21484364150E+03  0.00000000000E+00 0.  1.
<mgrwt>
<rscale>  0 0.12713372E+04</rscale>
<asrwt>0</asrwt>
<pdfrwt beam="1">  1        1 0.13257935E+00 0.12713372E+04</pdfrwt>
<pdfrwt beam="2">  1       -1 0.72137138E-01 0.12713372E+04</pdfrwt>
<totfact> 0.37384318E+01</totfact>
</mgrwt>
</event>
<event>
12    2  0.3751044E-008  0.1493355E+04  0.7818608E-02  0.8888884E-01
         -2   -1    0    0    0  501 -0.00000000000E+00  0.00000000000E+00  0.71406979282E+03  0.71406979282E+03  0.00000000000E+00 0.  1.
          2   -1    0    0  501    0  0.00000000000E+00 -0.00000000000E+00 -0.78077399365E+03  0.78077399365E+03  0.00000000000E+00 0. -1.
         23    2    1    2    0    0 -0.24413622405E+03  0.65551671895E+02  0.36933634740E+03  0.45724267871E+03  0.93605620254E+02 0.  0.
        254    2    1    2    0    0  0.24413622405E+03 -0.65551671895E+02 -0.43604054823E+03  0.10376011077E+04  0.90696481823E+03 0.  0.
         23    2    4    4    0    0  0.17403619660E+03  0.28739030058E+03  0.12025657379E+03  0.36870567225E+03  0.92738592915E+02 0.  0.
         23    2    4    4    0    0  0.70100027452E+02 -0.35294197248E+03 -0.55629712202E+03  0.66889543549E+03  0.92046541868E+02 0.  0.
          1    1    3    3  502    0 -0.40767400805E+02  0.50524191838E+02  0.75443065061E+02  0.99530553073E+02  0.00000000000E+00 0. -1.
         -1    1    3    3    0  502 -0.20336882325E+03  0.15027480058E+02  0.29389328234E+03  0.35771212564E+03  0.00000000000E+00 0.  1.
         11    1    5    5    0    0  0.68922775053E+02  0.20040187851E+03  0.67352809204E+02  0.22236830426E+03  0.00000000000E+00 0. -1.
        -11    1    5    5    0    0  0.10511342155E+03  0.86988422074E+02  0.52903764587E+02  0.14633736800E+03  0.00000000000E+00 0.  1.
          1    1    6    6  503    0  0.78800915206E+02 -0.28133065131E+03 -0.49228341703E+03  0.57245041907E+03  0.00000000000E+00 0. -1.
         -1    1    6    6    0  503 -0.87008877538E+01 -0.71611321171E+02 -0.64013704987E+02  0.96445016428E+02  0.00000000000E+00 0.  1.
<mgrwt>
<rscale>  0 0.14933548E+04</rscale>
<asrwt>0</asrwt>
<pdfrwt beam="1">  1        2 0.12011908E+00 0.14933548E+04</pdfrwt>
<pdfrwt beam="2">  1       -2 0.10985689E+00 0.14933548E+04</pdfrwt>
<totfact> 0.22668502E+01</totfact>
</mgrwt>
</event>
<event>
12    2  0.3751044E-008  0.4960339E+04  0.7818608E-02  0.7834655E-01
         -3   -1    0    0    0  501 -0.00000000000E+00  0.00000000000E+00  0.23168098939E+04  0.23168098939E+04  0.00000000000E+00 0.  1.
          3   -1    0    0  501    0  0.00000000000E+00 -0.00000000000E+00 -0.26550478010E+04  0.26550478010E+04  0.00000000000E+00 0. -1.
         23    2    1    2    0    0 -0.15527036502E+04  0.41249157485E+03 -0.19459020177E+04  0.25250837363E+04  0.92061329270E+02 0.  0.
        254    2    1    2    0    0  0.15527036502E+04 -0.41249157485E+03  0.16076641106E+04  0.24467739586E+04  0.90613519251E+03 0.  0.
         23    2    4    4    0    0  0.15182930900E+04 -0.55515584376E+03  0.15966599361E+04  0.22740089404E+04  0.91552123676E+02 0.  0.
         23    2    4    4    0    0  0.34410560205E+02  0.14266426891E+03  0.11004174486E+02  0.17276501818E+03  0.90495742286E+02 0.  0.
          2    1    3    3  502    0 -0.13972503170E+04  0.35200845381E+03 -0.17756840927E+04  0.22867602404E+04  0.00000000000E+00 0.  1.
         -2    1    3    3    0  502 -0.15545333312E+03  0.60483121043E+02 -0.17021792497E+03  0.23832349588E+03  0.00000000000E+00 0. -1.
         11    1    5    5    0    0  0.50315344497E+03 -0.21216030221E+03  0.58762929464E+03  0.80217427716E+03  0.00000000000E+00 0.  1.
        -11    1    5    5    0    0  0.10151396450E+04 -0.34299554156E+03  0.10090306415E+04  0.14718346632E+04  0.00000000000E+00 0. -1.
          4    1    6    6  503    0 -0.21090278053E+02  0.71656606183E+02 -0.20221037066E+02  0.77384490553E+02  0.00000000000E+00 0. -1.
         -4    1    6    6    0  503  0.55500838258E+02  0.71007662731E+02  0.31225211552E+02  0.95380527626E+02  0.00000000000E+00 0.  1.
<mgrwt>
<rscale>  0 0.49603391E+04</rscale>
<asrwt>0</asrwt>
<pdfrwt beam="1">  1        3 0.40846889E+00 0.49603391E+04</pdfrwt>
<pdfrwt beam="2">  1       -3 0.35643229E+00 0.49603391E+04</pdfrwt>
<totfact> 0.34612791E-04</totfact>
</mgrwt>
</event>
<event>
12    2  0.3751044E-008  0.1492305E+04  0.7818608E-02  0.8889586E-01
         -2   -1    0    0    0  501 -0.00000000000E+00  0.00000000000E+00  0.46939059283E+03  0.46939059283E+03  0.00000000000E+00 0.  1.
          2   -1    0    0  501    0  0.00000000000E+00 -0.00000000000E+00 -0.11860982844E+04  0.11860982844E+04  0.00000000000E+00 0. -1.
         23    2    1    2    0    0  0.34050020439E+03  0.14014701374E+03  0.93976598359E+02  0.39036759535E+03  0.89295485949E+02 0.  0.
        254    2    1    2    0    0 -0.34050020439E+03 -0.14014701374E+03 -0.81068428988E+03  0.12651212818E+04  0.89874427131E+03 0.  0.
         23    2    4    4    0    0 -0.16784120876E+03 -0.39116659299E+03 -0.47333024935E+02  0.43816418249E+03  0.92549774349E+02 0.  0.
         23    2    4    4    0    0 -0.17265899563E+03  0.25101957925E+03 -0.76335126495E+03  0.82695709934E+03  0.91273942150E+02 0.  0.
          3    1    3    3  502    0  0.13480733966E+03  0.95002730010E+02  0.15557510398E+02  0.16565196547E+03  0.00000000000E+00 0. -1.
         -3    1    3    3    0  502  0.20569286473E+03  0.45144283733E+02  0.78419087962E+02  0.22471562988E+03  0.00000000000E+00 0.  1.
         11    1    5    5    0    0 -0.36895750771E+01 -0.89792971629E+02  0.92811576567E+01  0.90346724377E+02  0.00000000000E+00 0.  1.
        -11    1    5    5    0    0 -0.16415163368E+03 -0.30137362137E+03 -0.56614182592E+02  0.34781745811E+03  0.00000000000E+00 0. -1.
          3    1    6    6  503    0 -0.14964166083E+03  0.24667409746E+03 -0.64914026599E+03  0.71036879291E+03  0.00000000000E+00 0. -1.
         -3    1    6    6    0  503 -0.23017334803E+02  0.43454817914E+01 -0.11421099896E+03  0.11658830643E+03  0.00000000000E+00 0.  1.
<mgrwt>
<rscale>  0 0.14923048E+04</rscale>
<asrwt>0</asrwt>
<pdfrwt beam="1">  1        2 0.18247666E+00 0.14923048E+04</pdfrwt>
<pdfrwt beam="2">  1       -2 0.72213938E-01 0.14923048E+04</pdfrwt>
<totfact> 0.32410760E+01</totfact>
</mgrwt>
</event>
<event>
12    2  0.3751044E-008  0.1666400E+04  0.7818608E-02  0.8780763E-01
          2   -1    0    0  501    0  0.00000000000E+00  0.00000000000E+00  0.73862972727E+03  0.73862972727E+03  0.00000000000E+00 0. -1.
         -2   -1    0    0    0  501 -0.00000000000E+00 -0.00000000000E+00 -0.93987862813E+03  0.93987862813E+03  0.00000000000E+00 0.  1.
         23    2    1    2    0    0  0.16428056642E+03 -0.23920305400E+02  0.49427448402E+03  0.52952392883E+03  0.92347388310E+02 0.  0.
        254    2    1    2    0    0 -0.16428056642E+03  0.23920305400E+02 -0.69552338488E+03  0.11489844266E+04  0.89936207841E+03 0.  0.
         23    2    4    4    0    0  0.27740690008E+02 -0.23534763156E+03 -0.76566281616E+03  0.80656490611E+03  0.90273729075E+02 0.  0.
         23    2    4    4    0    0 -0.19202125643E+03  0.25926793696E+03  0.70139431282E+02  0.34241952046E+03  0.90772033767E+02 0.  0.
          4    1    3    3  502    0  0.15500313586E+03 -0.21164620460E+02  0.49564630516E+03  0.51974914440E+03  0.00000000000E+00 0. -1.
         -4    1    3    3    0  502  0.92774305651E+01 -0.27556849394E+01 -0.13718211355E+01  0.97747844275E+01  0.00000000000E+00 0.  1.
         11    1    5    5    0    0  0.62638773358E+01 -0.10519657241E+03 -0.48680718865E+03  0.49808311949E+03  0.00000000000E+00 0.  1.
        -11    1    5    5    0    0  0.21476812672E+02 -0.13015105915E+03 -0.27885562751E+03  0.30848178662E+03  0.00000000000E+00 0. -1.
          3    1    6    6  503    0 -0.50994192635E+02  0.87472251111E+02  0.64561097906E+02  0.12008304526E+03  0.00000000000E+00 0. -1.
         -3    1    6    6    0  503 -0.14102706379E+03  0.17179568585E+03  0.55783333760E+01  0.22233647520E+03  0.00000000000E+00 0.  1.
<mgrwt>
<rscale>  0 0.16664001E+04</rscale>
<asrwt>0</asrwt>
<pdfrwt beam="1">  1        2 0.11363534E+00 0.16664001E+04</pdfrwt>
<pdfrwt beam="2">  1       -2 0.14459671E+00 0.16664001E+04</pdfrwt>
<totfact> 0.12040099E+01</totfact>
</mgrwt>
</event>
<event>
12    2  0.3751044E-008  0.1843194E+04  0.7818608E-02  0.8683661E-01
         -2   -1    0    0    0  501 -0.00000000000E+00  0.00000000000E+00  0.41716528761E+03  0.41716528761E+03  0.00000000000E+00 0.  1.
          2   -1    0    0  501    0  0.00000000000E+00 -0.00000000000E+00 -0.20359813849E+04  0.20359813849E+04  0.00000000000E+00 0. -1.
         23    2    1    2    0    0 -0.21910360196E+03  0.14356482192E+03  0.24032890845E+03  0.36713354479E+03  0.91715914600E+02 0.  0.
        254    2    1    2    0    0  0.21910360196E+03 -0.14356482192E+03 -0.18591450057E+04  0.20860131277E+04  0.90907280797E+03 0.  0.
         23    2    4    4    0    0  0.29040208868E+03  0.96645441787E+02 -0.14600942531E+03  0.35226083624E+03  0.95368914967E+02 0.  0.
         23    2    4    4    0    0 -0.71298486724E+02 -0.24021026371E+03 -0.17131355804E+04  0.17337522915E+04  0.90989264670E+02 0.  0.
          1    1    3    3  502    0 -0.21464796489E+02 -0.11706991803E+02  0.34419203272E+02  0.42219340347E+02  0.00000000000E+00 0. -1.
         -1    1    3    3    0  502 -0.19763880547E+03  0.15527181372E+03  0.20590970518E+03  0.32491420444E+03  0.00000000000E+00 0.  1.
         11    1    5    5    0    0  0.33408635759E+02  0.44285177925E+02 -0.44166566682E+02  0.70908388358E+02  0.00000000000E+00 0.  1.
        -11    1    5    5    0    0  0.25699345292E+03  0.52360263863E+02 -0.10184285863E+03  0.28135244788E+03  0.00000000000E+00 0. -1.
          1    1    6    6  503    0 -0.91283322465E+02 -0.18001064332E+03 -0.12256090444E+04  0.12421167443E+04  0.00000000000E+00 0. -1.
         -1    1    6    6    0  503  0.19984835742E+02 -0.60199620393E+02 -0.48752653598E+03  0.49163554716E+03  0.00000000000E+00 0.  1.
<mgrwt>
<rscale>  0 0.18431937E+04</rscale>
<asrwt>0</asrwt>
<pdfrwt beam="1">  1        2 0.31322790E+00 0.18431937E+04</pdfrwt>
<pdfrwt beam="2">  1       -2 0.64179275E-01 0.18431937E+04</pdfrwt>
<totfact> 0.13466639E+01</totfact>
</mgrwt>
</event>
<event>
12    2  0.3751044E-008  0.2340225E+04  0.7818608E-02  0.8462228E-01
         -2   -1    0    0    0  501 -0.00000000000E+00  0.00000000000E+00  0.93888376709E+03  0.93888376709E+03  0.00000000000E+00 0.  1.
          2   -1    0    0  501    0  0.00000000000E+00 -0.00000000000E+00 -0.14582877972E+04  0.14582877972E+04  0.00000000000E+00 0. -1.
         23    2    1    2    0    0  0.45843114776E+03  0.44397967557E+03 -0.10005601630E+04  0.11903888493E+04  0.92886506421E+02 0.  0.
        254    2    1    2    0    0 -0.45843114776E+03 -0.44397967557E+03  0.48115613296E+03  0.12067827150E+04  0.90417709954E+03 0.  0.
         23    2    4    4    0    0  0.20456872436E+03 -0.17894852108E+03  0.38615594179E+03  0.48091180384E+03  0.91042932226E+02 0.  0.
         23    2    4    4    0    0 -0.66299987211E+03 -0.26503115449E+03  0.95000191171E+02  0.72587091114E+03  0.89739623646E+02 0.  0.
          4    1    3    3  502    0  0.28937310519E+03  0.23609834009E+03 -0.52067931439E+03  0.64076998107E+03  0.00000000000E+00 0. -1.
         -4    1    3    3    0  502  0.16905804257E+03  0.20788133548E+03 -0.47988084864E+03  0.54961886821E+03  0.00000000000E+00 0.  1.
         11    1    5    5    0    0  0.18681633407E+03 -0.11855288170E+03  0.32483943346E+03  0.39303407736E+03  0.00000000000E+00 0. -1.
        -11    1    5    5    0    0  0.17752390282E+02 -0.60395639381E+02  0.61316508336E+02  0.87877726481E+02  0.00000000000E+00 0.  1.
          4    1    6    6  503    0 -0.65203884207E+03 -0.27213674829E+03  0.92657037739E+02  0.71259973897E+03  0.00000000000E+00 0. -1.
         -4    1    6    6    0  503 -0.10961030042E+02  0.71055938015E+01  0.23431534318E+01  0.13271172173E+02  0.00000000000E+00 0.  1.
<mgrwt>
<rscale>  0 0.23402246E+04</rscale>
<asrwt>0</asrwt>
<pdfrwt beam="1">  1        2 0.22435197E+00 0.23402246E+04</pdfrwt>
<pdfrwt beam="2">  1       -2 0.14444366E+00 0.23402246E+04</pdfrwt>
<totfact> 0.40098856E+00</totfact>
</mgrwt>
</event>
<event>
12    2  0.3751044E-008  0.2296434E+04  0.7818608E-02  0.8479329E-01
         -2   -1    0    0    0  501 -0.00000000000E+00  0.00000000000E+00  0.83355431285E+03  0.83355431285E+03  0.00000000000E+00 0.  1.
          2   -1    0    0  501    0  0.00000000000E+00 -0.00000000000E+00 -0.15816629177E+04  0.15816629177E+04  0.00000000000E+00 0. -1.
         23    2    1    2    0    0  0.53869876718E+03 -0.78756103983E+03 -0.13721964919E+03  0.96812311048E+03  0.89355311563E+02 0.  0.
        254    2    1    2    0    0 -0.53869876718E+03  0.78756103983E+03 -0.61088895562E+03  0.14470941200E+04  0.90024847841E+03 0.  0.
         23    2    4    4    0    0 -0.21423544553E+03  0.57960932391E+02  0.19473063810E+03  0.30916529458E+03  0.91688942363E+02 0.  0.
         23    2    4    4    0    0 -0.32446332164E+03  0.72960010744E+03 -0.80561959371E+03  0.11379288254E+04  0.90919294508E+02 0.  0.
          1    1    3    3  502    0  0.49124362917E+03 -0.68958629585E+03 -0.97606305190E+02  0.85227727497E+03  0.00000000000E+00 0. -1.
         -1    1    3    3    0  502  0.47455138010E+02 -0.97974743987E+02 -0.39613343999E+02  0.11584583551E+03  0.00000000000E+00 0.  1.
         11    1    5    5    0    0 -0.79531870801E+02  0.35127233024E+02  0.13380485236E+03  0.15957123641E+03  0.00000000000E+00 0. -1.
        -11    1    5    5    0    0 -0.13470357473E+03  0.22833699367E+02  0.60925785734E+02  0.14959405817E+03  0.00000000000E+00 0.  1.
          4    1    6    6  503    0 -0.13387532926E+03  0.20010795618E+03 -0.25133111335E+03  0.34804184583E+03  0.00000000000E+00 0. -1.
         -4    1    6    6    0  503 -0.19058799238E+03  0.52949215126E+03 -0.55428848036E+03  0.78988697961E+03  0.00000000000E+00 0.  1.
<mgrwt>
<rscale>  0 0.22964337E+04</rscale>
<asrwt>0</asrwt>
<pdfrwt beam="1">  1        2 0.24333275E+00 0.22964337E+04</pdfrwt>
<pdfrwt beam="2">  1       -2 0.12823913E+00 0.22964337E+04</pdfrwt>
<totfact> 0.46561070E+00</totfact>
</mgrwt>
</event>
<event>
12    2  0.3751044E-008  0.1471326E+04  0.7818608E-02  0.8903748E-01
          2   -1    0    0  501    0  0.00000000000E+00  0.00000000000E+00  0.67031002441E+03  0.67031002441E+03  0.00000000000E+00 0. -1.
         -2   -1    0    0    0  501 -0.00000000000E+00 -0.00000000000E+00 -0.80738779606E+03  0.80738779606E+03  0.00000000000E+00 0.  1.
         23    2    1    2    0    0 -0.12998780304E+03  0.35345709219E+02 -0.47341338435E+03  0.50044893053E+03  0.90458562258E+02 0.  0.
        254    2    1    2    0    0  0.12998780304E+03 -0.35345709219E+02  0.33633561270E+03  0.97724888993E+03  0.90760542110E+03 0.  0.
         23    2    4    4    0    0 -0.20266968417E+03 -0.33125612349E+03 -0.21007021529E+02  0.39897720381E+03  0.89083634687E+02 0.  0.
         23    2    4    4    0    0  0.33265748721E+03  0.29591041427E+03  0.35734263423E+03  0.57827168613E+03  0.92089128900E+02 0.  0.
          1    1    3    3  502    0 -0.43879555827E+02  0.49390181852E+02 -0.12626453800E+03  0.14250452288E+03  0.00000000000E+00 0. -1.
         -1    1    3    3    0  502 -0.86108247216E+02 -0.14044472633E+02 -0.34714884635E+03  0.35794440765E+03  0.00000000000E+00 0.  1.
         11    1    5    5    0    0 -0.19260800900E+03 -0.33588067890E+03 -0.22299328572E+02  0.38782848740E+03  0.00000000000E+00 0.  1.
        -11    1    5    5    0    0 -0.10061675170E+02  0.46245554031E+01  0.12923070426E+01  0.11148716402E+02  0.00000000000E+00 0. -1.
          2    1    6    6  503    0  0.16582603754E+03  0.19015723915E+03  0.24163909190E+03  0.34935297488E+03  0.00000000000E+00 0.  1.
         -2    1    6    6    0  503  0.16683144967E+03  0.10575317513E+03  0.11570354233E+03  0.22891871124E+03  0.00000000000E+00 0. -1.
<mgrwt>
<rscale>  0 0.14713261E+04</rscale>
<asrwt>0</asrwt>
<pdfrwt beam="1">  1        2 0.10312462E+00 0.14713261E+04</pdfrwt>
<pdfrwt beam="2">  1       -2 0.12421351E+00 0.14713261E+04</pdfrwt>
<totfact> 0.20405814E+01</totfact>
</mgrwt>
</event>
<event>
12    2  0.3751044E-008  0.1757507E+04  0.7818608E-02  0.8729229E-01
         -1   -1    0    0    0  501 -0.00000000000E+00  0.00000000000E+00  0.95420165455E+03  0.95420165455E+03  0.00000000000E+00 0.  1.
          1   -1    0    0  501    0  0.00000000000E+00 -0.00000000000E+00 -0.80927074373E+03  0.80927074373E+03  0.00000000000E+00 0. -1.
         23    2    1    2    0    0  0.10151808832E+03  0.32934967965E+03 -0.48988798734E+03  0.60609557943E+03  0.92652455578E+02 0.  0.
        254    2    1    2    0    0 -0.10151808832E+03 -0.32934967965E+03  0.63481889816E+03  0.11573768189E+04  0.90429471613E+03 0.  0.
         23    2    4    4    0    0  0.86904839061E+02 -0.22704179948E+03 -0.17484928993E+03  0.31502821949E+03  0.97826760754E+02 0.  0.
         23    2    4    4    0    0 -0.18842292738E+03 -0.10230788017E+03  0.80966818809E+03  0.84234859937E+03  0.89546000201E+02 0.  0.
          4    1    3    3  502    0 -0.30044680709E+01  0.11507071291E+03 -0.12220558748E+03  0.16788240351E+03  0.00000000000E+00 0. -1.
         -4    1    3    3    0  502  0.10452255639E+03  0.21427896674E+03 -0.36768239986E+03  0.43821317592E+03  0.00000000000E+00 0.  1.
         11    1    5    5    0    0  0.74823000403E+02 -0.20994604303E+03 -0.11331850333E+03  0.25003380885E+03  0.00000000000E+00 0.  1.
        -11    1    5    5    0    0  0.12081838659E+02 -0.17095756455E+02 -0.61530786601E+02  0.64994410635E+02  0.00000000000E+00 0. -1.
          2    1    6    6  503    0 -0.73385719634E+02 -0.75405914286E+02  0.26733868898E+03  0.28730034873E+03  0.00000000000E+00 0. -1.
         -2    1    6    6    0  503 -0.11503720775E+03 -0.26901965879E+02  0.54232949911E+03  0.55504825064E+03  0.00000000000E+00 0.  1.
<mgrwt>
<rscale>  0 0.17575067E+04</rscale>
<asrwt>0</asrwt>
<pdfrwt beam="1">  1        1 0.12450319E+00 0.17575067E+04</pdfrwt>
<pdfrwt beam="2">  1       -1 0.14680025E+00 0.17575067E+04</pdfrwt>
<totfact> 0.75992790E+00</totfact>
</mgrwt>
</event>
<event>
12    2  0.3751044E-008  0.1588188E+04  0.7818608E-02  0.8827837E-01
          2   -1    0    0  501    0  0.00000000000E+00  0.00000000000E+00  0.24872041883E+04  0.24872041883E+04  0.00000000000E+00 0. -1.
         -2   -1    0    0    0  501 -0.00000000000E+00 -0.00000000000E+00 -0.25353183176E+03  0.25353183176E+03  0.00000000000E+00 0.  1.
         23    2    1    2    0    0  0.45939160826E+02  0.21043925067E+03  0.15928674474E+04  0.16107595874E+04  0.10452109118E+03 0.  0.
        254    2    1    2    0    0 -0.45939160826E+02 -0.21043925067E+03  0.64080490909E+03  0.11299764327E+04  0.90543951878E+03 0.  0.
         23    2    4    4    0    0  0.80540656295E+02 -0.29935887161E+03 -0.12245652648E+03  0.34602905346E+03  0.92940699535E+02 0.  0.
         23    2    4    4    0    0 -0.12647981712E+03  0.88919620940E+02  0.76326143557E+03  0.78394737922E+03  0.90009061928E+02 0.  0.
          3    1    3    3  502    0  0.31965046132E+02  0.15945480709E+03  0.14369586520E+04  0.14461320020E+04  0.00000000000E+00 0. -1.
         -3    1    3    3    0  502  0.13974114694E+02  0.50984443579E+02  0.15590879540E+03  0.16462758533E+03  0.00000000000E+00 0.  1.
         11    1    5    5    0    0 -0.13675566965E+02 -0.49278614428E+02 -0.44126596090E+02  0.67546720529E+02  0.00000000000E+00 0. -1.
        -11    1    5    5    0    0  0.94216223260E+02 -0.25008025718E+03 -0.78329930392E+02  0.27848233293E+03  0.00000000000E+00 0.  1.
          2    1    6    6  503    0 -0.36144776582E+02  0.52536009973E+02  0.48419795229E+03  0.48837908864E+03  0.00000000000E+00 0. -1.
         -2    1    6    6    0  503 -0.90335040539E+02  0.36383610968E+02  0.27906348329E+03  0.29556829059E+03  0.00000000000E+00 0.  1.
<mgrwt>
<rscale>  0 0.15881882E+04</rscale>
<asrwt>0</asrwt>
<pdfrwt beam="1">  1        2 0.38264678E+00 0.15881882E+04</pdfrwt>
<pdfrwt beam="2">  1       -2 0.39004899E-01 0.15881882E+04</pdfrwt>
<totfact> 0.21161617E+01</totfact>
</mgrwt>
</event>
<event>
12    2  0.3751044E-008  0.1789141E+04  0.7818608E-02  0.8712095E-01
         -1   -1    0    0    0  501 -0.00000000000E+00  0.00000000000E+00  0.44962259128E+03  0.44962259128E+03  0.00000000000E+00 0.  1.
          1   -1    0    0  501    0  0.00000000000E+00 -0.00000000000E+00 -0.17798408276E+04  0.17798408276E+04  0.00000000000E+00 0. -1.
         23    2    1    2    0    0 -0.45354686548E+03 -0.17421836420E+03 -0.10606915909E+04  0.11703359956E+04  0.92535905864E+02 0.  0.
        254    2    1    2    0    0  0.45354686548E+03  0.17421836420E+03 -0.26952664545E+03  0.10591274234E+04  0.90169256883E+03 0.  0.
         23    2    4    4    0    0  0.31570679220E+03  0.48192768323E+02 -0.59052261623E+03  0.67739510200E+03  0.90298628888E+02 0.  0.
         23    2    4    4    0    0  0.13784007328E+03  0.12602559588E+03  0.32099597077E+03  0.38173232136E+03  0.88310901347E+02 0.  0.
          2    1    3    3  502    0 -0.40529209649E+03 -0.13831706621E+03 -0.98180216440E+03  0.10711343447E+04  0.00000000000E+00 0. -1.
         -2    1    3    3    0  502 -0.48254768990E+02 -0.35901297987E+02 -0.78889426503E+02  0.99201650901E+02  0.00000000000E+00 0.  1.
         11    1    5    5    0    0  0.75701043261E+02  0.51571123628E+02 -0.17522013497E+03  0.19771778990E+03  0.00000000000E+00 0.  1.
        -11    1    5    5    0    0  0.24000574894E+03 -0.33783553052E+01 -0.41530248126E+03  0.47967731210E+03  0.00000000000E+00 0. -1.
          1    1    6    6  503    0  0.12372379551E+03  0.83853211995E+02  0.29372262448E+03  0.32956322439E+03  0.00000000000E+00 0. -1.
         -1    1    6    6    0  503  0.14116277773E+02  0.42172383883E+02  0.27273346292E+02  0.52169096968E+02  0.00000000000E+00 0.  1.
<mgrwt>
<rscale>  0 0.17891413E+04</rscale>
<asrwt>0</asrwt>
<pdfrwt beam="1">  1        1 0.27382167E+00 0.17891413E+04</pdfrwt>
<pdfrwt beam="2">  1       -1 0.69172705E-01 0.17891413E+04</pdfrwt>
<totfact> 0.83959233E+00</totfact>
</mgrwt>
</event>
<event>
12    2  0.3751044E-008  0.1454506E+04  0.7818608E-02  0.8915283E-01
         -2   -1    0    0    0  501 -0.00000000000E+00  0.00000000000E+00  0.26505798713E+03  0.26505798713E+03  0.00000000000E+00 0.  1.
          2   -1    0    0  501    0  0.00000000000E+00 -0.00000000000E+00 -0.19954006435E+04  0.19954006435E+04  0.00000000000E+00 0. -1.
         23    2    1    2    0    0  0.18000303075E+03 -0.27884456222E+03 -0.82072281694E+02  0.35359972233E+03  0.90230389853E+02 0.  0.
        254    2    1    2    0    0 -0.18000303075E+03  0.27884456222E+03 -0.16482703747E+04  0.19068589083E+04  0.89953337189E+03 0.  0.
         23    2    4    4    0    0  0.10451028770E+03 -0.15200643187E+03 -0.32364372728E+02  0.20820915988E+03  0.90968379508E+02 0.  0.
         23    2    4    4    0    0 -0.28451331846E+03  0.43085099408E+03 -0.16159060020E+04  0.16986497484E+04  0.87626212840E+02 0.  0.
          1    1    3    3  502    0  0.34185219618E+02 -0.29444132106E+02 -0.42534913623E+02  0.62006491860E+02  0.00000000000E+00 0. -1.
         -1    1    3    3    0  502  0.14581781113E+03 -0.24940043011E+03 -0.39537368071E+02  0.29159323047E+03  0.00000000000E+00 0.  1.
         11    1    5    5    0    0  0.53509321400E+02 -0.12662331241E+03  0.90730753637E+01  0.13776440548E+03  0.00000000000E+00 0. -1.
        -11    1    5    5    0    0  0.51000966304E+02 -0.25383119460E+02 -0.41437448092E+02  0.70444754395E+02  0.00000000000E+00 0.  1.
          1    1    6    6  503    0 -0.21097722295E+03  0.36246931140E+03 -0.13782823795E+04  0.14406795994E+04  0.00000000000E+00 0. -1.
         -1    1    6    6    0  503 -0.73536095502E+02  0.68381682684E+02 -0.23762362243E+03  0.25797014905E+03  0.00000000000E+00 0.  1.
<mgrwt>
<rscale>  0 0.14545059E+04</rscale>
<asrwt>0</asrwt>
<pdfrwt beam="1">  1        2 0.30698472E+00 0.14545059E+04</pdfrwt>
<pdfrwt beam="2">  1       -2 0.40778151E-01 0.14545059E+04</pdfrwt>
<totfact> 0.37120442E+01</totfact>
</mgrwt>
</event>
<event>
12    2  0.3751044E-008  0.1712595E+04  0.7818608E-02  0.8754214E-01
         -2   -1    0    0    0  501 -0.00000000000E+00  0.00000000000E+00  0.13355127434E+04  0.13355127434E+04  0.00000000000E+00 0.  1.
          2   -1    0    0  501    0  0.00000000000E+00 -0.00000000000E+00 -0.54903630737E+03  0.54903630737E+03  0.00000000000E+00 0. -1.
         23    2    1    2    0    0 -0.14869063252E+03  0.48293157617E+03 -0.93723416773E+02  0.52749340886E+03  0.11888400263E+03 0.  0.
        254    2    1    2    0    0  0.14869063252E+03 -0.48293157617E+03  0.88019985284E+03  0.13570556419E+04  0.90084206326E+03 0.  0.
         23    2    4    4    0    0 -0.93017237026E+02 -0.23383330967E+03  0.95365273982E+03  0.99073062619E+03  0.93613046155E+02 0.  0.
         23    2    4    4    0    0  0.24170786955E+03 -0.24909826650E+03 -0.73452886985E+02  0.36632501576E+03  0.91247191662E+02 0.  0.
          1    1    3    3  502    0 -0.15976513848E+03  0.35608769451E+03 -0.53328021351E+02  0.39391271053E+03  0.00000000000E+00 0. -1.
         -1    1    3    3    0  502  0.11074505956E+02  0.12684388166E+03 -0.40395395422E+02  0.13358069833E+03  0.00000000000E+00 0.  1.
         11    1    5    5    0    0 -0.10251800791E+03 -0.13757426321E+03  0.59106360150E+03  0.61546145360E+03  0.00000000000E+00 0.  1.
        -11    1    5    5    0    0  0.95007708837E+01 -0.96259046453E+02  0.36258913832E+03  0.37526917259E+03  0.00000000000E+00 0. -1.
          1    1    6    6  503    0  0.17760307213E+03 -0.19582693506E+03 -0.93818805299E+02  0.28052274053E+03  0.00000000000E+00 0. -1.
         -1    1    6    6    0  503  0.64104797417E+02 -0.53271331444E+02  0.20365918315E+02  0.85802275228E+02  0.00000000000E+00 0.  1.
<mgrwt>
<rscale>  0 0.17125945E+04</rscale>
<asrwt>0</asrwt>
<pdfrwt beam="1">  1        2 0.84467125E-01 0.17125945E+04</pdfrwt>
<pdfrwt beam="2">  1       -2 0.20546350E+00 0.17125945E+04</pdfrwt>
<totfact> 0.64189215E+00</totfact>
</mgrwt>
</event>
<event>
12    2  0.3751044E-008  0.1762329E+04  0.7818608E-02  0.8726593E-01
          2   -1    0    0  501    0  0.00000000000E+00  0.00000000000E+00  0.18332003291E+04  0.18332003291E+04  0.00000000000E+00 0. -1.
         -2   -1    0    0    0  501 -0.00000000000E+00 -0.00000000000E+00 -0.42354949820E+03  0.42354949820E+03  0.00000000000E+00 0.  1.
         23    2    1    2    0    0 -0.59022148887E+03  0.82438506870E+02  0.27960647390E+03  0.66504776021E+03  0.94610938937E+02 0.  0.
        254    2    1    2    0    0  0.59022148887E+03 -0.82438506870E+02  0.11300443570E+04  0.15917020671E+04  0.94939860348E+03 0.  0.
         23    2    4    4    0    0  0.32224314413E+03  0.40626272259E+03  0.36448052109E+03  0.64033868720E+03  0.91090835793E+02 0.  0.
         23    2    4    4    0    0  0.26797834474E+03 -0.48870122946E+03  0.76556383593E+03  0.95136337992E+03  0.91449487915E+02 0.  0.
          3    1    3    3  502    0 -0.81299703097E+02  0.19937470193E+02  0.76959596597E+02  0.11370982345E+03  0.00000000000E+00 0. -1.
         -3    1    3    3    0  502 -0.50892178578E+03  0.62501036677E+02  0.20264687731E+03  0.55133793676E+03  0.00000000000E+00 0.  1.
         11    1    5    5    0    0  0.33894137146E+02  0.10057681887E+03  0.67908492877E+02  0.12600028743E+03  0.00000000000E+00 0. -1.
        -11    1    5    5    0    0  0.28834900698E+03  0.30568590372E+03  0.29657202821E+03  0.51433839977E+03  0.00000000000E+00 0.  1.
          3    1    6    6  503    0  0.65244759240E+02 -0.66166534393E+02  0.91686312594E+02  0.13054221079E+03  0.00000000000E+00 0. -1.
         -3    1    6    6    0  503  0.20273358550E+03 -0.42253469506E+03  0.67387752333E+03  0.82082116912E+03  0.00000000000E+00 0.  1.
<mgrwt>
<rscale>  0 0.17623292E+04</rscale>
<asrwt>0</asrwt>
<pdfrwt beam="1">  1        2 0.28203082E+00 0.17623292E+04</pdfrwt>
<pdfrwt beam="2">  1       -2 0.65161462E-01 0.17623292E+04</pdfrwt>
<totfact> 0.17003808E+01</totfact>
</mgrwt>
</event>
<event>
12    2  0.3751044E-008  0.1207155E+04  0.7818608E-02  0.9106616E-01
         -2   -1    0    0    0  501 -0.00000000000E+00  0.00000000000E+00  0.34902646340E+03  0.34902646340E+03  0.00000000000E+00 0.  1.
          2   -1    0    0  501    0  0.00000000000E+00 -0.00000000000E+00 -0.10437776359E+04  0.10437776359E+04  0.00000000000E+00 0. -1.
         23    2    1    2    0    0 -0.26062773475E+02 -0.30382700796E+02 -0.44978600208E+03  0.46073460509E+03  0.91468858039E+02 0.  0.
        254    2    1    2    0    0  0.26062773475E+02  0.30382700796E+02 -0.24496517042E+03  0.93206949422E+03  0.89841150408E+03 0.  0.
         23    2    4    4    0    0  0.33683807472E+03 -0.75513577372E+02  0.16914025533E+03  0.39507546328E+03  0.91181175492E+02 0.  0.
         23    2    4    4    0    0 -0.31077530125E+03  0.10589627817E+03 -0.41410542574E+03  0.53699403094E+03  0.95309894741E+02 0.  0.
          1    1    3    3  502    0 -0.58243019742E+02 -0.42784877603E+01 -0.26024467335E+03  0.26671678765E+03  0.00000000000E+00 0. -1.
         -1    1    3    3    0  502  0.32180246267E+02 -0.26104213036E+02 -0.18954132873E+03  0.19401781744E+03  0.00000000000E+00 0.  1.
         11    1    5    5    0    0  0.30172667418E+03 -0.91620327329E+02  0.13318862064E+03  0.34230465811E+03  0.00000000000E+00 0.  1.
        -11    1    5    5    0    0  0.35111400539E+02  0.16106749957E+02  0.35951634687E+02  0.52770805174E+02  0.00000000000E+00 0. -1.
          1    1    6    6  503    0 -0.65155924760E+01  0.95948506813E+01  0.28304027620E+01  0.11938395399E+02  0.00000000000E+00 0. -1.
         -1    1    6    6    0  503 -0.30425970877E+03  0.96301427486E+02 -0.41693582850E+03  0.52505563554E+03  0.00000000000E+00 0.  1.
<mgrwt>
<rscale>  0 0.12071554E+04</rscale>
<asrwt>0</asrwt>
<pdfrwt beam="1">  1        2 0.16058117E+00 0.12071554E+04</pdfrwt>
<pdfrwt beam="2">  1       -2 0.53696379E-01 0.12071554E+04</pdfrwt>
<totfact> 0.76123282E+01</totfact>
</mgrwt>
</event>
<event>
12    2  0.3751044E-008  0.2092804E+04  0.7818608E-02  0.8564420E-01
          1   -1    0    0  501    0  0.00000000000E+00  0.00000000000E+00  0.14589539839E+04  0.14589539839E+04  0.00000000000E+00 0. -1.
         -1   -1    0    0    0  501 -0.00000000000E+00 -0.00000000000E+00 -0.75050805693E+03  0.75050805693E+03  0.00000000000E+00 0.  1.
         23    2    1    2    0    0  0.29103748990E+03 -0.20934908575E+03  0.11604053872E+04  0.12179576587E+04  0.91380170964E+02 0.  0.
        254    2    1    2    0    0 -0.29103748990E+03  0.20934908575E+03 -0.45195946020E+03  0.99150438210E+03  0.80640171492E+03 0.  0.
         23    2    4    4    0    0  0.43774693314E+02  0.23643773805E+03 -0.56910947401E+03  0.62448332619E+03  0.90965947059E+02 0.  0.
         23    2    4    4    0    0 -0.33481218322E+03 -0.27088652300E+02  0.11715001382E+03  0.36702105591E+03  0.90262598178E+02 0.  0.
          3    1    3    3  502    0  0.26590546347E+03 -0.17867923754E+03  0.91714853684E+03  0.97149031084E+03  0.00000000000E+00 0. -1.
         -3    1    3    3    0  502  0.25132026438E+02 -0.30669848215E+02  0.24325685033E+03  0.24646734789E+03  0.00000000000E+00 0.  1.
         11    1    5    5    0    0  0.63118182575E+02  0.97921378237E+02 -0.28211913288E+03  0.30522730288E+03  0.00000000000E+00 0. -1.
        -11    1    5    5    0    0 -0.19343489260E+02  0.13851635981E+03 -0.28699034113E+03  0.31925602330E+03  0.00000000000E+00 0.  1.
          3    1    6    6  503    0 -0.22544477414E+03  0.23628446810E+02  0.66260441354E+02  0.23616539919E+03  0.00000000000E+00 0. -1.
         -3    1    6    6    0  503 -0.10936740908E+03 -0.50717099109E+02  0.50889572465E+02  0.13085565672E+03  0.00000000000E+00 0.  1.
<mgrwt>
<rscale>  0 0.20928036E+04</rscale>
<asrwt>0</asrwt>
<pdfrwt beam="1">  1        1 0.22445446E+00 0.20928036E+04</pdfrwt>
<pdfrwt beam="2">  1       -1 0.11546278E+00 0.20928036E+04</pdfrwt>
<totfact> 0.43705356E+00</totfact>
</mgrwt>
</event>
<event>
12    2  0.3751044E-008  0.1128339E+04  0.7818608E-02  0.9178003E-01
          2   -1    0    0  501    0  0.00000000000E+00  0.00000000000E+00  0.86250136573E+03  0.86250136573E+03  0.00000000000E+00 0. -1.
         -2   -1    0    0    0  501 -0.00000000000E+00 -0.00000000000E+00 -0.36902815145E+03  0.36902815145E+03  0.00000000000E+00 0.  1.
         23    2    1    2    0    0 -0.22747715688E+02  0.60109704135E+01  0.30209334576E+03  0.31605716073E+03  0.89878523361E+02 0.  0.
        254    2    1    2    0    0  0.22747715688E+02 -0.60109704135E+01  0.19137986851E+03  0.91547235645E+03  0.89493563513E+03 0.  0.
         23    2    4    4    0    0 -0.33327502566E+02 -0.20758037125E+03  0.48826511969E+03  0.53872764005E+03  0.87317295471E+02 0.  0.
         23    2    4    4    0    0  0.56075218254E+02  0.20156940083E+03 -0.29688525118E+03  0.37674471640E+03  0.10010532212E+03 0.  0.
          4    1    3    3  502    0 -0.29564572333E+02  0.38961692188E+02  0.24459329306E+03  0.24943527499E+03  0.00000000000E+00 0. -1.
         -4    1    3    3    0  502  0.68168566449E+01 -0.32950721775E+02  0.57500052699E+02  0.66621885746E+02  0.00000000000E+00 0.  1.
         11    1    5    5    0    0  0.11506588930E+02 -0.41495925859E+02  0.18616472495E+03  0.19108013572E+03  0.00000000000E+00 0. -1.
        -11    1    5    5    0    0 -0.44834091496E+02 -0.16608444539E+03  0.30210039474E+03  0.34764750432E+03  0.00000000000E+00 0.  1.
          2    1    6    6  503    0 -0.25264503063E+01  0.29497125682E+02 -0.11712077054E+01  0.29628282133E+02  0.00000000000E+00 0. -1.
         -2    1    6    6    0  503  0.58601668561E+02  0.17207227515E+03 -0.29571404347E+03  0.34711643427E+03  0.00000000000E+00 0.  1.
<mgrwt>
<rscale>  0 0.11283391E+04</rscale>
<asrwt>0</asrwt>
<pdfrwt beam="1">  1        2 0.13269252E+00 0.11283391E+04</pdfrwt>
<pdfrwt beam="2">  1       -2 0.56773562E-01 0.11283391E+04</pdfrwt>
<totfact> 0.89733557E+01</totfact>
</mgrwt>
</event>
<event>
12    2  0.3751044E-008  0.1202551E+04  0.7818608E-02  0.9110627E-01
          2   -1    0    0  501    0  0.00000000000E+00  0.00000000000E+00  0.20263811021E+04  0.20263811021E+04  0.00000000000E+00 0. -1.
         -2   -1    0    0    0  501 -0.00000000000E+00 -0.00000000000E+00 -0.17841263423E+03  0.17841263423E+03  0.00000000000E+00 0.  1.
         23    2    1    2    0    0 -0.67012915949E+02 -0.32126134946E+02 -0.26686582809E+02  0.11894615580E+03  0.88956139905E+02 0.  0.
        254    2    1    2    0    0  0.67012915949E+02  0.32126134946E+02  0.18746550507E+04  0.20858475805E+04  0.91154031764E+03 0.  0.
         23    2    4    4    0    0 -0.10477382460E+03  0.18209874283E+03  0.18195920890E+04  0.18341133133E+04  0.94439235582E+02 0.  0.
         23    2    4    4    0    0  0.17178674055E+03 -0.14997260788E+03  0.55062961667E+02  0.25173426721E+03  0.91300296799E+02 0.  0.
          4    1    3    3  502    0 -0.72251968300E+02 -0.14255788766E+00  0.65190486987E+01  0.72545608013E+02  0.00000000000E+00 0. -1.
         -4    1    3    3    0  502  0.52390523511E+01 -0.31983577059E+02 -0.33205631508E+02  0.46400547786E+02  0.00000000000E+00 0.  1.
         11    1    5    5    0    0 -0.51886740427E+02  0.19231924952E+02  0.31679012776E+03  0.32158682469E+03  0.00000000000E+00 0.  1.
        -11    1    5    5    0    0 -0.52887084173E+02  0.16286681788E+03  0.15028019612E+04  0.15125264886E+04  0.00000000000E+00 0. -1.
          4    1    6    6  503    0  0.12215233845E+03 -0.13080825163E+03  0.55601269045E+01  0.17906118367E+03  0.00000000000E+00 0. -1.
         -4    1    6    6    0  503  0.49634402098E+02 -0.19164356250E+02  0.49502834763E+02  0.72673083543E+02  0.00000000000E+00 0.  1.
<mgrwt>
<rscale>  0 0.12025506E+04</rscale>
<asrwt>0</asrwt>
<pdfrwt beam="1">  1        2 0.31175092E+00 0.12025506E+04</pdfrwt>
<pdfrwt beam="2">  1       -2 0.27448099E-01 0.12025506E+04</pdfrwt>
<totfact> 0.77179804E+01</totfact>
</mgrwt>
</event>
<event>
12    2  0.3751044E-008  0.1728140E+04  0.7818608E-02  0.8745476E-01
         -2   -1    0    0    0  501 -0.00000000000E+00  0.00000000000E+00  0.20496627159E+03  0.20496627159E+03  0.00000000000E+00 0.  1.
          2   -1    0    0  501    0  0.00000000000E+00 -0.00000000000E+00 -0.36426351318E+04  0.36426351318E+04  0.00000000000E+00 0. -1.
         23    2    1    2    0    0 -0.72357353489E+02 -0.21414402251E+03 -0.25121283342E+04  0.25239174598E+04  0.90979817931E+02 0.  0.
        254    2    1    2    0    0  0.72357353489E+02  0.21414402251E+03 -0.92554052603E+03  0.13236839436E+04  0.91892364664E+03 0.  0.
         23    2    4    4    0    0  0.14610707467E+03  0.33545638420E+03 -0.10487317446E+04  0.11145157686E+04  0.91808841157E+02 0.  0.
         23    2    4    4    0    0 -0.73749721176E+02 -0.12131236169E+03  0.12319121855E+03  0.20916817509E+03  0.91758044171E+02 0.  0.
          3    1    3    3  502    0 -0.75893418493E+02 -0.88891153540E+02 -0.13515196672E+04  0.13565643586E+04  0.00000000000E+00 0. -1.
         -3    1    3    3    0  502  0.35360650037E+01 -0.12525286897E+03 -0.11606086670E+04  0.11673531012E+04  0.00000000000E+00 0.  1.
         11    1    5    5    0    0  0.15358722425E+03  0.33127135291E+03 -0.10401782674E+04  0.11024067184E+04  0.00000000000E+00 0.  1.
        -11    1    5    5    0    0 -0.74801495874E+01  0.41850312915E+01 -0.85534771485E+01  0.12109050173E+02  0.00000000000E+00 0. -1.
          2    1    6    6  503    0 -0.42036349033E+02 -0.28801577500E+02 -0.11579846389E+01  0.50969858102E+02  0.00000000000E+00 0. -1.
         -2    1    6    6    0  503 -0.31713372143E+02 -0.92510784185E+02  0.12434920319E+03  0.15819831698E+03  0.00000000000E+00 0.  1.
<mgrwt>
<rscale>  0 0.17281404E+04</rscale>
<asrwt>0</asrwt>
<pdfrwt beam="1">  1        2 0.56040536E+00 0.17281404E+04</pdfrwt>
<pdfrwt beam="2">  1       -2 0.31533275E-01 0.17281404E+04</pdfrwt>
<totfact> 0.57666002E+00</totfact>
</mgrwt>
</event>
<event>
12    2  0.3751044E-008  0.4112746E+04  0.7818608E-02  0.7982181E-01
         -2   -1    0    0    0  501 -0.00000000000E+00  0.00000000000E+00  0.26404878714E+04  0.26404878714E+04  0.00000000000E+00 0.  1.
          2   -1    0    0  501    0  0.00000000000E+00 -0.00000000000E+00 -0.16014728010E+04  0.16014728010E+04  0.00000000000E+00 0. -1.
         23    2    1    2    0    0  0.11079245492E+04 -0.55528464757E+03  0.20570916797E+04  0.24033078596E+04  0.91785852023E+02 0.  0.
        254    2    1    2    0    0 -0.11079245492E+04  0.55528464757E+03 -0.10180766093E+04  0.18386528128E+04  0.89906970642E+03 0.  0.
         23    2    4    4    0    0 -0.94026020818E+03  0.77569723701E+03 -0.91621629997E+03  0.15275009924E+04  0.89507044275E+02 0.  0.
         23    2    4    4    0    0 -0.16766434101E+03 -0.22041258943E+03 -0.10186030933E+03  0.31115182034E+03  0.98726348343E+02 0.  0.
          2    1    3    3  502    0  0.74319864979E+03 -0.33044830352E+03  0.13897392701E+04  0.16102532575E+04  0.00000000000E+00 0.  1.
         -2    1    3    3    0  502  0.36472589940E+03 -0.22483634405E+03  0.66735240963E+03  0.79305460212E+03  0.00000000000E+00 0. -1.
         11    1    5    5    0    0 -0.12874715557E+03  0.68790103445E+02 -0.11159423124E+03  0.18374215859E+03  0.00000000000E+00 0. -1.
        -11    1    5    5    0    0 -0.81151305262E+03  0.70690713356E+03 -0.80462206873E+03  0.13437588338E+04  0.00000000000E+00 0.  1.
          3    1    6    6  503    0 -0.12359366710E+03 -0.81889784518E+02 -0.43510602583E+02  0.15451376603E+03  0.00000000000E+00 0. -1.
         -3    1    6    6    0  503 -0.44070673909E+02 -0.13852280492E+03 -0.58349706748E+02  0.15663805431E+03  0.00000000000E+00 0.  1.
<mgrwt>
<rscale>  0 0.41127458E+04</rscale>
<asrwt>0</asrwt>
<pdfrwt beam="1">  1        2 0.24638043E+00 0.41127458E+04</pdfrwt>
<pdfrwt beam="2">  1       -2 0.40622890E+00 0.41127458E+04</pdfrwt>
<totfact> 0.58771393E-02</totfact>
</mgrwt>
</event>
<event>
12    2  0.3751044E-008  0.1426075E+04  0.7818608E-02  0.8935158E-01
         -2   -1    0    0    0  501 -0.00000000000E+00  0.00000000000E+00  0.35543339671E+03  0.35543339671E+03  0.00000000000E+00 0.  1.
          2   -1    0    0  501    0  0.00000000000E+00 -0.00000000000E+00 -0.14304291278E+04  0.14304291278E+04  0.00000000000E+00 0. -1.
         23    2    1    2    0    0  0.30137415691E+03 -0.98950045158E+02  0.32522193654E+02  0.33176012412E+03  0.91594721387E+02 0.  0.
        254    2    1    2    0    0 -0.30137415691E+03  0.98950045158E+02 -0.11075179247E+04  0.14541024003E+04  0.88724311395E+03 0.  0.
         23    2    4    4    0    0  0.14088775464E+03  0.34013117347E+03 -0.24733300723E+03  0.45308752651E+03  0.92607319589E+02 0.  0.
         23    2    4    4    0    0 -0.44226191156E+03 -0.24118112831E+03 -0.86018491748E+03  0.10010148738E+04  0.91371496201E+02 0.  0.
          2    1    3    3  502    0  0.31046851863E+02 -0.24617448646E+02 -0.23201046206E+02  0.45915295203E+02  0.00000000000E+00 0. -1.
         -2    1    3    3    0  502  0.27032730505E+03 -0.74332596511E+02  0.55723239861E+02  0.28584482892E+03  0.00000000000E+00 0.  1.
         11    1    5    5    0    0  0.96895024298E+02  0.31105693240E+03 -0.20042969562E+03  0.38251421387E+03  0.00000000000E+00 0. -1.
        -11    1    5    5    0    0  0.43992730346E+02  0.29074241069E+02 -0.46903311610E+02  0.70573312641E+02  0.00000000000E+00 0.  1.
          2    1    6    6  503    0 -0.39733796457E+03 -0.21200812010E+03 -0.70235032156E+03  0.83433858551E+03  0.00000000000E+00 0. -1.
         -2    1    6    6    0  503 -0.44923946984E+02 -0.29173008210E+02 -0.15783459593E+03  0.16667628833E+03  0.00000000000E+00 0.  1.
<mgrwt>
<rscale>  0 0.14260747E+04</rscale>
<asrwt>0</asrwt>
<pdfrwt beam="1">  1        2 0.22006602E+00 0.14260747E+04</pdfrwt>
<pdfrwt beam="2">  1       -2 0.54682060E-01 0.14260747E+04</pdfrwt>
<totfact> 0.42491556E+01</totfact>
</mgrwt>
</event>
<event>
12    2  0.3751044E-008  0.1001435E+04  0.7818608E-02  0.9306972E-01
         -1   -1    0    0    0  501 -0.00000000000E+00  0.00000000000E+00  0.32256616044E+03  0.32256616044E+03  0.00000000000E+00 0.  1.
          1   -1    0    0  501    0  0.00000000000E+00 -0.00000000000E+00 -0.77726065493E+03  0.77726065493E+03  0.00000000000E+00 0. -1.
         23    2    1    2    0    0  0.66748900820E+01 -0.39322677149E+02 -0.53204123686E+02  0.11408412607E+03  0.92702114044E+02 0.  0.
        254    2    1    2    0    0 -0.66748900820E+01  0.39322677149E+02 -0.40149037080E+03  0.98574268929E+03  0.89939051838E+03 0.  0.
         23    2    4    4    0    0  0.11521318513E+03  0.44276153867E+03 -0.16545558219E+03  0.49440186585E+03  0.88010210333E+02 0.  0.
         23    2    4    4    0    0 -0.12188807522E+03 -0.40343886152E+03 -0.23603478861E+03  0.49134082344E+03  0.89909762981E+02 0.  0.
          4    1    3    3  502    0 -0.14990086824E+02 -0.58716355181E+02 -0.58840011783E+02  0.84465733024E+02  0.00000000000E+00 0. -1.
         -4    1    3    3    0  502  0.21664976906E+02  0.19393678033E+02  0.56358880967E+01  0.29618393045E+02  0.00000000000E+00 0.  1.
         11    1    5    5    0    0  0.10472723484E+03  0.30042018174E+03 -0.14705738735E+03  0.35049387226E+03  0.00000000000E+00 0. -1.
        -11    1    5    5    0    0  0.10485950291E+02  0.14234135693E+03 -0.18398194836E+02  0.14390799359E+03  0.00000000000E+00 0.  1.
          3    1    6    6  503    0 -0.13576302654E+03 -0.37794258973E+03 -0.21522379064E+03  0.45562427565E+03  0.00000000000E+00 0. -1.
         -3    1    6    6    0  503  0.13874951320E+02 -0.25496271791E+02 -0.20810997972E+02  0.35716547789E+02  0.00000000000E+00 0.  1.
<mgrwt>
<rscale>  0 0.10014349E+04</rscale>
<asrwt>0</asrwt>
<pdfrwt beam="1">  1        1 0.11957856E+00 0.10014349E+04</pdfrwt>
<pdfrwt beam="2">  1       -1 0.49625564E-01 0.10014349E+04</pdfrwt>
<totfact> 0.94476521E+01</totfact>
</mgrwt>
</event>
<event>
12    2  0.3751044E-008  0.2653338E+04  0.7818608E-02  0.8350306E-01
          2   -1    0    0  501    0  0.00000000000E+00  0.00000000000E+00  0.18982664523E+04  0.18982664523E+04  0.00000000000E+00 0. -1.
         -2   -1    0    0    0  501 -0.00000000000E+00 -0.00000000000E+00 -0.92718847772E+03  0.92718847772E+03  0.00000000000E+00 0.  1.
         23    2    1    2    0    0 -0.47095497799E+02  0.46226096700E+03 -0.71378229371E+03  0.85653636046E+03  0.90918570434E+02 0.  0.
        254    2    1    2    0    0  0.47095497799E+02 -0.46226096700E+03  0.16848602683E+04  0.19689185696E+04  0.90663279359E+03 0.  0.
         23    2    4    4    0    0  0.26167570996E+03 -0.99963662337E+02  0.14468338172E+04  0.14764728243E+04  0.90426739162E+02 0.  0.
         23    2    4    4    0    0 -0.21458021216E+03 -0.36229730466E+03  0.23802645105E+03  0.49244574529E+03  0.92424110730E+02 0.  0.
          1    1    3    3  502    0 -0.26447772910E+02  0.51296619174E+02 -0.54492501815E+02  0.79374180844E+02  0.00000000000E+00 0. -1.
         -1    1    3    3    0  502 -0.20647724889E+02  0.41096434782E+03 -0.65928979189E+03  0.77716217961E+03  0.00000000000E+00 0.  1.
         11    1    5    5    0    0  0.10696637744E+03 -0.16769773223E+02  0.37414392018E+03  0.38949544824E+03  0.00000000000E+00 0. -1.
        -11    1    5    5    0    0  0.15470933252E+03 -0.83193889115E+02  0.10726898970E+04  0.10869773760E+04  0.00000000000E+00 0.  1.
          2    1    6    6  503    0 -0.66113308140E+01 -0.76933025029E+02  0.54334882307E+02  0.94417580305E+02  0.00000000000E+00 0. -1.
         -2    1    6    6    0  503 -0.20796888135E+03 -0.28536427963E+03  0.18369156874E+03  0.39802816499E+03  0.00000000000E+00 0.  1.
<mgrwt>
<rscale>  0 0.26533381E+04</rscale>
<asrwt>0</asrwt>
<pdfrwt beam="1">  1        2 0.29204099E+00 0.26533381E+04</pdfrwt>
<pdfrwt beam="2">  1       -2 0.14264438E+00 0.26533381E+04</pdfrwt>
<totfact> 0.22927306E+00</totfact>
</mgrwt>
</event>
<event>
12    2  0.3751044E-008  0.1986811E+04  0.7818608E-02  0.8612812E-01
         -2   -1    0    0    0  501 -0.00000000000E+00  0.00000000000E+00  0.43205508727E+03  0.43205508727E+03  0.00000000000E+00 0.  1.
          2   -1    0    0  501    0  0.00000000000E+00 -0.00000000000E+00 -0.22840952401E+04  0.22840952401E+04  0.00000000000E+00 0. -1.
         23    2    1    2    0    0 -0.52356763394E+03  0.56498666435E+03 -0.51956875941E+03  0.93345893591E+03  0.89782465229E+02 0.  0.
        254    2    1    2    0    0  0.52356763394E+03 -0.56498666435E+03 -0.13324713934E+04  0.17826913914E+04  0.89954187490E+03 0.  0.
         23    2    4    4    0    0  0.74811255717E+03 -0.40889912588E+03 -0.11741159071E+04  0.14539158886E+04  0.91936688293E+02 0.  0.
         23    2    4    4    0    0 -0.22454492323E+03 -0.15608753847E+03 -0.15835548630E+03  0.32877550279E+03  0.90736591174E+02 0.  0.
          1    1    3    3  502    0 -0.35363284321E+02  0.11163347241E+02 -0.21303520321E+02  0.42767068845E+02  0.00000000000E+00 0. -1.
         -1    1    3    3    0  502 -0.48820434962E+03  0.55382331711E+03 -0.49826523909E+03  0.89069186706E+03  0.00000000000E+00 0.  1.
         11    1    5    5    0    0  0.49172750205E+02 -0.42840309023E+01 -0.56201621931E+02  0.74799295392E+02  0.00000000000E+00 0. -1.
        -11    1    5    5    0    0  0.69893980697E+03 -0.40461509497E+03 -0.11179142852E+04  0.13791165933E+04  0.00000000000E+00 0.  1.
          3    1    6    6  503    0 -0.22577108614E+03 -0.15104201095E+03 -0.13217837423E+03  0.30208838942E+03  0.00000000000E+00 0. -1.
         -3    1    6    6    0  503  0.12261629127E+01 -0.50455275245E+01 -0.26177112072E+02  0.26687113368E+02  0.00000000000E+00 0.  1.
<mgrwt>
<rscale>  0 0.19868115E+04</rscale>
<asrwt>0</asrwt>
<pdfrwt beam="1">  1        2 0.35139928E+00 0.19868115E+04</pdfrwt>
<pdfrwt beam="2">  1       -2 0.66470012E-01 0.19868115E+04</pdfrwt>
<totfact> 0.89570843E+00</totfact>
</mgrwt>
</event>
<event>
12    2  0.3751044E-008  0.2317941E+04  0.7818608E-02  0.8470881E-01
          1   -1    0    0  501    0  0.00000000000E+00  0.00000000000E+00  0.13165831831E+04  0.13165831831E+04  0.00000000000E+00 0. -1.
         -1   -1    0    0    0  501 -0.00000000000E+00 -0.00000000000E+00 -0.10202262553E+04  0.10202262553E+04  0.00000000000E+00 0.  1.
         23    2    1    2    0    0 -0.50213674045E+03 -0.69649991693E+03 -0.35263599812E+03  0.93247391311E+03  0.88893256489E+02 0.  0.
        254    2    1    2    0    0  0.50213674045E+03  0.69649991693E+03  0.64899292595E+03  0.14043355253E+04  0.90206042438E+03 0.  0.
         23    2    4    4    0    0  0.60242074077E+02 -0.19156397758E+03  0.24379794201E+03  0.32887808782E+03  0.91637847668E+02 0.  0.
         23    2    4    4    0    0  0.44189466637E+03  0.88806389452E+03  0.40519498394E+03  0.10754574375E+04  0.92181060235E+02 0.  0.
          4    1    3    3  502    0 -0.18138198051E+02 -0.21644494668E+02  0.42627310105E+01  0.28559573765E+02  0.00000000000E+00 0. -1.
         -4    1    3    3    0  502 -0.48399854240E+03 -0.67485542227E+03 -0.35689872914E+03  0.90391433934E+03  0.00000000000E+00 0.  1.
         11    1    5    5    0    0  0.36994916152E+02 -0.12522434976E+03  0.86609324335E+02  0.15668738512E+03  0.00000000000E+00 0.  1.
        -11    1    5    5    0    0  0.23247157925E+02 -0.66339627825E+02  0.15718861767E+03  0.17219070270E+03  0.00000000000E+00 0. -1.
          4    1    6    6  503    0  0.15258530260E+03  0.26422967830E+03  0.16622776725E+03  0.34746405292E+03  0.00000000000E+00 0.  1.
         -4    1    6    6    0  503  0.28930936378E+03  0.62383421621E+03  0.23896721670E+03  0.72799338454E+03  0.00000000000E+00 0. -1.
<mgrwt>
<rscale>  0 0.23179411E+04</rscale>
<asrwt>0</asrwt>
<pdfrwt beam="1">  1        1 0.20255126E+00 0.23179411E+04</pdfrwt>
<pdfrwt beam="2">  1       -1 0.15695789E+00 0.23179411E+04</pdfrwt>
<totfact> 0.24489870E+00</totfact>
</mgrwt>
</event>
<event>
12    2  0.3751044E-008  0.1673793E+04  0.7818608E-02  0.8776454E-01
         -2   -1    0    0    0  501 -0.00000000000E+00  0.00000000000E+00  0.46957447585E+03  0.46957447585E+03  0.00000000000E+00 0.  1.
          2   -1    0    0  501    0  0.00000000000E+00 -0.00000000000E+00 -0.14915539837E+04  0.14915539837E+04  0.00000000000E+00 0. -1.
         23    2    1    2    0    0 -0.28854632901E+03 -0.16069555210E+03  0.21142248102E+03  0.40228650923E+03  0.89738094344E+02 0.  0.
        254    2    1    2    0    0  0.28854632901E+03  0.16069555210E+03 -0.12334019888E+04  0.15588419503E+04  0.89421793510E+03 0.  0.
         23    2    4    4    0    0  0.39626036466E+03 -0.27017684900E+03 -0.51887904426E+03  0.71250415008E+03  0.91700027140E+02 0.  0.
         23    2    4    4    0    0 -0.10771403564E+03  0.43087240110E+03 -0.71452294455E+03  0.84633780019E+03  0.92148218822E+02 0.  0.
          3    1    3    3  502    0 -0.14319903874E+02 -0.16224210696E+02 -0.74020196046E+01  0.22870823201E+02  0.00000000000E+00 0. -1.
         -3    1    3    3    0  502 -0.27422642514E+03 -0.14447134140E+03  0.21882450062E+03  0.37941568603E+03  0.00000000000E+00 0.  1.
         11    1    5    5    0    0  0.28271599062E+03 -0.23785478066E+03 -0.40996192059E+03  0.55188042578E+03  0.00000000000E+00 0. -1.
        -11    1    5    5    0    0  0.11354437404E+03 -0.32322068342E+02 -0.10891712367E+03  0.16062372430E+03  0.00000000000E+00 0.  1.
          2    1    6    6  503    0 -0.72204372056E+02  0.37327223016E+03 -0.55169663256E+03  0.67001104732E+03  0.00000000000E+00 0. -1.
         -2    1    6    6    0  503 -0.35509663587E+02  0.57600170942E+02 -0.16282631199E+03  0.17632675287E+03  0.00000000000E+00 0.  1.
<mgrwt>
<rscale>  0 0.16737929E+04</rscale>
<asrwt>0</asrwt>
<pdfrwt beam="1">  1        2 0.22946984E+00 0.16737929E+04</pdfrwt>
<pdfrwt beam="2">  1       -2 0.72242228E-01 0.16737929E+04</pdfrwt>
<totfact> 0.21226720E+01</totfact>
</mgrwt>
</event>
<event>
12    2  0.3751044E-008  0.1313429E+04  0.7818608E-02  0.9018983E-01
          1   -1    0    0  501    0  0.00000000000E+00  0.00000000000E+00  0.28141737091E+03  0.28141737091E+03  0.00000000000E+00 0. -1.
         -1   -1    0    0    0  501 -0.00000000000E+00 -0.00000000000E+00 -0.15325065566E+04  0.15325065566E+04  0.00000000000E+00 0.  1.
         23    2    1    2    0    0 -0.18147666113E+03 -0.11783553292E+02 -0.71742121485E+03  0.74578194627E+03  0.91787151596E+02 0.  0.
        254    2    1    2    0    0  0.18147666113E+03  0.11783553292E+02 -0.53366797080E+03  0.10681419812E+04  0.90722277214E+03 0.  0.
         23    2    4    4    0    0 -0.22886377387E+03  0.64157074223E+02 -0.58807567020E+03  0.64082157804E+03  0.91238938153E+02 0.  0.
         23    2    4    4    0    0  0.41034043501E+03 -0.52373520931E+02  0.54407699406E+02  0.42732040316E+03  0.92305313525E+02 0.  0.
          2    1    3    3  502    0 -0.36347472855E+02 -0.97156563870E+01 -0.48969858363E+02  0.61754188441E+02  0.00000000000E+00 0. -1.
         -2    1    3    3    0  502 -0.14512918828E+03 -0.20678969052E+01 -0.66845135649E+03  0.68402775783E+03  0.00000000000E+00 0.  1.
         11    1    5    5    0    0 -0.18665693725E+03  0.76373636856E+02 -0.40357973213E+03  0.45116554037E+03  0.00000000000E+00 0.  1.
        -11    1    5    5    0    0 -0.42206836619E+02 -0.12216562633E+02 -0.18449593807E+03  0.18965603767E+03  0.00000000000E+00 0. -1.
          3    1    6    6  503    0  0.19331077319E+03  0.20614532009E+02  0.15051093179E+02  0.19498858779E+03  0.00000000000E+00 0. -1.
         -3    1    6    6    0  503  0.21702966181E+03 -0.72988052940E+02  0.39356606227E+02  0.23233181537E+03  0.00000000000E+00 0.  1.
<mgrwt>
<rscale>  0 0.13134290E+04</rscale>
<asrwt>0</asrwt>
<pdfrwt beam="1">  1        1 0.43294981E-01 0.13134290E+04</pdfrwt>
<pdfrwt beam="2">  1       -1 0.23577024E+00 0.13134290E+04</pdfrwt>
<totfact> 0.80942769E+00</totfact>
</mgrwt>
</event>
<event>
12    2  0.3751044E-008  0.1447587E+04  0.7818608E-02  0.8920075E-01
         -1   -1    0    0    0  501 -0.00000000000E+00  0.00000000000E+00  0.21961250745E+03  0.21961250745E+03  0.00000000000E+00 0.  1.
          1   -1    0    0  501    0  0.00000000000E+00 -0.00000000000E+00 -0.23854606411E+04  0.23854606411E+04  0.00000000000E+00 0. -1.
         23    2    1    2    0    0 -0.40716249319E+03 -0.12383339619E+03 -0.51395727153E+03  0.67462156759E+03  0.99227902428E+02 0.  0.
        254    2    1    2    0    0  0.40716249319E+03  0.12383339619E+03 -0.16518908621E+04  0.19304515809E+04  0.90376096409E+03 0.  0.
         23    2    4    4    0    0  0.16892758133E+03 -0.11965867011E+03 -0.15425425483E+04  0.15589815911E+04  0.90174070779E+02 0.  0.
         23    2    4    4    0    0  0.23823491186E+03  0.24349206630E+03 -0.10934831377E+03  0.37146998981E+03  0.99943183981E+02 0.  0.
          1    1    3    3  502    0 -0.19672528052E+03 -0.82718838675E+02 -0.32512833045E+03  0.38891088121E+03  0.00000000000E+00 0. -1.
         -1    1    3    3    0  502 -0.21043721267E+03 -0.41114557514E+02 -0.18882894108E+03  0.28571068637E+03  0.00000000000E+00 0.  1.
         11    1    5    5    0    0  0.17205063681E+03 -0.11868205144E+03 -0.13225150340E+04  0.13389297466E+04  0.00000000000E+00 0. -1.
        -11    1    5    5    0    0 -0.31230554738E+01 -0.97661867538E+00 -0.22002751426E+03  0.22005184455E+03  0.00000000000E+00 0.  1.
          2    1    6    6  503    0  0.17917618585E+03  0.23367847535E+03 -0.99342551218E+02  0.31077110210E+03  0.00000000000E+00 0. -1.
         -2    1    6    6    0  503  0.59058726008E+02  0.98135909541E+01 -0.10005762550E+02  0.60698887711E+02  0.00000000000E+00 0.  1.
<mgrwt>
<rscale>  0 0.14475869E+04</rscale>
<asrwt>0</asrwt>
<pdfrwt beam="1">  1        1 0.36699394E+00 0.14475869E+04</pdfrwt>
<pdfrwt beam="2">  1       -1 0.33786540E-01 0.14475869E+04</pdfrwt>
<totfact> 0.13086041E+01</totfact>
</mgrwt>
</event>
<event>
12    2  0.3751044E-008  0.3048088E+04  0.7818608E-02  0.8230131E-01
         -2   -1    0    0    0  501 -0.00000000000E+00  0.00000000000E+00  0.27206270838E+04  0.27206270838E+04  0.00000000000E+00 0.  1.
          2   -1    0    0  501    0  0.00000000000E+00 -0.00000000000E+00 -0.85374044210E+03  0.85374044210E+03  0.00000000000E+00 0. -1.
         23    2    1    2    0    0  0.12092208763E+04 -0.67753236278E+03  0.97308022332E+03  0.16954619702E+04  0.80255473643E+02 0.  0.
        254    2    1    2    0    0 -0.12092208763E+04  0.67753236278E+03  0.89380641837E+03  0.18789055557E+04  0.90007274331E+03 0.  0.
         23    2    4    4    0    0 -0.99045079607E+03  0.74458057214E+02  0.62722678293E+03  0.11782346514E+04  0.91031175377E+02 0.  0.
         23    2    4    4    0    0 -0.21877008026E+03  0.60307430557E+03  0.26657963543E+03  0.70067090423E+03  0.91192367873E+02 0.  0.
          1    1    3    3  502    0  0.11299814820E+04 -0.61659365211E+03  0.88402718484E+03  0.15615857149E+04  0.00000000000E+00 0.  1.
         -1    1    3    3    0  502  0.79239394382E+02 -0.60938710678E+02  0.89053038475E+02  0.13387625534E+03  0.00000000000E+00 0. -1.
         11    1    5    5    0    0 -0.50963793189E+03  0.83793416800E+02  0.32891240496E+03  0.61231979263E+03  0.00000000000E+00 0. -1.
        -11    1    5    5    0    0 -0.48081286419E+03 -0.93353595863E+01  0.29831437797E+03  0.56591485880E+03  0.00000000000E+00 0.  1.
          3    1    6    6  503    0  0.20120117843E+01  0.20337866300E+02  0.25081705475E+02  0.32353808842E+02  0.00000000000E+00 0. -1.
         -3    1    6    6    0  503 -0.22078209204E+03  0.58273643927E+03  0.24149792996E+03  0.66831709539E+03  0.00000000000E+00 0.  1.
<mgrwt>
<rscale>  0 0.30480875E+04</rscale>
<asrwt>0</asrwt>
<pdfrwt beam="1">  1        2 0.13134468E+00 0.30480875E+04</pdfrwt>
<pdfrwt beam="2">  1       -2 0.41855801E+00 0.30480875E+04</pdfrwt>
<totfact> 0.15061015E-01</totfact>
</mgrwt>
</event>
<event>
12    2  0.3751044E-008  0.1495256E+04  0.7818608E-02  0.8887614E-01
         -1   -1    0    0    0  501 -0.00000000000E+00  0.00000000000E+00  0.25623580798E+03  0.25623580798E+03  0.00000000000E+00 0.  1.
          1   -1    0    0  501    0  0.00000000000E+00 -0.00000000000E+00 -0.21813800264E+04  0.21813800264E+04  0.00000000000E+00 0. -1.
         23    2    1    2    0    0  0.34933696519E+03 -0.74523767709E+02 -0.12011648682E+03  0.38740218744E+03  0.89790741314E+02 0.  0.
        254    2    1    2    0    0 -0.34933696519E+03  0.74523767709E+02 -0.18050277316E+04  0.20502136469E+04  0.90424597265E+03 0.  0.
         23    2    4    4    0    0 -0.53982246475E+03 -0.23246187742E+03 -0.12029795051E+04  0.13420255074E+04  0.91793000378E+02 0.  0.
         23    2    4    4    0    0  0.19048549956E+03  0.30698564513E+03 -0.60204822655E+03  0.70818813958E+03  0.92430850365E+02 0.  0.
          1    1    3    3  502    0  0.29950843348E+03 -0.42994664653E+02 -0.12677097818E+03  0.32806207312E+03  0.00000000000E+00 0.  1.
         -1    1    3    3    0  502  0.49828531710E+02 -0.31529103056E+02  0.66544913567E+01  0.59340114316E+02  0.00000000000E+00 0. -1.
         11    1    5    5    0    0 -0.25762999208E+03 -0.13032153090E+03 -0.68550555433E+03  0.74382442771E+03  0.00000000000E+00 0. -1.
        -11    1    5    5    0    0 -0.28219247267E+03 -0.10214034652E+03 -0.51747395072E+03  0.59820107965E+03  0.00000000000E+00 0.  1.
          4    1    6    6  503    0  0.17362201602E+03  0.30860321382E+03 -0.58700104986E+03  0.68552956214E+03  0.00000000000E+00 0. -1.
         -4    1    6    6    0  503  0.16863483542E+02 -0.16175686912E+01 -0.15047176687E+02  0.22658577446E+02  0.00000000000E+00 0.  1.
<mgrwt>
<rscale>  0 0.14952561E+04</rscale>
<asrwt>0</asrwt>
<pdfrwt beam="1">  1        1 0.33559694E+00 0.14952561E+04</pdfrwt>
<pdfrwt beam="2">  1       -1 0.39420892E-01 0.14952561E+04</pdfrwt>
<totfact> 0.13596472E+01</totfact>
</mgrwt>
</event>
<event>
12    2  0.3751044E-008  0.1545274E+04  0.7818608E-02  0.8854892E-01
         -2   -1    0    0    0  501 -0.00000000000E+00  0.00000000000E+00  0.84590317021E+03  0.84590317021E+03  0.00000000000E+00 0.  1.
          2   -1    0    0  501    0  0.00000000000E+00 -0.00000000000E+00 -0.70571667931E+03  0.70571667931E+03  0.00000000000E+00 0. -1.
         23    2    1    2    0    0 -0.16120654064E+03 -0.85920739796E+02 -0.42684616114E+03  0.47342644621E+03  0.92547460323E+02 0.  0.
        254    2    1    2    0    0  0.16120654064E+03  0.85920739796E+02  0.56703265204E+03  0.10781934033E+04  0.89866849517E+03 0.  0.
         23    2    4    4    0    0 -0.20654064239E+03  0.36610978326E+03  0.37074275396E+03  0.56781759924E+03  0.90946281069E+02 0.  0.
         23    2    4    4    0    0  0.36774718302E+03 -0.28018904346E+03  0.19628989808E+03  0.51037580407E+03  0.90608203797E+02 0.  0.
          4    1    3    3  502    0 -0.12199582143E+03 -0.78254423651E+02 -0.22483556621E+03  0.26750283568E+03  0.00000000000E+00 0. -1.
         -4    1    3    3    0  502 -0.39210719210E+02 -0.76663161448E+01 -0.20201059494E+03  0.20592361052E+03  0.00000000000E+00 0.  1.
         11    1    5    5    0    0 -0.36068409685E+02  0.31986459657E+02  0.14086904348E+02  0.50224542334E+02  0.00000000000E+00 0.  1.
        -11    1    5    5    0    0 -0.17047223270E+03  0.33412332360E+03  0.35665584961E+03  0.51759305691E+03  0.00000000000E+00 0. -1.
          3    1    6    6  503    0  0.37018177750E+03 -0.26571070231E+03  0.19498330019E+03  0.49563617006E+03  0.00000000000E+00 0. -1.
         -3    1    6    6    0  503 -0.24345944747E+01 -0.14478341156E+02  0.13065978822E+01  0.14739634015E+02  0.00000000000E+00 0.  1.
<mgrwt>
<rscale>  0 0.15452741E+04</rscale>
<asrwt>0</asrwt>
<pdfrwt beam="1">  1        2 0.10857180E+00 0.15452741E+04</pdfrwt>
<pdfrwt beam="2">  1       -2 0.13013895E+00 0.15452741E+04</pdfrwt>
<totfact> 0.16907904E+01</totfact>
</mgrwt>
</event>
<event>
12    2  0.3751044E-008  0.4297336E+04  0.7818608E-02  0.7947111E-01
         -2   -1    0    0    0  501 -0.00000000000E+00  0.00000000000E+00  0.95062211629E+03  0.95062211629E+03  0.00000000000E+00 0.  1.
          2   -1    0    0  501    0  0.00000000000E+00 -0.00000000000E+00 -0.48565826101E+04  0.48565826101E+04  0.00000000000E+00 0. -1.
         23    2    1    2    0    0  0.16340345009E+04  0.52084409680E+03 -0.33496328716E+03  0.17497911487E+04  0.90671587442E+02 0.  0.
        254    2    1    2    0    0 -0.16340345009E+04 -0.52084409680E+03 -0.35709972066E+04  0.40574135777E+04  0.87706132473E+03 0.  0.
         23    2    4    4    0    0 -0.16714466578E+04 -0.52334496192E+03 -0.35476480252E+04  0.39574356746E+04  0.88694579330E+02 0.  0.
         23    2    4    4    0    0  0.37412156843E+02  0.25008651291E+01 -0.23349181418E+02  0.99977903154E+02  0.89690986394E+02 0.  0.
          1    1    3    3  502    0  0.15205472632E+03  0.39394402382E+02 -0.58048235509E+01  0.15718223408E+03  0.00000000000E+00 0. -1.
         -1    1    3    3    0  502  0.14819797746E+04  0.48144969441E+03 -0.32915846361E+03  0.15926089146E+04  0.00000000000E+00 0.  1.
         11    1    5    5    0    0 -0.89567087191E+03 -0.28221533010E+03 -0.20015475292E+04  0.22108967219E+04  0.00000000000E+00 0.  1.
        -11    1    5    5    0    0 -0.77577578588E+03 -0.24112963183E+03 -0.15461004960E+04  0.17465389527E+04  0.00000000000E+00 0. -1.
          1    1    6    6  503    0 -0.22637052776E+02  0.84693527470E+01 -0.30825840846E+02  0.39171399748E+02  0.00000000000E+00 0. -1.
         -1    1    6    6    0  503  0.60049209619E+02 -0.59684876179E+01  0.74766594287E+01  0.60806503406E+02  0.00000000000E+00 0.  1.
<mgrwt>
<rscale>  0 0.42973363E+04</rscale>
<asrwt>0</asrwt>
<pdfrwt beam="1">  1        2 0.74716655E+00 0.42973363E+04</pdfrwt>
<pdfrwt beam="2">  1       -2 0.14624956E+00 0.42973363E+04</pdfrwt>
<totfact> 0.12496276E-02</totfact>
</mgrwt>
</event>
<event>
12    2  0.3751044E-008  0.2592796E+04  0.7818608E-02  0.8370652E-01
         -1   -1    0    0    0  501 -0.00000000000E+00  0.00000000000E+00  0.82617286360E+03  0.82617286360E+03  0.00000000000E+00 0.  1.
          1   -1    0    0  501    0  0.00000000000E+00 -0.00000000000E+00 -0.20342564893E+04  0.20342564893E+04  0.00000000000E+00 0. -1.
         23    2    1    2    0    0  0.16181448146E+03 -0.46080888374E+03  0.60176311504E+03  0.78042664927E+03  0.91750501449E+02 0.  0.
        254    2    1    2    0    0 -0.16181448146E+03  0.46080888374E+03 -0.18098467408E+04  0.20800027037E+04  0.90129754712E+03 0.  0.
         23    2    4    4    0    0 -0.29797180670E+03  0.55066365737E+03 -0.17798251710E+04  0.18894900980E+04  0.10187016264E+03 0.  0.
         23    2    4    4    0    0  0.13615732524E+03 -0.89854773629E+02 -0.30021569796E+02  0.19051260568E+03  0.93707314058E+02 0.  0.
          1    1    3    3  502    0  0.48906293833E+02 -0.14872897762E+03  0.12931663067E+03  0.20306384544E+03  0.00000000000E+00 0. -1.
         -1    1    3    3    0  502  0.11290818763E+03 -0.31207990612E+03  0.47244648438E+03  0.57736280382E+03  0.00000000000E+00 0.  1.
         11    1    5    5    0    0 -0.16993075896E+03  0.25167928472E+03 -0.98310335252E+03  0.10289368916E+04  0.00000000000E+00 0. -1.
        -11    1    5    5    0    0 -0.12804104774E+03  0.29898437265E+03 -0.79672181844E+03  0.86055320636E+03  0.00000000000E+00 0.  1.
          1    1    6    6  503    0  0.10472133344E+03 -0.79973368264E+02  0.17248656791E+02  0.13289023091E+03  0.00000000000E+00 0. -1.
         -1    1    6    6    0  503  0.31435991797E+02 -0.98814053648E+01 -0.47270226588E+02  0.57622374768E+02  0.00000000000E+00 0.  1.
<mgrwt>
<rscale>  0 0.25927958E+04</rscale>
<asrwt>0</asrwt>
<pdfrwt beam="1">  1        1 0.31296253E+00 0.25927958E+04</pdfrwt>
<pdfrwt beam="2">  1       -1 0.12710352E+00 0.25927958E+04</pdfrwt>
<totfact> 0.13359072E+00</totfact>
</mgrwt>
</event>
<event>
12    2  0.3751044E-008  0.2635346E+04  0.7818608E-02  0.8356293E-01
         -2   -1    0    0    0  501 -0.00000000000E+00  0.00000000000E+00  0.90726414682E+03  0.90726414682E+03  0.00000000000E+00 0.  1.
          2   -1    0    0  501    0  0.00000000000E+00 -0.00000000000E+00 -0.19137336096E+04  0.19137336096E+04  0.00000000000E+00 0. -1.
         23    2    1    2    0    0  0.11510717199E+04 -0.58262400444E+01 -0.63020686847E+03  0.13154567394E+04  0.90915822495E+02 0.  0.
        254    2    1    2    0    0 -0.11510717199E+04  0.58262400444E+01 -0.37626259436E+03  0.15055410170E+04  0.89447200320E+03 0.  0.
         23    2    4    4    0    0 -0.12105253665E+03 -0.23123985147E+03 -0.34834546766E+03  0.44438456658E+03  0.89484594447E+02 0.  0.
         23    2    4    4    0    0 -0.10300191833E+04  0.23706609151E+03 -0.27917126695E+02  0.10611564504E+04  0.90187563772E+02 0.  0.
          3    1    3    3  502    0  0.28473619551E+03  0.17469754246E+02 -0.19603057983E+03  0.34613275138E+03  0.00000000000E+00 0. -1.
         -3    1    3    3    0  502  0.86633552442E+03 -0.23295994291E+02 -0.43417628864E+03  0.96932398807E+03  0.00000000000E+00 0.  1.
         11    1    5    5    0    0 -0.34606422787E+02 -0.42665355836E+02 -0.13992471772E+03  0.15032253230E+03  0.00000000000E+00 0. -1.
        -11    1    5    5    0    0 -0.86446113864E+02 -0.18857449563E+03 -0.20842074994E+03  0.29406203429E+03  0.00000000000E+00 0.  1.
          2    1    6    6  503    0 -0.12009466788E+03  0.58188227468E+02 -0.33911501480E+01  0.13349194346E+03  0.00000000000E+00 0. -1.
         -2    1    6    6    0  503 -0.90992451540E+03  0.17887786404E+03 -0.24525976547E+02  0.92766450697E+03  0.00000000000E+00 0.  1.
<mgrwt>
<rscale>  0 0.26353458E+04</rscale>
<asrwt>0</asrwt>
<pdfrwt beam="1">  1        2 0.29442056E+00 0.26353458E+04</pdfrwt>
<pdfrwt beam="2">  1       -2 0.13957910E+00 0.26353458E+04</pdfrwt>
<totfact> 0.23823243E+00</totfact>
</mgrwt>
</event>
<event>
12    2  0.3751044E-008  0.1739676E+04  0.7818608E-02  0.8739054E-01
         -2   -1    0    0    0  501 -0.00000000000E+00  0.00000000000E+00  0.40074579680E+03  0.40074579680E+03  0.00000000000E+00 0.  1.
          2   -1    0    0  501    0  0.00000000000E+00 -0.00000000000E+00 -0.18880241095E+04  0.18880241095E+04  0.00000000000E+00 0. -1.
         23    2    1    2    0    0 -0.24760458957E+03 -0.40094761299E+03 -0.10503424821E+04  0.11546305624E+04  0.88799688837E+02 0.  0.
        254    2    1    2    0    0  0.24760458957E+03  0.40094761299E+03 -0.43693583064E+03  0.11341393440E+04  0.93450099532E+03 0.  0.
         23    2    4    4    0    0 -0.18191210363E+03 -0.20370504975E+03 -0.18991137820E+03  0.34720171278E+03  0.99473298187E+02 0.  0.
         23    2    4    4    0    0  0.42951669320E+03  0.60465266274E+03 -0.24702445244E+03  0.78693763117E+03  0.90334505890E+02 0.  0.
          4    1    3    3  502    0 -0.12220435781E+02 -0.65678913890E+02 -0.10643617900E+03  0.12566510645E+03  0.00000000000E+00 0.  1.
         -4    1    3    3    0  502 -0.23538415379E+03 -0.33526869910E+03 -0.94390630310E+03  0.10289654559E+04  0.00000000000E+00 0. -1.
         11    1    5    5    0    0 -0.13986080993E+03 -0.18647622166E+03 -0.19158493566E+03  0.30172705376E+03  0.00000000000E+00 0. -1.
        -11    1    5    5    0    0 -0.42051293695E+02 -0.17228828088E+02  0.16735574611E+01  0.45474659023E+02  0.00000000000E+00 0.  1.
          1    1    6    6  503    0  0.18398399209E+03  0.32708630065E+03 -0.14749430956E+03  0.40322466290E+03  0.00000000000E+00 0. -1.
         -1    1    6    6    0  503  0.24553270111E+03  0.27756636208E+03 -0.99530142880E+02  0.38371296827E+03  0.00000000000E+00 0.  1.
<mgrwt>
<rscale>  0 0.17396755E+04</rscale>
<asrwt>0</asrwt>
<pdfrwt beam="1">  1        2 0.29046525E+00 0.17396755E+04</pdfrwt>
<pdfrwt beam="2">  1       -2 0.61653199E-01 0.17396755E+04</pdfrwt>
<totfact> 0.17880267E+01</totfact>
</mgrwt>
</event>
<event>
12    2  0.3751044E-008  0.1125380E+04  0.7818608E-02  0.9180802E-01
          4   -1    0    0  501    0  0.00000000000E+00  0.00000000000E+00  0.17165982754E+03  0.17165982754E+03  0.00000000000E+00 0. -1.
         -4   -1    0    0    0  501 -0.00000000000E+00 -0.00000000000E+00 -0.18444609968E+04  0.18444609968E+04  0.00000000000E+00 0.  1.
         23    2    1    2    0    0  0.10651481897E+02 -0.12607785661E+03 -0.69358652026E+02  0.17047902788E+03  0.90793151403E+02 0.  0.
        254    2    1    2    0    0 -0.10651481897E+02  0.12607785661E+03 -0.16034425173E+04  0.18456417965E+04  0.90518321616E+03 0.  0.
         23    2    4    4    0    0  0.31116622105E+03 -0.22177064993E+03 -0.46190227841E+03  0.60646638151E+03  0.91875561567E+02 0.  0.
         23    2    4    4    0    0 -0.32181770295E+03  0.34784850654E+03 -0.11415402389E+04  0.12391754150E+04  0.88748942230E+02 0.  0.
          1    1    3    3  502    0  0.21162522571E+01 -0.41474806968E+02  0.20885570018E+02  0.46484891864E+02  0.00000000000E+00 0. -1.
         -1    1    3    3    0  502  0.85352296402E+01 -0.84603049645E+02 -0.90244222044E+02  0.12399413602E+03  0.00000000000E+00 0.  1.
         11    1    5    5    0    0  0.26320311919E+03 -0.20262098647E+03 -0.34628007456E+03  0.47983438408E+03  0.00000000000E+00 0. -1.
        -11    1    5    5    0    0  0.47963101863E+02 -0.19149663461E+02 -0.11562220385E+03  0.12663199744E+03  0.00000000000E+00 0.  1.
          2    1    6    6  503    0 -0.71910100739E+02  0.12715740782E+03 -0.29060627232E+03  0.32525693607E+03  0.00000000000E+00 0.  1.
         -2    1    6    6    0  503 -0.24990760221E+03  0.22069109872E+03 -0.85093396654E+03  0.91391847892E+03  0.00000000000E+00 0. -1.
<mgrwt>
<rscale>  0 0.11253797E+04</rscale>
<asrwt>0</asrwt>
<pdfrwt beam="1">  1        4 0.26409206E-01 0.11253797E+04</pdfrwt>
<pdfrwt beam="2">  1       -4 0.28376321E+00 0.11253797E+04</pdfrwt>
<totfact> 0.10724286E+00</totfact>
</mgrwt>
</event>
<event>
12    2  0.3751044E-008  0.1354520E+04  0.7818608E-02  0.8987413E-01
         -1   -1    0    0    0  501 -0.00000000000E+00  0.00000000000E+00  0.12261770887E+04  0.12261770887E+04  0.00000000000E+00 0.  1.
          1   -1    0    0  501    0  0.00000000000E+00 -0.00000000000E+00 -0.37407432703E+03  0.37407432703E+03  0.00000000000E+00 0. -1.
         23    2    1    2    0    0  0.31869119789E+03 -0.63216924641E+02  0.47763894491E+03  0.58467104118E+03  0.90226412545E+02 0.  0.
        254    2    1    2    0    0 -0.31869119789E+03  0.63216924641E+02  0.37446381673E+03  0.10155803745E+04  0.88635201129E+03 0.  0.
         23    2    4    4    0    0 -0.20958435019E+03 -0.29803225491E+03 -0.11306533209E+03  0.39228197684E+03  0.91392314897E+02 0.  0.
         23    2    4    4    0    0 -0.10910684770E+03  0.36124917956E+03  0.48752914882E+03  0.62329839769E+03  0.91711218866E+02 0.  0.
          1    1    3    3  502    0  0.17153375990E+03 -0.36618680407E+02  0.17859953954E+03  0.25032489701E+03  0.00000000000E+00 0. -1.
         -1    1    3    3    0  502  0.14715743799E+03 -0.26598244235E+02  0.29903940538E+03  0.33434614417E+03  0.00000000000E+00 0.  1.
         11    1    5    5    0    0 -0.84579396082E+02 -0.18358816836E+03 -0.89903500477E+02  0.22122596864E+03  0.00000000000E+00 0.  1.
        -11    1    5    5    0    0 -0.12500495411E+03 -0.11444408656E+03 -0.23161831612E+02  0.17105600820E+03  0.00000000000E+00 0. -1.
          3    1    6    6  503    0 -0.16939160543E+02  0.20270601077E+03  0.28407278519E+03  0.34939091180E+03  0.00000000000E+00 0. -1.
         -3    1    6    6    0  503 -0.92167687155E+02  0.15854316878E+03  0.20345636363E+03  0.27390748589E+03  0.00000000000E+00 0.  1.
<mgrwt>
<rscale>  0 0.13545204E+04</rscale>
<asrwt>0</asrwt>
<pdfrwt beam="1">  1        1 0.57549897E-01 0.13545204E+04</pdfrwt>
<pdfrwt beam="2">  1       -1 0.18864263E+00 0.13545204E+04</pdfrwt>
<totfact> 0.11591352E+01</totfact>
</mgrwt>
</event>
<event>
12    2  0.3751044E-008  0.1107818E+04  0.7818608E-02  0.9197606E-01
         -1   -1    0    0    0  501 -0.00000000000E+00  0.00000000000E+00  0.12134821340E+03  0.12134821340E+03  0.00000000000E+00 0.  1.
          1   -1    0    0  501    0  0.00000000000E+00 -0.00000000000E+00 -0.25283845965E+04  0.25283845965E+04  0.00000000000E+00 0. -1.
         23    2    1    2    0    0 -0.79397433532E+02  0.94435162138E+02 -0.15585337827E+03  0.21894518336E+03  0.91786521335E+02 0.  0.
        254    2    1    2    0    0  0.79397433532E+02 -0.94435162138E+02 -0.22511830048E+04  0.24307876266E+04  0.90867024373E+03 0.  0.
         23    2    4    4    0    0  0.23941499403E+02 -0.21712917032E+02 -0.22922690270E+04  0.22943092434E+04  0.91175468280E+02 0.  0.
         23    2    4    4    0    0  0.55455934130E+02 -0.72722245106E+02  0.41086022145E+02  0.13647838318E+03  0.92598068533E+02 0.  0.
          2    1    3    3  502    0 -0.24218270705E+02 -0.32149350237E+01 -0.79733885206E+02  0.83392762835E+02  0.00000000000E+00 0. -1.
         -2    1    3    3    0  502 -0.55179162827E+02  0.97650097162E+02 -0.76119493067E+02  0.13555242053E+03  0.00000000000E+00 0.  1.
         11    1    5    5    0    0  0.35897966412E+02 -0.45102121705E+01 -0.33852630014E+03  0.34045419941E+03  0.00000000000E+00 0. -1.
        -11    1    5    5    0    0 -0.11956467009E+02 -0.17202704861E+02 -0.19537427268E+04  0.19538550440E+04  0.00000000000E+00 0.  1.
          1    1    6    6  503    0 -0.83050808970E+01 -0.42835278101E+02 -0.15330703177E+02  0.46247874314E+02  0.00000000000E+00 0. -1.
         -1    1    6    6    0  503  0.63761015027E+02 -0.29886967006E+02  0.56416725322E+02  0.90230508865E+02  0.00000000000E+00 0.  1.
<mgrwt>
<rscale>  0 0.11078176E+04</rscale>
<asrwt>0</asrwt>
<pdfrwt beam="1">  1        1 0.38898223E+00 0.11078176E+04</pdfrwt>
<pdfrwt beam="2">  1       -1 0.18668957E-01 0.11078176E+04</pdfrwt>
<totfact> 0.29858273E+01</totfact>
</mgrwt>
</event>
<event>
12    2  0.3751044E-008  0.3442450E+04  0.7818608E-02  0.8127566E-01
          2   -1    0    0  501    0  0.00000000000E+00  0.00000000000E+00  0.28589944365E+04  0.28589944365E+04  0.00000000000E+00 0. -1.
         -2   -1    0    0    0  501 -0.00000000000E+00 -0.00000000000E+00 -0.10362437047E+04  0.10362437047E+04  0.00000000000E+00 0.  1.
         23    2    1    2    0    0  0.14311464463E+04  0.10418852682E+03  0.36043284258E+02  0.14389106045E+04  0.10064397367E+03 0.  0.
        254    2    1    2    0    0 -0.14311464463E+04 -0.10418852682E+03  0.17867074476E+04  0.24563275368E+04  0.88441283617E+03 0.  0.
         23    2    4    4    0    0 -0.14075847609E+04 -0.25583736444E+03  0.12893260596E+04  0.19280617825E+04  0.91175285393E+02 0.  0.
         23    2    4    4    0    0 -0.23561685382E+02  0.15164883762E+03  0.49738138792E+03  0.52826575430E+03  0.90132897160E+02 0.  0.
          2    1    3    3  502    0  0.52594399785E+02  0.22270111046E+02 -0.48573052265E+01  0.57321219010E+02  0.00000000000E+00 0. -1.
         -2    1    3    3    0  502  0.13785520465E+04  0.81918415773E+02  0.40900589484E+02  0.13815893855E+04  0.00000000000E+00 0.  1.
         11    1    5    5    0    0 -0.11156714153E+04 -0.23050855969E+03  0.99169428443E+03  0.15104020845E+04  0.00000000000E+00 0. -1.
        -11    1    5    5    0    0 -0.29191334563E+03 -0.25328804749E+02  0.29763177522E+03  0.41765969799E+03  0.00000000000E+00 0.  1.
          3    1    6    6  503    0 -0.12901667267E+02  0.13713654769E+03  0.48967516056E+03  0.50867931804E+03  0.00000000000E+00 0. -1.
         -3    1    6    6    0  503 -0.10660018115E+02  0.14512289936E+02  0.77062273561E+01  0.19586436262E+02  0.00000000000E+00 0.  1.
<mgrwt>
<rscale>  0 0.34424497E+04</rscale>
<asrwt>0</asrwt>
<pdfrwt beam="1">  1        2 0.43984529E+00 0.34424497E+04</pdfrwt>
<pdfrwt beam="2">  1       -2 0.15942211E+00 0.34424497E+04</pdfrwt>
<totfact> 0.44687851E-01</totfact>
</mgrwt>
</event>
<event>
12    2  0.3751044E-008  0.1700285E+04  0.7818608E-02  0.8761202E-01
          2   -1    0    0  501    0  0.00000000000E+00  0.00000000000E+00  0.24857999235E+04  0.24857999235E+04  0.00000000000E+00 0. -1.
         -2   -1    0    0    0  501 -0.00000000000E+00 -0.00000000000E+00 -0.29074852719E+03  0.29074852719E+03  0.00000000000E+00 0.  1.
         23    2    1    2    0    0  0.82280463228E+02 -0.13300464840E+03 -0.16612594753E+03  0.24469600996E+03  0.88419430679E+02 0.  0.
        254    2    1    2    0    0 -0.82280463228E+02  0.13300464840E+03  0.23611773438E+04  0.25318524407E+04  0.90036549328E+03 0.  0.
         23    2    4    4    0    0  0.37445132001E+03 -0.58672508004E+02  0.79091823536E+03  0.88220656024E+03  0.95291687226E+02 0.  0.
         23    2    4    4    0    0 -0.45673178323E+03  0.19167715640E+03  0.15702591085E+04  0.16496458805E+04  0.10135980063E+03 0.  0.
          4    1    3    3  502    0  0.40663968026E+02 -0.28862692086E+02 -0.74967218671E+01  0.50426323769E+02  0.00000000000E+00 0. -1.
         -4    1    3    3    0  502  0.41616495202E+02 -0.10414195631E+03 -0.15862922566E+03  0.19426968619E+03  0.00000000000E+00 0.  1.
         11    1    5    5    0    0  0.99471854666E+02 -0.42281129252E+02  0.15274655730E+03  0.18711989346E+03  0.00000000000E+00 0. -1.
        -11    1    5    5    0    0  0.27497946534E+03 -0.16391378751E+02  0.63817167806E+03  0.69508666678E+03  0.00000000000E+00 0.  1.
          3    1    6    6  503    0 -0.42933001804E+03  0.20133238770E+03  0.15107794087E+04  0.15834498466E+04  0.00000000000E+00 0. -1.
         -3    1    6    6    0  503 -0.27401765190E+02 -0.96552312979E+01  0.59479699746E+02  0.66196033935E+02  0.00000000000E+00 0.  1.
<mgrwt>
<rscale>  0 0.17002855E+04</rscale>
<asrwt>0</asrwt>
<pdfrwt beam="1">  1        2 0.38243074E+00 0.17002855E+04</pdfrwt>
<pdfrwt beam="2">  1       -2 0.44730544E-01 0.17002855E+04</pdfrwt>
<totfact> 0.16025594E+01</totfact>
</mgrwt>
</event>
<event>
12    2  0.3751044E-008  0.2894952E+04  0.7818608E-02  0.8274381E-01
         -2   -1    0    0    0  501 -0.00000000000E+00  0.00000000000E+00  0.88180868009E+03  0.88180868009E+03  0.00000000000E+00 0.  1.
          2   -1    0    0  501    0  0.00000000000E+00 -0.00000000000E+00 -0.23760109763E+04  0.23760109763E+04  0.00000000000E+00 0. -1.
         23    2    1    2    0    0  0.89444608088E+02 -0.65479509349E+03 -0.19516725055E+04  0.20625073826E+04  0.90300511855E+02 0.  0.
        254    2    1    2    0    0 -0.89444608088E+02  0.65479509349E+03  0.45747020922E+03  0.11953122738E+04  0.88472339586E+03 0.  0.
         23    2    4    4    0    0 -0.21662548688E+03 -0.75186992910E+02 -0.95864758883E+02  0.26587699831E+03  0.94450202581E+02 0.  0.
         23    2    4    4    0    0  0.12718087879E+03  0.72998208640E+03  0.55333496810E+03  0.92943527548E+03  0.92852151205E+02 0.  0.
          2    1    3    3  502    0  0.76767013081E+02 -0.24984016251E+03 -0.72684145032E+03  0.77240648301E+03  0.00000000000E+00 0. -1.
         -2    1    3    3    0  502  0.12677595008E+02 -0.40495493098E+03 -0.12248310551E+04  0.12901008996E+04  0.00000000000E+00 0.  1.
         11    1    5    5    0    0 -0.17639974430E+03 -0.81166023286E+02 -0.42484934013E+02  0.19877062847E+03  0.00000000000E+00 0. -1.
        -11    1    5    5    0    0 -0.40225742587E+02  0.59790303759E+01 -0.53379824870E+02  0.67106369847E+02  0.00000000000E+00 0.  1.
          4    1    6    6  503    0 -0.13981124111E+02  0.41370189288E+02  0.37172327085E+02  0.57347591877E+02  0.00000000000E+00 0.  1.
         -4    1    6    6    0  503  0.14116200290E+03  0.68861189711E+03  0.51616264102E+03  0.87208768360E+03  0.00000000000E+00 0. -1.
<mgrwt>
<rscale>  0 0.28949522E+04</rscale>
<asrwt>0</asrwt>
<pdfrwt beam="1">  1        2 0.36554014E+00 0.28949522E+04</pdfrwt>
<pdfrwt beam="2">  1       -2 0.13566288E+00 0.28949522E+04</pdfrwt>
<totfact> 0.13800990E+00</totfact>
</mgrwt>
</event>
<event>
12    2  0.3751044E-008  0.1959902E+04  0.7818608E-02  0.8625601E-01
         -1   -1    0    0    0  501 -0.00000000000E+00  0.00000000000E+00  0.27992851932E+04  0.27992851932E+04  0.00000000000E+00 0.  1.
          1   -1    0    0  501    0  0.00000000000E+00 -0.00000000000E+00 -0.34305310669E+03  0.34305310669E+03  0.00000000000E+00 0. -1.
         23    2    1    2    0    0  0.13884002305E+03 -0.52394012511E+03  0.99057455946E+02  0.56009286586E+03  0.10050787086E+03 0.  0.
        254    2    1    2    0    0 -0.13884002305E+03  0.52394012511E+03  0.23571746306E+04  0.25822454341E+04  0.90439451342E+03 0.  0.
         23    2    4    4    0    0 -0.43230803519E+03  0.17913698758E+03  0.17863876439E+04  0.18488334105E+04  0.89576045210E+02 0.  0.
         23    2    4    4    0    0  0.29346801214E+03  0.34480313753E+03  0.57078698668E+03  0.73341202355E+03  0.84158982451E+02 0.  0.
          1    1    3    3  502    0  0.99424018800E+02 -0.48500896462E+03  0.97891777825E+02  0.50467973155E+03  0.00000000000E+00 0. -1.
         -1    1    3    3    0  502  0.39416004246E+02 -0.38931160492E+02  0.11656781217E+01  0.55413134304E+02  0.00000000000E+00 0.  1.
         11    1    5    5    0    0 -0.22195606126E+03  0.58092275478E+02  0.99277780777E+03  0.10189440520E+04  0.00000000000E+00 0. -1.
        -11    1    5    5    0    0 -0.21035197393E+03  0.12104471210E+03  0.79360983614E+03  0.82988935846E+03  0.00000000000E+00 0.  1.
          1    1    6    6  503    0  0.13196252434E+03  0.15323158687E+03  0.18932351653E+03  0.27701519987E+03  0.00000000000E+00 0. -1.
         -1    1    6    6    0  503  0.16150548780E+03  0.19157155066E+03  0.38146347015E+03  0.45639682369E+03  0.00000000000E+00 0.  1.
<mgrwt>
<rscale>  0 0.19599015E+04</rscale>
<asrwt>0</asrwt>
<pdfrwt beam="1">  1        1 0.52777403E-01 0.19599015E+04</pdfrwt>
<pdfrwt beam="2">  1       -1 0.43065925E+00 0.19599015E+04</pdfrwt>
<totfact> 0.30176505E-01</totfact>
</mgrwt>
</event>
<event>
12    2  0.3751044E-008  0.1407509E+04  0.7818608E-02  0.8948401E-01
         -2   -1    0    0    0  501 -0.00000000000E+00  0.00000000000E+00  0.17933737332E+03  0.17933737332E+03  0.00000000000E+00 0.  1.
          2   -1    0    0  501    0  0.00000000000E+00 -0.00000000000E+00 -0.27616701911E+04  0.27616701911E+04  0.00000000000E+00 0. -1.
         23    2    1    2    0    0 -0.27862086755E+03 -0.13193084365E+03 -0.21243176727E+03  0.38543404666E+03  0.91634127066E+02 0.  0.
        254    2    1    2    0    0  0.27862086755E+03  0.13193084365E+03 -0.23699010505E+04  0.25555735178E+04  0.90525669296E+03 0.  0.
         23    2    4    4    0    0  0.38243906055E+03  0.32889551419E+03 -0.69566532344E+03  0.86415248628E+03  0.91528044971E+02 0.  0.
         23    2    4    4    0    0 -0.10381819301E+03 -0.19696467054E+03 -0.16742357271E+04  0.16914210315E+04  0.90920499949E+02 0.  0.
          1    1    3    3  502    0 -0.20015259237E+02 -0.66008967128E+01  0.87267187290E+01  0.22810919742E+02  0.00000000000E+00 0. -1.
         -1    1    3    3    0  502 -0.25860560831E+03 -0.12532994694E+03 -0.22115848600E+03  0.36262312692E+03  0.00000000000E+00 0.  1.
         11    1    5    5    0    0  0.11422815178E+03  0.15370847606E+03 -0.23735867055E+03  0.30498115475E+03  0.00000000000E+00 0. -1.
        -11    1    5    5    0    0  0.26821090877E+03  0.17518703813E+03 -0.45830665290E+03  0.55917133153E+03  0.00000000000E+00 0.  1.
          4    1    6    6  503    0 -0.53596409841E+02 -0.17618470205E+03 -0.13766306675E+04  0.13888936673E+04  0.00000000000E+00 0.  1.
         -4    1    6    6    0  503 -0.50221783167E+02 -0.20779968494E+02 -0.29760505961E+03  0.30252736422E+03  0.00000000000E+00 0. -1.
<mgrwt>
<rscale>  0 0.14075094E+04</rscale>
<asrwt>0</asrwt>
<pdfrwt beam="1">  1        2 0.42487230E+00 0.14075094E+04</pdfrwt>
<pdfrwt beam="2">  1       -2 0.27590368E-01 0.14075094E+04</pdfrwt>
<totfact> 0.28594818E+01</totfact>
</mgrwt>
</event>
<event>
12    2  0.3751044E-008  0.2182340E+04  0.7818608E-02  0.8525815E-01
         -2   -1    0    0    0  501 -0.00000000000E+00  0.00000000000E+00  0.29754739070E+03  0.29754739070E+03  0.00000000000E+00 0. -1.
          2   -1    0    0  501    0  0.00000000000E+00 -0.00000000000E+00 -0.40015551731E+04  0.40015551731E+04  0.00000000000E+00 0.  1.
         23    2    1    2    0    0  0.36612218580E+03  0.37233446937E+03 -0.90307949559E+02  0.53752139522E+03  0.89973954837E+02 0.  0.
        254    2    1    2    0    0 -0.36612218580E+03 -0.37233446937E+03 -0.36136998329E+04  0.37615811686E+04  0.90442688701E+03 0.  0.
         23    2    4    4    0    0  0.19151622182E+03 -0.35372864480E+03 -0.22035455931E+04  0.22418835754E+04  0.92878237399E+02 0.  0.
         23    2    4    4    0    0 -0.55763840762E+03 -0.18605824568E+02 -0.14101542397E+04  0.15196975932E+04  0.98178535277E+02 0.  0.
          1    1    3    3  502    0  0.31737275482E+03  0.27724852336E+03 -0.55033011992E+02  0.42499510776E+03  0.00000000000E+00 0. -1.
         -1    1    3    3    0  502  0.48749430976E+02  0.95085946016E+02 -0.35274937567E+02  0.11252628746E+03  0.00000000000E+00 0.  1.
         11    1    5    5    0    0  0.10234359973E+03 -0.97259234380E+02 -0.77903516978E+03  0.79172556283E+03  0.00000000000E+00 0. -1.
        -11    1    5    5    0    0  0.89172622090E+02 -0.25646941042E+03 -0.14245104234E+04  0.14501580125E+04  0.00000000000E+00 0.  1.
          3    1    6    6  503    0 -0.25261039412E+03 -0.40243432295E+02 -0.74303072566E+03  0.78582835552E+03  0.00000000000E+00 0. -1.
         -3    1    6    6    0  503 -0.30502801350E+03  0.21637607727E+02 -0.66712351404E+03  0.73386923772E+03  0.00000000000E+00 0.  1.
<mgrwt>
<rscale>  0 0.21823403E+04</rscale>
<asrwt>0</asrwt>
<pdfrwt beam="1">  1        2 0.61562387E+00 0.21823403E+04</pdfrwt>
<pdfrwt beam="2">  1       -2 0.45776522E-01 0.21823403E+04</pdfrwt>
<totfact> 0.14236165E+00</totfact>
</mgrwt>
</event>
<event>
12    2  0.3751044E-008  0.1634441E+04  0.7818608E-02  0.8799665E-01
         -1   -1    0    0    0  501 -0.00000000000E+00  0.00000000000E+00  0.27490998994E+03  0.27490998994E+03  0.00000000000E+00 0.  1.
          1   -1    0    0  501    0  0.00000000000E+00 -0.00000000000E+00 -0.24293371458E+04  0.24293371458E+04  0.00000000000E+00 0. -1.
         23    2    1    2    0    0 -0.52131169850E+03  0.18481107679E+03 -0.58267579807E+03  0.80935329127E+03  0.98084878224E+02 0.  0.
        254    2    1    2    0    0  0.52131169850E+03 -0.18481107679E+03 -0.15717513578E+04  0.18948938445E+04  0.90238535559E+03 0.  0.
         23    2    4    4    0    0  0.68275587328E+03  0.11532408266E+03 -0.93953446134E+03  0.11708992886E+04  0.93941010365E+02 0.  0.
         23    2    4    4    0    0 -0.16144417478E+03 -0.30013515945E+03 -0.63221689648E+03  0.72399455591E+03  0.91239121398E+02 0.  0.
          3    1    3    3  502    0 -0.14422676663E+03  0.31742869383E+02 -0.21538895184E+03  0.26115392117E+03  0.00000000000E+00 0. -1.
         -3    1    3    3    0  502 -0.37708493187E+03  0.15306820741E+03 -0.36728684624E+03  0.54819937011E+03  0.00000000000E+00 0.  1.
         11    1    5    5    0    0  0.88131027547E+02 -0.14161419051E+02 -0.14153764182E+03  0.16733358257E+03  0.00000000000E+00 0.  1.
        -11    1    5    5    0    0  0.59462484574E+03  0.12948550171E+03 -0.79799681953E+03  0.10035657060E+04  0.00000000000E+00 0. -1.
          2    1    6    6  503    0 -0.79861883169E+02 -0.15145896728E+03 -0.41109492214E+03  0.44532771547E+03  0.00000000000E+00 0. -1.
         -2    1    6    6    0  503 -0.81582291616E+02 -0.14867619217E+03 -0.22112197434E+03  0.27866684044E+03  0.00000000000E+00 0.  1.
<mgrwt>
<rscale>  0 0.16344406E+04</rscale>
<asrwt>0</asrwt>
<pdfrwt beam="1">  1        1 0.37374417E+00 0.16344406E+04</pdfrwt>
<pdfrwt beam="2">  1       -1 0.42293845E-01 0.16344406E+04</pdfrwt>
<totfact> 0.79869147E+00</totfact>
</mgrwt>
</event>
<event>
12    2  0.3751044E-008  0.2106876E+04  0.7818608E-02  0.8558221E-01
          1   -1    0    0  501    0  0.00000000000E+00  0.00000000000E+00  0.20861266856E+04  0.20861266856E+04  0.00000000000E+00 0. -1.
         -1   -1    0    0    0  501 -0.00000000000E+00 -0.00000000000E+00 -0.53195787765E+03  0.53195787765E+03  0.00000000000E+00 0.  1.
         23    2    1    2    0    0 -0.10236865686E+03 -0.18163226390E+03 -0.39775317397E+03  0.45769093416E+03  0.88339020900E+02 0.  0.
        254    2    1    2    0    0  0.10236865686E+03  0.18163226390E+03  0.19519219819E+04  0.21603936291E+04  0.90212614855E+03 0.  0.
         23    2    4    4    0    0 -0.13172843817E+03 -0.29676789160E+03  0.11028037113E+04  0.11533108752E+04  0.92338434568E+02 0.  0.
         23    2    4    4    0    0  0.23409709502E+03  0.47840015550E+03  0.84911827066E+03  0.10070827538E+04  0.97701979617E+02 0.  0.
          2    1    3    3  502    0 -0.81219567670E+02 -0.58674373971E+02 -0.20337743701E+03  0.22671939092E+03  0.00000000000E+00 0. -1.
         -2    1    3    3    0  502 -0.21149089185E+02 -0.12295788993E+03 -0.19437573696E+03  0.23097154325E+03  0.00000000000E+00 0.  1.
         11    1    5    5    0    0 -0.33038088389E+02 -0.17398089990E+03  0.50722539657E+03  0.53725084620E+03  0.00000000000E+00 0. -1.
        -11    1    5    5    0    0 -0.98690349781E+02 -0.12278699171E+03  0.59557831468E+03  0.61606002905E+03  0.00000000000E+00 0.  1.
          4    1    6    6  503    0  0.83941026252E+01  0.88381878344E+02  0.17487893378E+03  0.19612358058E+03  0.00000000000E+00 0. -1.
         -4    1    6    6    0  503  0.22570299240E+03  0.39001827716E+03  0.67423933688E+03  0.81095917326E+03  0.00000000000E+00 0.  1.
<mgrwt>
<rscale>  0 0.21068759E+04</rscale>
<asrwt>0</asrwt>
<pdfrwt beam="1">  1        1 0.32094256E+00 0.21068759E+04</pdfrwt>
<pdfrwt beam="2">  1       -1 0.81839675E-01 0.21068759E+04</pdfrwt>
<totfact> 0.35563495E+00</totfact>
</mgrwt>
</event>
<event>
12    2  0.3751044E-008  0.1928723E+04  0.7818608E-02  0.8640690E-01
          1   -1    0    0  501    0  0.00000000000E+00  0.00000000000E+00  0.19525986821E+04  0.19525986821E+04  0.00000000000E+00 0. -1.
         -1   -1    0    0    0  501 -0.00000000000E+00 -0.00000000000E+00 -0.47628458607E+03  0.47628458607E+03  0.00000000000E+00 0.  1.
         23    2    1    2    0    0  0.27785981424E+03  0.43725633940E+03 -0.10453318445E+03  0.53664993967E+03  0.93095587338E+02 0.  0.
        254    2    1    2    0    0 -0.27785981424E+03 -0.43725633940E+03  0.15808472804E+04  0.18922333285E+04  0.90170375540E+03 0.  0.
         23    2    4    4    0    0 -0.19741815324E+03  0.25324936108E+03  0.43366372936E+03  0.54743821917E+03  0.92277882131E+02 0.  0.
         23    2    4    4    0    0 -0.80441661000E+02 -0.69050570048E+03  0.11471835511E+04  0.13447951093E+04  0.95785191198E+02 0.  0.
          1    1    3    3  502    0  0.50196132205E+02  0.97631879282E+02  0.14672572975E+02  0.11075612822E+03  0.00000000000E+00 0. -1.
         -1    1    3    3    0  502  0.22766368203E+03  0.33962446012E+03 -0.11920575743E+03  0.42589381145E+03  0.00000000000E+00 0.  1.
         11    1    5    5    0    0 -0.12492887369E+02  0.49969965487E+02  0.11898491447E+03  0.12965523344E+03  0.00000000000E+00 0.  1.
        -11    1    5    5    0    0 -0.18492526587E+03  0.20327939559E+03  0.31467881489E+03  0.41778298573E+03  0.00000000000E+00 0. -1.
          1    1    6    6  503    0 -0.10114370691E+03 -0.53519349616E+03  0.90923382887E+03  0.10598906941E+04  0.00000000000E+00 0. -1.
         -1    1    6    6    0  503  0.20702045907E+02 -0.15531220432E+03  0.23794972221E+03  0.28490441522E+03  0.00000000000E+00 0.  1.
<mgrwt>
<rscale>  0 0.19287225E+04</rscale>
<asrwt>0</asrwt>
<pdfrwt beam="1">  1        1 0.30039979E+00 0.19287225E+04</pdfrwt>
<pdfrwt beam="2">  1       -1 0.73274553E-01 0.19287225E+04</pdfrwt>
<totfact> 0.56216129E+00</totfact>
</mgrwt>
</event>
<event>
12    2  0.3751044E-008  0.1892376E+04  0.7818608E-02  0.8658661E-01
         -1   -1    0    0    0  501 -0.00000000000E+00  0.00000000000E+00  0.79991791925E+03  0.79991791925E+03  0.00000000000E+00 0.  1.
          1   -1    0    0  501    0  0.00000000000E+00 -0.00000000000E+00 -0.11192040054E+04  0.11192040054E+04  0.00000000000E+00 0. -1.
         23    2    1    2    0    0  0.29275364108E+03 -0.66092209303E+03 -0.16642173858E+03  0.74724399047E+03  0.90303260157E+02 0.  0.
        254    2    1    2    0    0 -0.29275364108E+03  0.66092209303E+03 -0.15286434759E+03  0.11718779342E+04  0.90961952294E+03 0.  0.
         23    2    4    4    0    0 -0.20911324660E+02 -0.10574970967E+03  0.23040742944E+03  0.26901799008E+03  0.87537482546E+02 0.  0.
         23    2    4    4    0    0 -0.27184231642E+03  0.76667180271E+03 -0.38327177703E+03  0.90285994413E+03  0.81085914834E+02 0.  0.
          4    1    3    3  502    0  0.92670137200E+02 -0.24128390617E+03 -0.10216491305E+03  0.27792687377E+03  0.00000000000E+00 0. -1.
         -4    1    3    3    0  502  0.20008350388E+03 -0.41963818686E+03 -0.64256825529E+02  0.46931711669E+03  0.00000000000E+00 0.  1.
         11    1    5    5    0    0 -0.26304674813E+02 -0.57699778225E+02  0.45903499766E+02  0.78283661226E+02  0.00000000000E+00 0. -1.
        -11    1    5    5    0    0  0.53933501536E+01 -0.48049931450E+02  0.18450392968E+03  0.19073432885E+03  0.00000000000E+00 0.  1.
          1    1    6    6  503    0  0.12987125464E+01  0.48444377404E+02 -0.31158240665E+02  0.57614063541E+02  0.00000000000E+00 0. -1.
         -1    1    6    6    0  503 -0.27314102896E+03  0.71822742530E+03 -0.35211353637E+03  0.84524588059E+03  0.00000000000E+00 0.  1.
<mgrwt>
<rscale>  0 0.18923756E+04</rscale>
<asrwt>0</asrwt>
<pdfrwt beam="1">  1        1 0.17218523E+00 0.18923756E+04</pdfrwt>
<pdfrwt beam="2">  1       -1 0.12306430E+00 0.18923756E+04</pdfrwt>
<totfact> 0.66806137E+00</totfact>
</mgrwt>
</event>
<event>
12    2  0.3751044E-008  0.1741694E+04  0.7818608E-02  0.8737935E-01
         -1   -1    0    0    0  501 -0.00000000000E+00  0.00000000000E+00  0.29472352388E+04  0.29472352388E+04  0.00000000000E+00 0.  1.
          1   -1    0    0  501    0  0.00000000000E+00 -0.00000000000E+00 -0.25731737534E+03  0.25731737534E+03  0.00000000000E+00 0. -1.
         23    2    1    2    0    0  0.18596094093E+03 -0.93394076209E+02 -0.11375121139E+03  0.25411377628E+03  0.91271836734E+02 0.  0.
        254    2    1    2    0    0 -0.18596094093E+03  0.93394076209E+02  0.28036690748E+04  0.29504388378E+04  0.89511179732E+03 0.  0.
         23    2    4    4    0    0 -0.28439981052E+03  0.38743185038E+03  0.22974137880E+04  0.23490133772E+04  0.93632483199E+02 0.  0.
         23    2    4    4    0    0  0.98438869598E+02 -0.29403777417E+03  0.50625528681E+03  0.60142546066E+03  0.96279518192E+02 0.  0.
          2    1    3    3  502    0  0.88825270531E+02 -0.94345317300E+02 -0.56540454225E+02  0.14137818271E+03  0.00000000000E+00 0. -1.
         -2    1    3    3    0  502  0.97135670396E+02  0.95124109079E+00 -0.57210757164E+02  0.11273559357E+03  0.00000000000E+00 0.  1.
         11    1    5    5    0    0 -0.15008923659E+03  0.27982886806E+03  0.14969168772E+04  0.15302258368E+04  0.00000000000E+00 0. -1.
        -11    1    5    5    0    0 -0.13431057394E+03  0.10760298231E+03  0.80049691077E+03  0.81878754034E+03  0.00000000000E+00 0.  1.
          4    1    6    6  503    0  0.71077202492E+02 -0.98940181281E+02  0.14028546255E+03  0.18579865228E+03  0.00000000000E+00 0.  1.
         -4    1    6    6    0  503  0.27361667106E+02 -0.19509759289E+03  0.36596982426E+03  0.41562680838E+03  0.00000000000E+00 0. -1.
<mgrwt>
<rscale>  0 0.17416944E+04</rscale>
<asrwt>0</asrwt>
<pdfrwt beam="1">  1        1 0.39587291E-01 0.17416944E+04</pdfrwt>
<pdfrwt beam="2">  1       -1 0.45342078E+00 0.17416944E+04</pdfrwt>
<totfact> 0.31205078E-01</totfact>
</mgrwt>
</event>
<event>
12    2  0.3751044E-008  0.2210154E+04  0.7818608E-02  0.8514214E-01
          2   -1    0    0  501    0  0.00000000000E+00  0.00000000000E+00  0.21169127633E+04  0.21169127633E+04  0.00000000000E+00 0.  1.
         -2   -1    0    0    0  501 -0.00000000000E+00 -0.00000000000E+00 -0.57687550367E+03  0.57687550367E+03  0.00000000000E+00 0. -1.
         23    2    1    2    0    0 -0.21526993991E+03 -0.15979328084E+03 -0.42756795450E+03  0.51290679419E+03  0.91564098737E+02 0.  0.
        254    2    1    2    0    0  0.21526993991E+03  0.15979328084E+03  0.19676052142E+04  0.21808814728E+04  0.90160893964E+03 0.  0.
         23    2    4    4    0    0 -0.32168539428E+03 -0.77743958685E+02  0.65381818978E+03  0.73887710946E+03  0.94527993692E+02 0.  0.
         23    2    4    4    0    0  0.53695533418E+03  0.23753723952E+03  0.13137870244E+04  0.14420043633E+04  0.92710665173E+02 0.  0.
          2    1    3    3  502    0 -0.11098305838E+03 -0.49259077986E+02 -0.25839043084E+03  0.28549835509E+03  0.00000000000E+00 0.  1.
         -2    1    3    3    0  502 -0.10428688152E+03 -0.11053420285E+03 -0.16917752366E+03  0.22740843909E+03  0.00000000000E+00 0. -1.
         11    1    5    5    0    0 -0.27763257100E+03 -0.99656251666E+02  0.55916262339E+03  0.63219779529E+03  0.00000000000E+00 0.  1.
        -11    1    5    5    0    0 -0.44052823279E+02  0.21912292981E+02  0.94655566390E+02  0.10667931417E+03  0.00000000000E+00 0. -1.
          2    1    6    6  503    0  0.21691998337E+02  0.49852796998E+01  0.10809272455E+03  0.11036046804E+03  0.00000000000E+00 0. -1.
         -2    1    6    6    0  503  0.51526333585E+03  0.23255195982E+03  0.12056942998E+04  0.13316438953E+04  0.00000000000E+00 0.  1.
<mgrwt>
<rscale>  0 0.22101539E+04</rscale>
<asrwt>0</asrwt>
<pdfrwt beam="1">  1        2 0.32567888E+00 0.22101539E+04</pdfrwt>
<pdfrwt beam="2">  1       -2 0.88750079E-01 0.22101539E+04</pdfrwt>
<totfact> 0.57301148E+00</totfact>
</mgrwt>
</event>
<event>
12    2  0.3751044E-008  0.1732974E+04  0.7818608E-02  0.8742778E-01
         -1   -1    0    0    0  501 -0.00000000000E+00  0.00000000000E+00  0.18107480281E+03  0.18107480281E+03  0.00000000000E+00 0.  1.
          1   -1    0    0  501    0  0.00000000000E+00 -0.00000000000E+00 -0.41463512480E+04  0.41463512480E+04  0.00000000000E+00 0. -1.
         23    2    1    2    0    0  0.28283841226E+03  0.53314944558E+03 -0.10353419989E+04  0.12019254769E+04  0.91901569978E+02 0.  0.
        254    2    1    2    0    0 -0.28283841226E+03 -0.53314944558E+03 -0.29299344462E+04  0.31255005739E+04  0.90553414029E+03 0.  0.
         23    2    4    4    0    0  0.14054191005E+03  0.20228587921E+02 -0.17052716146E+04  0.17136273610E+04  0.91685487680E+02 0.  0.
         23    2    4    4    0    0 -0.42338032230E+03 -0.55337803350E+03 -0.12246628317E+04  0.14118732129E+04  0.90048723895E+02 0.  0.
          3    1    3    3  502    0  0.60208497478E+02  0.16878436481E+03 -0.24405143447E+03  0.30277768682E+03  0.00000000000E+00 0. -1.
         -3    1    3    3    0  502  0.22262991478E+03  0.36436508077E+03 -0.79129056445E+03  0.89914779009E+03  0.00000000000E+00 0.  1.
         11    1    5    5    0    0  0.44754453262E+02 -0.36422323423E+02 -0.56683425711E+03  0.56976365430E+03  0.00000000000E+00 0. -1.
        -11    1    5    5    0    0  0.95787456786E+02  0.56650911345E+02 -0.11384373575E+04  0.11438637067E+04  0.00000000000E+00 0.  1.
          4    1    6    6  503    0 -0.25522488189E+03 -0.40238275012E+03 -0.83915043647E+03  0.96500003781E+03  0.00000000000E+00 0.  1.
         -4    1    6    6    0  503 -0.16815544041E+03 -0.15099528338E+03 -0.38551239518E+03  0.44687317505E+03  0.00000000000E+00 0. -1.
<mgrwt>
<rscale>  0 0.17329740E+04</rscale>
<asrwt>0</asrwt>
<pdfrwt beam="1">  1        1 0.63790017E+00 0.17329740E+04</pdfrwt>
<pdfrwt beam="2">  1       -1 0.27857663E-01 0.17329740E+04</pdfrwt>
<totfact> 0.79336723E-01</totfact>
</mgrwt>
</event>
<event>
12    2  0.3751044E-008  0.1530406E+04  0.7818608E-02  0.8864481E-01
         -2   -1    0    0    0  501 -0.00000000000E+00  0.00000000000E+00  0.90122538490E+03  0.90122538490E+03  0.00000000000E+00 0.  1.
          2   -1    0    0  501    0  0.00000000000E+00 -0.00000000000E+00 -0.64971066944E+03  0.64971066944E+03  0.00000000000E+00 0. -1.
         23    2    1    2    0    0 -0.34852501738E+03  0.22401740290E+03 -0.16196090841E+03  0.45363966366E+03  0.88905140759E+02 0.  0.
        254    2    1    2    0    0  0.34852501738E+03 -0.22401740290E+03  0.41347562386E+03  0.10972963907E+04  0.92813996408E+03 0.  0.
         23    2    4    4    0    0 -0.11301809647E+03 -0.43840571346E+03  0.51802573967E+02  0.46465167902E+03  0.90802072796E+02 0.  0.
         23    2    4    4    0    0  0.46154311384E+03  0.21438831056E+03  0.36167304990E+03  0.63264471166E+03  0.10221322092E+03 0.  0.
          2    1    3    3  502    0 -0.10664590927E+03  0.10135618105E+03 -0.92122192827E+02  0.17358837465E+03  0.00000000000E+00 0. -1.
         -2    1    3    3    0  502 -0.24187910811E+03  0.12266122185E+03 -0.69838715580E+02  0.28005128901E+03  0.00000000000E+00 0.  1.
         11    1    5    5    0    0  0.10791658128E+02 -0.28077944442E+02 -0.98242411922E+01  0.31644060489E+02  0.00000000000E+00 0. -1.
        -11    1    5    5    0    0 -0.12380975459E+03 -0.41032776902E+03  0.61626815159E+02  0.43300761853E+03  0.00000000000E+00 0.  1.
          3    1    6    6  503    0  0.46898427412E+02  0.46895566980E+02  0.18220259146E+02  0.68779608456E+02  0.00000000000E+00 0. -1.
         -3    1    6    6    0  503  0.41464468643E+03  0.16749274358E+03  0.34345279075E+03  0.56386510320E+03  0.00000000000E+00 0.  1.
<mgrwt>
<rscale>  0 0.15304062E+04</rscale>
<asrwt>0</asrwt>
<pdfrwt beam="1">  1        2 0.99955487E-01 0.15304062E+04</pdfrwt>
<pdfrwt beam="2">  1       -2 0.13865006E+00 0.15304062E+04</pdfrwt>
<totfact> 0.15964935E+01</totfact>
</mgrwt>
</event>
<event>
12    2  0.3751044E-008  0.1322783E+04  0.7818608E-02  0.9011691E-01
          2   -1    0    0  501    0  0.00000000000E+00  0.00000000000E+00  0.38409097914E+03  0.38409097914E+03  0.00000000000E+00 0.  1.
         -2   -1    0    0    0  501 -0.00000000000E+00 -0.00000000000E+00 -0.11388926455E+04  0.11388926455E+04  0.00000000000E+00 0. -1.
         23    2    1    2    0    0  0.34626949462E+03 -0.68941432725E+02 -0.30987221727E+03  0.47915090408E+03  0.94389161404E+02 0.  0.
        254    2    1    2    0    0 -0.34626949462E+03  0.68941432725E+02 -0.44492944905E+03  0.10438327205E+04  0.87576769166E+03 0.  0.
         23    2    4    4    0    0 -0.49090114802E+03  0.34963311820E+03 -0.32561902647E+03  0.69101787432E+03  0.90833351552E+02 0.  0.
         23    2    4    4    0    0  0.14463165340E+03 -0.28069168548E+03 -0.11931042257E+03  0.35281484620E+03  0.10265087095E+03 0.  0.
          2    1    3    3  502    0  0.59188256911E+02  0.14329976254E+02 -0.87443064679E+02  0.10655931464E+03  0.00000000000E+00 0. -1.
         -2    1    3    3    0  502  0.28708123771E+03 -0.83271408978E+02 -0.22242915259E+03  0.37259158944E+03  0.00000000000E+00 0.  1.
         11    1    5    5    0    0 -0.30841489848E+03  0.16671057361E+03 -0.20150176110E+03  0.40437003436E+03  0.00000000000E+00 0. -1.
        -11    1    5    5    0    0 -0.18248624954E+03  0.18292254459E+03 -0.12411726537E+03  0.28664783996E+03  0.00000000000E+00 0.  1.
          2    1    6    6  503    0  0.42268404784E+02 -0.13538745915E+02 -0.47472280875E+01  0.44636888987E+02  0.00000000000E+00 0. -1.
         -2    1    6    6    0  503  0.10236324861E+03 -0.26715293956E+03 -0.11456319449E+03  0.30817795722E+03  0.00000000000E+00 0.  1.
<mgrwt>
<rscale>  0 0.13227825E+04</rscale>
<asrwt>0</asrwt>
<pdfrwt beam="1">  1        2 0.59090922E-01 0.13227825E+04</pdfrwt>
<pdfrwt beam="2">  1       -2 0.17521425E+00 0.13227825E+04</pdfrwt>
<totfact> 0.15931896E+01</totfact>
</mgrwt>
</event>
<event>
12    2  0.3751044E-008  0.1637769E+04  0.7818608E-02  0.8797675E-01
         -2   -1    0    0    0  501 -0.00000000000E+00  0.00000000000E+00  0.86297302019E+03  0.86297302019E+03  0.00000000000E+00 0.  1.
          2   -1    0    0  501    0  0.00000000000E+00 -0.00000000000E+00 -0.77704869796E+03  0.77704869796E+03  0.00000000000E+00 0. -1.
         23    2    1    2    0    0  0.15897025019E+03  0.28717172347E+03  0.49274766278E+03  0.59871541527E+03  0.88998596057E+02 0.  0.
        254    2    1    2    0    0 -0.15897025019E+03 -0.28717172347E+03 -0.40682334054E+03  0.10413063029E+04  0.90059671708E+03 0.  0.
         23    2    4    4    0    0 -0.49475247480E+03 -0.24000790314E+03 -0.83175756756E+02  0.56401888277E+03  0.93889768982E+02 0.  0.
         23    2    4    4    0    0  0.33578222460E+03 -0.47163820326E+02 -0.32364758379E+03  0.47728742012E+03  0.89896577280E+02 0.  0.
          2    1    3    3  502    0 -0.25418644847E+01 -0.29696090500E+01  0.23703740082E+02  0.24023882843E+02  0.00000000000E+00 0. -1.
         -2    1    3    3    0  502  0.16151211468E+03  0.29014133252E+03  0.46904392269E+03  0.57469153242E+03  0.00000000000E+00 0.  1.
         11    1    5    5    0    0 -0.30676709726E+03 -0.19775996301E+03 -0.61457170346E+02  0.37012435575E+03  0.00000000000E+00 0.  1.
        -11    1    5    5    0    0 -0.18798537753E+03 -0.42247940131E+02 -0.21718586410E+02  0.19389452702E+03  0.00000000000E+00 0. -1.
          4    1    6    6  503    0  0.56130093356E+02 -0.41068395946E+02 -0.47500214899E+02  0.84222745985E+02  0.00000000000E+00 0. -1.
         -4    1    6    6    0  503  0.27965213125E+03 -0.60954243796E+01 -0.27614736889E+03  0.39306467413E+03  0.00000000000E+00 0.  1.
<mgrwt>
<rscale>  0 0.16377693E+04</rscale>
<asrwt>0</asrwt>
<pdfrwt beam="1">  1        2 0.11954595E+00 0.16377693E+04</pdfrwt>
<pdfrwt beam="2">  1       -2 0.13276508E+00 0.16377693E+04</pdfrwt>
<totfact> 0.14089174E+01</totfact>
</mgrwt>
</event>
<event>
12    2  0.3751044E-008  0.3521283E+04  0.7818608E-02  0.8108765E-01
         -2   -1    0    0    0  501 -0.00000000000E+00  0.00000000000E+00  0.11764159859E+04  0.11764159859E+04  0.00000000000E+00 0.  1.
          2   -1    0    0  501    0  0.00000000000E+00 -0.00000000000E+00 -0.26350018562E+04  0.26350018562E+04  0.00000000000E+00 0. -1.
         23    2    1    2    0    0 -0.33198929135E+03 -0.14696742075E+04 -0.31804841221E+02  0.15097365910E+04  0.90187916994E+02 0.  0.
        254    2    1    2    0    0  0.33198929135E+03  0.14696742075E+04 -0.14267810291E+04  0.23016812511E+04  0.99592836625E+03 0.  0.
         23    2    4    4    0    0 -0.25173563880E+03  0.46427584497E+03 -0.84041541183E+03  0.99675272738E+03  0.91077126854E+02 0.  0.
         23    2    4    4    0    0  0.58372493016E+03  0.10053983625E+04 -0.58636561725E+03  0.13049285237E+04  0.86331647196E+02 0.  0.
          1    1    3    3  502    0 -0.15866789491E+03 -0.85844442720E+03  0.99000777757E+01  0.87304086216E+03  0.00000000000E+00 0. -1.
         -1    1    3    3    0  502 -0.17332139645E+03 -0.61122978031E+03 -0.41704918997E+02  0.63669572880E+03  0.00000000000E+00 0.  1.
         11    1    5    5    0    0 -0.15750249693E+02  0.15847207490E+02 -0.79257199887E+02  0.82346269403E+02  0.00000000000E+00 0. -1.
        -11    1    5    5    0    0 -0.23598538911E+03  0.44842863748E+03 -0.76115821194E+03  0.91440645798E+03  0.00000000000E+00 0.  1.
          4    1    6    6  503    0  0.47666841910E+03  0.77257535521E+03 -0.48616883277E+03  0.10297793915E+04  0.00000000000E+00 0.  1.
         -4    1    6    6    0  503  0.10705651106E+03  0.23282300733E+03 -0.10019678449E+03  0.27514913215E+03  0.00000000000E+00 0. -1.
<mgrwt>
<rscale>  0 0.35212829E+04</rscale>
<asrwt>0</asrwt>
<pdfrwt beam="1">  1        2 0.40538490E+00 0.35212829E+04</pdfrwt>
<pdfrwt beam="2">  1       -2 0.18098707E+00 0.35212829E+04</pdfrwt>
<totfact> 0.42484366E-01</totfact>
</mgrwt>
</event>
