<event>
12    5  0.5297412E-008  0.1369266E+04  0.7818608E-02  0.8976371E-01
          1   -1    0    0  501    0  0.00000000000E+00  0.00000000000E+00  0.14965640659E+04  0.14965640659E+04  0.00000000000E+00 0. -1.
         -2   -1    0    0    0  501 -0.00000000000E+00 -0.00000000000E+00 -0.31319887812E+03  0.31319887812E+03  0.00000000000E+00 0.  1.
        -24    2    1    2    0    0 -0.14742454047E+03  0.11300746969E+03 -0.10552699939E+03  0.22811735475E+03  0.79980601406E+02 0.  0.
        254    2    1    2    0    0  0.14742454047E+03 -0.11300746969E+03  0.12888921872E+04  0.15816455893E+04  0.89769427790E+03 0.  0.
         23    2    4    4    0    0 -0.91777665062E+02  0.34021874684E+03  0.33363650672E+03  0.49413776794E+03  0.93203431130E+02 0.  0.
         23    2    4    4    0    0  0.23920220553E+03 -0.45322621654E+03  0.95525568049E+03  0.10875078214E+04  0.86764900389E+02 0.  0.
          3    1    3    3  502    0 -0.20294811648E+02 -0.39653030913E+01  0.71311833914E+01  0.21873655044E+02  0.00000000000E+00 0. -1.
         -4    1    3    3    0  502 -0.12712972882E+03  0.11697277279E+03 -0.11265818278E+03  0.20624369971E+03  0.00000000000E+00 0.  1.
         13    1    5    5    0    0 -0.76929023577E+02  0.18733805904E+03  0.13649495740E+03  0.24422222754E+03  0.00000000000E+00 0.  1.
        -13    1    5    5    0    0 -0.14848641485E+02  0.15288068781E+03  0.19714154933E+03  0.24991554039E+03  0.00000000000E+00 0. -1.
          3    1    6    6  503    0  0.26144034065E+02 -0.12996106475E+03  0.24976999425E+03  0.28276923258E+03  0.00000000000E+00 0. -1.
         -3    1    6    6    0  503  0.21305817147E+03 -0.32326515178E+03  0.70548568624E+03  0.80473858878E+03  0.00000000000E+00 0.  1.
<mgrwt>
<rscale>  0 0.13692658E+04</rscale>
<asrwt>0</asrwt>
<pdfrwt beam="1">  1        1 0.23024062E+00 0.13692658E+04</pdfrwt>
<pdfrwt beam="2">  1       -2 0.48184444E-01 0.13692658E+04</pdfrwt>
<totfact> 0.23015988E+01</totfact>
</mgrwt>
</event>
<event>
12    5  0.5297412E-008  0.1375790E+04  0.7818608E-02  0.8971531E-01
          1   -1    0    0  501    0  0.00000000000E+00  0.00000000000E+00  0.11488140729E+04  0.11488140729E+04  0.00000000000E+00 0. -1.
         -2   -1    0    0    0  501 -0.00000000000E+00 -0.00000000000E+00 -0.41190289537E+03  0.41190289537E+03  0.00000000000E+00 0.  1.
        -24    2    1    2    0    0  0.11769793325E+03 -0.34464831875E+03  0.76606303256E+02  0.38641433997E+03  0.10398196634E+03 0.  0.
        254    2    1    2    0    0 -0.11769793325E+03  0.34464831875E+03  0.66030487427E+03  0.11743026283E+04  0.90019379509E+03 0.  0.
         23    2    4    4    0    0  0.14366401848E+02  0.24862701519E+03 -0.17520280980E+03  0.31815443751E+03  0.92219495573E+02 0.  0.
         23    2    4    4    0    0 -0.13206433510E+03  0.96021303561E+02  0.83550768407E+03  0.85614819078E+03  0.90860085258E+02 0.  0.
          3    1    3    3  502    0  0.32105550464E+01 -0.91706942421E+01 -0.17184324728E+02  0.19741081859E+02  0.00000000000E+00 0. -1.
         -4    1    3    3    0  502  0.11448737821E+03 -0.33547762451E+03  0.93790627984E+02  0.36667325811E+03  0.00000000000E+00 0.  1.
         13    1    5    5    0    0  0.28922356594E+02  0.24925741206E+03 -0.16719352908E+03  0.30152850005E+03  0.00000000000E+00 0.  1.
        -13    1    5    5    0    0 -0.14555954745E+02 -0.63039687256E+00 -0.80092807216E+01  0.16625937460E+02  0.00000000000E+00 0. -1.
          3    1    6    6  503    0 -0.78116218396E+02  0.57482434690E+01  0.27876912025E+03  0.28956416954E+03  0.00000000000E+00 0. -1.
         -3    1    6    6    0  503 -0.53948116705E+02  0.90273060092E+02  0.55673856382E+03  0.56658402124E+03  0.00000000000E+00 0.  1.
<mgrwt>
<rscale>  0 0.13757905E+04</rscale>
<asrwt>0</asrwt>
<pdfrwt beam="1">  1        1 0.17674062E+00 0.13757905E+04</pdfrwt>
<pdfrwt beam="2">  1       -2 0.63369677E-01 0.13757905E+04</pdfrwt>
<totfact> 0.23022041E+01</totfact>
</mgrwt>
</event>
<event>
12    5  0.5297412E-008  0.1968943E+04  0.7818608E-02  0.8621280E-01
          1   -1    0    0  501    0  0.00000000000E+00  0.00000000000E+00  0.78150844700E+03  0.78150844700E+03  0.00000000000E+00 0. -1.
         -2   -1    0    0    0  501 -0.00000000000E+00 -0.00000000000E+00 -0.12401459406E+04  0.12401459406E+04  0.00000000000E+00 0.  1.
        -24    2    1    2    0    0  0.21798303415E+03 -0.73139690832E+03 -0.64022458577E+02  0.77000375224E+03  0.79679750117E+02 0.  0.
        254    2    1    2    0    0 -0.21798303415E+03  0.73139690832E+03 -0.39461503499E+03  0.12516506353E+04  0.91019242274E+03 0.  0.
         23    2    4    4    0    0  0.74764011334E+02 -0.10815985130E+03  0.13780343372E+03  0.21105200328E+03  0.90911775472E+02 0.  0.
         23    2    4    4    0    0 -0.29274704548E+03  0.83955675962E+03 -0.53241846871E+03  0.10405986321E+04  0.93913268238E+02 0.  0.
          1    1    3    3  502    0  0.16388660058E+03 -0.60187714321E+03 -0.24887150960E+02  0.62428702025E+03  0.00000000000E+00 0. -1.
         -2    1    3    3    0  502  0.54096433562E+02 -0.12951976511E+03 -0.39135307617E+02  0.14571673199E+03  0.00000000000E+00 0.  1.
         13    1    5    5    0    0  0.95860343604E+02 -0.91614097713E+02  0.12026733986E+03  0.17901558986E+03  0.00000000000E+00 0. -1.
        -13    1    5    5    0    0 -0.21096332270E+02 -0.16545753587E+02  0.17536093862E+02  0.32036413422E+02  0.00000000000E+00 0.  1.
          2    1    6    6  503    0 -0.23622869277E+03  0.56651268735E+03 -0.33827808517E+03  0.70083713024E+03  0.00000000000E+00 0. -1.
         -2    1    6    6    0  503 -0.56518352709E+02  0.27304407227E+03 -0.19414038354E+03  0.33976150181E+03  0.00000000000E+00 0.  1.
<mgrwt>
<rscale>  0 0.19689434E+04</rscale>
<asrwt>0</asrwt>
<pdfrwt beam="1">  1        1 0.12023207E+00 0.19689434E+04</pdfrwt>
<pdfrwt beam="2">  1       -2 0.19079168E+00 0.19689434E+04</pdfrwt>
<totfact> 0.28624230E+00</totfact>
</mgrwt>
</event>
<event>
12    5  0.5603280E-008  0.1733782E+04  0.7818608E-02  0.8742328E-01
          1   -1    0    0  501    0  0.00000000000E+00  0.00000000000E+00  0.18317832995E+04  0.18317832995E+04  0.00000000000E+00 0. -1.
         -2   -1    0    0    0  501 -0.00000000000E+00 -0.00000000000E+00 -0.41025590470E+03  0.41025590470E+03  0.00000000000E+00 0.  1.
        -24    2    1    2    0    0  0.40017624036E+03 -0.38435067329E+02  0.11430844183E+04  0.12141133392E+04  0.76229490486E+02 0.  0.
        254    2    1    2    0    0 -0.40017624036E+03  0.38435067329E+02  0.27844297652E+03  0.10279258651E+04  0.90414756270E+03 0.  0.
         23    2    4    4    0    0 -0.44183417772E+03  0.10627078159E+03  0.55728668628E+03  0.72492794108E+03  0.91875728259E+02 0.  0.
         23    2    4    4    0    0  0.41657937357E+02 -0.67835714260E+02 -0.27884370975E+03  0.30299792398E+03  0.87845657778E+02 0.  0.
          1    1    3    3  502    0  0.35125038028E+03 -0.58774666083E+02  0.98781296559E+03  0.10500503540E+04  0.00000000000E+00 0. -1.
         -2    1    3    3    0  502  0.48925860080E+02  0.20339598754E+02  0.15527145273E+03  0.16406298515E+03  0.00000000000E+00 0.  1.
         13    1    5    5    0    0 -0.30953152201E+03  0.11306597860E+03  0.42403857648E+03  0.53703109126E+03  0.00000000000E+00 0. -1.
        -13    1    5    5    0    0 -0.13230265571E+03 -0.67951970113E+01  0.13324810979E+03  0.18789684982E+03  0.00000000000E+00 0.  1.
          3    1    6    6  503    0  0.16327887991E+02 -0.60227243236E+02 -0.26668607460E+03  0.27388936296E+03  0.00000000000E+00 0. -1.
         -3    1    6    6    0  503  0.25330049366E+02 -0.76084710242E+01 -0.12157635154E+02  0.29108561021E+02  0.00000000000E+00 0.  1.
<mgrwt>
<rscale>  0 0.17337819E+04</rscale>
<asrwt>0</asrwt>
<pdfrwt beam="1">  1        1 0.28181281E+00 0.17337819E+04</pdfrwt>
<pdfrwt beam="2">  1       -2 0.63116294E-01 0.17337819E+04</pdfrwt>
<totfact> 0.75092897E+00</totfact>
</mgrwt>
</event>
<event>
12    5  0.5297412E-008  0.1947357E+04  0.7818608E-02  0.8631636E-01
          1   -1    0    0  501    0  0.00000000000E+00  0.00000000000E+00  0.19859079587E+04  0.19859079587E+04  0.00000000000E+00 0. -1.
         -2   -1    0    0    0  501 -0.00000000000E+00 -0.00000000000E+00 -0.47738864789E+03  0.47738864789E+03  0.00000000000E+00 0.  1.
        -24    2    1    2    0    0 -0.32455325655E+03  0.38673112203E+02 -0.27801747443E+03  0.43649524378E+03  0.80024719986E+02 0.  0.
        254    2    1    2    0    0  0.32455325655E+03 -0.38673112203E+02  0.17865367852E+04  0.20268013628E+04  0.89965529695E+03 0.  0.
         23    2    4    4    0    0 -0.25705986983E+03 -0.13898287142E+03  0.95505489073E+03  0.10028998018E+04  0.91006334931E+02 0.  0.
         23    2    4    4    0    0  0.58161312638E+03  0.10030975921E+03  0.83148189447E+03  0.10239015609E+04  0.93147136706E+02 0.  0.
          3    1    3    3  502    0 -0.15787211778E+03  0.59064467451E+02 -0.14165713155E+03  0.22017938098E+03  0.00000000000E+00 0. -1.
         -4    1    3    3    0  502 -0.16668113877E+03 -0.20391355247E+02 -0.13636034288E+03  0.21631586280E+03  0.00000000000E+00 0.  1.
         13    1    5    5    0    0 -0.81397324065E+02 -0.28160028557E+02  0.42427566591E+03  0.43292996230E+03  0.00000000000E+00 0. -1.
        -13    1    5    5    0    0 -0.17566254577E+03 -0.11082284286E+03  0.53077922482E+03  0.56996983954E+03  0.00000000000E+00 0.  1.
          1    1    6    6  503    0  0.29572619404E+03  0.46334761699E+01  0.39636294470E+03  0.49454932502E+03  0.00000000000E+00 0. -1.
         -1    1    6    6    0  503  0.28588693234E+03  0.95676283043E+02  0.43511894976E+03  0.52935223591E+03  0.00000000000E+00 0.  1.
<mgrwt>
<rscale>  0 0.19473571E+04</rscale>
<asrwt>0</asrwt>
<pdfrwt beam="1">  1        1 0.30552430E+00 0.19473571E+04</pdfrwt>
<pdfrwt beam="2">  1       -2 0.73444409E-01 0.19473571E+04</pdfrwt>
<totfact> 0.41697838E+00</totfact>
</mgrwt>
</event>
<event>
12    5  0.5297412E-008  0.1296859E+04  0.7818608E-02  0.9032060E-01
         -2   -1    0    0    0  501 -0.00000000000E+00  0.00000000000E+00  0.90853586986E+03  0.90853586986E+03  0.00000000000E+00 0.  1.
          1   -1    0    0  501    0  0.00000000000E+00 -0.00000000000E+00 -0.46278939870E+03  0.46278939870E+03  0.00000000000E+00 0. -1.
        -24    2    1    2    0    0  0.64662826162E+02  0.82699628578E+01  0.45965646239E+03  0.47064454162E+03  0.77282260377E+02 0.  0.
        254    2    1    2    0    0 -0.64662826162E+02 -0.82699628578E+01 -0.13909991226E+02  0.90068072693E+03  0.89821078297E+03 0.  0.
         23    2    4    4    0    0  0.44072730273E+02 -0.29375263475E+03 -0.32887941174E+03  0.45238179337E+03  0.90854848655E+02 0.  0.
         23    2    4    4    0    0 -0.10873555643E+03  0.28548267189E+03  0.31496942052E+03  0.44829893357E+03  0.91882646853E+02 0.  0.
          1    1    3    3  502    0  0.19731080678E+01 -0.27345498610E+02  0.92583286116E+02  0.96557414618E+02  0.00000000000E+00 0. -1.
         -2    1    3    3    0  502  0.62689718094E+02  0.35615461468E+02  0.36707317627E+03  0.37408712700E+03  0.00000000000E+00 0.  1.
         13    1    5    5    0    0 -0.42787695996E+01 -0.16043101956E+03 -0.22595815359E+03  0.27715249788E+03  0.00000000000E+00 0.  1.
        -13    1    5    5    0    0  0.48351499872E+02 -0.13332161519E+03 -0.10292125815E+03  0.17522929549E+03  0.00000000000E+00 0. -1.
          3    1    6    6  503    0 -0.81661850507E+02  0.92474378756E+02  0.10738324876E+03  0.16355834026E+03  0.00000000000E+00 0. -1.
         -3    1    6    6    0  503 -0.27073705928E+02  0.19300829314E+03  0.20758617175E+03  0.28474059330E+03  0.00000000000E+00 0.  1.
<mgrwt>
<rscale>  0 0.12968589E+04</rscale>
<asrwt>0</asrwt>
<pdfrwt beam="1">  1        1 0.71198369E-01 0.12968589E+04</pdfrwt>
<pdfrwt beam="2">  1       -2 0.13977475E+00 0.12968589E+04</pdfrwt>
<totfact> 0.15261355E+01</totfact>
</mgrwt>
</event>
<event>
12    5  0.5297412E-008  0.1581529E+04  0.7818608E-02  0.8831977E-01
          1   -1    0    0  501    0  0.00000000000E+00  0.00000000000E+00  0.68329464740E+03  0.68329464740E+03  0.00000000000E+00 0. -1.
         -2   -1    0    0    0  501 -0.00000000000E+00 -0.00000000000E+00 -0.91513716337E+03  0.91513716337E+03  0.00000000000E+00 0.  1.
        -24    2    1    2    0    0  0.11589085904E+03  0.37771351993E+03 -0.42796689161E+03  0.58784781411E+03  0.79443048053E+02 0.  0.
        254    2    1    2    0    0 -0.11589085904E+03 -0.37771351993E+03  0.19612437565E+03  0.10105839967E+04  0.90923981942E+03 0.  0.
         23    2    4    4    0    0 -0.20241576572E+02 -0.14416925611E+03  0.54344473517E+03  0.56978731396E+03  0.90171542803E+02 0.  0.
         23    2    4    4    0    0 -0.95649282471E+02 -0.23354426383E+03 -0.34732035952E+03  0.44079668270E+03  0.99892817240E+02 0.  0.
          3    1    3    3  502    0 -0.13705648001E+01 -0.10056326989E+00  0.27234335858E+01  0.30505165691E+01  0.00000000000E+00 0. -1.
         -4    1    3    3    0  502  0.11726142384E+03  0.37781408320E+03 -0.43069032520E+03  0.58479729754E+03  0.00000000000E+00 0.  1.
         13    1    5    5    0    0  0.13181019549E+02 -0.40545980661E+02  0.56291055281E+02  0.70614437113E+02  0.00000000000E+00 0. -1.
        -13    1    5    5    0    0 -0.33422596121E+02 -0.10362327545E+03  0.48715367989E+03  0.49917287684E+03  0.00000000000E+00 0.  1.
          4    1    6    6  503    0  0.89153159586E+01  0.29811645737E+01 -0.24116045890E+01  0.97049491266E+01  0.00000000000E+00 0. -1.
         -4    1    6    6    0  503 -0.10456459843E+03 -0.23652542840E+03 -0.34490875493E+03  0.43109173357E+03  0.00000000000E+00 0.  1.
<mgrwt>
<rscale>  0 0.15815288E+04</rscale>
<asrwt>0</asrwt>
<pdfrwt beam="1">  1        1 0.10512225E+00 0.15815288E+04</pdfrwt>
<pdfrwt beam="2">  1       -2 0.14079033E+00 0.15815288E+04</pdfrwt>
<totfact> 0.84118037E+00</totfact>
</mgrwt>
</event>
<event>
12    5  0.5297412E-008  0.1194900E+04  0.7818608E-02  0.9117332E-01
         -4   -1    0    0    0  501 -0.00000000000E+00  0.00000000000E+00  0.46642925536E+03  0.46642925536E+03  0.00000000000E+00 0.  1.
          1   -1    0    0  501    0  0.00000000000E+00 -0.00000000000E+00 -0.76527521883E+03  0.76527521883E+03  0.00000000000E+00 0. -1.
        -24    2    1    2    0    0 -0.21824757549E+03  0.83337571336E+02 -0.13432957226E+03  0.28143576065E+03  0.81144922116E+02 0.  0.
        254    2    1    2    0    0  0.21824757549E+03 -0.83337571336E+02 -0.16451639121E+03  0.95026871355E+03  0.90629345687E+03 0.  0.
         23    2    4    4    0    0  0.52054860141E+03 -0.18272757193E+03 -0.24296726422E+03  0.60978127615E+03  0.91868935379E+02 0.  0.
         23    2    4    4    0    0 -0.30230102592E+03  0.99390000592E+02  0.78450873010E+02  0.34048743740E+03  0.92265232150E+02 0.  0.
          1    1    3    3  502    0 -0.20013021398E+03  0.76623900410E+02 -0.14558793018E+03  0.25907367693E+03  0.00000000000E+00 0. -1.
         -2    1    3    3    0  502 -0.18117361504E+02  0.67136709252E+01  0.11258357920E+02  0.22362083718E+02  0.00000000000E+00 0.  1.
         13    1    5    5    0    0  0.40680804857E+03 -0.10081662702E+03 -0.18087473248E+03  0.45647831221E+03  0.00000000000E+00 0. -1.
        -13    1    5    5    0    0  0.11374055284E+03 -0.81910944906E+02 -0.62092531733E+02  0.15330296394E+03  0.00000000000E+00 0.  1.
          1    1    6    6  503    0 -0.24963653056E+03  0.47105820596E+02  0.79749901256E+02  0.26626566146E+03  0.00000000000E+00 0. -1.
         -1    1    6    6    0  503 -0.52664495359E+02  0.52284179996E+02 -0.12990282455E+01  0.74221775939E+02  0.00000000000E+00 0.  1.
<mgrwt>
<rscale>  0 0.11949004E+04</rscale>
<asrwt>0</asrwt>
<pdfrwt beam="1">  1        1 0.11773465E+00 0.11949004E+04</pdfrwt>
<pdfrwt beam="2">  1       -4 0.71758348E-01 0.11949004E+04</pdfrwt>
<totfact> 0.20174445E+01</totfact>
</mgrwt>
</event>
<event>
12    5  0.5297412E-008  0.1788145E+04  0.7818608E-02  0.8712629E-01
          1   -1    0    0  501    0  0.00000000000E+00  0.00000000000E+00  0.18443148557E+04  0.18443148557E+04  0.00000000000E+00 0. -1.
         -2   -1    0    0    0  501 -0.00000000000E+00 -0.00000000000E+00 -0.43342156040E+03  0.43342156040E+03  0.00000000000E+00 0.  1.
        -24    2    1    2    0    0  0.11016921377E+02 -0.60269932312E+03  0.85790867199E+03  0.10513149475E+04  0.76733192387E+02 0.  0.
        254    2    1    2    0    0 -0.11016921377E+02  0.60269932312E+03  0.55298462330E+03  0.12264214685E+04  0.91375586358E+03 0.  0.
         23    2    4    4    0    0 -0.39436065735E+03  0.45164857113E+02  0.15242893847E+03  0.43476553640E+03  0.90698941415E+02 0.  0.
         23    2    4    4    0    0  0.38334373597E+03  0.55753446601E+03  0.40055568483E+03  0.79165593214E+03  0.92071480666E+02 0.  0.
          3    1    3    3  502    0  0.29196189937E+02 -0.55556332216E+03  0.80060519684E+03  0.97492138331E+03  0.00000000000E+00 0. -1.
         -4    1    3    3    0  502 -0.18179268560E+02 -0.47136000963E+02  0.57303475151E+02  0.76393564235E+02  0.00000000000E+00 0.  1.
         13    1    5    5    0    0 -0.35273119409E+03  0.47365121186E+02  0.10382387335E+03  0.37073190673E+03  0.00000000000E+00 0. -1.
        -13    1    5    5    0    0 -0.41629463260E+02 -0.22002640730E+01  0.48605065124E+02  0.64033629672E+02  0.00000000000E+00 0.  1.
          2    1    6    6  503    0  0.32176813745E+03  0.48193247729E+03  0.37708518704E+03  0.69136595609E+03  0.00000000000E+00 0. -1.
         -2    1    6    6    0  503  0.61575598518E+02  0.75601988714E+02  0.23470497783E+02  0.10028997605E+03  0.00000000000E+00 0.  1.
<mgrwt>
<rscale>  0 0.17881452E+04</rscale>
<asrwt>0</asrwt>
<pdfrwt beam="1">  1        1 0.28374074E+00 0.17881452E+04</pdfrwt>
<pdfrwt beam="2">  1       -2 0.66680241E-01 0.17881452E+04</pdfrwt>
<totfact> 0.65127706E+00</totfact>
</mgrwt>
</event>
<event>
12    5  0.5297412E-008  0.1642159E+04  0.7818608E-02  0.8795058E-01
          1   -1    0    0  501    0  0.00000000000E+00  0.00000000000E+00  0.26641874533E+04  0.26641874533E+04  0.00000000000E+00 0. -1.
         -2   -1    0    0    0  501 -0.00000000000E+00 -0.00000000000E+00 -0.25304973809E+03  0.25304973809E+03  0.00000000000E+00 0.  1.
        -24    2    1    2    0    0 -0.47399388187E+03  0.11327708117E+02  0.14151506071E+04  0.14945468149E+04  0.78869664905E+02 0.  0.
        254    2    1    2    0    0  0.47399388187E+03 -0.11327708117E+02  0.99598710804E+03  0.14226903765E+04  0.89847597121E+03 0.  0.
         23    2    4    4    0    0 -0.18790861195E+03 -0.14087021650E+03  0.47665197403E+02  0.25564242857E+03  0.89033790784E+02 0.  0.
         23    2    4    4    0    0  0.66190249382E+03  0.12954250839E+03  0.94832191064E+03  0.11670479479E+04  0.88262640174E+02 0.  0.
          3    1    3    3  502    0 -0.21653855583E+03  0.98666631168E+01  0.76977234206E+03  0.79970979474E+03  0.00000000000E+00 0. -1.
         -4    1    3    3    0  502 -0.25745532604E+03  0.14610450000E+01  0.64537826508E+03  0.69483702017E+03  0.00000000000E+00 0.  1.
         13    1    5    5    0    0 -0.12518764301E+02  0.10895393743E+02 -0.58778136858E+01  0.17606185225E+02  0.00000000000E+00 0.  1.
        -13    1    5    5    0    0 -0.17538984765E+03 -0.15176561025E+03  0.53543011089E+02  0.23803624335E+03  0.00000000000E+00 0. -1.
          2    1    6    6  503    0  0.55062418492E+03  0.12449039242E+03  0.73919935499E+03  0.93010780948E+03  0.00000000000E+00 0. -1.
         -2    1    6    6    0  503  0.11127830889E+03  0.50521159620E+01  0.20912255565E+03  0.23694013840E+03  0.00000000000E+00 0.  1.
<mgrwt>
<rscale>  0 0.16421595E+04</rscale>
<asrwt>0</asrwt>
<pdfrwt beam="1">  1        1 0.40987497E+00 0.16421595E+04</pdfrwt>
<pdfrwt beam="2">  1       -2 0.38930731E-01 0.16421595E+04</pdfrwt>
<totfact> 0.54607776E+00</totfact>
</mgrwt>
</event>
<event>
12    5  0.5297412E-008  0.1507586E+04  0.7818608E-02  0.8879424E-01
         -4   -1    0    0    0  501 -0.00000000000E+00  0.00000000000E+00  0.16737738496E+04  0.16737738496E+04  0.00000000000E+00 0.  1.
          3   -1    0    0  501    0  0.00000000000E+00 -0.00000000000E+00 -0.33947466437E+03  0.33947466437E+03  0.00000000000E+00 0. -1.
        -24    2    1    2    0    0  0.16498007221E+03 -0.44899840375E+03  0.34320898571E+03  0.59406952681E+03  0.79424202987E+02 0.  0.
        254    2    1    2    0    0 -0.16498007221E+03  0.44899840375E+03  0.99109019952E+03  0.14191789872E+04  0.89609777546E+03 0.  0.
         23    2    4    4    0    0 -0.29487425867E+03 -0.10014252634E+03  0.71400268378E+03  0.78399256267E+03  0.88685691414E+02 0.  0.
         23    2    4    4    0    0  0.12989418646E+03  0.54914093009E+03  0.27708751574E+03  0.63518642449E+03  0.90862762973E+02 0.  0.
          1    1    3    3  502    0 -0.89272282709E+01 -0.28050614817E+02  0.20225613219E+02  0.35715652399E+02  0.00000000000E+00 0. -1.
         -2    1    3    3    0  502  0.17390730048E+03 -0.42094778893E+03  0.32298337249E+03  0.55835387441E+03  0.00000000000E+00 0.  1.
         13    1    5    5    0    0 -0.23526786254E+02  0.12131409392E+02  0.98992021911E+02  0.10247000130E+03  0.00000000000E+00 0.  1.
        -13    1    5    5    0    0 -0.27134747242E+03 -0.11227393573E+03  0.61501066187E+03  0.68152256136E+03  0.00000000000E+00 0. -1.
          1    1    6    6  503    0  0.12164136922E+03  0.54344068034E+03  0.25827063534E+03  0.61386327210E+03  0.00000000000E+00 0. -1.
         -1    1    6    6    0  503  0.82528172467E+01  0.57002497503E+01  0.18816880400E+02  0.21323152387E+02  0.00000000000E+00 0.  1.
<mgrwt>
<rscale>  0 0.15075859E+04</rscale>
<asrwt>0</asrwt>
<pdfrwt beam="1">  1        3 0.52226872E-01 0.15075859E+04</pdfrwt>
<pdfrwt beam="2">  1       -4 0.25750366E+00 0.15075859E+04</pdfrwt>
<totfact> 0.45553482E-01</totfact>
</mgrwt>
</event>
<event>
12    5  0.5297412E-008  0.1705531E+04  0.7818608E-02  0.8758216E-01
          1   -1    0    0  501    0  0.00000000000E+00  0.00000000000E+00  0.11873936491E+04  0.11873936491E+04  0.00000000000E+00 0. -1.
         -2   -1    0    0    0  501 -0.00000000000E+00 -0.00000000000E+00 -0.61244162300E+03  0.61244162300E+03  0.00000000000E+00 0.  1.
        -24    2    1    2    0    0  0.45781445681E+03  0.93431253199E+02 -0.21114262697E+03  0.51870683619E+03  0.78435304873E+02 0.  0.
        254    2    1    2    0    0 -0.45781445681E+03 -0.93431253199E+02  0.78609465305E+03  0.12811284359E+04  0.89723006511E+03 0.  0.
         23    2    4    4    0    0 -0.42149035935E+03 -0.46102701024E+03  0.49429068890E+03  0.80172152028E+03  0.90741852310E+02 0.  0.
         23    2    4    4    0    0 -0.36324097459E+02  0.36759575704E+03  0.29180396415E+03  0.47940691560E+03  0.90748865457E+02 0.  0.
          1    1    3    3  502    0  0.16168703903E+03  0.19639041426E+02 -0.35888253909E+02  0.16678236509E+03  0.00000000000E+00 0. -1.
         -2    1    3    3    0  502  0.29612741778E+03  0.73792211773E+02 -0.17525437306E+03  0.35192447110E+03  0.00000000000E+00 0.  1.
         13    1    5    5    0    0 -0.26817888621E+03 -0.22948415852E+03  0.29327131793E+03  0.45890190666E+03  0.00000000000E+00 0.  1.
        -13    1    5    5    0    0 -0.15331147314E+03 -0.23154285171E+03  0.20101937097E+03  0.34281961362E+03  0.00000000000E+00 0. -1.
          3    1    6    6  503    0 -0.66198999331E+01  0.76945085054E+02  0.11300287426E+03  0.13687227177E+03  0.00000000000E+00 0. -1.
         -3    1    6    6    0  503 -0.29704197526E+02  0.29065067198E+03  0.17880108989E+03  0.34253464383E+03  0.00000000000E+00 0.  1.
<mgrwt>
<rscale>  0 0.17055313E+04</rscale>
<asrwt>0</asrwt>
<pdfrwt beam="1">  1        1 0.18267595E+00 0.17055313E+04</pdfrwt>
<pdfrwt beam="2">  1       -2 0.94221789E-01 0.17055313E+04</pdfrwt>
<totfact> 0.86520917E+00</totfact>
</mgrwt>
</event>
<event>
12    5  0.5297412E-008  0.1318783E+04  0.7818608E-02  0.9014801E-01
          1   -1    0    0  501    0  0.00000000000E+00  0.00000000000E+00  0.12373350074E+04  0.12373350074E+04  0.00000000000E+00 0. -1.
         -2   -1    0    0    0  501 -0.00000000000E+00 -0.00000000000E+00 -0.35139830374E+03  0.35139830374E+03  0.00000000000E+00 0.  1.
        -24    2    1    2    0    0  0.64286642231E+02  0.11458389162E+03 -0.14126099081E+03  0.20811423049E+03  0.78068078111E+02 0.  0.
        254    2    1    2    0    0 -0.64286642231E+02 -0.11458389162E+03  0.10271976945E+04  0.13806190807E+04  0.91307814658E+03 0.  0.
         23    2    4    4    0    0  0.21246248696E+03  0.30101201553E+03  0.63389889449E+03  0.73854702184E+03  0.88743186664E+02 0.  0.
         23    2    4    4    0    0 -0.27674912919E+03 -0.41559590715E+03  0.39329880000E+03  0.64207205882E+03  0.90898537361E+02 0.  0.
          1    1    3    3  502    0  0.54813425753E+02  0.29172508105E+02 -0.34397062165E+02  0.70983834480E+02  0.00000000000E+00 0. -1.
         -2    1    3    3    0  502  0.94732164784E+01  0.85411383515E+02 -0.10686392865E+03  0.13713039601E+03  0.00000000000E+00 0.  1.
         13    1    5    5    0    0  0.73404660799E+02  0.17269083339E+03  0.27667960003E+03  0.33430819499E+03  0.00000000000E+00 0. -1.
        -13    1    5    5    0    0  0.13905782616E+03  0.12832118214E+03  0.35721929446E+03  0.40423882685E+03  0.00000000000E+00 0.  1.
          3    1    6    6  503    0 -0.16949105512E+03 -0.27897092677E+03  0.30704077082E+03  0.44813617428E+03  0.00000000000E+00 0. -1.
         -3    1    6    6    0  503 -0.10725807408E+03 -0.13662498038E+03  0.86258029175E+02  0.19393588455E+03  0.00000000000E+00 0.  1.
<mgrwt>
<rscale>  0 0.13187834E+04</rscale>
<asrwt>0</asrwt>
<pdfrwt beam="1">  1        1 0.19035923E+00 0.13187834E+04</pdfrwt>
<pdfrwt beam="2">  1       -2 0.54061278E-01 0.13187834E+04</pdfrwt>
<totfact> 0.27828967E+01</totfact>
</mgrwt>
</event>
<event>
12    5  0.5297412E-008  0.1895339E+04  0.7818608E-02  0.8657180E-01
         -2   -1    0    0    0  501 -0.00000000000E+00  0.00000000000E+00  0.46981897691E+03  0.46981897691E+03  0.00000000000E+00 0.  1.
          1   -1    0    0  501    0  0.00000000000E+00 -0.00000000000E+00 -0.19115392291E+04  0.19115392291E+04  0.00000000000E+00 0. -1.
        -24    2    1    2    0    0  0.62766737140E+03  0.29200718603E+03 -0.84102174249E+03  0.10925209399E+04  0.83963724788E+02 0.  0.
        254    2    1    2    0    0 -0.62766737140E+03 -0.29200718603E+03 -0.60069850968E+03  0.12888372660E+04  0.90610610470E+03 0.  0.
         23    2    4    4    0    0 -0.53340231284E+02  0.22383109430E+03 -0.42318062084E+03  0.49043739630E+03  0.92203377299E+02 0.  0.
         23    2    4    4    0    0 -0.57432714011E+03 -0.51583828033E+03 -0.17751788884E+03  0.79839986974E+03  0.99944763831E+02 0.  0.
          3    1    3    3  502    0  0.58407589636E+03  0.28548737680E+03 -0.80997264434E+03  0.10386064604E+04  0.00000000000E+00 0. -1.
         -4    1    3    3    0  502  0.43591475039E+02  0.65198092251E+01 -0.31049098147E+02  0.53914479541E+02  0.00000000000E+00 0.  1.
         13    1    5    5    0    0 -0.31877603604E+02  0.13022485373E+02 -0.80185936293E+02  0.87267125058E+02  0.00000000000E+00 0.  1.
        -13    1    5    5    0    0 -0.21462627680E+02  0.21080860893E+03 -0.34299468455E+03  0.40317027124E+03  0.00000000000E+00 0. -1.
          1    1    6    6  503    0 -0.43043232682E+03 -0.39742731077E+03 -0.17715058563E+03  0.61204802532E+03  0.00000000000E+00 0. -1.
         -1    1    6    6    0  503 -0.14389481330E+03 -0.11841096956E+03 -0.36730321668E+00  0.18635184442E+03  0.00000000000E+00 0.  1.
<mgrwt>
<rscale>  0 0.18953389E+04</rscale>
<asrwt>0</asrwt>
<pdfrwt beam="1">  1        1 0.29408296E+00 0.18953389E+04</pdfrwt>
<pdfrwt beam="2">  1       -2 0.72279843E-01 0.18953389E+04</pdfrwt>
<totfact> 0.48727420E+00</totfact>
</mgrwt>
</event>
<event>
12    5  0.5297412E-008  0.1842520E+04  0.7818608E-02  0.8684009E-01
         -2   -1    0    0    0  501 -0.00000000000E+00  0.00000000000E+00  0.55412755126E+03  0.55412755126E+03  0.00000000000E+00 0.  1.
          1   -1    0    0  501    0  0.00000000000E+00 -0.00000000000E+00 -0.15316325680E+04  0.15316325680E+04  0.00000000000E+00 0. -1.
        -24    2    1    2    0    0  0.48005402669E+03 -0.30373671977E+03 -0.82390824928E+03  0.10038234415E+04  0.78286876462E+02 0.  0.
        254    2    1    2    0    0 -0.48005402669E+03  0.30373671977E+03 -0.15359676746E+03  0.10819366777E+04  0.90790260722E+03 0.  0.
         23    2    4    4    0    0 -0.38299239113E+03  0.10121134637E+03 -0.50912922576E+03  0.65179132434E+03  0.93233329195E+02 0.  0.
         23    2    4    4    0    0 -0.97061635564E+02  0.20252537340E+03  0.35553245830E+03  0.43014535341E+03  0.90466613642E+02 0.  0.
          3    1    3    3  502    0  0.17418588826E+03 -0.11522931499E+03 -0.23917575564E+03  0.31752725991E+03  0.00000000000E+00 0. -1.
         -4    1    3    3    0  502  0.30586813843E+03 -0.18850740478E+03 -0.58473249364E+03  0.68629618161E+03  0.00000000000E+00 0.  1.
         13    1    5    5    0    0 -0.36476726204E+03  0.71178506969E+02 -0.47051297552E+03  0.59958652040E+03  0.00000000000E+00 0. -1.
        -13    1    5    5    0    0 -0.18225129091E+02  0.30032839398E+02 -0.38616250236E+02  0.52204803945E+02  0.00000000000E+00 0.  1.
          4    1    6    6  503    0 -0.72873636940E+02  0.12841286865E+03  0.15068865369E+03  0.21096801214E+03  0.00000000000E+00 0.  1.
         -4    1    6    6    0  503 -0.24187998624E+02  0.74112504756E+02  0.20484380461E+03  0.21917734127E+03  0.00000000000E+00 0. -1.
<mgrwt>
<rscale>  0 0.18425198E+04</rscale>
<asrwt>0</asrwt>
<pdfrwt beam="1">  1        1 0.23563577E+00 0.18425198E+04</pdfrwt>
<pdfrwt beam="2">  1       -2 0.85250395E-01 0.18425198E+04</pdfrwt>
<totfact> 0.61425015E+00</totfact>
</mgrwt>
</event>
<event>
12    5  0.5297412E-008  0.1182345E+04  0.7818608E-02  0.9128451E-01
         -2   -1    0    0    0  501 -0.00000000000E+00  0.00000000000E+00  0.17554056970E+04  0.17554056970E+04  0.00000000000E+00 0.  1.
          1   -1    0    0  501    0  0.00000000000E+00 -0.00000000000E+00 -0.19909084901E+03  0.19909084901E+03  0.00000000000E+00 0. -1.
        -24    2    1    2    0    0  0.21403900207E+03  0.83035946601E+01  0.20139899216E+03  0.30431674301E+03  0.78520582906E+02 0.  0.
        254    2    1    2    0    0 -0.21403900207E+03 -0.83035946601E+01  0.13549158558E+04  0.16501798030E+04  0.91728663009E+03 0.  0.
         23    2    4    4    0    0  0.10650783285E+03 -0.24714083354E+03  0.57200080138E+02  0.28916901491E+03  0.89018874152E+02 0.  0.
         23    2    4    4    0    0 -0.32054683491E+03  0.23883723888E+03  0.12977157757E+04  0.13610107881E+04  0.92144618676E+02 0.  0.
          1    1    3    3  502    0  0.12611409060E+03 -0.30906351956E+02  0.95399937531E+02  0.16112453109E+03  0.00000000000E+00 0. -1.
         -2    1    3    3    0  502  0.87924911471E+02  0.39209946616E+02  0.10599905463E+03  0.14319221191E+03  0.00000000000E+00 0.  1.
         13    1    5    5    0    0  0.52243311219E+02 -0.87779020874E+02 -0.19795238621E+02  0.10404985125E+03  0.00000000000E+00 0.  1.
        -13    1    5    5    0    0  0.54264521626E+02 -0.15936181267E+03  0.76995318759E+02  0.18511916366E+03  0.00000000000E+00 0. -1.
          1    1    6    6  503    0 -0.20555460926E+03  0.16777470933E+03  0.71023769604E+03  0.75818113625E+03  0.00000000000E+00 0. -1.
         -1    1    6    6    0  503 -0.11499222565E+03  0.71062529554E+02  0.58747807963E+03  0.60282965182E+03  0.00000000000E+00 0.  1.
<mgrwt>
<rscale>  0 0.11823455E+04</rscale>
<asrwt>0</asrwt>
<pdfrwt beam="1">  1        1 0.30629363E-01 0.11823455E+04</pdfrwt>
<pdfrwt beam="2">  1       -2 0.27006240E+00 0.11823455E+04</pdfrwt>
<totfact> 0.62916170E+00</totfact>
</mgrwt>
</event>
<event>
12    5  0.5297412E-008  0.1849649E+04  0.7818608E-02  0.8680333E-01
          1   -1    0    0  501    0  0.00000000000E+00  0.00000000000E+00  0.24343945787E+04  0.24343945787E+04  0.00000000000E+00 0. -1.
         -2   -1    0    0    0  501 -0.00000000000E+00 -0.00000000000E+00 -0.35134014848E+03  0.35134014848E+03  0.00000000000E+00 0.  1.
        -24    2    1    2    0    0  0.31415275466E+03  0.26476262542E+03  0.16550961603E+04  0.17072352884E+04  0.80733071571E+02 0.  0.
        254    2    1    2    0    0 -0.31415275466E+03 -0.26476262542E+03  0.42795826988E+03  0.10784994388E+04  0.90067838745E+03 0.  0.
         23    2    4    4    0    0 -0.28791610719E+03  0.22944861437E+03  0.43191093657E+03  0.57505712763E+03  0.92743148009E+02 0.  0.
         23    2    4    4    0    0 -0.26236647472E+02 -0.49421123979E+03 -0.39526666863E+01  0.50344231115E+03  0.92224865857E+02 0.  0.
          1    1    3    3  502    0  0.26831817645E+03  0.25795299807E+03  0.14861567824E+04  0.15320562571E+04  0.00000000000E+00 0. -1.
         -2    1    3    3    0  502  0.45834578206E+02  0.68096273499E+01  0.16893937788E+03  0.17517903122E+03  0.00000000000E+00 0.  1.
         13    1    5    5    0    0 -0.87832940549E+02  0.60892948899E+02  0.19373920187E+03  0.22126331601E+03  0.00000000000E+00 0.  1.
        -13    1    5    5    0    0 -0.20008316664E+03  0.16855566547E+03  0.23817173470E+03  0.35379381162E+03  0.00000000000E+00 0. -1.
          3    1    6    6  503    0 -0.34563013565E+02 -0.48772099443E+03 -0.13611277884E+02  0.48913355763E+03  0.00000000000E+00 0. -1.
         -3    1    6    6    0  503  0.83263660935E+01 -0.64902453589E+01  0.96586111979E+01  0.14308753524E+02  0.00000000000E+00 0.  1.
<mgrwt>
<rscale>  0 0.18496492E+04</rscale>
<asrwt>0</asrwt>
<pdfrwt beam="1">  1        1 0.37452223E+00 0.18496492E+04</pdfrwt>
<pdfrwt beam="2">  1       -2 0.54052332E-01 0.18496492E+04</pdfrwt>
<totfact> 0.40042522E+00</totfact>
</mgrwt>
</event>
<event>
12    5  0.5297412E-008  0.1876933E+04  0.7818608E-02  0.8666424E-01
         -2   -1    0    0    0  501 -0.00000000000E+00  0.00000000000E+00  0.19278877668E+03  0.19278877668E+03  0.00000000000E+00 0.  1.
          1   -1    0    0  501    0  0.00000000000E+00 -0.00000000000E+00 -0.45683107194E+04  0.45683107194E+04  0.00000000000E+00 0. -1.
        -24    2    1    2    0    0  0.22030561511E+01 -0.27803313095E+03 -0.34016138718E+04  0.34138936512E+04  0.79910284104E+02 0.  0.
        254    2    1    2    0    0 -0.22030561511E+01  0.27803313095E+03 -0.97390807100E+03  0.13472058450E+04  0.88834643163E+03 0.  0.
         23    2    4    4    0    0  0.33841938203E+03  0.41506005618E+03 -0.66693598111E+03  0.86033892141E+03  0.92611707749E+02 0.  0.
         23    2    4    4    0    0 -0.34062243819E+03 -0.13702692523E+03 -0.30697208989E+03  0.48686692356E+03  0.89484711864E+02 0.  0.
          3    1    3    3  502    0 -0.21470077812E+02 -0.25388164686E+03 -0.29207221058E+04  0.29318141950E+04  0.00000000000E+00 0. -1.
         -4    1    3    3    0  502  0.23673133964E+02 -0.24151484089E+02 -0.48089176598E+03  0.48207945615E+03  0.00000000000E+00 0.  1.
         13    1    5    5    0    0  0.21198445151E+03  0.22189783326E+03 -0.31785155394E+03  0.44182085331E+03  0.00000000000E+00 0. -1.
        -13    1    5    5    0    0  0.12643493053E+03  0.19316222292E+03 -0.34908442718E+03  0.41851806809E+03  0.00000000000E+00 0.  1.
          3    1    6    6  503    0 -0.23733581030E+03 -0.13593155455E+03 -0.23899037206E+03  0.36321078220E+03  0.00000000000E+00 0. -1.
         -3    1    6    6    0  503 -0.10328662789E+03 -0.10953706815E+01 -0.67981717829E+02  0.12365614136E+03  0.00000000000E+00 0.  1.
<mgrwt>
<rscale>  0 0.18769326E+04</rscale>
<asrwt>0</asrwt>
<pdfrwt beam="1">  1        1 0.70281704E+00 0.18769326E+04</pdfrwt>
<pdfrwt beam="2">  1       -2 0.29659812E-01 0.18769326E+04</pdfrwt>
<totfact> 0.24013315E-01</totfact>
</mgrwt>
</event>
<event>
12    5  0.5297412E-008  0.2353982E+04  0.7818608E-02  0.8456936E-01
         -2   -1    0    0    0  501 -0.00000000000E+00  0.00000000000E+00  0.11139316057E+04  0.11139316057E+04  0.00000000000E+00 0.  1.
          1   -1    0    0  501    0  0.00000000000E+00 -0.00000000000E+00 -0.12436196496E+04  0.12436196496E+04  0.00000000000E+00 0. -1.
        -24    2    1    2    0    0 -0.97744312801E+02  0.92186661125E+03  0.32494843563E+03  0.98568322042E+03  0.81166037070E+02 0.  0.
        254    2    1    2    0    0  0.97744312801E+02 -0.92186661125E+03 -0.45463647957E+03  0.13718680349E+04  0.90329152382E+03 0.  0.
         23    2    4    4    0    0  0.28090085266E+03 -0.82909083825E+03 -0.63320490563E+03  0.10843012364E+04  0.91998976867E+02 0.  0.
         23    2    4    4    0    0 -0.18315653986E+03 -0.92775773006E+02  0.17856842607E+03  0.28756679846E+03  0.93028590433E+02 0.  0.
          3    1    3    3  502    0 -0.59310524716E+02  0.47536960512E+03  0.20977616650E+03  0.52297231270E+03  0.00000000000E+00 0. -1.
         -4    1    3    3    0  502 -0.38433788085E+02  0.44649700613E+03  0.11517226913E+03  0.46271090772E+03  0.00000000000E+00 0.  1.
         13    1    5    5    0    0  0.27913625067E+03 -0.73722089910E+03 -0.56478061998E+03  0.96973648442E+03  0.00000000000E+00 0.  1.
        -13    1    5    5    0    0  0.17646019851E+01 -0.91869939143E+02 -0.68424285655E+02  0.11456475202E+03  0.00000000000E+00 0. -1.
          3    1    6    6  503    0 -0.48223263848E+02 -0.41735712510E+02  0.11155387192E+03  0.12849754556E+03  0.00000000000E+00 0. -1.
         -3    1    6    6    0  503 -0.13493327601E+03 -0.51040060495E+02  0.67014554149E+02  0.15906925290E+03  0.00000000000E+00 0.  1.
<mgrwt>
<rscale>  0 0.23539815E+04</rscale>
<asrwt>0</asrwt>
<pdfrwt beam="1">  1        1 0.19132610E+00 0.23539815E+04</pdfrwt>
<pdfrwt beam="2">  1       -2 0.17137409E+00 0.23539815E+04</pdfrwt>
<totfact> 0.16339703E+00</totfact>
</mgrwt>
</event>
<event>
12    5  0.5297412E-008  0.1631842E+04  0.7818608E-02  0.8801222E-01
         -2   -1    0    0    0  501 -0.00000000000E+00  0.00000000000E+00  0.18186070948E+03  0.18186070948E+03  0.00000000000E+00 0.  1.
          1   -1    0    0  501    0  0.00000000000E+00 -0.00000000000E+00 -0.36606408839E+04  0.36606408839E+04  0.00000000000E+00 0. -1.
        -24    2    1    2    0    0 -0.51139766985E+02 -0.91902246770E+02 -0.25158260993E+04  0.25192946286E+04  0.80019776886E+02 0.  0.
        254    2    1    2    0    0  0.51139766985E+02  0.91902246770E+02 -0.96295407507E+03  0.13232069648E+04  0.90140713457E+03 0.  0.
         23    2    4    4    0    0 -0.24475969621E+03 -0.23141160695E+03 -0.12017369921E+03  0.36878250693E+03  0.90000992865E+02 0.  0.
         23    2    4    4    0    0  0.29589946319E+03  0.32331385372E+03 -0.84278037586E+03  0.95442445787E+03  0.92514558425E+02 0.  0.
          3    1    3    3  502    0 -0.43340804680E+02 -0.10668610158E+03 -0.21377527669E+04  0.21408519897E+04  0.00000000000E+00 0. -1.
         -4    1    3    3    0  502 -0.77989623054E+01  0.14783854810E+02 -0.37807333247E+03  0.37844263885E+03  0.00000000000E+00 0.  1.
         13    1    5    5    0    0 -0.24138005804E+03 -0.19674906634E+03 -0.94221265992E+02  0.32534931150E+03  0.00000000000E+00 0.  1.
        -13    1    5    5    0    0 -0.33796381667E+01 -0.34662540604E+02 -0.25952433222E+02  0.43433195432E+02  0.00000000000E+00 0. -1.
          3    1    6    6  503    0  0.12037022095E+02 -0.34311042610E+01 -0.10551530178E+02  0.16370619001E+02  0.00000000000E+00 0. -1.
         -3    1    6    6    0  503  0.28386244110E+03  0.32674495798E+03 -0.83222884568E+03  0.93805383887E+03  0.00000000000E+00 0.  1.
<mgrwt>
<rscale>  0 0.16318416E+04</rscale>
<asrwt>0</asrwt>
<pdfrwt beam="1">  1        1 0.56317557E+00 0.16318416E+04</pdfrwt>
<pdfrwt beam="2">  1       -2 0.27978568E-01 0.16318416E+04</pdfrwt>
<totfact> 0.18430897E+00</totfact>
</mgrwt>
</event>
<event>
12    5  0.5297412E-008  0.1251569E+04  0.7818608E-02  0.9068879E-01
          1   -1    0    0  501    0  0.00000000000E+00  0.00000000000E+00  0.31402083455E+03  0.31402083455E+03  0.00000000000E+00 0. -1.
         -2   -1    0    0    0  501 -0.00000000000E+00 -0.00000000000E+00 -0.12470705355E+04  0.12470705355E+04  0.00000000000E+00 0.  1.
        -24    2    1    2    0    0 -0.11158256020E+03 -0.31035569659E+02  0.11154449019E+03  0.17916545976E+03  0.79020341399E+02 0.  0.
        254    2    1    2    0    0  0.11158256020E+03  0.31035569659E+02 -0.10445941911E+04  0.13819259102E+04  0.89728943102E+03 0.  0.
         23    2    4    4    0    0 -0.28848579862E+03  0.27235686744E+02 -0.52927223218E+02  0.30876375480E+03  0.92563095658E+02 0.  0.
         23    2    4    4    0    0  0.40006835882E+03  0.37998829152E+01 -0.99166696787E+03  0.10731621554E+04  0.90578727478E+02 0.  0.
          3    1    3    3  502    0 -0.59045672724E+02  0.18521322536E+02  0.77909615086E+02  0.99495421899E+02  0.00000000000E+00 0. -1.
         -4    1    3    3    0  502 -0.52536887475E+02 -0.49556892195E+02  0.33634875101E+02  0.79670037860E+02  0.00000000000E+00 0.  1.
         13    1    5    5    0    0 -0.24822795395E+03 -0.10281549632E+02 -0.51462568837E+02  0.25371484658E+03  0.00000000000E+00 0.  1.
        -13    1    5    5    0    0 -0.40257844677E+02  0.37517236376E+02 -0.14646543808E+01  0.55048908216E+02  0.00000000000E+00 0. -1.
          2    1    6    6  503    0  0.40049319066E+03 -0.19813571647E+01 -0.94821496562E+03  0.10293251880E+04  0.00000000000E+00 0.  1.
         -2    1    6    6    0  503 -0.42483183150E+00  0.57812400799E+01 -0.43452002248E+02  0.43836967486E+02  0.00000000000E+00 0. -1.
<mgrwt>
<rscale>  0 0.12515688E+04</rscale>
<asrwt>0</asrwt>
<pdfrwt beam="1">  1        1 0.48310897E-01 0.12515688E+04</pdfrwt>
<pdfrwt beam="2">  1       -2 0.19185701E+00 0.12515688E+04</pdfrwt>
<totfact> 0.10697927E+01</totfact>
</mgrwt>
</event>
<event>
12    5  0.5297412E-008  0.3463199E+04  0.7818608E-02  0.8122567E-01
          1   -1    0    0  501    0  0.00000000000E+00  0.00000000000E+00  0.30448994070E+04  0.30448994070E+04  0.00000000000E+00 0. -1.
         -2   -1    0    0    0  501 -0.00000000000E+00 -0.00000000000E+00 -0.98474058059E+03  0.98474058059E+03  0.00000000000E+00 0.  1.
        -24    2    1    2    0    0 -0.13488917375E+04  0.85150001064E+03  0.65599163487E+03  0.17266440594E+04  0.80084300523E+02 0.  0.
        254    2    1    2    0    0  0.13488917375E+04 -0.85150001064E+03  0.14041671915E+04  0.23029959282E+04  0.88743650821E+03 0.  0.
         23    2    4    4    0    0 -0.77455190847E+01 -0.36558444610E+03  0.22359279511E+03  0.43780510721E+03  0.89261377870E+02 0.  0.
         23    2    4    4    0    0  0.13566372566E+04 -0.48591556454E+03  0.11805743964E+04  0.18651908210E+04  0.92748647235E+02 0.  0.
          3    1    3    3  502    0 -0.21287130955E+03  0.10121787649E+03  0.10150156347E+03  0.25663557886E+03  0.00000000000E+00 0. -1.
         -4    1    3    3    0  502 -0.11360204279E+04  0.75028213415E+03  0.55449007140E+03  0.14700084805E+04  0.00000000000E+00 0.  1.
         13    1    5    5    0    0  0.12468325338E+02 -0.32112986598E+03  0.16412546684E+03  0.36085595302E+03  0.00000000000E+00 0.  1.
        -13    1    5    5    0    0 -0.20213844422E+02 -0.44454580117E+02  0.59467328267E+02  0.76949154192E+02  0.00000000000E+00 0. -1.
          1    1    6    6  503    0  0.36006631835E+03 -0.16010875551E+03  0.36067100849E+03  0.53419672740E+03  0.00000000000E+00 0. -1.
         -1    1    6    6    0  503  0.99657093821E+03 -0.32580680904E+03  0.81990338794E+03  0.13309940936E+04  0.00000000000E+00 0.  1.
<mgrwt>
<rscale>  0 0.34631985E+04</rscale>
<asrwt>0</asrwt>
<pdfrwt beam="1">  1        1 0.46844606E+00 0.34631985E+04</pdfrwt>
<pdfrwt beam="2">  1       -2 0.15149855E+00 0.34631985E+04</pdfrwt>
<totfact> 0.11643285E-01</totfact>
</mgrwt>
</event>
<event>
12    5  0.5297412E-008  0.1520355E+04  0.7818608E-02  0.8871029E-01
          1   -1    0    0  501    0  0.00000000000E+00  0.00000000000E+00  0.41283857574E+03  0.41283857574E+03  0.00000000000E+00 0. -1.
         -2   -1    0    0    0  501 -0.00000000000E+00 -0.00000000000E+00 -0.13997473090E+04  0.13997473090E+04  0.00000000000E+00 0.  1.
        -24    2    1    2    0    0  0.39561682564E+03  0.27233090864E+03 -0.20327546593E+03  0.52762430530E+03  0.79935573884E+02 0.  0.
        254    2    1    2    0    0 -0.39561682564E+03 -0.27233090864E+03 -0.78363326730E+03  0.12849615794E+04  0.89798015925E+03 0.  0.
         23    2    4    4    0    0 -0.54307376618E+03  0.10714276308E+03 -0.61960236216E+03  0.83675333961E+03  0.99198674150E+02 0.  0.
         23    2    4    4    0    0  0.14745694054E+03 -0.37947367172E+03 -0.16403090514E+03  0.44820823980E+03  0.90778144647E+02 0.  0.
          3    1    3    3  502    0  0.22455807839E+03  0.11446565662E+03 -0.12995127957E+03  0.28357724200E+03  0.00000000000E+00 0. -1.
         -4    1    3    3    0  502  0.17105874725E+03  0.15786525202E+03 -0.73324186356E+02  0.24404706331E+03  0.00000000000E+00 0.  1.
         13    1    5    5    0    0 -0.38094989907E+03  0.10130464478E+03 -0.38098042787E+03  0.54820757298E+03  0.00000000000E+00 0. -1.
        -13    1    5    5    0    0 -0.16212386711E+03  0.58381183077E+01 -0.23862193429E+03  0.28854576663E+03  0.00000000000E+00 0.  1.
          2    1    6    6  503    0  0.93976185982E+02 -0.31306288220E+03 -0.15710573212E+03  0.36265976177E+03  0.00000000000E+00 0. -1.
         -2    1    6    6    0  503  0.53480754558E+02 -0.66410789524E+02 -0.69251730244E+01  0.85548478038E+02  0.00000000000E+00 0.  1.
<mgrwt>
<rscale>  0 0.15203548E+04</rscale>
<asrwt>0</asrwt>
<pdfrwt beam="1">  1        1 0.63513627E-01 0.15203548E+04</pdfrwt>
<pdfrwt beam="2">  1       -2 0.21534574E+00 0.15203548E+04</pdfrwt>
<totfact> 0.51341305E+00</totfact>
</mgrwt>
</event>
<event>
12    5  0.5297412E-008  0.1509868E+04  0.7818608E-02  0.8877917E-01
          1   -1    0    0  501    0  0.00000000000E+00  0.00000000000E+00  0.58497585037E+03  0.58497585037E+03  0.00000000000E+00 0. -1.
         -4   -1    0    0    0  501 -0.00000000000E+00 -0.00000000000E+00 -0.97427204348E+03  0.97427204348E+03  0.00000000000E+00 0.  1.
        -24    2    1    2    0    0 -0.39328260779E+03  0.12083099107E+02 -0.40622929325E+03  0.57221320074E+03  0.87111982677E+02 0.  0.
        254    2    1    2    0    0  0.39328260779E+03 -0.12083099107E+02  0.16933100151E+02  0.98703469311E+03  0.90505996743E+03 0.  0.
         23    2    4    4    0    0  0.65174900994E+03  0.14070832664E+03  0.36267546695E+01  0.67285195232E+03  0.90227441768E+02 0.  0.
         23    2    4    4    0    0 -0.25846640215E+03 -0.15279142575E+03  0.13306345482E+02  0.31418274080E+03  0.91562191785E+02 0.  0.
          3    1    3    3  502    0 -0.25089458347E+03  0.39324942358E+02 -0.21845465552E+03  0.33498802908E+03  0.00000000000E+00 0. -1.
         -4    1    3    3    0  502 -0.14238802432E+03 -0.27241843251E+02 -0.18777463773E+03  0.23722517166E+03  0.00000000000E+00 0.  1.
         13    1    5    5    0    0  0.32755869847E+03  0.47936784912E+02 -0.37436505989E+02  0.33315781287E+03  0.00000000000E+00 0. -1.
        -13    1    5    5    0    0  0.32419031146E+03  0.92771541726E+02  0.41063260658E+02  0.33969413945E+03  0.00000000000E+00 0.  1.
          2    1    6    6  503    0 -0.14261942723E+03 -0.64151170616E+02  0.49242701439E+02  0.16395279003E+03  0.00000000000E+00 0. -1.
         -2    1    6    6    0  503 -0.11584697492E+03 -0.88640255130E+02 -0.35936355957E+02  0.15022995076E+03  0.00000000000E+00 0.  1.
<mgrwt>
<rscale>  0 0.15098684E+04</rscale>
<asrwt>0</asrwt>
<pdfrwt beam="1">  1        1 0.89996285E-01 0.15098684E+04</pdfrwt>
<pdfrwt beam="2">  1       -4 0.14988801E+00 0.15098684E+04</pdfrwt>
<totfact> 0.49231572E+00</totfact>
</mgrwt>
</event>
<event>
12    5  0.5297412E-008  0.1424343E+04  0.7818608E-02  0.8936384E-01
          1   -1    0    0  501    0  0.00000000000E+00  0.00000000000E+00  0.45313124881E+03  0.45313124881E+03  0.00000000000E+00 0. -1.
         -2   -1    0    0    0  501 -0.00000000000E+00 -0.00000000000E+00 -0.11192958342E+04  0.11192958342E+04  0.00000000000E+00 0.  1.
        -24    2    1    2    0    0  0.24101106641E+03  0.19082392316E+03 -0.48004306382E+03  0.57562649134E+03  0.80027561637E+02 0.  0.
        254    2    1    2    0    0 -0.24101106641E+03 -0.19082392316E+03 -0.18612152153E+03  0.99680059165E+03  0.92976883952E+03 0.  0.
         23    2    4    4    0    0  0.30930851243E+03 -0.83335707541E+02  0.11697302383E+03  0.35321666226E+03  0.91993076812E+02 0.  0.
         23    2    4    4    0    0 -0.55031957884E+03 -0.10748821562E+03 -0.30309454537E+03  0.64358392938E+03  0.89042772761E+02 0.  0.
          3    1    3    3  502    0  0.50327828382E+02  0.40877394058E+01 -0.85347239545E+02  0.99165272253E+02  0.00000000000E+00 0. -1.
         -4    1    3    3    0  502  0.19068323803E+03  0.18673618375E+03 -0.39469582428E+03  0.47646121908E+03  0.00000000000E+00 0.  1.
         13    1    5    5    0    0  0.14549616010E+03 -0.83362101447E+02  0.40894830459E+02  0.17259999919E+03  0.00000000000E+00 0.  1.
        -13    1    5    5    0    0  0.16381235233E+03  0.26393906571E-01  0.76078193375E+02  0.18061666307E+03  0.00000000000E+00 0. -1.
          4    1    6    6  503    0 -0.20663901985E+03 -0.75843137033E+02 -0.14770342119E+03  0.26508143388E+03  0.00000000000E+00 0. -1.
         -4    1    6    6    0  503 -0.34368055899E+03 -0.31645078584E+02 -0.15539112417E+03  0.37850249550E+03  0.00000000000E+00 0.  1.
<mgrwt>
<rscale>  0 0.14243425E+04</rscale>
<asrwt>0</asrwt>
<pdfrwt beam="1">  1        1 0.69712500E-01 0.14243425E+04</pdfrwt>
<pdfrwt beam="2">  1       -2 0.17219936E+00 0.14243425E+04</pdfrwt>
<totfact> 0.88641951E+00</totfact>
</mgrwt>
</event>
<event>
12    5  0.5297412E-008  0.1320766E+04  0.7818608E-02  0.9013257E-01
          1   -1    0    0  501    0  0.00000000000E+00  0.00000000000E+00  0.24841787511E+03  0.24841787511E+03  0.00000000000E+00 0. -1.
         -2   -1    0    0    0  501 -0.00000000000E+00 -0.00000000000E+00 -0.17555339202E+04  0.17555339202E+04  0.00000000000E+00 0.  1.
        -24    2    1    2    0    0 -0.17296329669E+03  0.18145960496E+03 -0.45443694660E+02  0.26920231748E+03  0.86953252497E+02 0.  0.
        254    2    1    2    0    0  0.17296329669E+03 -0.18145960496E+03 -0.14616723505E+04  0.17347494778E+04  0.90001433354E+03 0.  0.
         23    2    4    4    0    0  0.15507708043E+03  0.33509337298E+03 -0.83385883047E+03  0.91650157661E+03  0.91203735021E+02 0.  0.
         23    2    4    4    0    0  0.17886216254E+02 -0.51655297794E+03 -0.62781351999E+03  0.81824790124E+03  0.90735418981E+02 0.  0.
          3    1    3    3  502    0 -0.66019601052E+02  0.72085491227E+02  0.24844636909E+02  0.10085713535E+03  0.00000000000E+00 0. -1.
         -4    1    3    3    0  502 -0.10694369563E+03  0.10937411373E+03 -0.70288331569E+02  0.16834518213E+03  0.00000000000E+00 0.  1.
         13    1    5    5    0    0  0.64727509392E+02  0.56549720699E+02 -0.15634814688E+03  0.17841598700E+03  0.00000000000E+00 0. -1.
        -13    1    5    5    0    0  0.90349571040E+02  0.27854365228E+03 -0.67751068359E+03  0.73808558961E+03  0.00000000000E+00 0.  1.
          4    1    6    6  503    0 -0.36716355304E+02 -0.18465720572E+03 -0.21637819924E+03  0.28682032613E+03  0.00000000000E+00 0. -1.
         -4    1    6    6    0  503  0.54602571558E+02 -0.33189577222E+03 -0.41143532074E+03  0.53142757511E+03  0.00000000000E+00 0.  1.
<mgrwt>
<rscale>  0 0.13207665E+04</rscale>
<asrwt>0</asrwt>
<pdfrwt beam="1">  1        1 0.38218137E-01 0.13207665E+04</pdfrwt>
<pdfrwt beam="2">  1       -2 0.27008213E+00 0.13207665E+04</pdfrwt>
<totfact> 0.46609644E+00</totfact>
</mgrwt>
</event>
<event>
12    5  0.5297412E-008  0.2207650E+04  0.7818608E-02  0.8515251E-01
          1   -1    0    0  501    0  0.00000000000E+00  0.00000000000E+00  0.83619108088E+03  0.83619108088E+03  0.00000000000E+00 0. -1.
         -2   -1    0    0    0  501 -0.00000000000E+00 -0.00000000000E+00 -0.14571188346E+04  0.14571188346E+04  0.00000000000E+00 0.  1.
        -24    2    1    2    0    0 -0.64827871227E+03 -0.51377868821E+03 -0.67045934414E+03  0.10676407168E+04  0.78148184456E+02 0.  0.
        254    2    1    2    0    0  0.64827871227E+03  0.51377868821E+03  0.49531590425E+02  0.12256691987E+04  0.90309344860E+03 0.  0.
         23    2    4    4    0    0  0.21286178985E+03  0.40083685102E+03  0.42809943573E+03  0.63076782048E+03  0.92836381673E+02 0.  0.
         23    2    4    4    0    0  0.43541692242E+03  0.11294183719E+03 -0.37856784531E+03  0.59490137821E+03  0.90831059509E+02 0.  0.
          3    1    3    3  502    0 -0.36325436019E+03 -0.24605108427E+03 -0.32729373836E+03  0.54737195529E+03  0.00000000000E+00 0. -1.
         -4    1    3    3    0  502 -0.28502435209E+03 -0.26772760394E+03 -0.34316560578E+03  0.52026876150E+03  0.00000000000E+00 0.  1.
         13    1    5    5    0    0  0.58634083657E+02  0.83944638098E+02  0.50217566476E+02  0.11404587680E+03  0.00000000000E+00 0.  1.
        -13    1    5    5    0    0  0.15422770620E+03  0.31689221292E+03  0.37788186926E+03  0.51672194368E+03  0.00000000000E+00 0. -1.
          2    1    6    6  503    0  0.27589779920E+03  0.33629719732E+02 -0.26231368826E+03  0.38217669304E+03  0.00000000000E+00 0.  1.
         -2    1    6    6    0  503  0.15951912322E+03  0.79312117460E+02 -0.11625415705E+03  0.21272468517E+03  0.00000000000E+00 0. -1.
<mgrwt>
<rscale>  0 0.22076501E+04</rscale>
<asrwt>0</asrwt>
<pdfrwt beam="1">  1        1 0.12864478E+00 0.22076501E+04</pdfrwt>
<pdfrwt beam="2">  1       -2 0.22417213E+00 0.22076501E+04</pdfrwt>
<totfact> 0.15278794E+00</totfact>
</mgrwt>
</event>
<event>
12    5  0.5297412E-008  0.1891768E+04  0.7818608E-02  0.8658965E-01
          1   -1    0    0  501    0  0.00000000000E+00  0.00000000000E+00  0.64033605529E+03  0.64033605529E+03  0.00000000000E+00 0. -1.
         -2   -1    0    0    0  501 -0.00000000000E+00 -0.00000000000E+00 -0.13972295683E+04  0.13972295683E+04  0.00000000000E+00 0.  1.
        -24    2    1    2    0    0 -0.26622269802E+03 -0.66827957911E+03 -0.14685577382E+03  0.73849737898E+03  0.79621854152E+02 0.  0.
        254    2    1    2    0    0  0.26622269802E+03  0.66827957911E+03 -0.61003773919E+03  0.12990682446E+04  0.89328614683E+03 0.  0.
         23    2    4    4    0    0 -0.13121908765E+03  0.71830897979E+03 -0.40497107716E+03  0.84008758591E+03  0.92516697201E+02 0.  0.
         23    2    4    4    0    0  0.39744178567E+03 -0.50029400676E+02 -0.20506666203E+03  0.45898065869E+03  0.90266246479E+02 0.  0.
          1    1    3    3  502    0 -0.21652859371E+03 -0.49654760151E+03 -0.79766450104E+02  0.54754619807E+03  0.00000000000E+00 0. -1.
         -2    1    3    3    0  502 -0.49694104307E+02 -0.17173197760E+03 -0.67089323718E+02  0.19095118091E+03  0.00000000000E+00 0.  1.
         13    1    5    5    0    0 -0.90169558161E+02  0.34177555442E+03 -0.23816091898E+03  0.42621790454E+03  0.00000000000E+00 0. -1.
        -13    1    5    5    0    0 -0.41049529489E+02  0.37653342536E+03 -0.16681015818E+03  0.41386968137E+03  0.00000000000E+00 0.  1.
          3    1    6    6  503    0  0.65538012247E+02 -0.14210187853E+02  0.25650821186E+00  0.67061362084E+02  0.00000000000E+00 0. -1.
         -3    1    6    6    0  503  0.33190377342E+03 -0.35819212823E+02 -0.20532317024E+03  0.39191929661E+03  0.00000000000E+00 0.  1.
<mgrwt>
<rscale>  0 0.18917679E+04</rscale>
<asrwt>0</asrwt>
<pdfrwt beam="1">  1        1 0.98513241E-01 0.18917679E+04</pdfrwt>
<pdfrwt beam="2">  1       -2 0.21495839E+00 0.18917679E+04</pdfrwt>
<totfact> 0.27150855E+00</totfact>
</mgrwt>
</event>
<event>
12    5  0.5297412E-008  0.1698417E+04  0.7818608E-02  0.8762268E-01
          1   -1    0    0  501    0  0.00000000000E+00  0.00000000000E+00  0.14350622313E+04  0.14350622313E+04  0.00000000000E+00 0. -1.
         -2   -1    0    0    0  501 -0.00000000000E+00 -0.00000000000E+00 -0.50252544834E+03  0.50252544834E+03  0.00000000000E+00 0.  1.
        -24    2    1    2    0    0  0.14695619704E+03  0.17723515625E+03  0.97181506668E+03  0.10018965130E+04  0.79772641993E+02 0.  0.
        254    2    1    2    0    0 -0.14695619704E+03 -0.17723515625E+03 -0.39278283719E+02  0.93569116667E+03  0.90607215571E+03 0.  0.
         23    2    4    4    0    0 -0.46925988080E+03 -0.30908245390E+03 -0.72360242784E+02  0.57376990372E+03  0.90769480788E+02 0.  0.
         23    2    4    4    0    0  0.32230368376E+03  0.13184729765E+03  0.33081959066E+02  0.36192126295E+03  0.92893541732E+02 0.  0.
          1    1    3    3  502    0  0.40766259275E+02  0.10652045155E+03  0.39475675647E+03  0.41090314099E+03  0.00000000000E+00 0. -1.
         -2    1    3    3    0  502  0.10618993776E+03  0.70714704698E+02  0.57705831021E+03  0.59099337198E+03  0.00000000000E+00 0.  1.
         13    1    5    5    0    0 -0.27028113926E+03 -0.17677391871E+03 -0.86688299917E+02  0.33438865698E+03  0.00000000000E+00 0. -1.
        -13    1    5    5    0    0 -0.19897874154E+03 -0.13230853518E+03  0.14328057133E+02  0.23938124674E+03  0.00000000000E+00 0.  1.
          1    1    6    6  503    0  0.11749137306E+03  0.96558961843E+02  0.23377134765E+02  0.15386470124E+03  0.00000000000E+00 0. -1.
         -1    1    6    6    0  503  0.20481231070E+03  0.35288335810E+02  0.97048243003E+01  0.20805656172E+03  0.00000000000E+00 0.  1.
<mgrwt>
<rscale>  0 0.16984173E+04</rscale>
<asrwt>0</asrwt>
<pdfrwt beam="1">  1        1 0.22077880E+00 0.16984173E+04</pdfrwt>
<pdfrwt beam="2">  1       -2 0.77311608E-01 0.16984173E+04</pdfrwt>
<totfact> 0.90481212E+00</totfact>
</mgrwt>
</event>
<event>
12    5  0.5297412E-008  0.1232608E+04  0.7818608E-02  0.9084784E-01
          3   -1    0    0  501    0  0.00000000000E+00  0.00000000000E+00  0.11254053891E+04  0.11254053891E+04  0.00000000000E+00 0. -1.
         -4   -1    0    0    0  501 -0.00000000000E+00 -0.00000000000E+00 -0.33750556759E+03  0.33750556759E+03  0.00000000000E+00 0.  1.
        -24    2    1    2    0    0 -0.27648226066E+02  0.20929921612E+02 -0.14782163690E+03  0.17009583450E+03  0.76673793146E+02 0.  0.
        254    2    1    2    0    0  0.27648226066E+02 -0.20929921612E+02  0.93572145842E+03  0.12928151222E+04  0.89139991385E+03 0.  0.
         23    2    4    4    0    0 -0.31243019408E+02  0.42339674919E+03  0.43705546910E+03  0.61607251272E+03  0.91032545647E+02 0.  0.
         23    2    4    4    0    0  0.58891245474E+02 -0.44432667080E+03  0.49866598932E+03  0.67674260948E+03  0.91751955852E+02 0.  0.
          3    1    3    3  502    0  0.31114033765E+01 -0.10142945248E+01  0.85861783824E+01  0.91886932460E+01  0.00000000000E+00 0. -1.
         -4    1    3    3    0  502 -0.30759629443E+02  0.21944216137E+02 -0.15640781528E+03  0.16090714126E+03  0.00000000000E+00 0.  1.
         13    1    5    5    0    0 -0.34090192809E+02  0.30227568015E+03  0.25265694731E+03  0.39543426898E+03  0.00000000000E+00 0.  1.
        -13    1    5    5    0    0  0.28471734006E+01  0.12112106904E+03  0.18439852180E+03  0.22063824374E+03  0.00000000000E+00 0. -1.
          4    1    6    6  503    0  0.68948486712E+02 -0.24701528000E+03  0.23986120873E+03  0.35114646777E+03  0.00000000000E+00 0. -1.
         -4    1    6    6    0  503 -0.10057241238E+02 -0.19731139080E+03  0.25880478058E+03  0.32559614171E+03  0.00000000000E+00 0.  1.
<mgrwt>
<rscale>  0 0.12326079E+04</rscale>
<asrwt>0</asrwt>
<pdfrwt beam="1">  1        3 0.17313929E+00 0.12326079E+04</pdfrwt>
<pdfrwt beam="2">  1       -4 0.51923934E-01 0.12326079E+04</pdfrwt>
<totfact> 0.17773874E+00</totfact>
</mgrwt>
</event>
<event>
12    5  0.5297412E-008  0.1736924E+04  0.7818608E-02  0.8740581E-01
         -2   -1    0    0    0  501 -0.00000000000E+00  0.00000000000E+00  0.57313941808E+03  0.57313941808E+03  0.00000000000E+00 0.  1.
          1   -1    0    0  501    0  0.00000000000E+00 -0.00000000000E+00 -0.13159557838E+04  0.13159557838E+04  0.00000000000E+00 0. -1.
        -24    2    1    2    0    0  0.31274720633E+03  0.29412165393E+03  0.23104075170E+03  0.49426814359E+03  0.81257654690E+02 0.  0.
        254    2    1    2    0    0 -0.31274720633E+03 -0.29412165393E+03 -0.97385711744E+03  0.13948270583E+04  0.90156889644E+03 0.  0.
         23    2    4    4    0    0 -0.21749687898E+03 -0.16060344733E+03  0.10270616447E+03  0.30189884046E+03  0.86579408573E+02 0.  0.
         23    2    4    4    0    0 -0.95250327351E+02 -0.13351820659E+03 -0.10765632819E+04  0.10929282178E+04  0.92756956912E+02 0.  0.
          1    1    3    3  502    0  0.14563616853E+03  0.85590579040E+02  0.75091671339E+02  0.18486319241E+03  0.00000000000E+00 0. -1.
         -2    1    3    3    0  502  0.16711103780E+03  0.20853107489E+03  0.15594908036E+03  0.30940495118E+03  0.00000000000E+00 0.  1.
         13    1    5    5    0    0 -0.15015712010E+02 -0.44201624890E+02 -0.18787453541E+00  0.46682872094E+02  0.00000000000E+00 0.  1.
        -13    1    5    5    0    0 -0.20248116697E+03 -0.11640182244E+03  0.10289403901E+03  0.25521596837E+03  0.00000000000E+00 0. -1.
          1    1    6    6  503    0 -0.54487158303E+02 -0.13648802114E+03 -0.80467374000E+03  0.81798389848E+03  0.00000000000E+00 0. -1.
         -1    1    6    6    0  503 -0.40763169048E+02  0.29698145463E+01 -0.27188954192E+03  0.27494431937E+03  0.00000000000E+00 0.  1.
<mgrwt>
<rscale>  0 0.17369239E+04</rscale>
<asrwt>0</asrwt>
<pdfrwt beam="1">  1        1 0.20245473E+00 0.17369239E+04</pdfrwt>
<pdfrwt beam="2">  1       -2 0.88175296E-01 0.17369239E+04</pdfrwt>
<totfact> 0.81245073E+00</totfact>
</mgrwt>
</event>
<event>
12    5  0.5297412E-008  0.1075026E+04  0.7818608E-02  0.9229881E-01
          1   -1    0    0  501    0  0.00000000000E+00  0.00000000000E+00  0.12495770553E+04  0.12495770553E+04  0.00000000000E+00 0. -1.
         -2   -1    0    0    0  501 -0.00000000000E+00 -0.00000000000E+00 -0.23121457677E+03  0.23121457677E+03  0.00000000000E+00 0.  1.
        -24    2    1    2    0    0 -0.95624710030E+02 -0.47972850545E+02  0.28615847665E+03  0.31573848016E+03  0.79741046743E+02 0.  0.
        254    2    1    2    0    0  0.95624710030E+02  0.47972850545E+02  0.73220400192E+03  0.11650531520E+04  0.89987814002E+03 0.  0.
         23    2    4    4    0    0 -0.22573641259E+03 -0.29054445975E+03  0.52203929565E+03  0.64505017220E+03  0.90507941051E+02 0.  0.
         23    2    4    4    0    0  0.32136112262E+03  0.33851731030E+03  0.21016470627E+03  0.52000297975E+03  0.91471059273E+02 0.  0.
          3    1    3    3  502    0 -0.63298534503E+02 -0.68936035699E+02  0.22167618342E+03  0.24062255045E+03  0.00000000000E+00 0. -1.
         -4    1    3    3    0  502 -0.32326175527E+02  0.20963185154E+02  0.64482293228E+02  0.75115929708E+02  0.00000000000E+00 0.  1.
         13    1    5    5    0    0 -0.71511793977E+02 -0.33126813855E+02  0.10716847246E+03  0.13302783154E+03  0.00000000000E+00 0. -1.
        -13    1    5    5    0    0 -0.15422461861E+03 -0.25741764590E+03  0.41487082318E+03  0.51202234066E+03  0.00000000000E+00 0.  1.
          4    1    6    6  503    0  0.11890823606E+03  0.70021221697E+02  0.43430679084E+02  0.14466638855E+03  0.00000000000E+00 0. -1.
         -4    1    6    6    0  503  0.20245288656E+03  0.26849608860E+03  0.16673402718E+03  0.37533659120E+03  0.00000000000E+00 0.  1.
<mgrwt>
<rscale>  0 0.10750264E+04</rscale>
<asrwt>0</asrwt>
<pdfrwt beam="1">  1        1 0.19224262E+00 0.10750264E+04</pdfrwt>
<pdfrwt beam="2">  1       -2 0.35571474E-01 0.10750264E+04</pdfrwt>
<totfact> 0.63901803E+01</totfact>
</mgrwt>
</event>
<event>
12    5  0.5297412E-008  0.1862278E+04  0.7818608E-02  0.8673864E-01
          1   -1    0    0  501    0  0.00000000000E+00  0.00000000000E+00  0.95848939080E+03  0.95848939080E+03  0.00000000000E+00 0. -1.
         -2   -1    0    0    0  501 -0.00000000000E+00 -0.00000000000E+00 -0.90456878179E+03  0.90456878179E+03  0.00000000000E+00 0.  1.
        -24    2    1    2    0    0  0.54101389290E+03 -0.12943123268E+03 -0.42149871728E+03  0.70177143149E+03  0.73304140921E+02 0.  0.
        254    2    1    2    0    0 -0.54101389290E+03  0.12943123268E+03  0.47541932628E+03  0.11612867411E+04  0.90172883006E+03 0.  0.
         23    2    4    4    0    0 -0.17143455377E+03  0.43890644879E+03  0.51658357830E+01  0.48194853390E+03  0.10108920047E+03 0.  0.
         23    2    4    4    0    0 -0.36957933913E+03 -0.30947521611E+03  0.47025349050E+03  0.67933820720E+03  0.89432975675E+02 0.  0.
          3    1    3    3  502    0  0.26531518224E+03 -0.48330913996E+02 -0.16219601554E+03  0.31469917482E+03  0.00000000000E+00 0. -1.
         -4    1    3    3    0  502  0.27569871066E+03 -0.81100318685E+02 -0.25930270174E+03  0.38707225666E+03  0.00000000000E+00 0.  1.
         13    1    5    5    0    0 -0.55775917459E+00  0.38914782299E+01  0.13950309281E+02  0.14493647821E+02  0.00000000000E+00 0.  1.
        -13    1    5    5    0    0 -0.17087679459E+03  0.43501497056E+03 -0.87844734980E+01  0.46745488608E+03  0.00000000000E+00 0. -1.
          4    1    6    6  503    0 -0.31216512838E+03 -0.21776753672E+03  0.38710996071E+03  0.54288478437E+03  0.00000000000E+00 0. -1.
         -4    1    6    6    0  503 -0.57414210752E+02 -0.91707679391E+02  0.83143529796E+02  0.13645342283E+03  0.00000000000E+00 0.  1.
<mgrwt>
<rscale>  0 0.18622777E+04</rscale>
<asrwt>0</asrwt>
<pdfrwt beam="1">  1        1 0.14745991E+00 0.18622777E+04</pdfrwt>
<pdfrwt beam="2">  1       -2 0.13916443E+00 0.18622777E+04</pdfrwt>
<totfact> 0.48967418E+00</totfact>
</mgrwt>
</event>
<event>
12    5  0.5297412E-008  0.3243220E+04  0.7818608E-02  0.8177495E-01
         -2   -1    0    0    0  501 -0.00000000000E+00  0.00000000000E+00  0.94620971223E+03  0.94620971223E+03  0.00000000000E+00 0.  1.
          1   -1    0    0  501    0  0.00000000000E+00 -0.00000000000E+00 -0.27791079678E+04  0.27791079678E+04  0.00000000000E+00 0. -1.
        -24    2    1    2    0    0 -0.11209654691E+04 -0.66293388065E+03 -0.16828443993E+04  0.21295247112E+04  0.82857169770E+02 0.  0.
        254    2    1    2    0    0  0.11209654691E+04  0.66293388065E+03 -0.15005385636E+03  0.15957929689E+04  0.90994182598E+03 0.  0.
         23    2    4    4    0    0  0.46287101755E+03 -0.11752523367E+03 -0.28344403256E+03  0.56209922319E+03  0.86909479823E+02 0.  0.
         23    2    4    4    0    0  0.65809445154E+03  0.78045911431E+03  0.13339017621E+03  0.10336937457E+04  0.92331383963E+02 0.  0.
          1    1    3    3  502    0 -0.10897714109E+04 -0.64387594255E+03 -0.16097310979E+04  0.20477822552E+04  0.00000000000E+00 0. -1.
         -2    1    3    3    0  502 -0.31194058209E+02 -0.19057938101E+02 -0.73113301397E+02  0.81742456003E+02  0.00000000000E+00 0.  1.
         13    1    5    5    0    0  0.73355519467E+02  0.59766974362E+01 -0.21313054607E+02  0.76622447397E+02  0.00000000000E+00 0.  1.
        -13    1    5    5    0    0  0.38951549808E+03 -0.12350193110E+03 -0.26213097796E+03  0.48547677579E+03  0.00000000000E+00 0. -1.
          4    1    6    6  503    0  0.46384774335E+03  0.59070803410E+03  0.66285602738E+02  0.75397910560E+03  0.00000000000E+00 0. -1.
         -4    1    6    6    0  503  0.19424670819E+03  0.18975108021E+03  0.67104573469E+02  0.27971464006E+03  0.00000000000E+00 0.  1.
<mgrwt>
<rscale>  0 0.32432200E+04</rscale>
<asrwt>0</asrwt>
<pdfrwt beam="1">  1        1 0.42755508E+00 0.32432200E+04</pdfrwt>
<pdfrwt beam="2">  1       -2 0.14557072E+00 0.32432200E+04</pdfrwt>
<totfact> 0.20511275E-01</totfact>
</mgrwt>
</event>
<event>
12    5  0.5297412E-008  0.2217961E+04  0.7818608E-02  0.8510989E-01
          1   -1    0    0  501    0  0.00000000000E+00  0.00000000000E+00  0.54062030771E+03  0.54062030771E+03  0.00000000000E+00 0. -1.
         -2   -1    0    0    0  501 -0.00000000000E+00 -0.00000000000E+00 -0.22748636329E+04  0.22748636329E+04  0.00000000000E+00 0.  1.
        -24    2    1    2    0    0  0.31803892011E+03 -0.56565255053E+03 -0.15047796713E+04  0.16407689251E+04  0.81542894971E+02 0.  0.
        254    2    1    2    0    0 -0.31803892011E+03  0.56565255053E+03 -0.22946365393E+03  0.11747150156E+04  0.95194024849E+03 0.  0.
         23    2    4    4    0    0 -0.39550783473E+02  0.71660703603E+03  0.73813539733E+02  0.72719630952E+03  0.90973212343E+02 0.  0.
         23    2    4    4    0    0 -0.27848813663E+03 -0.15095448550E+03 -0.30327719366E+03  0.44751870604E+03  0.89179802228E+02 0.  0.
          3    1    3    3  502    0  0.79470935840E+02 -0.90864349159E+02 -0.33086784136E+03  0.35220091999E+03  0.00000000000E+00 0. -1.
         -4    1    3    3    0  502  0.23856798427E+03 -0.47478820137E+03 -0.11739118299E+04  0.12885680051E+04  0.00000000000E+00 0.  1.
         13    1    5    5    0    0 -0.25656329871E+02  0.12267349990E+03 -0.16017589431E+02  0.12634713297E+03  0.00000000000E+00 0. -1.
        -13    1    5    5    0    0 -0.13894453602E+02  0.59393353614E+03  0.89831129164E+02  0.60084917654E+03  0.00000000000E+00 0.  1.
          2    1    6    6  503    0 -0.98509238326E+01 -0.54246372448E+01 -0.48252773227E+02  0.49545913189E+02  0.00000000000E+00 0. -1.
         -2    1    6    6    0  503 -0.26863721280E+03 -0.14552984826E+03 -0.25502442043E+03  0.39797279286E+03  0.00000000000E+00 0.  1.
<mgrwt>
<rscale>  0 0.22179608E+04</rscale>
<asrwt>0</asrwt>
<pdfrwt beam="1">  1        1 0.83172356E-01 0.22179608E+04</pdfrwt>
<pdfrwt beam="2">  1       -2 0.34997902E+00 0.22179608E+04</pdfrwt>
<totfact> 0.49381787E-01</totfact>
</mgrwt>
</event>
<event>
12    5  0.5297412E-008  0.1958778E+04  0.7818608E-02  0.8626140E-01
         -2   -1    0    0    0  501 -0.00000000000E+00  0.00000000000E+00  0.53701064832E+03  0.53701064832E+03  0.00000000000E+00 0.  1.
          1   -1    0    0  501    0  0.00000000000E+00 -0.00000000000E+00 -0.17861895337E+04  0.17861895337E+04  0.00000000000E+00 0. -1.
        -24    2    1    2    0    0 -0.10201470632E+03  0.50032142101E+03  0.22787408195E+03  0.56503026989E+03  0.81265515742E+02 0.  0.
        254    2    1    2    0    0  0.10201470632E+03 -0.50032142101E+03 -0.14770529673E+04  0.17581699121E+04  0.80544859984E+03 0.  0.
         23    2    4    4    0    0  0.74306887811E+02 -0.48528644131E+03 -0.15562765935E+04  0.16343153745E+04  0.89249449159E+02 0.  0.
         23    2    4    4    0    0  0.27707818508E+02 -0.15034979692E+02  0.79223626184E+02  0.12385453761E+03  0.89832008322E+02 0.  0.
          1    1    3    3  502    0 -0.36045364371E+02  0.98565180443E+02  0.79649962714E+02  0.13175158310E+03  0.00000000000E+00 0. -1.
         -2    1    3    3    0  502 -0.65969341948E+02  0.40175624056E+03  0.14822411924E+03  0.43327868680E+03  0.00000000000E+00 0.  1.
         13    1    5    5    0    0  0.44607519172E+02 -0.21396774957E+03 -0.83475415966E+03  0.86289427840E+03  0.00000000000E+00 0.  1.
        -13    1    5    5    0    0  0.29699368639E+02 -0.27131869175E+03 -0.72152243385E+03  0.77142109612E+03  0.00000000000E+00 0. -1.
          2    1    6    6  503    0  0.48422571747E+02  0.10930160243E+02  0.75600916717E+02  0.90441762842E+02  0.00000000000E+00 0. -1.
         -2    1    6    6    0  503 -0.20714753239E+02 -0.25965139935E+02  0.36227094668E+01  0.33412774765E+02  0.00000000000E+00 0.  1.
<mgrwt>
<rscale>  0 0.19587780E+04</rscale>
<asrwt>0</asrwt>
<pdfrwt beam="1">  1        1 0.27479839E+00 0.19587780E+04</pdfrwt>
<pdfrwt beam="2">  1       -2 0.82617022E-01 0.19587780E+04</pdfrwt>
<totfact> 0.43736097E+00</totfact>
</mgrwt>
</event>
<event>
12    5  0.5297412E-008  0.3070453E+04  0.7818608E-02  0.8223894E-01
          1   -1    0    0  501    0  0.00000000000E+00  0.00000000000E+00  0.15308332572E+04  0.15308332572E+04  0.00000000000E+00 0. -1.
         -2   -1    0    0    0  501 -0.00000000000E+00 -0.00000000000E+00 -0.15396322433E+04  0.15396322433E+04  0.00000000000E+00 0.  1.
        -24    2    1    2    0    0 -0.13359913672E+03  0.13081119095E+04  0.48206356483E+03  0.14042053559E+04  0.10198972451E+03 0.  0.
        254    2    1    2    0    0  0.13359913672E+03 -0.13081119095E+04 -0.49086255094E+03  0.16662601445E+04  0.89803748691E+03 0.  0.
         23    2    4    4    0    0  0.22805277527E+02 -0.13109386209E+04 -0.63779601319E+03  0.14611378132E+04  0.95183015499E+02 0.  0.
         23    2    4    4    0    0  0.11079385919E+03  0.28267113367E+01  0.14693346225E+03  0.20512233123E+03  0.90567427400E+02 0.  0.
          1    1    3    3  502    0 -0.69565288581E+02  0.80579035467E+03  0.34724109939E+03  0.88017828090E+03  0.00000000000E+00 0. -1.
         -2    1    3    3    0  502 -0.64033848139E+02  0.50232155488E+03  0.13482246544E+03  0.52402707505E+03  0.00000000000E+00 0.  1.
         13    1    5    5    0    0 -0.32316148441E+02 -0.36623030747E+03 -0.19871814103E+03  0.41792089101E+03  0.00000000000E+00 0.  1.
        -13    1    5    5    0    0  0.55121425968E+02 -0.94470831341E+03 -0.43907787216E+03  0.10432169222E+04  0.00000000000E+00 0. -1.
          3    1    6    6  503    0  0.33079629654E+02  0.42022085189E+02  0.75506331383E+02  0.92527420912E+02  0.00000000000E+00 0. -1.
         -3    1    6    6    0  503  0.77714229539E+02 -0.39195373852E+02  0.71427130870E+02  0.11259491031E+03  0.00000000000E+00 0.  1.
<mgrwt>
<rscale>  0 0.30704529E+04</rscale>
<asrwt>0</asrwt>
<pdfrwt beam="1">  1        1 0.23551281E+00 0.30704529E+04</pdfrwt>
<pdfrwt beam="2">  1       -2 0.23686650E+00 0.30704529E+04</pdfrwt>
<totfact> 0.35848755E-01</totfact>
</mgrwt>
</event>
<event>
12    5  0.5297412E-008  0.2482353E+04  0.7818608E-02  0.8409299E-01
          1   -1    0    0  501    0  0.00000000000E+00  0.00000000000E+00  0.14631829662E+04  0.14631829662E+04  0.00000000000E+00 0. -1.
         -2   -1    0    0    0  501 -0.00000000000E+00 -0.00000000000E+00 -0.10528549628E+04  0.10528549628E+04  0.00000000000E+00 0.  1.
        -24    2    1    2    0    0  0.64213935957E+03 -0.67453591903E+03  0.72112081459E+03  0.11806478192E+04  0.81070220341E+02 0.  0.
        254    2    1    2    0    0 -0.64213935957E+03  0.67453591903E+03 -0.31079281113E+03  0.13353901098E+04  0.90517010044E+03 0.  0.
         23    2    4    4    0    0 -0.84384710817E+03  0.51154363191E+03 -0.36367893863E+03  0.10554645438E+04  0.89376749794E+02 0.  0.
         23    2    4    4    0    0  0.20170774859E+03  0.16299228713E+03  0.52886127503E+02  0.27992556605E+03  0.91153050097E+02 0.  0.
          1    1    3    3  502    0  0.63332637900E+03 -0.67500117615E+03  0.71742637046E+03  0.11710804785E+04  0.00000000000E+00 0. -1.
         -2    1    3    3    0  502  0.88129805712E+01  0.46525711236E+00  0.36944441265E+01  0.95673407033E+01  0.00000000000E+00 0.  1.
         13    1    5    5    0    0 -0.24249889622E+03  0.17025805089E+03 -0.14770853865E+03  0.33107601990E+03  0.00000000000E+00 0. -1.
        -13    1    5    5    0    0 -0.60134821195E+03  0.34128558101E+03 -0.21597039999E+03  0.72438852386E+03  0.00000000000E+00 0.  1.
          1    1    6    6  503    0  0.76871555656E+02  0.77604508888E+02 -0.21577829658E+02  0.11134315696E+03  0.00000000000E+00 0. -1.
         -1    1    6    6    0  503  0.12483619294E+03  0.85387778238E+02  0.74463957162E+02  0.16858240909E+03  0.00000000000E+00 0.  1.
<mgrwt>
<rscale>  0 0.24823533E+04</rscale>
<asrwt>0</asrwt>
<pdfrwt beam="1">  1        1 0.22510507E+00 0.24823533E+04</pdfrwt>
<pdfrwt beam="2">  1       -2 0.16197769E+00 0.24823533E+04</pdfrwt>
<totfact> 0.13204324E+00</totfact>
</mgrwt>
</event>
<event>
12    5  0.5297412E-008  0.1763908E+04  0.7818608E-02  0.8725732E-01
         -2   -1    0    0    0  501 -0.00000000000E+00  0.00000000000E+00  0.71740130866E+03  0.71740130866E+03  0.00000000000E+00 0.  1.
          1   -1    0    0  501    0  0.00000000000E+00 -0.00000000000E+00 -0.10842504649E+04  0.10842504649E+04  0.00000000000E+00 0. -1.
        -24    2    1    2    0    0 -0.14413589411E+03  0.62013038653E+03 -0.78075775869E+00  0.64159023066E+03  0.79376080955E+02 0.  0.
        254    2    1    2    0    0  0.14413589411E+03 -0.62013038653E+03 -0.36606839851E+03  0.11600615429E+04  0.89799769416E+03 0.  0.
         23    2    4    4    0    0 -0.18605330905E+03  0.12441126208E+03 -0.22214589535E+03  0.32813715580E+03  0.90725951389E+02 0.  0.
         23    2    4    4    0    0  0.33018920316E+03 -0.74454164861E+03 -0.14392250316E+03  0.83192438713E+03  0.89539502884E+02 0.  0.
          1    1    3    3  502    0 -0.68892534106E+02  0.20531007928E+03 -0.31702409206E+02  0.21886857394E+03  0.00000000000E+00 0. -1.
         -2    1    3    3    0  502 -0.75243360006E+02  0.41482030725E+03  0.30921651448E+02  0.42272165672E+03  0.00000000000E+00 0.  1.
         13    1    5    5    0    0 -0.45701650446E+02  0.46604550235E+02 -0.12371621602E+03  0.13987968781E+03  0.00000000000E+00 0. -1.
        -13    1    5    5    0    0 -0.14035165860E+03  0.77806711846E+02 -0.98429679334E+02  0.18825746799E+03  0.00000000000E+00 0.  1.
          4    1    6    6  503    0  0.15455847685E+03 -0.33029477911E+03 -0.19933930229E+02  0.36521271260E+03  0.00000000000E+00 0. -1.
         -4    1    6    6    0  503  0.17563072631E+03 -0.41424686950E+03 -0.12398857293E+03  0.46671167452E+03  0.00000000000E+00 0.  1.
<mgrwt>
<rscale>  0 0.17639078E+04</rscale>
<asrwt>0</asrwt>
<pdfrwt beam="1">  1        1 0.16680776E+00 0.17639078E+04</pdfrwt>
<pdfrwt beam="2">  1       -2 0.11036943E+00 0.17639078E+04</pdfrwt>
<totfact> 0.70483941E+00</totfact>
</mgrwt>
</event>
<event>
12    5  0.5297412E-008  0.1502068E+04  0.7818608E-02  0.8883079E-01
          1   -1    0    0  501    0  0.00000000000E+00  0.00000000000E+00  0.77971742844E+03  0.77971742844E+03  0.00000000000E+00 0. -1.
         -2   -1    0    0    0  501 -0.00000000000E+00 -0.00000000000E+00 -0.72340604463E+03  0.72340604463E+03  0.00000000000E+00 0.  1.
        -24    2    1    2    0    0 -0.45451636880E+03  0.11232642605E+03  0.85187188740E+02  0.48247919655E+03  0.79542205674E+02 0.  0.
        254    2    1    2    0    0  0.45451636880E+03 -0.11232642605E+03 -0.28875804936E+02  0.10206442765E+04  0.90646487609E+03 0.  0.
         23    2    4    4    0    0  0.45480145129E+03  0.19600621070E+03  0.27883932910E+03  0.57535870237E+03  0.89573825431E+02 0.  0.
         23    2    4    4    0    0 -0.28508249262E+00 -0.30833263676E+03 -0.30771513403E+03  0.44528557415E+03  0.92312202191E+02 0.  0.
          3    1    3    3  502    0 -0.21153206489E+03  0.53774753316E+02  0.80081199366E+02  0.23248771379E+03  0.00000000000E+00 0. -1.
         -4    1    3    3    0  502 -0.24298430391E+03  0.58551672739E+02  0.51059893745E+01  0.24999148276E+03  0.00000000000E+00 0.  1.
         13    1    5    5    0    0  0.13927161699E+03  0.10616767554E+03  0.92106364945E+02  0.19786798905E+03  0.00000000000E+00 0. -1.
        -13    1    5    5    0    0  0.31552983431E+03  0.89838535169E+02  0.18673296415E+03  0.37749071332E+03  0.00000000000E+00 0.  1.
          4    1    6    6  503    0 -0.37289727214E+01 -0.17571775646E+03 -0.23668835109E+03  0.29480843053E+03  0.00000000000E+00 0.  1.
         -4    1    6    6    0  503  0.34438902288E+01 -0.13261488030E+03 -0.71026782948E+02  0.15047714362E+03  0.00000000000E+00 0. -1.
<mgrwt>
<rscale>  0 0.15020683E+04</rscale>
<asrwt>0</asrwt>
<pdfrwt beam="1">  1        1 0.11995653E+00 0.15020683E+04</pdfrwt>
<pdfrwt beam="2">  1       -2 0.11129324E+00 0.15020683E+04</pdfrwt>
<totfact> 0.12463475E+01</totfact>
</mgrwt>
</event>
<event>
12    5  0.5297412E-008  0.1711025E+04  0.7818608E-02  0.8755101E-01
         -4   -1    0    0    0  501 -0.00000000000E+00  0.00000000000E+00  0.47094302847E+03  0.47094302847E+03  0.00000000000E+00 0.  1.
          3   -1    0    0  501    0  0.00000000000E+00 -0.00000000000E+00 -0.15541194355E+04  0.15541194355E+04  0.00000000000E+00 0. -1.
        -24    2    1    2    0    0 -0.46130015885E+03  0.77065063027E+00  0.87210098666E+02  0.47593512890E+03  0.78167865254E+02 0.  0.
        254    2    1    2    0    0  0.46130015885E+03 -0.77065063027E+00 -0.11703865057E+04  0.15491273351E+04  0.90398700051E+03 0.  0.
         23    2    4    4    0    0 -0.12851280934E+03  0.25203546711E+03 -0.66108735422E+03  0.72481919720E+03  0.91043725126E+02 0.  0.
         23    2    4    4    0    0  0.58981296819E+03 -0.25280611774E+03 -0.50929915152E+03  0.82430813789E+03  0.91148284990E+02 0.  0.
          3    1    3    3  502    0 -0.24658305232E+03  0.18221749622E+02  0.11253233263E+02  0.24751135147E+03  0.00000000000E+00 0. -1.
         -4    1    3    3    0  502 -0.21471710653E+03 -0.17451098992E+02  0.75956865403E+02  0.22842377743E+03  0.00000000000E+00 0.  1.
         13    1    5    5    0    0 -0.63475330762E+02  0.14826326863E+03 -0.26489029579E+03  0.31012575392E+03  0.00000000000E+00 0. -1.
        -13    1    5    5    0    0 -0.65037478578E+02  0.10377219848E+03 -0.39619705842E+03  0.41469344328E+03  0.00000000000E+00 0.  1.
          1    1    6    6  503    0  0.56769381483E+03 -0.25871481301E+03 -0.48015896249E+03  0.78724980224E+03  0.00000000000E+00 0. -1.
         -1    1    6    6    0  503  0.22119153358E+02  0.59086952709E+01 -0.29140189027E+02  0.37058335656E+02  0.00000000000E+00 0.  1.
<mgrwt>
<rscale>  0 0.17110251E+04</rscale>
<asrwt>0</asrwt>
<pdfrwt beam="1">  1        3 0.23909530E+00 0.17110251E+04</pdfrwt>
<pdfrwt beam="2">  1       -4 0.72452773E-01 0.17110251E+04</pdfrwt>
<totfact> 0.32324955E-01</totfact>
</mgrwt>
</event>
<event>
12    5  0.5297412E-008  0.1226849E+04  0.7818608E-02  0.9089675E-01
         -2   -1    0    0    0  501 -0.00000000000E+00  0.00000000000E+00  0.99091092742E+03  0.99091092742E+03  0.00000000000E+00 0.  1.
          1   -1    0    0  501    0  0.00000000000E+00 -0.00000000000E+00 -0.37974085402E+03  0.37974085402E+03  0.00000000000E+00 0. -1.
        -24    2    1    2    0    0 -0.69514716029E+02 -0.16363917327E+03 -0.92741805021E+02  0.21611047469E+03  0.80576796289E+02 0.  0.
        254    2    1    2    0    0  0.69514716029E+02  0.16363917327E+03  0.70391187843E+03  0.11545413067E+04  0.89769907075E+03 0.  0.
         23    2    4    4    0    0 -0.25186284332E+03 -0.23205697708E+03  0.46459565226E+03  0.58425142121E+03  0.90638130109E+02 0.  0.
         23    2    4    4    0    0  0.32137755935E+03  0.39569615035E+03  0.23931622617E+03  0.57028988554E+03  0.89996213198E+02 0.  0.
          3    1    3    3  502    0 -0.21202859146E+02 -0.13942770920E+03 -0.63502443532E+02  0.15466805638E+03  0.00000000000E+00 0. -1.
         -4    1    3    3    0  502 -0.48311856883E+02 -0.24211464063E+02 -0.29239361490E+02  0.61442418311E+02  0.00000000000E+00 0.  1.
         13    1    5    5    0    0 -0.19685980252E+02 -0.76457572555E+00  0.60047841009E+01  0.20595626396E+02  0.00000000000E+00 0.  1.
        -13    1    5    5    0    0 -0.23217686307E+03 -0.23129240135E+03  0.45859086816E+03  0.56365579481E+03  0.00000000000E+00 0. -1.
          1    1    6    6  503    0  0.23967559976E+03  0.24445620808E+03  0.18960835895E+03  0.39134966535E+03  0.00000000000E+00 0. -1.
         -1    1    6    6    0  503  0.81701959592E+02  0.15123994226E+03  0.49707867220E+02  0.17894022019E+03  0.00000000000E+00 0.  1.
<mgrwt>
<rscale>  0 0.12268486E+04</rscale>
<asrwt>0</asrwt>
<pdfrwt beam="1">  1        1 0.58421670E-01 0.12268486E+04</pdfrwt>
<pdfrwt beam="2">  1       -2 0.15244783E+00 0.12268486E+04</pdfrwt>
<totfact> 0.15905010E+01</totfact>
</mgrwt>
</event>
<event>
12    5  0.5297412E-008  0.1177718E+04  0.7818608E-02  0.9132587E-01
          1   -1    0    0  501    0  0.00000000000E+00  0.00000000000E+00  0.13683635594E+04  0.13683635594E+04  0.00000000000E+00 0. -1.
         -2   -1    0    0    0  501 -0.00000000000E+00 -0.00000000000E+00 -0.25340828184E+03  0.25340828184E+03  0.00000000000E+00 0.  1.
        -24    2    1    2    0    0 -0.85130956254E+02 -0.45631059494E+02  0.53384720900E+03  0.54906274959E+03  0.84543403813E+02 0.  0.
        254    2    1    2    0    0  0.85130956254E+02  0.45631059494E+02  0.58110806854E+03  0.10727090916E+04  0.89648688480E+03 0.  0.
         23    2    4    4    0    0 -0.19931024287E+03 -0.24286051909E+03  0.57077113516E+03  0.65776163530E+03  0.90359700553E+02 0.  0.
         23    2    4    4    0    0  0.28444119913E+03  0.28849157859E+03  0.10336933377E+02  0.41494745632E+03  0.89108656385E+02 0.  0.
          1    1    3    3  502    0 -0.17024230219E+02  0.60984826196E+01  0.29162625978E+03  0.29218639821E+03  0.00000000000E+00 0. -1.
         -2    1    3    3    0  502 -0.68106726035E+02 -0.51729542114E+02  0.24222094922E+03  0.25687635138E+03  0.00000000000E+00 0.  1.
         13    1    5    5    0    0 -0.54902359641E+02 -0.15579954147E+02  0.11513802229E+03  0.12850590742E+03  0.00000000000E+00 0. -1.
        -13    1    5    5    0    0 -0.14440788323E+03 -0.22728056495E+03  0.45563311287E+03  0.52925572787E+03  0.00000000000E+00 0.  1.
          4    1    6    6  503    0  0.20441513959E+03  0.23892494628E+03  0.38270037467E+02  0.31675743877E+03  0.00000000000E+00 0.  1.
         -4    1    6    6    0  503  0.80026059540E+02  0.49566632308E+02 -0.27933104091E+02  0.98190017558E+02  0.00000000000E+00 0. -1.
<mgrwt>
<rscale>  0 0.11777176E+04</rscale>
<asrwt>0</asrwt>
<pdfrwt beam="1">  1        1 0.21051747E+00 0.11777176E+04</pdfrwt>
<pdfrwt beam="2">  1       -2 0.38985890E-01 0.11777176E+04</pdfrwt>
<totfact> 0.43728735E+01</totfact>
</mgrwt>
</event>
<event>
12    5  0.5297412E-008  0.1369630E+04  0.7818608E-02  0.8976100E-01
         -2   -1    0    0    0  501 -0.00000000000E+00  0.00000000000E+00  0.74157608894E+03  0.74157608894E+03  0.00000000000E+00 0.  1.
          1   -1    0    0  501    0  0.00000000000E+00 -0.00000000000E+00 -0.63239843861E+03  0.63239843861E+03  0.00000000000E+00 0. -1.
        -24    2    1    2    0    0  0.34655284324E+03 -0.66896818713E+02  0.19388432053E+03  0.41066781717E+03  0.80516264204E+02 0.  0.
        254    2    1    2    0    0 -0.34655284324E+03  0.66896818713E+02 -0.84706670197E+02  0.96330671037E+03  0.89230630433E+03 0.  0.
         23    2    4    4    0    0  0.39257278882E+02 -0.37359913892E+02  0.35052987917E+03  0.36559529959E+03  0.88610551162E+02 0.  0.
         23    2    4    4    0    0 -0.38581012213E+03  0.10425673260E+03 -0.43523654937E+03  0.59771141078E+03  0.90050874778E+02 0.  0.
          1    1    3    3  502    0  0.33671702092E+03 -0.47332386783E+02  0.17989350889E+03  0.38468218253E+03  0.00000000000E+00 0. -1.
         -2    1    3    3    0  502  0.98358223236E+01 -0.19564431930E+02  0.13990811636E+02  0.25985634642E+02  0.00000000000E+00 0.  1.
         13    1    5    5    0    0  0.16046063592E+02 -0.55439894955E+02  0.31104349021E+03  0.31635282662E+03  0.00000000000E+00 0. -1.
        -13    1    5    5    0    0  0.23211215291E+02  0.18079981063E+02  0.39486388958E+02  0.49242472962E+02  0.00000000000E+00 0.  1.
          2    1    6    6  503    0 -0.11439574905E+03 -0.44073585881E+00 -0.85593713058E+02  0.14287359925E+03  0.00000000000E+00 0.  1.
         -2    1    6    6    0  503 -0.27141437308E+03  0.10469746846E+03 -0.34964283631E+03  0.45483781153E+03  0.00000000000E+00 0. -1.
<mgrwt>
<rscale>  0 0.13696300E+04</rscale>
<asrwt>0</asrwt>
<pdfrwt beam="1">  1        1 0.97292067E-01 0.13696300E+04</pdfrwt>
<pdfrwt beam="2">  1       -2 0.11408863E+00 0.13696300E+04</pdfrwt>
<totfact> 0.16310617E+01</totfact>
</mgrwt>
</event>
<event>
12    5  0.5297412E-008  0.1328110E+04  0.7818608E-02  0.9007566E-01
          1   -1    0    0  501    0  0.00000000000E+00  0.00000000000E+00  0.74363297304E+03  0.74363297304E+03  0.00000000000E+00 0. -1.
         -2   -1    0    0    0  501 -0.00000000000E+00 -0.00000000000E+00 -0.59299312534E+03  0.59299312534E+03  0.00000000000E+00 0.  1.
        -24    2    1    2    0    0 -0.75370351234E+02 -0.30141001268E+03  0.20623827502E+03  0.38232785113E+03  0.84330742189E+02 0.  0.
        254    2    1    2    0    0  0.75370351234E+02  0.30141001268E+03 -0.55598427316E+02  0.95429824724E+03  0.90059162442E+03 0.  0.
         23    2    4    4    0    0  0.42600072011E+02 -0.30261227313E+03 -0.11478906742E+03  0.33969168932E+03  0.93941257219E+02 0.  0.
         23    2    4    4    0    0  0.32770279222E+02  0.60402228581E+03  0.59190640103E+02  0.61460655793E+03  0.91218836941E+02 0.  0.
          1    1    3    3  502    0 -0.66306721451E+02 -0.15890832340E+03  0.15168914680E+03  0.22947338367E+03  0.00000000000E+00 0. -1.
         -2    1    3    3    0  502 -0.90636297831E+01 -0.14250168929E+03  0.54549128212E+02  0.15285446746E+03  0.00000000000E+00 0.  1.
         13    1    5    5    0    0  0.16744320047E+02 -0.24416167523E+03 -0.12525640459E+03  0.27492628611E+03  0.00000000000E+00 0. -1.
        -13    1    5    5    0    0  0.25855751965E+02 -0.58450597898E+02  0.10467337174E+02  0.64765403201E+02  0.00000000000E+00 0.  1.
          4    1    6    6  503    0  0.55229772886E+02  0.41113163919E+03  0.13167709758E+02  0.41503366265E+03  0.00000000000E+00 0. -1.
         -4    1    6    6    0  503 -0.22459493663E+02  0.19289064663E+03  0.46022930345E+02  0.19957289528E+03  0.00000000000E+00 0.  1.
<mgrwt>
<rscale>  0 0.13281103E+04</rscale>
<asrwt>0</asrwt>
<pdfrwt beam="1">  1        1 0.11440507E+00 0.13281103E+04</pdfrwt>
<pdfrwt beam="2">  1       -2 0.91229712E-01 0.13281103E+04</pdfrwt>
<totfact> 0.21832132E+01</totfact>
</mgrwt>
</event>
<event>
12    5  0.5297412E-008  0.2627508E+04  0.7818608E-02  0.8358917E-01
         -2   -1    0    0    0  501 -0.00000000000E+00  0.00000000000E+00  0.15685926088E+04  0.15685926088E+04  0.00000000000E+00 0.  1.
          1   -1    0    0  501    0  0.00000000000E+00 -0.00000000000E+00 -0.11003169028E+04  0.11003169028E+04  0.00000000000E+00 0. -1.
        -24    2    1    2    0    0  0.89688309564E+03 -0.49496936864E+03 -0.35520167988E+03  0.10871976444E+04  0.80227934935E+02 0.  0.
        254    2    1    2    0    0 -0.89688309564E+03  0.49496936864E+03  0.82347738592E+03  0.15817118672E+04  0.87994514744E+03 0.  0.
         23    2    4    4    0    0 -0.71345579614E+03  0.52099503882E+03  0.97871922029E+03  0.13215630652E+04  0.90457833316E+02 0.  0.
         23    2    4    4    0    0 -0.18342729950E+03 -0.26025670172E+02 -0.15524183437E+03  0.26014880199E+03  0.96200116034E+02 0.  0.
          1    1    3    3  502    0  0.67400752055E+03 -0.36945886101E+03 -0.22926622854E+03  0.80209038848E+03  0.00000000000E+00 0. -1.
         -2    1    3    3    0  502  0.22287557509E+03 -0.12551050763E+03 -0.12593545134E+03  0.28510725596E+03  0.00000000000E+00 0.  1.
         13    1    5    5    0    0 -0.11345183257E+03  0.57635736543E+02  0.17907517781E+03  0.21968412721E+03  0.00000000000E+00 0.  1.
        -13    1    5    5    0    0 -0.60000396357E+03  0.46335930227E+03  0.79964404247E+03  0.11018789380E+04  0.00000000000E+00 0. -1.
          2    1    6    6  503    0 -0.25612145761E+02 -0.25921563676E+02 -0.74372282303E+02  0.82819960450E+02  0.00000000000E+00 0. -1.
         -2    1    6    6    0  503 -0.15781515374E+03 -0.10410649598E+00 -0.80869552066E+02  0.17732884154E+03  0.00000000000E+00 0.  1.
<mgrwt>
<rscale>  0 0.26275075E+04</rscale>
<asrwt>0</asrwt>
<pdfrwt beam="1">  1        1 0.16927952E+00 0.26275075E+04</pdfrwt>
<pdfrwt beam="2">  1       -2 0.24132194E+00 0.26275075E+04</pdfrwt>
<totfact> 0.71005457E-01</totfact>
</mgrwt>
</event>
<event>
12    5  0.5297412E-008  0.2318229E+04  0.7818608E-02  0.8470768E-01
          1   -1    0    0  501    0  0.00000000000E+00  0.00000000000E+00  0.16193692729E+04  0.16193692729E+04  0.00000000000E+00 0. -1.
         -2   -1    0    0    0  501 -0.00000000000E+00 -0.00000000000E+00 -0.82967236016E+03  0.82967236016E+03  0.00000000000E+00 0.  1.
        -24    2    1    2    0    0 -0.27449859924E+03  0.44061736364E+03  0.12020169849E+04  0.13120435579E+04  0.84382011151E+02 0.  0.
        254    2    1    2    0    0  0.27449859924E+03 -0.44061736364E+03 -0.41232007215E+03  0.11369980751E+04  0.92372270669E+03 0.  0.
         23    2    4    4    0    0  0.56854041845E+03 -0.42636347887E+03 -0.41548871209E+03  0.82846626123E+03  0.93281576908E+02 0.  0.
         23    2    4    4    0    0 -0.29404181922E+03 -0.14253884770E+02  0.31686399363E+01  0.30853181392E+03  0.92293419271E+02 0.  0.
          1    1    3    3  502    0 -0.20151904364E+03  0.34690381426E+03  0.83688564929E+03  0.92807853724E+03  0.00000000000E+00 0. -1.
         -2    1    3    3    0  502 -0.72979555603E+02  0.93713549377E+02  0.36513133562E+03  0.38396502070E+03  0.00000000000E+00 0.  1.
         13    1    5    5    0    0  0.27326947505E+03 -0.20339720648E+03 -0.25315878261E+03  0.42442431459E+03  0.00000000000E+00 0.  1.
        -13    1    5    5    0    0  0.29527094341E+03 -0.22296627239E+03 -0.16232992947E+03  0.40404194664E+03  0.00000000000E+00 0. -1.
          1    1    6    6  503    0 -0.28312935589E+03  0.36397276427E+01 -0.10776617452E+02  0.28335775138E+03  0.00000000000E+00 0. -1.
         -1    1    6    6    0  503 -0.10912463329E+02 -0.17893612412E+02  0.13945257388E+02  0.25174062538E+02  0.00000000000E+00 0.  1.
<mgrwt>
<rscale>  0 0.23182286E+04</rscale>
<asrwt>0</asrwt>
<pdfrwt beam="1">  1        1 0.24913373E+00 0.23182286E+04</pdfrwt>
<pdfrwt beam="2">  1       -2 0.12764190E+00 0.23182286E+04</pdfrwt>
<totfact> 0.19509818E+00</totfact>
</mgrwt>
</event>
<event>
12    5  0.5297412E-008  0.1906647E+04  0.7818608E-02  0.8651555E-01
         -2   -1    0    0    0  501 -0.00000000000E+00  0.00000000000E+00  0.50092693696E+03  0.50092693696E+03  0.00000000000E+00 0.  1.
          1   -1    0    0  501    0  0.00000000000E+00 -0.00000000000E+00 -0.18142876035E+04  0.18142876035E+04  0.00000000000E+00 0. -1.
        -24    2    1    2    0    0 -0.26556087794E+03  0.55619937176E+02 -0.13421745145E+04  0.13715270681E+04  0.77704014118E+02 0.  0.
        254    2    1    2    0    0  0.26556087794E+03 -0.55619937176E+02  0.28813847941E+02  0.94368747240E+03  0.90338233900E+03 0.  0.
         23    2    4    4    0    0  0.12342473828E+03  0.23833229725E+03 -0.34032000453E+03  0.44278358079E+03  0.90573969799E+02 0.  0.
         23    2    4    4    0    0  0.14213613966E+03 -0.29395223443E+03  0.36913385247E+03  0.50090389160E+03  0.89634308530E+02 0.  0.
          3    1    3    3  502    0 -0.23282717288E+03  0.53365020862E+02 -0.10157614613E+04  0.10434690528E+04  0.00000000000E+00 0. -1.
         -4    1    3    3    0  502 -0.32733705062E+02  0.22549163144E+01 -0.32641305323E+03  0.32805801532E+03  0.00000000000E+00 0.  1.
         13    1    5    5    0    0 -0.84984145539E+01  0.22260055236E+02 -0.82446034579E+01  0.25213222626E+02  0.00000000000E+00 0.  1.
        -13    1    5    5    0    0  0.13192315284E+03  0.21607224202E+03 -0.33207540107E+03  0.41757035817E+03  0.00000000000E+00 0. -1.
          4    1    6    6  503    0 -0.80266898510E+01 -0.41165358080E+00  0.41622582225E+01  0.90510553056E+01  0.00000000000E+00 0.  1.
         -4    1    6    6    0  503  0.15016282951E+03 -0.29354058085E+03  0.36497159424E+03  0.49185283630E+03  0.00000000000E+00 0. -1.
<mgrwt>
<rscale>  0 0.19066468E+04</rscale>
<asrwt>0</asrwt>
<pdfrwt beam="1">  1        1 0.27912117E+00 0.19066468E+04</pdfrwt>
<pdfrwt beam="2">  1       -2 0.77065684E-01 0.19066468E+04</pdfrwt>
<totfact> 0.49161336E+00</totfact>
</mgrwt>
</event>
<event>
12    5  0.5297412E-008  0.1694285E+04  0.7818608E-02  0.8764631E-01
          1   -1    0    0  501    0  0.00000000000E+00  0.00000000000E+00  0.52492341184E+03  0.52492341184E+03  0.00000000000E+00 0. -1.
         -2   -1    0    0    0  501 -0.00000000000E+00 -0.00000000000E+00 -0.13671527129E+04  0.13671527129E+04  0.00000000000E+00 0.  1.
        -24    2    1    2    0    0  0.41391050394E+03 -0.35069464921E+03  0.10905849973E+02  0.54729528012E+03  0.71446090298E+02 0.  0.
        254    2    1    2    0    0 -0.41391050394E+03  0.35069464921E+03 -0.85313515105E+03  0.13447808446E+04  0.88672842060E+03 0.  0.
         23    2    4    4    0    0  0.92719669386E+02  0.38867863205E+03 -0.69182927968E+03  0.80407714493E+03  0.90798054305E+02 0.  0.
         23    2    4    4    0    0 -0.50663017332E+03 -0.37983982838E+02 -0.16130587137E+03  0.54070369972E+03  0.90686224290E+02 0.  0.
          1    1    3    3  502    0  0.24219316202E+03 -0.20313486678E+03  0.41550590077E+02  0.31882244803E+03  0.00000000000E+00 0. -1.
         -2    1    3    3    0  502  0.17171734192E+03 -0.14755978243E+03 -0.30644740104E+02  0.22847283209E+03  0.00000000000E+00 0.  1.
         13    1    5    5    0    0  0.66274470037E+02  0.12598046472E+03 -0.19473032111E+03  0.24121210755E+03  0.00000000000E+00 0. -1.
        -13    1    5    5    0    0  0.26445199348E+02  0.26269816733E+03 -0.49709895857E+03  0.56286503737E+03  0.00000000000E+00 0.  1.
          3    1    6    6  503    0 -0.70844421122E+02 -0.76916485079E+01 -0.57841393063E+02  0.91780827041E+02  0.00000000000E+00 0. -1.
         -3    1    6    6    0  503 -0.43578575220E+03 -0.30292334330E+02 -0.10346447831E+03  0.44892287268E+03  0.00000000000E+00 0.  1.
<mgrwt>
<rscale>  0 0.16942851E+04</rscale>
<asrwt>0</asrwt>
<pdfrwt beam="1">  1        1 0.80757449E-01 0.16942851E+04</pdfrwt>
<pdfrwt beam="2">  1       -2 0.21033118E+00 0.16942851E+04</pdfrwt>
<totfact> 0.39288939E+00</totfact>
</mgrwt>
</event>
<event>
12    5  0.5297412E-008  0.2635593E+04  0.7818608E-02  0.8356211E-01
         -2   -1    0    0    0  501 -0.00000000000E+00  0.00000000000E+00  0.87056028144E+03  0.87056028144E+03  0.00000000000E+00 0.  1.
          1   -1    0    0  501    0  0.00000000000E+00 -0.00000000000E+00 -0.19947928681E+04  0.19947928681E+04  0.00000000000E+00 0. -1.
        -24    2    1    2    0    0  0.10597398981E+04 -0.40840819289E+03 -0.71423629334E+03  0.13440862430E+04  0.81169220968E+02 0.  0.
        254    2    1    2    0    0 -0.10597398981E+04  0.40840819289E+03 -0.40999629336E+03  0.15212669065E+04  0.92537027012E+03 0.  0.
         23    2    4    4    0    0 -0.78726407901E+03  0.16269418160E+03 -0.68013314191E+03  0.10567252096E+04  0.88503960905E+02 0.  0.
         23    2    4    4    0    0 -0.27247581905E+03  0.24571401129E+03  0.27013684855E+03  0.46454169693E+03  0.90590418561E+02 0.  0.
          3    1    3    3  502    0  0.71612761652E+02 -0.11135999660E+02 -0.31400898461E+02  0.78983634659E+02  0.00000000000E+00 0. -1.
         -4    1    3    3    0  502  0.98812713641E+03 -0.39727219323E+03 -0.68283539488E+03  0.12651026084E+04  0.00000000000E+00 0.  1.
         13    1    5    5    0    0 -0.27548308094E+03  0.87131725332E+02 -0.28409580075E+03  0.40520771148E+03  0.00000000000E+00 0.  1.
        -13    1    5    5    0    0 -0.51178099807E+03  0.75562456273E+02 -0.39603734116E+03  0.65151749814E+03  0.00000000000E+00 0. -1.
          3    1    6    6  503    0 -0.79643146739E+02  0.22349270340E+02  0.63945233530E+02  0.10455387893E+03  0.00000000000E+00 0.  1.
         -3    1    6    6    0  503 -0.19283267231E+03  0.22336474095E+03  0.20619161502E+03  0.35998781801E+03  0.00000000000E+00 0. -1.
<mgrwt>
<rscale>  0 0.26355929E+04</rscale>
<asrwt>0</asrwt>
<pdfrwt beam="1">  1        1 0.30689121E+00 0.26355929E+04</pdfrwt>
<pdfrwt beam="2">  1       -2 0.13393235E+00 0.26355929E+04</pdfrwt>
<totfact> 0.93336544E-01</totfact>
</mgrwt>
</event>
<event>
12    5  0.5297412E-008  0.1676491E+04  0.7818608E-02  0.8774887E-01
         -2   -1    0    0    0  501 -0.00000000000E+00  0.00000000000E+00  0.27627951322E+03  0.27627951322E+03  0.00000000000E+00 0.  1.
          1   -1    0    0  501    0  0.00000000000E+00 -0.00000000000E+00 -0.25432783508E+04  0.25432783508E+04  0.00000000000E+00 0. -1.
        -24    2    1    2    0    0  0.47726043962E+03 -0.11179268751E+03 -0.13055925994E+04  0.13972037447E+04  0.85622055284E+02 0.  0.
        254    2    1    2    0    0 -0.47726043962E+03  0.11179268751E+03 -0.96140623818E+03  0.14223541193E+04  0.92656038863E+03 0.  0.
         23    2    4    4    0    0 -0.59338216845E+03  0.44638382842E+02 -0.18444099607E+03  0.62983890594E+03  0.92647629977E+02 0.  0.
         23    2    4    4    0    0  0.11612172883E+03  0.67154304669E+02 -0.77696524211E+03  0.79251521340E+03  0.80071339986E+02 0.  0.
          1    1    3    3  502    0  0.48016148488E+03 -0.10806032483E+03 -0.12988244307E+04  0.13889481586E+04  0.00000000000E+00 0. -1.
         -2    1    3    3    0  502 -0.29010452581E+01 -0.37323626776E+01 -0.67681686377E+01  0.82555860758E+01  0.00000000000E+00 0.  1.
         13    1    5    5    0    0 -0.20664449550E+03  0.55532681831E+02 -0.45534719023E+02  0.21876754080E+03  0.00000000000E+00 0. -1.
        -13    1    5    5    0    0 -0.38673767295E+03 -0.10894298989E+02 -0.13890627705E+03  0.41107136513E+03  0.00000000000E+00 0.  1.
          2    1    6    6  503    0 -0.39959837029E+01 -0.23146996032E+01 -0.16857937152E+01  0.49160574099E+01  0.00000000000E+00 0. -1.
         -2    1    6    6    0  503  0.12011771254E+03  0.69469004273E+02 -0.77527944839E+03  0.78759915599E+03  0.00000000000E+00 0.  1.
<mgrwt>
<rscale>  0 0.16764912E+04</rscale>
<asrwt>0</asrwt>
<pdfrwt beam="1">  1        1 0.39127358E+00 0.16764912E+04</pdfrwt>
<pdfrwt beam="2">  1       -2 0.42504542E-01 0.16764912E+04</pdfrwt>
<totfact> 0.55635100E+00</totfact>
</mgrwt>
</event>
<event>
12    5  0.5297412E-008  0.1766732E+04  0.7818608E-02  0.8724194E-01
         -2   -1    0    0    0  501 -0.00000000000E+00  0.00000000000E+00  0.23403944799E+04  0.23403944799E+04  0.00000000000E+00 0.  1.
          1   -1    0    0  501    0  0.00000000000E+00 -0.00000000000E+00 -0.33342048747E+03  0.33342048747E+03  0.00000000000E+00 0. -1.
        -24    2    1    2    0    0  0.45269902977E+03  0.46151822328E+03  0.89833939715E+03  0.11096920313E+04  0.80419213915E+02 0.  0.
        254    2    1    2    0    0 -0.45269902977E+03 -0.46151822328E+03  0.11086345953E+04  0.15641229361E+04  0.89413332966E+03 0.  0.
         23    2    4    4    0    0 -0.15152985738E+03 -0.77850224101E+02  0.10461846368E+04  0.10640263323E+04  0.92885879109E+02 0.  0.
         23    2    4    4    0    0 -0.30116917239E+03 -0.38366799918E+03  0.62449958552E+02  0.50009660378E+03  0.91063778693E+02 0.  0.
          3    1    3    3  502    0  0.32458737385E+03  0.31774416895E+03  0.56755916094E+03  0.72693997092E+03  0.00000000000E+00 0. -1.
         -4    1    3    3    0  502  0.12811165592E+03  0.14377405434E+03  0.33078023621E+03  0.38275206042E+03  0.00000000000E+00 0.  1.
         13    1    5    5    0    0  0.92617710301E+01  0.38519119696E+01  0.23372097236E+02  0.25433689423E+02  0.00000000000E+00 0. -1.
        -13    1    5    5    0    0 -0.16079162841E+03 -0.81702136071E+02  0.10228125395E+04  0.10385926429E+04  0.00000000000E+00 0.  1.
          4    1    6    6  503    0 -0.36276820880E+02 -0.99314577757E+02  0.31116820917E+02  0.11021637643E+03  0.00000000000E+00 0. -1.
         -4    1    6    6    0  503 -0.26489235151E+03 -0.28435342143E+03  0.31333137635E+02  0.38988022735E+03  0.00000000000E+00 0.  1.
<mgrwt>
<rscale>  0 0.17667320E+04</rscale>
<asrwt>0</asrwt>
<pdfrwt beam="1">  1        1 0.51295461E-01 0.17667320E+04</pdfrwt>
<pdfrwt beam="2">  1       -2 0.36006068E+00 0.17667320E+04</pdfrwt>
<totfact> 0.85214774E-01</totfact>
</mgrwt>
</event>
<event>
12    5  0.5297412E-008  0.1537378E+04  0.7818608E-02  0.8859971E-01
         -2   -1    0    0    0  501 -0.00000000000E+00  0.00000000000E+00  0.66341951982E+03  0.66341951982E+03  0.00000000000E+00 0.  1.
          1   -1    0    0  501    0  0.00000000000E+00 -0.00000000000E+00 -0.89066207558E+03  0.89066207558E+03  0.00000000000E+00 0. -1.
        -24    2    1    2    0    0 -0.43508903197E+03 -0.20992689311E+03  0.64732721746E+02  0.49388879028E+03  0.79774969164E+02 0.  0.
        254    2    1    2    0    0  0.43508903197E+03  0.20992689311E+03 -0.29197527750E+03  0.10601928051E+04  0.89743381659E+03 0.  0.
         23    2    4    4    0    0  0.38939636712E+03  0.34495415327E+03  0.18056024624E+03  0.55934702971E+03  0.98204880406E+02 0.  0.
         23    2    4    4    0    0  0.45692664856E+02 -0.13502726016E+03 -0.47253552374E+03  0.50084577542E+03  0.85067555184E+02 0.  0.
          3    1    3    3  502    0 -0.99748737826E+02 -0.70233848268E+02 -0.12056463220E+02  0.12258859019E+03  0.00000000000E+00 0. -1.
         -4    1    3    3    0  502 -0.33534029415E+03 -0.13969304485E+03  0.76789184966E+02  0.37130020009E+03  0.00000000000E+00 0.  1.
         13    1    5    5    0    0  0.14033109460E+01 -0.57984770518E+01 -0.16639715518E+00  0.59681911618E+01  0.00000000000E+00 0.  1.
        -13    1    5    5    0    0  0.38799305617E+03  0.35075263032E+03  0.18072664340E+03  0.55337883855E+03  0.00000000000E+00 0. -1.
          1    1    6    6  503    0  0.24462636630E+02 -0.10688262861E+03 -0.43792233200E+03  0.45144023498E+03  0.00000000000E+00 0. -1.
         -1    1    6    6    0  503  0.21230028226E+02 -0.28144631552E+02 -0.34613191741E+02  0.49405540440E+02  0.00000000000E+00 0.  1.
<mgrwt>
<rscale>  0 0.15373778E+04</rscale>
<asrwt>0</asrwt>
<pdfrwt beam="1">  1        1 0.13702493E+00 0.15373778E+04</pdfrwt>
<pdfrwt beam="2">  1       -2 0.10206454E+00 0.15373778E+04</pdfrwt>
<totfact> 0.12315933E+01</totfact>
</mgrwt>
</event>
<event>
12    5  0.5297412E-008  0.1288331E+04  0.7818608E-02  0.9038870E-01
         -2   -1    0    0    0  501 -0.00000000000E+00  0.00000000000E+00  0.43984949829E+03  0.43984949829E+03  0.00000000000E+00 0.  1.
          1   -1    0    0  501    0  0.00000000000E+00 -0.00000000000E+00 -0.94338927379E+03  0.94338927379E+03  0.00000000000E+00 0. -1.
        -24    2    1    2    0    0  0.18789520062E+02  0.13946931665E+03 -0.42426603304E+03  0.45407081133E+03  0.79836699296E+02 0.  0.
        254    2    1    2    0    0 -0.18789520062E+02 -0.13946931665E+03 -0.79273742458E+02  0.92916796076E+03  0.91502133128E+03 0.  0.
         23    2    4    4    0    0 -0.26075357362E+03  0.30601222695E+03 -0.29545907763E+02  0.41177270985E+03  0.83951740397E+02 0.  0.
         23    2    4    4    0    0  0.24196405356E+03 -0.44548154360E+03 -0.49727834694E+02  0.51739525090E+03  0.90689465841E+02 0.  0.
          3    1    3    3  502    0 -0.97105749204E+00  0.13285380870E+03 -0.30045435376E+03  0.32851772575E+03  0.00000000000E+00 0. -1.
         -4    1    3    3    0  502  0.19760577554E+02  0.66155079449E+01 -0.12381167928E+03  0.12555308558E+03  0.00000000000E+00 0.  1.
         13    1    5    5    0    0  0.41416223681E+01  0.17590729855E+01 -0.62361514437E+01  0.76900558149E+01  0.00000000000E+00 0. -1.
        -13    1    5    5    0    0 -0.26489519598E+03  0.30425315397E+03 -0.23309756320E+02  0.40408265404E+03  0.00000000000E+00 0.  1.
          2    1    6    6  503    0  0.12493426602E+03 -0.26181107407E+03 -0.70754534638E+02  0.29859640571E+03  0.00000000000E+00 0. -1.
         -2    1    6    6    0  503  0.11702978753E+03 -0.18367046953E+03  0.21026699944E+02  0.21879884519E+03  0.00000000000E+00 0.  1.
<mgrwt>
<rscale>  0 0.12883312E+04</rscale>
<asrwt>0</asrwt>
<pdfrwt beam="1">  1        1 0.14513681E+00 0.12883312E+04</pdfrwt>
<pdfrwt beam="2">  1       -2 0.67669154E-01 0.12883312E+04</pdfrwt>
<totfact> 0.28946290E+01</totfact>
</mgrwt>
</event>
<event>
12    5  0.5297412E-008  0.2301534E+04  0.7818608E-02  0.8477317E-01
         -2   -1    0    0    0  501 -0.00000000000E+00  0.00000000000E+00  0.25464634057E+04  0.25464634057E+04  0.00000000000E+00 0.  1.
          1   -1    0    0  501    0  0.00000000000E+00 -0.00000000000E+00 -0.52004062760E+03  0.52004062760E+03  0.00000000000E+00 0. -1.
        -24    2    1    2    0    0  0.32457607276E+03 -0.82582147326E+01  0.20809589413E+04  0.21076869042E+04  0.80846430746E+02 0.  0.
        254    2    1    2    0    0 -0.32457607276E+03  0.82582147326E+01 -0.54536163253E+02  0.95881712911E+03  0.90052110961E+03 0.  0.
         23    2    4    4    0    0 -0.14072128215E+03  0.38454115077E+03  0.19491524429E+03  0.46279275663E+03  0.92254036489E+02 0.  0.
         23    2    4    4    0    0 -0.18385479061E+03 -0.37628293603E+03 -0.24945140755E+03  0.49602437248E+03  0.91775494494E+02 0.  0.
          3    1    3    3  502    0  0.16044967038E+03 -0.22528274562E+02  0.80562532424E+03  0.82175652291E+03  0.00000000000E+00 0. -1.
         -4    1    3    3    0  502  0.16412640238E+03  0.14270059829E+02  0.12753336171E+04  0.12859303812E+04  0.00000000000E+00 0.  1.
         13    1    5    5    0    0 -0.18587648511E+02  0.14043490472E+03  0.10160050255E+03  0.17432763768E+03  0.00000000000E+00 0. -1.
        -13    1    5    5    0    0 -0.12213363363E+03  0.24410624604E+03  0.93314741747E+02  0.28846511895E+03  0.00000000000E+00 0.  1.
          1    1    6    6  503    0 -0.93330254684E+02 -0.11535828638E+03 -0.12084291910E+03  0.19136635486E+03  0.00000000000E+00 0. -1.
         -1    1    6    6    0  503 -0.90524535928E+02 -0.26092464965E+03 -0.12860848844E+03  0.30465801762E+03  0.00000000000E+00 0.  1.
<mgrwt>
<rscale>  0 0.23015338E+04</rscale>
<asrwt>0</asrwt>
<pdfrwt beam="1">  1        1 0.80006252E-01 0.23015338E+04</pdfrwt>
<pdfrwt beam="2">  1       -2 0.39176359E+00 0.23015338E+04</pdfrwt>
<totfact> 0.27939849E-01</totfact>
</mgrwt>
</event>
<event>
12    5  0.5297412E-008  0.1436453E+04  0.7818608E-02  0.8927847E-01
          1   -1    0    0  501    0  0.00000000000E+00  0.00000000000E+00  0.16513171345E+04  0.16513171345E+04  0.00000000000E+00 0. -1.
         -2   -1    0    0    0  501 -0.00000000000E+00 -0.00000000000E+00 -0.31238640209E+03  0.31238640209E+03  0.00000000000E+00 0.  1.
        -24    2    1    2    0    0 -0.16389744193E+03 -0.42480407018E+03  0.52235531507E+03  0.69734992947E+03  0.78236688572E+02 0.  0.
        254    2    1    2    0    0  0.16389744193E+03  0.42480407018E+03  0.81657541730E+03  0.12663536071E+04  0.85412831386E+03 0.  0.
         23    2    4    4    0    0  0.48639961741E+03  0.11219127357E+03  0.38470174507E+03  0.63669998136E+03  0.90664016674E+02 0.  0.
         23    2    4    4    0    0 -0.32250217548E+03  0.31261279661E+03  0.43187367223E+03  0.62965362573E+03  0.90633359375E+02 0.  0.
          3    1    3    3  502    0 -0.72251174937E+02 -0.28722847786E+03  0.35086826810E+03  0.45916116161E+03  0.00000000000E+00 0. -1.
         -4    1    3    3    0  502 -0.91646266990E+02 -0.13757559232E+03  0.17148704697E+03  0.23818876786E+03  0.00000000000E+00 0.  1.
         13    1    5    5    0    0  0.94681550417E+02  0.55036175109E+02  0.61145694384E+02  0.12542875468E+03  0.00000000000E+00 0. -1.
        -13    1    5    5    0    0  0.39171806699E+03  0.57155098464E+02  0.32355605068E+03  0.51127122667E+03  0.00000000000E+00 0.  1.
          3    1    6    6  503    0 -0.11261846386E+03  0.15745920970E+03  0.14541189013E+03  0.24211761381E+03  0.00000000000E+00 0. -1.
         -3    1    6    6    0  503 -0.20988371162E+03  0.15515358690E+03  0.28646178210E+03  0.38753601192E+03  0.00000000000E+00 0.  1.
<mgrwt>
<rscale>  0 0.14364526E+04</rscale>
<asrwt>0</asrwt>
<pdfrwt beam="1">  1        1 0.25404878E+00 0.14364526E+04</pdfrwt>
<pdfrwt beam="2">  1       -2 0.48059447E-01 0.14364526E+04</pdfrwt>
<totfact> 0.18011254E+01</totfact>
</mgrwt>
</event>
<event>
12    5  0.5297412E-008  0.2013598E+04  0.7818608E-02  0.8600290E-01
         -2   -1    0    0    0  501 -0.00000000000E+00  0.00000000000E+00  0.31733034842E+03  0.31733034842E+03  0.00000000000E+00 0.  1.
          1   -1    0    0  501    0  0.00000000000E+00 -0.00000000000E+00 -0.31942859612E+04  0.31942859612E+04  0.00000000000E+00 0. -1.
        -24    2    1    2    0    0  0.53667020167E+03 -0.47465166512E+03 -0.52794311137E+03  0.89351263179E+03  0.79572518854E+02 0.  0.
        254    2    1    2    0    0 -0.53667020167E+03  0.47465166512E+03 -0.23490125014E+04  0.26181036778E+04  0.90735771751E+03 0.  0.
         23    2    4    4    0    0 -0.42421746455E+03  0.42363127212E+02 -0.19909680377E+04  0.20383114488E+04  0.94893325457E+02 0.  0.
         23    2    4    4    0    0 -0.11245273712E+03  0.43228853791E+03 -0.35804446365E+03  0.57979222902E+03  0.91892289030E+02 0.  0.
          3    1    3    3  502    0  0.59802424828E+02 -0.84769655453E+02 -0.58901435845E+02  0.11929628513E+03  0.00000000000E+00 0. -1.
         -4    1    3    3    0  502  0.47686777684E+03 -0.38988200967E+03 -0.46904167552E+03  0.77421634666E+03  0.00000000000E+00 0.  1.
         13    1    5    5    0    0 -0.42981952550E+02  0.11084948555E+01 -0.99946751447E+02  0.10880271196E+03  0.00000000000E+00 0.  1.
        -13    1    5    5    0    0 -0.38123551200E+03  0.41254632357E+02 -0.18910212863E+04  0.19295087368E+04  0.00000000000E+00 0. -1.
          1    1    6    6  503    0 -0.73987950763E+02  0.11720488484E+03 -0.10793945984E+03  0.17567620465E+03  0.00000000000E+00 0. -1.
         -1    1    6    6    0  503 -0.38464786353E+02  0.31508365307E+03 -0.25010500381E+03  0.40411602437E+03  0.00000000000E+00 0.  1.
<mgrwt>
<rscale>  0 0.20135977E+04</rscale>
<asrwt>0</asrwt>
<pdfrwt beam="1">  1        1 0.49142861E+00 0.20135977E+04</pdfrwt>
<pdfrwt beam="2">  1       -2 0.48820054E-01 0.20135977E+04</pdfrwt>
<totfact> 0.13921708E+00</totfact>
</mgrwt>
</event>
<event>
12    5  0.5297412E-008  0.1406223E+04  0.7818608E-02  0.8949326E-01
          1   -1    0    0  501    0  0.00000000000E+00  0.00000000000E+00  0.38545826566E+03  0.38545826566E+03  0.00000000000E+00 0. -1.
         -2   -1    0    0    0  501 -0.00000000000E+00 -0.00000000000E+00 -0.12825410091E+04  0.12825410091E+04  0.00000000000E+00 0.  1.
        -24    2    1    2    0    0  0.35933061794E+02 -0.33947815627E+03 -0.16465651133E+01  0.35053150536E+03  0.79580283727E+02 0.  0.
        254    2    1    2    0    0 -0.35933061794E+02  0.33947815627E+03 -0.89543617835E+03  0.13174677694E+04  0.90409002343E+03 0.  0.
         23    2    4    4    0    0  0.25024887916E+03 -0.10556500297E+01 -0.81390362844E+03  0.85643591653E+03  0.91748279629E+02 0.  0.
         23    2    4    4    0    0 -0.28618194095E+03  0.34053380630E+03 -0.81532549910E+02  0.46103185290E+03  0.89662902777E+02 0.  0.
          3    1    3    3  502    0  0.45497712726E+02 -0.24335158022E+03  0.28819249442E+02  0.24924001002E+03  0.00000000000E+00 0. -1.
         -4    1    3    3    0  502 -0.95646509313E+01 -0.96126576058E+02 -0.30465814555E+02  0.10129149534E+03  0.00000000000E+00 0.  1.
         13    1    5    5    0    0  0.21411258939E+03 -0.30410931947E+02 -0.60745559278E+03  0.64480332111E+03  0.00000000000E+00 0. -1.
        -13    1    5    5    0    0  0.36136289766E+02  0.29355281917E+02 -0.20644803566E+03  0.21163259542E+03  0.00000000000E+00 0.  1.
          1    1    6    6  503    0 -0.27542325770E+03  0.28347408355E+03 -0.77963746907E+02  0.40285713691E+03  0.00000000000E+00 0. -1.
         -1    1    6    6    0  503 -0.10758683251E+02  0.57059722758E+02 -0.35688030036E+01  0.58174715997E+02  0.00000000000E+00 0.  1.
<mgrwt>
<rscale>  0 0.14062234E+04</rscale>
<asrwt>0</asrwt>
<pdfrwt beam="1">  1        1 0.59301271E-01 0.14062234E+04</pdfrwt>
<pdfrwt beam="2">  1       -2 0.19731400E+00 0.14062234E+04</pdfrwt>
<totfact> 0.74288251E+00</totfact>
</mgrwt>
</event>
<event>
12    5  0.5297412E-008  0.1715431E+04  0.7818608E-02  0.8752612E-01
          1   -1    0    0  501    0  0.00000000000E+00  0.00000000000E+00  0.63233811322E+03  0.63233811322E+03  0.00000000000E+00 0. -1.
         -2   -1    0    0    0  501 -0.00000000000E+00 -0.00000000000E+00 -0.11634211341E+04  0.11634211341E+04  0.00000000000E+00 0.  1.
        -24    2    1    2    0    0  0.25335658316E+02 -0.43169260348E+03  0.26870274581E+03  0.51509560083E+03  0.78242654008E+02 0.  0.
        254    2    1    2    0    0 -0.25335658316E+02  0.43169260348E+03 -0.79978576672E+03  0.12806636465E+04  0.90191003064E+03 0.  0.
         23    2    4    4    0    0 -0.43192056594E+03  0.87199991601E+02 -0.27604809580E+03  0.52809688892E+03  0.92328538741E+02 0.  0.
         23    2    4    4    0    0  0.40658490763E+03  0.34449261188E+03 -0.52373767092E+03  0.75256675760E+03  0.89828336054E+02 0.  0.
          1    1    3    3  502    0  0.29644036269E+02 -0.39888349322E+03  0.26896254834E+03  0.48200379922E+03  0.00000000000E+00 0. -1.
         -2    1    3    3    0  502 -0.43083779532E+01 -0.32809110258E+02 -0.25980252996E+00  0.33091801611E+02  0.00000000000E+00 0.  1.
         13    1    5    5    0    0 -0.15012004762E+02 -0.69794752355E+01  0.40975513440E+01  0.17054714555E+02  0.00000000000E+00 0.  1.
        -13    1    5    5    0    0 -0.41690856118E+03  0.94179466837E+02 -0.28014564715E+03  0.51104217436E+03  0.00000000000E+00 0. -1.
          4    1    6    6  503    0  0.11184615589E+03  0.46023587395E+02 -0.11880905738E+03  0.16953856582E+03  0.00000000000E+00 0. -1.
         -4    1    6    6    0  503  0.29473875174E+03  0.29846902449E+03 -0.40492861354E+03  0.58302819179E+03  0.00000000000E+00 0.  1.
<mgrwt>
<rscale>  0 0.17154306E+04</rscale>
<asrwt>0</asrwt>
<pdfrwt beam="1">  1        1 0.97282786E-01 0.17154306E+04</pdfrwt>
<pdfrwt beam="2">  1       -2 0.17898787E+00 0.17154306E+04</pdfrwt>
<totfact> 0.48596297E+00</totfact>
</mgrwt>
</event>
<event>
12    5  0.5297412E-008  0.3123134E+04  0.7818608E-02  0.8209417E-01
         -2   -1    0    0    0  501 -0.00000000000E+00  0.00000000000E+00  0.10851769638E+04  0.10851769638E+04  0.00000000000E+00 0.  1.
          1   -1    0    0  501    0  0.00000000000E+00 -0.00000000000E+00 -0.22470914493E+04  0.22470914493E+04  0.00000000000E+00 0. -1.
        -24    2    1    2    0    0 -0.11035485968E+04 -0.56235920093E+03 -0.12896545232E+04  0.17898884097E+04  0.80152066823E+02 0.  0.
        254    2    1    2    0    0  0.11035485968E+04  0.56235920093E+03  0.12774003772E+03  0.15423800034E+04  0.91024786809E+03 0.  0.
         23    2    4    4    0    0  0.28810073864E+03  0.62196725128E+03 -0.73386654111E+02  0.69540022062E+03  0.91381445423E+02 0.  0.
         23    2    4    4    0    0  0.81544785812E+03 -0.59608050358E+02  0.20112669183E+03  0.84697978277E+03  0.91730459925E+02 0.  0.
          3    1    3    3  502    0 -0.10901833828E+04 -0.54392290003E+03 -0.12681900593E+04  0.17585954497E+04  0.00000000000E+00 0. -1.
         -4    1    3    3    0  502 -0.13365213927E+02 -0.18436300898E+02 -0.21464463951E+02  0.31292960020E+02  0.00000000000E+00 0.  1.
         13    1    5    5    0    0  0.21946457661E+03  0.54514618585E+03 -0.74574139239E+02  0.59237687883E+03  0.00000000000E+00 0.  1.
        -13    1    5    5    0    0  0.68636162030E+02  0.76821065431E+02  0.11874851270E+01  0.10302334179E+03  0.00000000000E+00 0. -1.
          1    1    6    6  503    0  0.11009105628E+03 -0.20738286937E+02  0.58184256530E+02  0.12623598902E+03  0.00000000000E+00 0. -1.
         -1    1    6    6    0  503  0.70535680184E+03 -0.38869763420E+02  0.14294243530E+03  0.72074379374E+03  0.00000000000E+00 0.  1.
<mgrwt>
<rscale>  0 0.31231342E+04</rscale>
<asrwt>0</asrwt>
<pdfrwt beam="1">  1        1 0.34570638E+00 0.31231342E+04</pdfrwt>
<pdfrwt beam="2">  1       -2 0.16695030E+00 0.31231342E+04</pdfrwt>
<totfact> 0.33581456E-01</totfact>
</mgrwt>
</event>
<event>
12    5  0.5297412E-008  0.1363998E+04  0.7818608E-02  0.8980299E-01
         -2   -1    0    0    0  501 -0.00000000000E+00  0.00000000000E+00  0.36617731854E+03  0.36617731854E+03  0.00000000000E+00 0.  1.
          1   -1    0    0  501    0  0.00000000000E+00 -0.00000000000E+00 -0.12702122972E+04  0.12702122972E+04  0.00000000000E+00 0. -1.
        -24    2    1    2    0    0  0.16830599594E+03  0.11378877768E+03 -0.63298148289E+03  0.66956463700E+03  0.79852684644E+02 0.  0.
        254    2    1    2    0    0 -0.16830599594E+03 -0.11378877768E+03 -0.27105349575E+03  0.96682497873E+03  0.90554168747E+03 0.  0.
         23    2    4    4    0    0 -0.28013291516E+03  0.13037308182E+03  0.22708155691E+03  0.39369040564E+03  0.89188067489E+02 0.  0.
         23    2    4    4    0    0  0.11182691922E+03 -0.24416185950E+03 -0.49813505267E+03  0.57313457309E+03  0.90688668946E+02 0.  0.
          1    1    3    3  502    0  0.13876722765E+03  0.97783945462E+02 -0.59552882779E+03  0.61925166789E+03  0.00000000000E+00 0. -1.
         -2    1    3    3    0  502  0.29538768286E+02  0.16004832215E+02 -0.37452655095E+02  0.50312969101E+02  0.00000000000E+00 0.  1.
         13    1    5    5    0    0  0.47965950956E-01  0.22659751473E+00  0.23965836579E+02  0.23966955795E+02  0.00000000000E+00 0. -1.
        -13    1    5    5    0    0 -0.28018088111E+03  0.13014648431E+03  0.20311572034E+03  0.36972344984E+03  0.00000000000E+00 0.  1.
          1    1    6    6  503    0 -0.74202272349E+01 -0.77314217527E+02 -0.15538657638E+03  0.17371682741E+03  0.00000000000E+00 0. -1.
         -1    1    6    6    0  503  0.11924714646E+03 -0.16684764197E+03 -0.34274847629E+03  0.39941774568E+03  0.00000000000E+00 0.  1.
<mgrwt>
<rscale>  0 0.13639984E+04</rscale>
<asrwt>0</asrwt>
<pdfrwt beam="1">  1        1 0.19541727E+00 0.13639984E+04</pdfrwt>
<pdfrwt beam="2">  1       -2 0.56334973E-01 0.13639984E+04</pdfrwt>
<totfact> 0.24099266E+01</totfact>
</mgrwt>
</event>
<event>
12    5  0.5297412E-008  0.1556494E+04  0.7818608E-02  0.8847730E-01
          1   -1    0    0  501    0  0.00000000000E+00  0.00000000000E+00  0.12945126585E+04  0.12945126585E+04  0.00000000000E+00 0. -1.
         -2   -1    0    0    0  501 -0.00000000000E+00 -0.00000000000E+00 -0.46787370881E+03  0.46787370881E+03  0.00000000000E+00 0.  1.
        -24    2    1    2    0    0  0.14147719699E+03 -0.30856857328E+03  0.67577220670E+03  0.76018634509E+03  0.77361762075E+02 0.  0.
        254    2    1    2    0    0 -0.14147719699E+03  0.30856857328E+03  0.15086674299E+03  0.10022000222E+04  0.93081348761E+03 0.  0.
         23    2    4    4    0    0 -0.21566474564E+03 -0.19571870936E+03 -0.21060099027E+03  0.37073819036E+03  0.90977651007E+02 0.  0.
         23    2    4    4    0    0  0.74187548656E+02  0.50428728264E+03  0.36146773325E+03  0.63146183186E+03  0.90970693614E+02 0.  0.
          3    1    3    3  502    0  0.84033556964E+02 -0.24370908130E+03  0.55052370181E+03  0.60789152097E+03  0.00000000000E+00 0. -1.
         -4    1    3    3    0  502  0.57443640023E+02 -0.64859491979E+02  0.12524850489E+03  0.15229482413E+03  0.00000000000E+00 0.  1.
         13    1    5    5    0    0 -0.58758563342E+02 -0.42701819426E+02 -0.10443750874E+03  0.12721323587E+03  0.00000000000E+00 0. -1.
        -13    1    5    5    0    0 -0.15690618230E+03 -0.15301688994E+03 -0.10616348152E+03  0.24352495449E+03  0.00000000000E+00 0.  1.
          2    1    6    6  503    0  0.21277482089E+02  0.10902297913E+03  0.12751623515E+03  0.16911277731E+03  0.00000000000E+00 0. -1.
         -2    1    6    6    0  503  0.52910066568E+02  0.39526430351E+03  0.23395149810E+03  0.46234905455E+03  0.00000000000E+00 0.  1.
<mgrwt>
<rscale>  0 0.15564941E+04</rscale>
<asrwt>0</asrwt>
<pdfrwt beam="1">  1        1 0.19915579E+00 0.15564941E+04</pdfrwt>
<pdfrwt beam="2">  1       -2 0.71980571E-01 0.15564941E+04</pdfrwt>
<totfact> 0.13482013E+01</totfact>
</mgrwt>
</event>
<event>
12    5  0.5297412E-008  0.3843766E+04  0.7818608E-02  0.8036828E-01
          1   -1    0    0  501    0  0.00000000000E+00  0.00000000000E+00  0.14639996750E+04  0.14639996750E+04  0.00000000000E+00 0. -1.
         -2   -1    0    0    0  501 -0.00000000000E+00 -0.00000000000E+00 -0.25229745555E+04  0.25229745555E+04  0.00000000000E+00 0.  1.
        -24    2    1    2    0    0 -0.74694373801E+03  0.16366230657E+04 -0.26075863990E+03  0.18197975572E+04  0.84900376408E+02 0.  0.
        254    2    1    2    0    0  0.74694373801E+03 -0.16366230657E+04 -0.79821624065E+03  0.21671766732E+04  0.90721858400E+03 0.  0.
         23    2    4    4    0    0  0.37946680323E+02 -0.88925442795E+03 -0.68628402757E+03  0.11274927823E+04  0.89670616981E+02 0.  0.
         23    2    4    4    0    0  0.70899705768E+03 -0.74736863780E+03 -0.11193221309E+03  0.10396838909E+04  0.84717555033E+02 0.  0.
          3    1    3    3  502    0 -0.26415944324E+03  0.63011013171E+03 -0.63417757253E+02  0.68617840353E+03  0.00000000000E+00 0. -1.
         -4    1    3    3    0  502 -0.48278429477E+03  0.10065129340E+04 -0.19734088265E+03  0.11336191537E+04  0.00000000000E+00 0.  1.
         13    1    5    5    0    0  0.50673796364E+02 -0.76845012476E+03 -0.55947627509E+03  0.95189134373E+03  0.00000000000E+00 0.  1.
        -13    1    5    5    0    0 -0.12727116042E+02 -0.12080430319E+03 -0.12680775248E+03  0.17560143861E+03  0.00000000000E+00 0. -1.
          3    1    6    6  503    0  0.55871032739E+02 -0.29826129768E+02 -0.50102574780E+01  0.63531669239E+02  0.00000000000E+00 0. -1.
         -3    1    6    6    0  503  0.65312602494E+03 -0.71754250803E+03 -0.10692195561E+03  0.97615222167E+03  0.00000000000E+00 0.  1.
<mgrwt>
<rscale>  0 0.38437658E+04</rscale>
<asrwt>0</asrwt>
<pdfrwt beam="1">  1        1 0.22523072E+00 0.38437658E+04</pdfrwt>
<pdfrwt beam="2">  1       -2 0.38814993E+00 0.38437658E+04</pdfrwt>
<totfact> 0.42747687E-02</totfact>
</mgrwt>
</event>
<event>
12    5  0.5297412E-008  0.1196588E+04  0.7818608E-02  0.9115849E-01
         -2   -1    0    0    0  501 -0.00000000000E+00  0.00000000000E+00  0.83600956317E+03  0.83600956317E+03  0.00000000000E+00 0.  1.
          1   -1    0    0  501    0  0.00000000000E+00 -0.00000000000E+00 -0.42817152948E+03  0.42817152948E+03  0.00000000000E+00 0. -1.
        -24    2    1    2    0    0 -0.19470575173E+03 -0.79226282036E+02 -0.47761616446E+02  0.23049804163E+03  0.81615204882E+02 0.  0.
        254    2    1    2    0    0  0.19470575173E+03  0.79226282036E+02  0.45559965014E+03  0.10336830510E+04  0.90373805677E+03 0.  0.
         23    2    4    4    0    0  0.44104492912E+03  0.27013026820E+03  0.70706046929E+02  0.52986980113E+03  0.90948720581E+02 0.  0.
         23    2    4    4    0    0 -0.24633917740E+03 -0.19090398616E+03  0.38489360321E+03  0.50381324989E+03  0.92506122641E+02 0.  0.
          3    1    3    3  502    0 -0.17992814858E+03 -0.95307007500E+02 -0.44482379473E+02  0.20841364258E+03  0.00000000000E+00 0. -1.
         -4    1    3    3    0  502 -0.14777603153E+02  0.16080725464E+02 -0.32792369729E+01  0.22084399052E+02  0.00000000000E+00 0.  1.
         13    1    5    5    0    0  0.23849107199E+02  0.43869803127E+02  0.14223100871E+02  0.51919515974E+02  0.00000000000E+00 0. -1.
        -13    1    5    5    0    0  0.41719582193E+03  0.22626046507E+03  0.56482946058E+02  0.47795028516E+03  0.00000000000E+00 0.  1.
          1    1    6    6  503    0 -0.37977681711E+01  0.96379493843E+01  0.11282187144E+02  0.15316685613E+02  0.00000000000E+00 0. -1.
         -1    1    6    6    0  503 -0.24254140922E+03 -0.20054193554E+03  0.37361141607E+03  0.48849656428E+03  0.00000000000E+00 0.  1.
<mgrwt>
<rscale>  0 0.11965876E+04</rscale>
<asrwt>0</asrwt>
<pdfrwt beam="1">  1        1 0.65872543E-01 0.11965876E+04</pdfrwt>
<pdfrwt beam="2">  1       -2 0.12861686E+00 0.11965876E+04</pdfrwt>
<totfact> 0.21129259E+01</totfact>
</mgrwt>
</event>
<event>
12    5  0.5297412E-008  0.1429712E+04  0.7818608E-02  0.8932588E-01
         -2   -1    0    0    0  501 -0.00000000000E+00  0.00000000000E+00  0.89630845873E+03  0.89630845873E+03  0.00000000000E+00 0.  1.
          1   -1    0    0  501    0  0.00000000000E+00 -0.00000000000E+00 -0.57013714983E+03  0.57013714983E+03  0.00000000000E+00 0. -1.
        -24    2    1    2    0    0 -0.25273962259E+03 -0.65300640677E+02  0.45900551244E+03  0.53405115138E+03  0.79894188407E+02 0.  0.
        254    2    1    2    0    0  0.25273962259E+03  0.65300640677E+02 -0.13283420354E+03  0.93239445717E+03  0.88519659265E+03 0.  0.
         23    2    4    4    0    0  0.47164114612E+03  0.28840292410E+03 -0.20901849781E+03  0.59806949125E+03  0.91524677525E+02 0.  0.
         23    2    4    4    0    0 -0.21890152354E+03 -0.22310228342E+03  0.76184294266E+02  0.33432496592E+03  0.90975987335E+02 0.  0.
          1    1    3    3  502    0 -0.56916929552E+02  0.11799189457E+02  0.14318355881E+03  0.15453248608E+03  0.00000000000E+00 0. -1.
         -2    1    3    3    0  502 -0.19582269303E+03 -0.77099830134E+02  0.31582195363E+03  0.37951866530E+03  0.00000000000E+00 0.  1.
         13    1    5    5    0    0  0.31722736404E+03  0.22421473817E+03 -0.18081126645E+03  0.42848356256E+03  0.00000000000E+00 0. -1.
        -13    1    5    5    0    0  0.15441378208E+03  0.64188185924E+02 -0.28207231362E+02  0.16958592869E+03  0.00000000000E+00 0.  1.
          3    1    6    6  503    0 -0.19913660015E+03 -0.23005641164E+03  0.74774277588E+02  0.31332496013E+03  0.00000000000E+00 0. -1.
         -3    1    6    6    0  503 -0.19764923392E+02  0.69541282213E+01  0.14100166776E+01  0.21000005787E+02  0.00000000000E+00 0.  1.
<mgrwt>
<rscale>  0 0.14297115E+04</rscale>
<asrwt>0</asrwt>
<pdfrwt beam="1">  1        1 0.87713408E-01 0.14297115E+04</pdfrwt>
<pdfrwt beam="2">  1       -2 0.13789361E+00 0.14297115E+04</pdfrwt>
<totfact> 0.11712385E+01</totfact>
</mgrwt>
</event>
<event>
12    5  0.5297412E-008  0.1400410E+04  0.7818608E-02  0.8953522E-01
         -4   -1    0    0    0  501 -0.00000000000E+00  0.00000000000E+00  0.54086178264E+03  0.54086178264E+03  0.00000000000E+00 0.  1.
          3   -1    0    0  501    0  0.00000000000E+00 -0.00000000000E+00 -0.90649185487E+03  0.90649185487E+03  0.00000000000E+00 0. -1.
        -24    2    1    2    0    0  0.39361323800E+02 -0.38955148456E+03 -0.37366808376E+00  0.39958553589E+03  0.79804686128E+02 0.  0.
        254    2    1    2    0    0 -0.39361323800E+02  0.38955148456E+03 -0.36525640415E+03  0.10477681016E+04  0.90061427985E+03 0.  0.
         23    2    4    4    0    0  0.35957125836E+03  0.42754291091E+03 -0.23615631901E+03  0.61510720234E+03  0.10248235387E+03 0.  0.
         23    2    4    4    0    0 -0.39893258216E+03 -0.37991426345E+02 -0.12910008514E+03  0.43266089928E+03  0.99689860082E+02 0.  0.
          1    1    3    3  502    0  0.36327987271E+02 -0.14185916137E+03 -0.31915873695E+02  0.14987450523E+03  0.00000000000E+00 0. -1.
         -2    1    3    3    0  502  0.30333365291E+01 -0.24769232319E+03  0.31542205611E+02  0.24971103066E+03  0.00000000000E+00 0.  1.
         13    1    5    5    0    0  0.18186052765E+03  0.13903187929E+03 -0.10323094474E+03  0.25111699052E+03  0.00000000000E+00 0.  1.
        -13    1    5    5    0    0  0.17771073071E+03  0.28851103162E+03 -0.13292537427E+03  0.36399021182E+03  0.00000000000E+00 0. -1.
          3    1    6    6  503    0 -0.29635828015E+03 -0.72446080249E+01 -0.52645295781E+02  0.30108510711E+03  0.00000000000E+00 0. -1.
         -3    1    6    6    0  503 -0.10257430201E+03 -0.30746818320E+02 -0.76454789357E+02  0.13157579217E+03  0.00000000000E+00 0.  1.
<mgrwt>
<rscale>  0 0.14004097E+04</rscale>
<asrwt>0</asrwt>
<pdfrwt beam="1">  1        3 0.13946029E+00 0.14004097E+04</pdfrwt>
<pdfrwt beam="2">  1       -4 0.83209505E-01 0.14004097E+04</pdfrwt>
<totfact> 0.11027108E+00</totfact>
</mgrwt>
</event>
<event>
12    5  0.5297412E-008  0.1458916E+04  0.7818608E-02  0.8912242E-01
         -2   -1    0    0    0  501 -0.00000000000E+00  0.00000000000E+00  0.23616903785E+03  0.23616903785E+03  0.00000000000E+00 0.  1.
          1   -1    0    0  501    0  0.00000000000E+00 -0.00000000000E+00 -0.22530860375E+04  0.22530860375E+04  0.00000000000E+00 0. -1.
        -24    2    1    2    0    0  0.21312013189E+02  0.44302016863E+03 -0.55239314615E+03  0.71297082993E+03  0.80424776608E+02 0.  0.
        254    2    1    2    0    0 -0.21312013189E+02 -0.44302016863E+03 -0.14645238535E+04  0.17762842454E+04  0.90201692410E+03 0.  0.
         23    2    4    4    0    0  0.36360846412E+03 -0.43276668768E+02 -0.29917395293E+03  0.48186807318E+03  0.92778233405E+02 0.  0.
         23    2    4    4    0    0 -0.38492047731E+03 -0.39974349987E+03 -0.11653499006E+04  0.12944161723E+04  0.97540743741E+02 0.  0.
          3    1    3    3  502    0  0.24375161048E+02  0.23216726595E+03 -0.34982621812E+03  0.42056411014E+03  0.00000000000E+00 0. -1.
         -4    1    3    3    0  502 -0.30631478589E+01  0.21085290268E+03 -0.20256692803E+03  0.29240671979E+03  0.00000000000E+00 0.  1.
         13    1    5    5    0    0  0.34097813673E+03 -0.50254301693E+02 -0.24536574849E+03  0.42307911210E+03  0.00000000000E+00 0. -1.
        -13    1    5    5    0    0  0.22630327395E+02  0.69776329254E+01 -0.53808204438E+02  0.58788961073E+02  0.00000000000E+00 0.  1.
          1    1    6    6  503    0 -0.22727192427E+03 -0.16647268949E+03 -0.59929282118E+03  0.66220659120E+03  0.00000000000E+00 0. -1.
         -1    1    6    6    0  503 -0.15764855304E+03 -0.23327081037E+03 -0.56605707940E+03  0.63220958106E+03  0.00000000000E+00 0.  1.
<mgrwt>
<rscale>  0 0.14589163E+04</rscale>
<asrwt>0</asrwt>
<pdfrwt beam="1">  1        1 0.34662863E+00 0.14589163E+04</pdfrwt>
<pdfrwt beam="2">  1       -2 0.36333697E-01 0.14589163E+04</pdfrwt>
<totfact> 0.12195518E+01</totfact>
</mgrwt>
</event>
<event>
12    5  0.5297412E-008  0.1781805E+04  0.7818608E-02  0.8716035E-01
          1   -1    0    0  501    0  0.00000000000E+00  0.00000000000E+00  0.15866824802E+04  0.15866824802E+04  0.00000000000E+00 0. -1.
         -2   -1    0    0    0  501 -0.00000000000E+00 -0.00000000000E+00 -0.50023095200E+03  0.50023095200E+03  0.00000000000E+00 0.  1.
        -24    2    1    2    0    0 -0.34361882102E+03  0.28704921504E+03 -0.16484995611E+03  0.48358627182E+03  0.78797387293E+02 0.  0.
        254    2    1    2    0    0  0.34361882102E+03 -0.28704921504E+03  0.12513014843E+04  0.16033271604E+04  0.89690101604E+03 0.  0.
         23    2    4    4    0    0  0.18240208626E+03  0.47410200318E+02 -0.75623889527E+02  0.22249658072E+03  0.90925835718E+02 0.  0.
         23    2    4    4    0    0  0.16121673476E+03 -0.33445941536E+03  0.13269253739E+04  0.13808305797E+04  0.90045576785E+02 0.  0.
          1    1    3    3  502    0 -0.19261136350E+03  0.11406496191E+03 -0.64231210815E+02  0.23288538238E+03  0.00000000000E+00 0. -1.
         -2    1    3    3    0  502 -0.15100745752E+03  0.17298425314E+03 -0.10061874529E+03  0.25070088944E+03  0.00000000000E+00 0.  1.
         13    1    5    5    0    0  0.11205297970E+03  0.26504238914E+02 -0.91901237044E+02  0.14732339363E+03  0.00000000000E+00 0. -1.
        -13    1    5    5    0    0  0.70349106561E+02  0.20905961404E+02  0.16277347517E+02  0.75173187097E+02  0.00000000000E+00 0.  1.
          2    1    6    6  503    0  0.17255896101E+03 -0.30446286112E+03  0.12191475983E+04  0.12683828662E+04  0.00000000000E+00 0. -1.
         -2    1    6    6    0  503 -0.11342226251E+02 -0.29996554241E+02  0.10777777554E+03  0.11244771347E+03  0.00000000000E+00 0.  1.
<mgrwt>
<rscale>  0 0.17818055E+04</rscale>
<asrwt>0</asrwt>
<pdfrwt beam="1">  1        1 0.24410499E+00 0.17818055E+04</pdfrwt>
<pdfrwt beam="2">  1       -2 0.76958609E-01 0.17818055E+04</pdfrwt>
<totfact> 0.71272350E+00</totfact>
</mgrwt>
</event>
<event>
12    5  0.5297412E-008  0.1482293E+04  0.7818608E-02  0.8896314E-01
          3   -1    0    0  501    0  0.00000000000E+00  0.00000000000E+00  0.17599284454E+04  0.17599284454E+04  0.00000000000E+00 0. -1.
         -4   -1    0    0    0  501 -0.00000000000E+00 -0.00000000000E+00 -0.31211394224E+03  0.31211394224E+03  0.00000000000E+00 0.  1.
        -24    2    1    2    0    0  0.29530608177E+03 -0.35140641386E+03  0.30992272266E+03  0.56038974836E+03  0.85395704933E+02 0.  0.
        254    2    1    2    0    0 -0.29530608177E+03  0.35140641386E+03  0.11378917805E+04  0.15116526393E+04  0.88295178131E+03 0.  0.
         23    2    4    4    0    0 -0.30435631716E+03  0.59344141831E+03  0.10371298038E+04  0.12364208063E+04  0.91064237769E+02 0.  0.
         23    2    4    4    0    0  0.90502353914E+01 -0.24203500445E+03  0.10076197668E+03  0.27523183304E+03  0.83287068811E+02 0.  0.
          3    1    3    3  502    0  0.27933410945E+03 -0.35375301671E+03  0.29888260950E+03  0.54083228065E+03  0.00000000000E+00 0. -1.
         -4    1    3    3    0  502  0.15971972313E+02  0.23466028559E+01  0.11040113159E+02  0.19557467707E+02  0.00000000000E+00 0.  1.
         13    1    5    5    0    0 -0.28233546399E+03  0.58370156668E+03  0.10092084774E+04  0.11995509927E+04  0.00000000000E+00 0.  1.
        -13    1    5    5    0    0 -0.22020853171E+02  0.97398516244E+01  0.27921326432E+02  0.36869813585E+02  0.00000000000E+00 0. -1.
          1    1    6    6  503    0 -0.26393916773E+02 -0.30420048336E+02  0.26366612047E+02  0.48137474116E+02  0.00000000000E+00 0. -1.
         -1    1    6    6    0  503  0.35444152165E+02 -0.21161495612E+03  0.74395364634E+02  0.22709435892E+03  0.00000000000E+00 0.  1.
<mgrwt>
<rscale>  0 0.14822931E+04</rscale>
<asrwt>0</asrwt>
<pdfrwt beam="1">  1        3 0.27075822E+00 0.14822931E+04</pdfrwt>
<pdfrwt beam="2">  1       -4 0.48017530E-01 0.14822931E+04</pdfrwt>
<totfact> 0.52588584E-01</totfact>
</mgrwt>
</event>
<event>
12    5  0.5297412E-008  0.2668752E+04  0.7818608E-02  0.8345216E-01
          1   -1    0    0  501    0  0.00000000000E+00  0.00000000000E+00  0.95023344368E+03  0.95023344368E+03  0.00000000000E+00 0. -1.
         -2   -1    0    0    0  501 -0.00000000000E+00 -0.00000000000E+00 -0.18738124555E+04  0.18738124555E+04  0.00000000000E+00 0.  1.
        -24    2    1    2    0    0 -0.14814749984E+03  0.11088127205E+04 -0.43588605668E+03  0.12032452926E+04  0.79932777273E+02 0.  0.
        254    2    1    2    0    0  0.14814749984E+03 -0.11088127205E+04 -0.48769295510E+03  0.16208006065E+04  0.10666474847E+04 0.  0.
         23    2    4    4    0    0  0.22817259216E+03 -0.58713074677E+03  0.27129235169E+03  0.69191485107E+03  0.91440556799E+02 0.  0.
         23    2    4    4    0    0 -0.80025092317E+02 -0.52168197378E+03 -0.75898530679E+03  0.92888575544E+03  0.90630864327E+02 0.  0.
          1    1    3    3  502    0 -0.14798325755E+02  0.22119054163E+03 -0.11725593504E+03  0.25078516792E+03  0.00000000000E+00 0. -1.
         -2    1    3    3    0  502 -0.13334917409E+03  0.88762217892E+03 -0.31863012164E+03  0.95246012471E+03  0.00000000000E+00 0.  1.
         13    1    5    5    0    0  0.12339613495E+03 -0.35118119433E+03  0.20678382313E+03  0.42581027099E+03  0.00000000000E+00 0. -1.
        -13    1    5    5    0    0  0.10477645721E+03 -0.23594955244E+03  0.64508528560E+02  0.26610458008E+03  0.00000000000E+00 0.  1.
          1    1    6    6  503    0  0.17524706310E+02 -0.44674718754E+02 -0.55831007281E+02  0.73620969845E+02  0.00000000000E+00 0. -1.
         -1    1    6    6    0  503 -0.97549798627E+02 -0.47700725503E+03 -0.70315429951E+03  0.85526478559E+03  0.00000000000E+00 0.  1.
<mgrwt>
<rscale>  0 0.26687520E+04</rscale>
<asrwt>0</asrwt>
<pdfrwt beam="1">  1        1 0.14618976E+00 0.26687520E+04</pdfrwt>
<pdfrwt beam="2">  1       -2 0.28827883E+00 0.26687520E+04</pdfrwt>
<totfact> 0.47695776E-01</totfact>
</mgrwt>
</event>
<event>
12    5  0.5297412E-008  0.1823684E+04  0.7818608E-02  0.8693805E-01
         -2   -1    0    0    0  501 -0.00000000000E+00  0.00000000000E+00  0.24258305263E+03  0.24258305263E+03  0.00000000000E+00 0.  1.
          1   -1    0    0  501    0  0.00000000000E+00 -0.00000000000E+00 -0.34275087302E+04  0.34275087302E+04  0.00000000000E+00 0. -1.
        -24    2    1    2    0    0 -0.14888402713E+03  0.23486747689E+02  0.14042002697E+03  0.22122135502E+03  0.80641323736E+02 0.  0.
        254    2    1    2    0    0  0.14888402713E+03 -0.23486747689E+02 -0.33253457045E+04  0.34488704278E+04  0.90225555814E+03 0.  0.
         23    2    4    4    0    0 -0.92541283467E+02 -0.18723412889E+03 -0.29798691066E+04  0.29886165532E+04  0.92674165507E+02 0.  0.
         23    2    4    4    0    0  0.24142531059E+03  0.16374738120E+03 -0.34547659786E+03  0.46025387460E+03  0.85907880721E+02 0.  0.
          3    1    3    3  502    0 -0.10056754048E+02  0.25080761691E+02  0.53987600253E+01  0.27555934366E+02  0.00000000000E+00 0. -1.
         -4    1    3    3    0  502 -0.13882727308E+03 -0.15940140021E+01  0.13502126695E+03  0.19366542066E+03  0.00000000000E+00 0.  1.
         13    1    5    5    0    0 -0.20653046533E+01 -0.85949307351E+02 -0.15252796139E+04  0.15277007068E+04  0.00000000000E+00 0. -1.
        -13    1    5    5    0    0 -0.90475978814E+02 -0.10128482154E+03 -0.14545894927E+04  0.14609158464E+04  0.00000000000E+00 0.  1.
          1    1    6    6  503    0  0.27106123948E+01 -0.90271519641E+01 -0.10777086981E+02  0.14317209782E+02  0.00000000000E+00 0. -1.
         -1    1    6    6    0  503  0.23871469820E+03  0.17277453316E+03 -0.33469951088E+03  0.44593666482E+03  0.00000000000E+00 0.  1.
<mgrwt>
<rscale>  0 0.18236837E+04</rscale>
<asrwt>0</asrwt>
<pdfrwt beam="1">  1        1 0.52730906E+00 0.18236837E+04</pdfrwt>
<pdfrwt beam="2">  1       -2 0.37320468E-01 0.18236837E+04</pdfrwt>
<totfact> 0.16041341E+00</totfact>
</mgrwt>
</event>
<event>
12    5  0.5297412E-008  0.3094984E+04  0.7818608E-02  0.8217116E-01
         -2   -1    0    0    0  501 -0.00000000000E+00  0.00000000000E+00  0.28448778444E+04  0.28448778444E+04  0.00000000000E+00 0.  1.
          1   -1    0    0  501    0  0.00000000000E+00 -0.00000000000E+00 -0.84176978714E+03  0.84176978714E+03  0.00000000000E+00 0. -1.
        -24    2    1    2    0    0  0.14048587148E+04 -0.12892164794E+03  0.10496216087E+04  0.17602190302E+04  0.80104388011E+02 0.  0.
        254    2    1    2    0    0 -0.14048587148E+04  0.12892164794E+03  0.95348644856E+03  0.19264286013E+04  0.90096722932E+03 0.  0.
         23    2    4    4    0    0 -0.21805820527E+03 -0.32046455489E+03  0.28084006786E+03  0.48719686959E+03  0.90789504867E+02 0.  0.
         23    2    4    4    0    0 -0.11868005096E+04  0.44938620283E+03  0.67264638069E+03  0.14392317317E+04  0.92148875553E+02 0.  0.
          1    1    3    3  502    0  0.87003666833E+03 -0.64558531518E+02  0.69321814779E+03  0.11143083095E+04  0.00000000000E+00 0. -1.
         -2    1    3    3    0  502  0.53482204651E+03 -0.64363116419E+02  0.35640346089E+03  0.64591072071E+03  0.00000000000E+00 0.  1.
         13    1    5    5    0    0 -0.15173847309E+03 -0.19887096476E+03  0.12820596758E+03  0.28108894493E+03  0.00000000000E+00 0.  1.
        -13    1    5    5    0    0 -0.66319732181E+02 -0.12159359013E+03  0.15263410029E+03  0.20610792466E+03  0.00000000000E+00 0. -1.
          1    1    6    6  503    0 -0.58149306558E+03  0.17098049993E+03  0.31950814924E+03  0.68516711400E+03  0.00000000000E+00 0. -1.
         -1    1    6    6    0  503 -0.60530744399E+03  0.27840570290E+03  0.35313823145E+03  0.75406461770E+03  0.00000000000E+00 0.  1.
<mgrwt>
<rscale>  0 0.30949845E+04</rscale>
<asrwt>0</asrwt>
<pdfrwt beam="1">  1        1 0.12950305E+00 0.30949845E+04</pdfrwt>
<pdfrwt beam="2">  1       -2 0.43767351E+00 0.30949845E+04</pdfrwt>
<totfact> 0.63048671E-02</totfact>
</mgrwt>
</event>
<event>
12    5  0.5297412E-008  0.1455178E+04  0.7818608E-02  0.8914819E-01
          1   -1    0    0  501    0  0.00000000000E+00  0.00000000000E+00  0.41417183718E+03  0.41417183718E+03  0.00000000000E+00 0. -1.
         -2   -1    0    0    0  501 -0.00000000000E+00 -0.00000000000E+00 -0.12781790641E+04  0.12781790641E+04  0.00000000000E+00 0.  1.
        -24    2    1    2    0    0  0.51732435177E+02  0.32703934785E+03 -0.62139772903E+03  0.70858665300E+03  0.79554555260E+02 0.  0.
        254    2    1    2    0    0 -0.51732435177E+02 -0.32703934785E+03 -0.24260949787E+03  0.98376424827E+03  0.89403677096E+03 0.  0.
         23    2    4    4    0    0  0.40162147733E+03 -0.53663925190E+02 -0.12899984518E+03  0.43477702794E+03  0.90611677194E+02 0.  0.
         23    2    4    4    0    0 -0.45335391251E+03 -0.27337542266E+03 -0.11360965269E+03  0.54898722033E+03  0.90641729882E+02 0.  0.
          3    1    3    3  502    0  0.19284406446E+02  0.20073569608E+03 -0.29733351345E+03  0.35926859900E+03  0.00000000000E+00 0. -1.
         -4    1    3    3    0  502  0.32448028731E+02  0.12630365177E+03 -0.32406421559E+03  0.34931805399E+03  0.00000000000E+00 0.  1.
         13    1    5    5    0    0  0.35137605178E+03 -0.42605726161E+02 -0.14254652030E+03  0.38157553396E+03  0.00000000000E+00 0. -1.
        -13    1    5    5    0    0  0.50245425551E+02 -0.11058199029E+02  0.13546675121E+02  0.53201493977E+02  0.00000000000E+00 0.  1.
          2    1    6    6  503    0 -0.16540127555E+03 -0.12421250230E+03 -0.84316948640E+02  0.22337339929E+03  0.00000000000E+00 0. -1.
         -2    1    6    6    0  503 -0.28795263696E+03 -0.14916292037E+03 -0.29292704053E+02  0.32561382105E+03  0.00000000000E+00 0.  1.
<mgrwt>
<rscale>  0 0.14551780E+04</rscale>
<asrwt>0</asrwt>
<pdfrwt beam="1">  1        1 0.63718745E-01 0.14551780E+04</pdfrwt>
<pdfrwt beam="2">  1       -2 0.19664293E+00 0.14551780E+04</pdfrwt>
<totfact> 0.67944602E+00</totfact>
</mgrwt>
</event>
<event>
12    5  0.5297412E-008  0.2388841E+04  0.7818608E-02  0.8443693E-01
          1   -1    0    0  501    0  0.00000000000E+00  0.00000000000E+00  0.18044331263E+04  0.18044331263E+04  0.00000000000E+00 0. -1.
         -2   -1    0    0    0  501 -0.00000000000E+00 -0.00000000000E+00 -0.79063043200E+03  0.79063043200E+03  0.00000000000E+00 0.  1.
        -24    2    1    2    0    0 -0.11002343827E+03 -0.28077665594E+03 -0.62749853505E+03  0.69988614378E+03  0.71732247064E+02 0.  0.
        254    2    1    2    0    0  0.11002343827E+03  0.28077665594E+03  0.16413012294E+04  0.18951774145E+04  0.89826890157E+03 0.  0.
         23    2    4    4    0    0 -0.16475189372E+03 -0.26438246156E+03  0.66920088468E+03  0.74373831651E+03  0.90970252970E+02 0.  0.
         23    2    4    4    0    0  0.27477533199E+03  0.54515911750E+03  0.97210034468E+03  0.11514390980E+04  0.90182979745E+02 0.  0.
          3    1    3    3  502    0 -0.75228372336E+02 -0.14610755179E+03 -0.41007737800E+03  0.44178069293E+03  0.00000000000E+00 0. -1.
         -4    1    3    3    0  502 -0.34795065936E+02 -0.13466910414E+03 -0.21742115706E+03  0.25810545085E+03  0.00000000000E+00 0.  1.
         13    1    5    5    0    0 -0.23480494187E+02 -0.68815511946E+02  0.24688252337E+03  0.25736722525E+03  0.00000000000E+00 0. -1.
        -13    1    5    5    0    0 -0.14127139953E+03 -0.19556694962E+03  0.42231836131E+03  0.48637109125E+03  0.00000000000E+00 0.  1.
          1    1    6    6  503    0  0.13509128000E+03  0.30967381232E+03  0.46004220269E+03  0.57077697240E+03  0.00000000000E+00 0. -1.
         -1    1    6    6    0  503  0.13968405199E+03  0.23548530518E+03  0.51205814200E+03  0.58066212561E+03  0.00000000000E+00 0.  1.
<mgrwt>
<rscale>  0 0.23888405E+04</rscale>
<asrwt>0</asrwt>
<pdfrwt beam="1">  1        1 0.27760510E+00 0.23888405E+04</pdfrwt>
<pdfrwt beam="2">  1       -2 0.12163545E+00 0.23888405E+04</pdfrwt>
<totfact> 0.16366460E+00</totfact>
</mgrwt>
</event>
<event>
12    5  0.5297412E-008  0.2176687E+04  0.7818608E-02  0.8528194E-01
         -2   -1    0    0    0  501 -0.00000000000E+00  0.00000000000E+00  0.15342390408E+04  0.15342390408E+04  0.00000000000E+00 0.  1.
          1   -1    0    0  501    0  0.00000000000E+00 -0.00000000000E+00 -0.77203873202E+03  0.77203873202E+03  0.00000000000E+00 0. -1.
        -24    2    1    2    0    0  0.33761395325E+03  0.13239153261E+03 -0.56034754192E+03  0.67218075661E+03  0.79541828491E+02 0.  0.
        254    2    1    2    0    0 -0.33761395325E+03 -0.13239153261E+03  0.13225478507E+04  0.16340970162E+04  0.88861101819E+03 0.  0.
         23    2    4    4    0    0 -0.48766380757E+03 -0.20613663059E+03  0.13388283383E+04  0.14425455174E+04  0.90376714174E+02 0.  0.
         23    2    4    4    0    0  0.15004985431E+03  0.73745097985E+02 -0.16280487611E+02  0.19155149886E+03  0.92052290475E+02 0.  0.
          3    1    3    3  502    0  0.29244819678E+03  0.11345387195E+03 -0.42486120712E+03  0.52811435710E+03  0.00000000000E+00 0. -1.
         -4    1    3    3    0  502  0.45165756472E+02  0.18937660653E+02 -0.13548633480E+03  0.14406639951E+03  0.00000000000E+00 0.  1.
         13    1    5    5    0    0 -0.31349193446E+03 -0.93889504937E+02  0.88793463561E+03  0.94631936957E+03  0.00000000000E+00 0. -1.
        -13    1    5    5    0    0 -0.17417187311E+03 -0.11224712566E+03  0.45089370271E+03  0.49622614778E+03  0.00000000000E+00 0.  1.
          1    1    6    6  503    0  0.16289266071E+03  0.66121142650E+02 -0.13154206043E+02  0.17629253403E+03  0.00000000000E+00 0. -1.
         -1    1    6    6    0  503 -0.12842806398E+02  0.76239553342E+01 -0.31262815682E+01  0.15258964826E+02  0.00000000000E+00 0.  1.
<mgrwt>
<rscale>  0 0.21766874E+04</rscale>
<asrwt>0</asrwt>
<pdfrwt beam="1">  1        1 0.11877519E+00 0.21766874E+04</pdfrwt>
<pdfrwt beam="2">  1       -2 0.23603678E+00 0.21766874E+04</pdfrwt>
<totfact> 0.14682898E+00</totfact>
</mgrwt>
</event>
<event>
12    5  0.5297412E-008  0.1315585E+04  0.7818608E-02  0.9017297E-01
          1   -1    0    0  501    0  0.00000000000E+00  0.00000000000E+00  0.20469987597E+04  0.20469987597E+04  0.00000000000E+00 0. -1.
         -2   -1    0    0    0  501 -0.00000000000E+00 -0.00000000000E+00 -0.21137823821E+03  0.21137823821E+03  0.00000000000E+00 0.  1.
        -24    2    1    2    0    0 -0.24728886524E+03 -0.12395624034E+03  0.13727964425E+03  0.31881219294E+03  0.79237499043E+02 0.  0.
        254    2    1    2    0    0  0.24728886524E+03  0.12395624034E+03  0.16983408772E+04  0.19395648049E+04  0.89500444971E+03 0.  0.
         23    2    4    4    0    0 -0.30153950178E+03  0.14039756461E+03  0.40553778596E+03  0.53190698096E+03  0.88468035315E+02 0.  0.
         23    2    4    4    0    0  0.54882836702E+03 -0.16441324274E+02  0.12928030913E+04  0.14076578240E+04  0.93154833885E+02 0.  0.
          1    1    3    3  502    0 -0.16338190252E+02 -0.16772928847E+01  0.34112754008E+02  0.37860662411E+02  0.00000000000E+00 0. -1.
         -2    1    3    3    0  502 -0.23095067498E+03 -0.12227894745E+03  0.10316689025E+03  0.28095153053E+03  0.00000000000E+00 0.  1.
         13    1    5    5    0    0 -0.63481469848E+02  0.13732217675E+02  0.35439342608E+02  0.73989308828E+02  0.00000000000E+00 0.  1.
        -13    1    5    5    0    0 -0.23805803194E+03  0.12666534694E+03  0.37009844335E+03  0.45791767213E+03  0.00000000000E+00 0. -1.
          2    1    6    6  503    0  0.19466576145E+03  0.20108207669E+02  0.55370498200E+03  0.58727191810E+03  0.00000000000E+00 0. -1.
         -2    1    6    6    0  503  0.35416260558E+03 -0.36549531943E+02  0.73909810925E+03  0.82038590588E+03  0.00000000000E+00 0.  1.
<mgrwt>
<rscale>  0 0.13155850E+04</rscale>
<asrwt>0</asrwt>
<pdfrwt beam="1">  1        1 0.31492287E+00 0.13155850E+04</pdfrwt>
<pdfrwt beam="2">  1       -2 0.32519730E-01 0.13155850E+04</pdfrwt>
<totfact> 0.21050225E+01</totfact>
</mgrwt>
</event>
<event>
12    5  0.5297412E-008  0.1724106E+04  0.7818608E-02  0.8747734E-01
          1   -1    0    0  501    0  0.00000000000E+00  0.00000000000E+00  0.15618451584E+04  0.15618451584E+04  0.00000000000E+00 0. -1.
         -2   -1    0    0    0  501 -0.00000000000E+00 -0.00000000000E+00 -0.47580585597E+03  0.47580585597E+03  0.00000000000E+00 0.  1.
        -24    2    1    2    0    0  0.24048972964E+03 -0.35859413764E+03 -0.12210287017E+03  0.45555756587E+03  0.78730675781E+02 0.  0.
        254    2    1    2    0    0 -0.24048972964E+03  0.35859413764E+03  0.12081421726E+04  0.15820934485E+04  0.92573598014E+03 0.  0.
         23    2    4    4    0    0 -0.38231491700E+03  0.68321085472E+02  0.82541683327E+02  0.40748711120E+03  0.91652331235E+02 0.  0.
         23    2    4    4    0    0  0.14182518737E+03  0.29027305217E+03  0.11256004893E+04  0.11746063373E+04  0.91382479547E+02 0.  0.
          3    1    3    3  502    0  0.19432640766E+03 -0.28275375671E+03 -0.62811088666E+02  0.34879459931E+03  0.00000000000E+00 0. -1.
         -4    1    3    3    0  502  0.46163321978E+02 -0.75840380935E+02 -0.59291781504E+02  0.10676296657E+03  0.00000000000E+00 0.  1.
         13    1    5    5    0    0 -0.11605108317E+03  0.61328909509E+02  0.11164604013E+02  0.13173358505E+03  0.00000000000E+00 0. -1.
        -13    1    5    5    0    0 -0.26626383383E+03  0.69921759634E+01  0.71377079314E+02  0.27575352615E+03  0.00000000000E+00 0.  1.
          1    1    6    6  503    0  0.94163401188E+02  0.12852981135E+03  0.42184640623E+03  0.45093353056E+03  0.00000000000E+00 0. -1.
         -1    1    6    6    0  503  0.47661786177E+02  0.16174324082E+03  0.70375408304E+03  0.72367280674E+03  0.00000000000E+00 0.  1.
<mgrwt>
<rscale>  0 0.17241056E+04</rscale>
<asrwt>0</asrwt>
<pdfrwt beam="1">  1        1 0.24028387E+00 0.17241056E+04</pdfrwt>
<pdfrwt beam="2">  1       -2 0.73200902E-01 0.17241056E+04</pdfrwt>
<totfact> 0.83249290E+00</totfact>
</mgrwt>
</event>
<event>
12    5  0.5297412E-008  0.2833088E+04  0.7818608E-02  0.8293069E-01
         -2   -1    0    0    0  501 -0.00000000000E+00  0.00000000000E+00  0.10138949992E+04  0.10138949992E+04  0.00000000000E+00 0.  1.
          1   -1    0    0  501    0  0.00000000000E+00 -0.00000000000E+00 -0.19790968986E+04  0.19790968986E+04  0.00000000000E+00 0. -1.
        -24    2    1    2    0    0 -0.49904176335E+03 -0.13188975303E+02  0.80105798490E+03  0.94727473161E+03  0.80117983794E+02 0.  0.
        254    2    1    2    0    0  0.49904176335E+03  0.13188975303E+02 -0.17662598843E+04  0.20457171663E+04  0.90336488466E+03 0.  0.
         23    2    4    4    0    0  0.75102199793E+03 -0.11721135345E+02 -0.13991517900E+04  0.15906808652E+04  0.92024220558E+02 0.  0.
         23    2    4    4    0    0 -0.25198023458E+03  0.24910110648E+02 -0.36710809435E+03  0.45503630108E+03  0.90416426250E+02 0.  0.
          3    1    3    3  502    0 -0.17827788694E+03  0.33657547952E+02  0.29033926821E+03  0.34236344164E+03  0.00000000000E+00 0. -1.
         -4    1    3    3    0  502 -0.32076387641E+03 -0.46846523256E+02  0.51071871670E+03  0.60491128997E+03  0.00000000000E+00 0.  1.
         13    1    5    5    0    0  0.48772320346E+01  0.19085771061E+01 -0.33849173359E+00  0.52482983474E+01  0.00000000000E+00 0. -1.
        -13    1    5    5    0    0  0.74614476589E+03 -0.13629712451E+02 -0.13988132982E+04  0.15854325668E+04  0.00000000000E+00 0.  1.
          4    1    6    6  503    0 -0.26443416085E+02 -0.26131340911E+02 -0.60401504767E+02  0.70925616037E+02  0.00000000000E+00 0. -1.
         -4    1    6    6    0  503 -0.22553681849E+03  0.51041451560E+02 -0.30670658958E+03  0.38411068504E+03  0.00000000000E+00 0.  1.
<mgrwt>
<rscale>  0 0.28330877E+04</rscale>
<asrwt>0</asrwt>
<pdfrwt beam="1">  1        1 0.30447645E+00 0.28330877E+04</pdfrwt>
<pdfrwt beam="2">  1       -2 0.15598385E+00 0.28330877E+04</pdfrwt>
<totfact> 0.63055887E-01</totfact>
</mgrwt>
</event>
<event>
12    5  0.5297412E-008  0.1640505E+04  0.7818608E-02  0.8796043E-01
         -2   -1    0    0    0  501 -0.00000000000E+00  0.00000000000E+00  0.63322011280E+03  0.63322011280E+03  0.00000000000E+00 0.  1.
          1   -1    0    0  501    0  0.00000000000E+00 -0.00000000000E+00 -0.10625284788E+04  0.10625284788E+04  0.00000000000E+00 0. -1.
        -24    2    1    2    0    0  0.21918182108E+03 -0.42158798046E+03 -0.48534228048E+03  0.68370298311E+03  0.78201943290E+02 0.  0.
        254    2    1    2    0    0 -0.21918182108E+03  0.42158798046E+03  0.56033914431E+02  0.10120456085E+04  0.89180682787E+03 0.  0.
         23    2    4    4    0    0  0.25590314624E+02 -0.78661566052E+02  0.35309937926E+03  0.37417644149E+03  0.92121287212E+02 0.  0.
         23    2    4    4    0    0 -0.24477213570E+03  0.50024954651E+03 -0.29706546483E+03  0.63786916705E+03  0.92011829000E+02 0.  0.
          3    1    3    3  502    0  0.10500520941E+03 -0.12529680962E+03 -0.18052098570E+03  0.24354303681E+03  0.00000000000E+00 0. -1.
         -4    1    3    3    0  502  0.11417661167E+03 -0.29629117085E+03 -0.30482129478E+03  0.44015994630E+03  0.00000000000E+00 0.  1.
         13    1    5    5    0    0  0.52022004494E+02 -0.80315660584E+02  0.29906079515E+03  0.31399721891E+03  0.00000000000E+00 0. -1.
        -13    1    5    5    0    0 -0.26431689870E+02  0.16540945324E+01  0.54038584112E+02  0.60179222585E+02  0.00000000000E+00 0.  1.
          3    1    6    6  503    0 -0.88931904833E+02  0.10129715143E+03 -0.52540142741E+02  0.14467364371E+03  0.00000000000E+00 0. -1.
         -3    1    6    6    0  503 -0.15584023087E+03  0.39895239508E+03 -0.24452532209E+03  0.49319552334E+03  0.00000000000E+00 0.  1.
<mgrwt>
<rscale>  0 0.16405053E+04</rscale>
<asrwt>0</asrwt>
<pdfrwt beam="1">  1        1 0.16346592E+00 0.16405053E+04</pdfrwt>
<pdfrwt beam="2">  1       -2 0.97418480E-01 0.16405053E+04</pdfrwt>
<totfact> 0.99733909E+00</totfact>
</mgrwt>
</event>
<event>
12    5  0.5297412E-008  0.1809273E+04  0.7818608E-02  0.8701384E-01
         -2   -1    0    0    0  501 -0.00000000000E+00  0.00000000000E+00  0.32105222053E+03  0.32105222053E+03  0.00000000000E+00 0.  1.
          1   -1    0    0  501    0  0.00000000000E+00 -0.00000000000E+00 -0.25490165319E+04  0.25490165319E+04  0.00000000000E+00 0. -1.
        -24    2    1    2    0    0 -0.21741275381E+03 -0.15612359131E+03  0.14376391165E+03  0.31432766396E+03  0.80566350021E+02 0.  0.
        254    2    1    2    0    0  0.21741275381E+03  0.15612359131E+03 -0.23717282230E+04  0.25557410885E+04  0.91382430811E+03 0.  0.
         23    2    4    4    0    0  0.65030953839E+01 -0.18952775666E+03 -0.19606588190E+04  0.19719020204E+04  0.90837838262E+02 0.  0.
         23    2    4    4    0    0  0.21090965842E+03  0.34565134797E+03 -0.41106940404E+03  0.58383906805E+03  0.89063258817E+02 0.  0.
          1    1    3    3  502    0 -0.18942448324E+02 -0.29120713365E+02  0.49657920645E+02  0.60603146603E+02  0.00000000000E+00 0. -1.
         -2    1    3    3    0  502 -0.19847030548E+03 -0.12700287794E+03  0.94105991009E+02  0.25372451736E+03  0.00000000000E+00 0.  1.
         13    1    5    5    0    0 -0.38609542970E+02 -0.65962042863E+02 -0.58589748227E+03  0.59086169925E+03  0.00000000000E+00 0. -1.
        -13    1    5    5    0    0  0.45112638354E+02 -0.12356571380E+03 -0.13747613367E+04  0.13810403212E+04  0.00000000000E+00 0.  1.
          2    1    6    6  503    0  0.77397916477E+01  0.95169961466E+01  0.35028381237E+01  0.12757251480E+02  0.00000000000E+00 0. -1.
         -2    1    6    6    0  503  0.20316986677E+03  0.33613435183E+03 -0.41457224216E+03  0.57108181657E+03  0.00000000000E+00 0.  1.
<mgrwt>
<rscale>  0 0.18092732E+04</rscale>
<asrwt>0</asrwt>
<pdfrwt beam="1">  1        1 0.39215639E+00 0.18092732E+04</pdfrwt>
<pdfrwt beam="2">  1       -2 0.49392649E-01 0.18092732E+04</pdfrwt>
<totfact> 0.40288556E+00</totfact>
</mgrwt>
</event>
<event>
12    5  0.5297412E-008  0.2610127E+04  0.7818608E-02  0.8364769E-01
         -2   -1    0    0    0  501 -0.00000000000E+00  0.00000000000E+00  0.13645156191E+04  0.13645156191E+04  0.00000000000E+00 0.  1.
          1   -1    0    0  501    0  0.00000000000E+00 -0.00000000000E+00 -0.12482021293E+04  0.12482021293E+04  0.00000000000E+00 0. -1.
        -24    2    1    2    0    0 -0.37169476416E+03 -0.77462259669E+03  0.81017444368E+03  0.11837071796E+04  0.81135028571E+02 0.  0.
        254    2    1    2    0    0  0.37169476416E+03  0.77462259669E+03 -0.69386095383E+03  0.14290105688E+04  0.90687982524E+03 0.  0.
         23    2    4    4    0    0  0.27809089586E+03  0.85049575354E+03 -0.83136590797E+03  0.12247931920E+04  0.90947880751E+02 0.  0.
         23    2    4    4    0    0  0.93603868306E+02 -0.75873156850E+02  0.13750495414E+03  0.20421737681E+03  0.90987386408E+02 0.  0.
          3    1    3    3  502    0 -0.75734122722E+02 -0.97956589810E+02  0.13259127837E+03  0.18141553939E+03  0.00000000000E+00 0. -1.
         -4    1    3    3    0  502 -0.29596064144E+03 -0.67666600688E+03  0.67758316531E+03  0.10022916402E+04  0.00000000000E+00 0.  1.
         13    1    5    5    0    0  0.18133864816E+03  0.67217675978E+03 -0.65751765884E+03  0.95761932593E+03  0.00000000000E+00 0.  1.
        -13    1    5    5    0    0  0.96752247699E+02  0.17831899376E+03 -0.17384824913E+03  0.26717386604E+03  0.00000000000E+00 0. -1.
          4    1    6    6  503    0  0.49974934693E+01 -0.25374026228E+01  0.71271917800E+02  0.71491954932E+02  0.00000000000E+00 0. -1.
         -4    1    6    6    0  503  0.88606374837E+02 -0.73335754228E+02  0.66233036343E+02  0.13272542188E+03  0.00000000000E+00 0.  1.
<mgrwt>
<rscale>  0 0.26101274E+04</rscale>
<asrwt>0</asrwt>
<pdfrwt beam="1">  1        1 0.19203110E+00 0.26101274E+04</pdfrwt>
<pdfrwt beam="2">  1       -2 0.20992548E+00 0.26101274E+04</pdfrwt>
<totfact> 0.87257659E-01</totfact>
</mgrwt>
</event>
<event>
12    5  0.5297412E-008  0.1373740E+04  0.7818608E-02  0.8973049E-01
          1   -1    0    0  501    0  0.00000000000E+00  0.00000000000E+00  0.16994707587E+04  0.16994707587E+04  0.00000000000E+00 0. -1.
         -2   -1    0    0    0  501 -0.00000000000E+00 -0.00000000000E+00 -0.27761011099E+03  0.27761011099E+03  0.00000000000E+00 0.  1.
        -24    2    1    2    0    0 -0.19792514267E+03  0.12100974537E+03  0.78780944500E+03  0.82462946101E+03  0.74513795741E+02 0.  0.
        254    2    1    2    0    0  0.19792514267E+03 -0.12100974537E+03  0.63405120272E+03  0.11524514087E+04  0.93397301950E+03 0.  0.
         23    2    4    4    0    0  0.35959533311E+03 -0.42854092008E+03  0.53541383636E+03  0.77960260074E+03  0.90311212704E+02 0.  0.
         23    2    4    4    0    0 -0.16167019044E+03  0.30753117471E+03  0.98637366359E+02  0.37284880795E+03  0.92597136297E+02 0.  0.
          3    1    3    3  502    0 -0.12494187551E+03  0.11594542291E+03  0.55874704390E+03  0.58416784610E+03  0.00000000000E+00 0. -1.
         -4    1    3    3    0  502 -0.72983267157E+02  0.50643224674E+01  0.22906240110E+03  0.24046161491E+03  0.00000000000E+00 0.  1.
         13    1    5    5    0    0  0.35821131362E+03 -0.43301740279E+03  0.53071830463E+03  0.77296916833E+03  0.00000000000E+00 0.  1.
        -13    1    5    5    0    0  0.13840194944E+01  0.44764827042E+01  0.46955317257E+01  0.66334324108E+01  0.00000000000E+00 0. -1.
          1    1    6    6  503    0 -0.16821275056E+02  0.12549817049E+03  0.42225641395E+02  0.13347565652E+03  0.00000000000E+00 0. -1.
         -1    1    6    6    0  503 -0.14484891538E+03  0.18203300422E+03  0.56411724964E+02  0.23937315143E+03  0.00000000000E+00 0.  1.
<mgrwt>
<rscale>  0 0.13737398E+04</rscale>
<asrwt>0</asrwt>
<pdfrwt beam="1">  1        1 0.26145703E+00 0.13737398E+04</pdfrwt>
<pdfrwt beam="2">  1       -2 0.42709249E-01 0.13737398E+04</pdfrwt>
<totfact> 0.21262130E+01</totfact>
</mgrwt>
</event>
<event>
12    5  0.5297412E-008  0.1133036E+04  0.7818608E-02  0.9173578E-01
         -2   -1    0    0    0  501 -0.00000000000E+00  0.00000000000E+00  0.21657159259E+03  0.21657159259E+03  0.00000000000E+00 0.  1.
          1   -1    0    0  501    0  0.00000000000E+00 -0.00000000000E+00 -0.14819234166E+04  0.14819234166E+04  0.00000000000E+00 0. -1.
        -24    2    1    2    0    0 -0.84815465083E+02  0.40419532161E+02 -0.48764826131E+03  0.50305724933E+03  0.80239439479E+02 0.  0.
        254    2    1    2    0    0  0.84815465083E+02 -0.40419532161E+02 -0.77770356274E+03  0.11954377599E+04  0.90300675778E+03 0.  0.
         23    2    4    4    0    0  0.22580885665E+03  0.18104040025E+03 -0.85491905558E+03  0.90651423631E+03  0.84357588704E+02 0.  0.
         23    2    4    4    0    0 -0.14099339157E+03 -0.22145993241E+03  0.77215492840E+02  0.28892352359E+03  0.92687280805E+02 0.  0.
          1    1    3    3  502    0 -0.84778581183E+02  0.56995318108E+02 -0.45630970049E+03  0.46760497953E+03  0.00000000000E+00 0. -1.
         -2    1    3    3    0  502 -0.36883899495E-01 -0.16575785947E+02 -0.31338560817E+02  0.35452269805E+02  0.00000000000E+00 0.  1.
         13    1    5    5    0    0  0.19360720157E+03  0.15107873107E+03 -0.60825696767E+03  0.65596118041E+03  0.00000000000E+00 0. -1.
        -13    1    5    5    0    0  0.32201655088E+02  0.29961669172E+02 -0.24666208791E+03  0.25055305590E+03  0.00000000000E+00 0.  1.
          3    1    6    6  503    0 -0.14220095393E+03 -0.19406206773E+03  0.92230103053E+02  0.25765789206E+03  0.00000000000E+00 0. -1.
         -3    1    6    6    0  503  0.12075623553E+01 -0.27397864674E+02 -0.15014610213E+02  0.31265631537E+02  0.00000000000E+00 0.  1.
<mgrwt>
<rscale>  0 0.11330358E+04</rscale>
<asrwt>0</asrwt>
<pdfrwt beam="1">  1        1 0.22798823E+00 0.11330358E+04</pdfrwt>
<pdfrwt beam="2">  1       -2 0.33318705E-01 0.11330358E+04</pdfrwt>
<totfact> 0.49430092E+01</totfact>
</mgrwt>
</event>
<event>
12    5  0.5297412E-008  0.2499521E+04  0.7818608E-02  0.8403156E-01
         -2   -1    0    0    0  501 -0.00000000000E+00  0.00000000000E+00  0.12662295441E+04  0.12662295441E+04  0.00000000000E+00 0.  1.
          1   -1    0    0  501    0  0.00000000000E+00 -0.00000000000E+00 -0.12335060419E+04  0.12335060419E+04  0.00000000000E+00 0. -1.
        -24    2    1    2    0    0  0.15925627374E+03 -0.96153741862E+03 -0.48171966102E+03  0.10902240853E+04  0.81350821404E+02 0.  0.
        254    2    1    2    0    0 -0.15925627374E+03  0.96153741862E+03  0.51444316329E+03  0.14095115007E+04  0.87872301342E+03 0.  0.
         23    2    4    4    0    0  0.31005217727E+03  0.60025970257E+03  0.11854256679E+03  0.69143868396E+03  0.87126634126E+02 0.  0.
         23    2    4    4    0    0 -0.46930845101E+03  0.36127771605E+03  0.39590059650E+03  0.71807281678E+03  0.90107034043E+02 0.  0.
          3    1    3    3  502    0  0.15747743901E+03 -0.86403949386E+03 -0.41049738392E+03  0.96946969677E+03  0.00000000000E+00 0. -1.
         -4    1    3    3    0  502  0.17788347320E+01 -0.97497924761E+02 -0.71222277103E+02  0.12075438850E+03  0.00000000000E+00 0.  1.
         13    1    5    5    0    0  0.38878595488E+02  0.53041198399E+02  0.36542659883E+02  0.75234831734E+02  0.00000000000E+00 0. -1.
        -13    1    5    5    0    0  0.27117358178E+03  0.54721850417E+03  0.81999906904E+02  0.61620385222E+03  0.00000000000E+00 0.  1.
          3    1    6    6  503    0 -0.25041415150E+03  0.14343190374E+03  0.16450741389E+03  0.33217863794E+03  0.00000000000E+00 0. -1.
         -3    1    6    6    0  503 -0.21889429951E+03  0.21784581231E+03  0.23139318261E+03  0.38589417884E+03  0.00000000000E+00 0.  1.
<mgrwt>
<rscale>  0 0.24995214E+04</rscale>
<asrwt>0</asrwt>
<pdfrwt beam="1">  1        1 0.18977016E+00 0.24995214E+04</pdfrwt>
<pdfrwt beam="2">  1       -2 0.19480455E+00 0.24995214E+04</pdfrwt>
<totfact> 0.11335861E+00</totfact>
</mgrwt>
</event>
<event>
12    5  0.5297412E-008  0.1642139E+04  0.7818608E-02  0.8795071E-01
          1   -1    0    0  501    0  0.00000000000E+00  0.00000000000E+00  0.16259681444E+04  0.16259681444E+04  0.00000000000E+00 0. -1.
         -2   -1    0    0    0  501 -0.00000000000E+00 -0.00000000000E+00 -0.41461757834E+03  0.41461757834E+03  0.00000000000E+00 0.  1.
        -24    2    1    2    0    0  0.43503480690E+03 -0.26132954997E+03  0.10254943055E+03  0.52345357551E+03  0.77063889769E+02 0.  0.
        254    2    1    2    0    0 -0.43503480690E+03  0.26132954997E+03  0.11088011355E+04  0.15171321473E+04  0.90260820801E+03 0.  0.
         23    2    4    4    0    0  0.46947400333E+02 -0.82173640633E+02 -0.10232442851E+03  0.16613154840E+03  0.90403744900E+02 0.  0.
         23    2    4    4    0    0 -0.48198220723E+03  0.34350319060E+03  0.12111255640E+04  0.13510005989E+04  0.89867659283E+02 0.  0.
          3    1    3    3  502    0  0.32445845912E+03 -0.20597858261E+03  0.10946656331E+03  0.39960404987E+03  0.00000000000E+00 0. -1.
         -4    1    3    3    0  502  0.11057634778E+03 -0.55350967358E+02 -0.69171327586E+01  0.12384952564E+03  0.00000000000E+00 0.  1.
         13    1    5    5    0    0  0.36522532043E+02 -0.10184873475E+03 -0.79669350819E+02  0.13436616232E+03  0.00000000000E+00 0.  1.
        -13    1    5    5    0    0  0.10424868291E+02  0.19675094121E+02 -0.22655077687E+02  0.31765386076E+02  0.00000000000E+00 0. -1.
          2    1    6    6  503    0 -0.68137589558E+02  0.88330872426E+02  0.25604123236E+03  0.27928871585E+03  0.00000000000E+00 0. -1.
         -2    1    6    6    0  503 -0.41384461767E+03  0.25517231818E+03  0.95508433169E+03  0.10717118830E+04  0.00000000000E+00 0.  1.
<mgrwt>
<rscale>  0 0.16421388E+04</rscale>
<asrwt>0</asrwt>
<pdfrwt beam="1">  1        1 0.25014894E+00 0.16421388E+04</pdfrwt>
<pdfrwt beam="2">  1       -2 0.63787321E-01 0.16421388E+04</pdfrwt>
<totfact> 0.10217325E+01</totfact>
</mgrwt>
</event>
<event>
12    5  0.5297412E-008  0.1676034E+04  0.7818608E-02  0.8775152E-01
          1   -1    0    0  501    0  0.00000000000E+00  0.00000000000E+00  0.24219980581E+04  0.24219980581E+04  0.00000000000E+00 0. -1.
         -2   -1    0    0    0  501 -0.00000000000E+00 -0.00000000000E+00 -0.28995599843E+03  0.28995599843E+03  0.00000000000E+00 0.  1.
        -24    2    1    2    0    0  0.10974789445E+03  0.32948575928E+03  0.15134149302E+04  0.15553955543E+04  0.90692412632E+02 0.  0.
        254    2    1    2    0    0 -0.10974789445E+03 -0.32948575928E+03  0.61862712949E+03  0.11565585022E+04  0.91341259993E+03 0.  0.
         23    2    4    4    0    0 -0.30960612955E+03 -0.48573119853E+03  0.12743285863E+03  0.59737601775E+03  0.93958610248E+02 0.  0.
         23    2    4    4    0    0  0.19985823509E+03  0.15624543925E+03  0.49119427086E+03  0.55918248443E+03  0.84007664790E+02 0.  0.
          1    1    3    3  502    0  0.74192167939E+02  0.30904226002E+03  0.13288917603E+04  0.13663692425E+04  0.00000000000E+00 0. -1.
         -2    1    3    3    0  502  0.35555726515E+02  0.20443499258E+02  0.18452316990E+03  0.18902631187E+03  0.00000000000E+00 0.  1.
         13    1    5    5    0    0 -0.27075074815E+03 -0.45127085791E+03  0.91336666231E+02  0.53412895580E+03  0.00000000000E+00 0.  1.
        -13    1    5    5    0    0 -0.38855381401E+02 -0.34460340618E+02  0.36096192400E+02  0.63247061948E+02  0.00000000000E+00 0. -1.
          3    1    6    6  503    0  0.48142451121E+01  0.37439503950E+01 -0.27278541383E+01  0.66809661546E+01  0.00000000000E+00 0. -1.
         -3    1    6    6    0  503  0.19504398998E+03  0.15250148886E+03  0.49392212500E+03  0.55250151827E+03  0.00000000000E+00 0.  1.
<mgrwt>
<rscale>  0 0.16760344E+04</rscale>
<asrwt>0</asrwt>
<pdfrwt beam="1">  1        1 0.37261507E+00 0.16760344E+04</pdfrwt>
<pdfrwt beam="2">  1       -2 0.44608617E-01 0.16760344E+04</pdfrwt>
<totfact> 0.61303471E+00</totfact>
</mgrwt>
</event>
<event>
12    5  0.5297412E-008  0.1896346E+04  0.7818608E-02  0.8656678E-01
         -2   -1    0    0    0  501 -0.00000000000E+00  0.00000000000E+00  0.11295652268E+04  0.11295652268E+04  0.00000000000E+00 0.  1.
          1   -1    0    0  501    0  0.00000000000E+00 -0.00000000000E+00 -0.79590946787E+03  0.79590946787E+03  0.00000000000E+00 0. -1.
        -24    2    1    2    0    0 -0.47103352505E+03  0.19063926992E+03 -0.41156970694E+03  0.65871334318E+03  0.79358250099E+02 0.  0.
        254    2    1    2    0    0  0.47103352505E+03 -0.19063926992E+03  0.74522546592E+03  0.12667613515E+04  0.88944219246E+03 0.  0.
         23    2    4    4    0    0  0.56986479429E+03 -0.37149333967E+03  0.78041035280E+03  0.10394275612E+04  0.92823224413E+02 0.  0.
         23    2    4    4    0    0 -0.98831269241E+02  0.18085406975E+03 -0.35184886874E+02  0.22733379036E+03  0.89257277849E+02 0.  0.
          3    1    3    3  502    0 -0.37367305494E+03  0.14744062595E+03 -0.36386849101E+03  0.54200605985E+03  0.00000000000E+00 0. -1.
         -4    1    3    3    0  502 -0.97360470109E+02  0.43198643969E+02 -0.47701215935E+02  0.11670728333E+03  0.00000000000E+00 0.  1.
         13    1    5    5    0    0  0.21831260552E+03 -0.15166161137E+03  0.37394904148E+03  0.45880227083E+03  0.00000000000E+00 0.  1.
        -13    1    5    5    0    0  0.35155218876E+03 -0.21983172829E+03  0.40646131131E+03  0.58062529034E+03  0.00000000000E+00 0. -1.
          1    1    6    6  503    0 -0.39673773514E+02  0.55633592785E+02  0.29566291494E+02  0.74453143276E+02  0.00000000000E+00 0. -1.
         -1    1    6    6    0  503 -0.59157495727E+02  0.12522047696E+03 -0.64751178367E+02  0.15288064708E+03  0.00000000000E+00 0.  1.
<mgrwt>
<rscale>  0 0.18963456E+04</rscale>
<asrwt>0</asrwt>
<pdfrwt beam="1">  1        1 0.12244761E+00 0.18963456E+04</pdfrwt>
<pdfrwt beam="2">  1       -2 0.17377927E+00 0.18963456E+04</pdfrwt>
<totfact> 0.36613193E+00</totfact>
</mgrwt>
</event>
<event>
12    5  0.5297412E-008  0.1248468E+04  0.7818608E-02  0.9071459E-01
          1   -1    0    0  501    0  0.00000000000E+00  0.00000000000E+00  0.87830809938E+03  0.87830809938E+03  0.00000000000E+00 0. -1.
         -4   -1    0    0    0  501 -0.00000000000E+00 -0.00000000000E+00 -0.44365786414E+03  0.44365786414E+03  0.00000000000E+00 0.  1.
        -24    2    1    2    0    0  0.30337167872E+03 -0.52415887637E+02  0.43495730824E+02  0.32122939540E+03  0.80713351688E+02 0.  0.
        254    2    1    2    0    0 -0.30337167872E+03  0.52415887637E+02  0.39115450442E+03  0.10007365681E+04  0.86815323057E+03 0.  0.
         23    2    4    4    0    0 -0.10208169762E+03  0.38345653080E+03  0.43718801902E+03  0.59771595195E+03  0.93120412579E+02 0.  0.
         23    2    4    4    0    0 -0.20128998110E+03 -0.33104064316E+03 -0.46033514608E+02  0.40302061618E+03  0.10099984494E+03 0.  0.
          3    1    3    3  502    0  0.55763256221E+02 -0.11581544904E+02 -0.23306378206E+02  0.61537469820E+02  0.00000000000E+00 0. -1.
         -2    1    3    3    0  502  0.24760842250E+03 -0.40834342734E+02  0.66802109030E+02  0.25969192558E+03  0.00000000000E+00 0.  1.
         13    1    5    5    0    0  0.23669708457E+01 -0.45080075397E+01  0.21409114712E+01  0.55234214839E+01  0.00000000000E+00 0. -1.
        -13    1    5    5    0    0 -0.10444866846E+03  0.38796453834E+03  0.43504710755E+03  0.59219253047E+03  0.00000000000E+00 0.  1.
          4    1    6    6  503    0 -0.14578544856E+03 -0.30195696287E+03 -0.54770718649E+02  0.33975172709E+03  0.00000000000E+00 0.  1.
         -4    1    6    6    0  503 -0.55504532543E+02 -0.29083680293E+02  0.87372040415E+01  0.63268889090E+02  0.00000000000E+00 0. -1.
<mgrwt>
<rscale>  0 0.12484683E+04</rscale>
<asrwt>0</asrwt>
<pdfrwt beam="1">  1        1 0.13512432E+00 0.12484683E+04</pdfrwt>
<pdfrwt beam="2">  1       -4 0.68255056E-01 0.12484683E+04</pdfrwt>
<totfact> 0.17993468E+01</totfact>
</mgrwt>
</event>
<event>
12    5  0.5297412E-008  0.2165606E+04  0.7818608E-02  0.8532881E-01
          1   -1    0    0  501    0  0.00000000000E+00  0.00000000000E+00  0.10556635441E+04  0.10556635441E+04  0.00000000000E+00 0. -1.
         -2   -1    0    0    0  501 -0.00000000000E+00 -0.00000000000E+00 -0.11106406656E+04  0.11106406656E+04  0.00000000000E+00 0.  1.
        -24    2    1    2    0    0  0.63298004353E+02 -0.85794890066E+03  0.16482460188E+03  0.87951858989E+03  0.79390472308E+02 0.  0.
        254    2    1    2    0    0 -0.63298004353E+02  0.85794890066E+03 -0.21980172338E+03  0.12867856197E+04  0.93135464783E+03 0.  0.
         23    2    4    4    0    0  0.39749287415E+03  0.41471517766E+03 -0.26630439722E+03  0.63956276875E+03  0.90184475432E+02 0.  0.
         23    2    4    4    0    0 -0.46079087850E+03  0.44323372300E+03  0.46502673842E+02  0.64722285098E+03  0.89165874882E+02 0.  0.
          1    1    3    3  502    0  0.67052000331E+02 -0.74560105021E+03  0.16731830718E+03  0.76708038219E+03  0.00000000000E+00 0. -1.
         -2    1    3    3    0  502 -0.37539959783E+01 -0.11234785045E+03 -0.24937053029E+01  0.11243820770E+03  0.00000000000E+00 0.  1.
         13    1    5    5    0    0  0.16180370983E+03  0.12256580437E+03 -0.62241260790E+02  0.21231295641E+03  0.00000000000E+00 0. -1.
        -13    1    5    5    0    0  0.23568916432E+03  0.29214937329E+03 -0.20406313643E+03  0.42724981234E+03  0.00000000000E+00 0.  1.
          3    1    6    6  503    0 -0.22284377553E+03  0.18891283976E+03 -0.19311687500E+02  0.29278037946E+03  0.00000000000E+00 0. -1.
         -3    1    6    6    0  503 -0.23794710297E+03  0.25432088323E+03  0.65814361342E+02  0.35444247152E+03  0.00000000000E+00 0.  1.
<mgrwt>
<rscale>  0 0.21656065E+04</rscale>
<asrwt>0</asrwt>
<pdfrwt beam="1">  1        1 0.16240978E+00 0.21656065E+04</pdfrwt>
<pdfrwt beam="2">  1       -2 0.17086779E+00 0.21656065E+04</pdfrwt>
<totfact> 0.23084719E+00</totfact>
</mgrwt>
</event>
<event>
12    5  0.5297412E-008  0.1524220E+04  0.7818608E-02  0.8868505E-01
          1   -1    0    0  501    0  0.00000000000E+00  0.00000000000E+00  0.19062555617E+04  0.19062555617E+04  0.00000000000E+00 0. -1.
         -4   -1    0    0    0  501 -0.00000000000E+00 -0.00000000000E+00 -0.30468724317E+03  0.30468724317E+03  0.00000000000E+00 0.  1.
        -24    2    1    2    0    0 -0.41045744868E+03  0.65863075203E+02  0.92362918853E+03  0.10160015742E+04  0.79718624040E+02 0.  0.
        254    2    1    2    0    0  0.41045744868E+03 -0.65863075203E+02  0.67793912999E+03  0.11949412307E+04  0.89189114744E+03 0.  0.
         23    2    4    4    0    0  0.26682244641E+03  0.39919206458E+03  0.34124285566E+03  0.59600197943E+03  0.90681589199E+02 0.  0.
         23    2    4    4    0    0  0.14363500228E+03 -0.46505513979E+03  0.33669627433E+03  0.59893925122E+03  0.91959494241E+02 0.  0.
          3    1    3    3  502    0 -0.30090796867E+03  0.61621106943E+02  0.59557983625E+03  0.67011798049E+03  0.00000000000E+00 0. -1.
         -4    1    3    3    0  502 -0.10954948001E+03  0.42419682607E+01  0.32804935229E+03  0.34588359371E+03  0.00000000000E+00 0.  1.
         13    1    5    5    0    0  0.56226727373E+02  0.34665774049E+02  0.63663587057E+02  0.91739920855E+02  0.00000000000E+00 0. -1.
        -13    1    5    5    0    0  0.21059571903E+03  0.36452629053E+03  0.27757926860E+03  0.50426205858E+03  0.00000000000E+00 0.  1.
          3    1    6    6  503    0  0.32147133199E+02 -0.25856682466E+03  0.17053473937E+03  0.31140381873E+03  0.00000000000E+00 0. -1.
         -3    1    6    6    0  503  0.11148786908E+03 -0.20648831512E+03  0.16616153497E+03  0.28753543249E+03  0.00000000000E+00 0.  1.
<mgrwt>
<rscale>  0 0.15242201E+04</rscale>
<asrwt>0</asrwt>
<pdfrwt beam="1">  1        1 0.29327008E+00 0.15242201E+04</pdfrwt>
<pdfrwt beam="2">  1       -4 0.46874962E-01 0.15242201E+04</pdfrwt>
<totfact> 0.72632711E+00</totfact>
</mgrwt>
</event>
<event>
12    5  0.5297412E-008  0.1973669E+04  0.7818608E-02  0.8619031E-01
         -2   -1    0    0    0  501 -0.00000000000E+00  0.00000000000E+00  0.11305114666E+04  0.11305114666E+04  0.00000000000E+00 0.  1.
          1   -1    0    0  501    0  0.00000000000E+00 -0.00000000000E+00 -0.86141758748E+03  0.86141758748E+03  0.00000000000E+00 0. -1.
        -24    2    1    2    0    0  0.11225591357E+03 -0.49360201060E+03  0.69708725297E+03  0.86546588775E+03  0.82802352679E+02 0.  0.
        254    2    1    2    0    0 -0.11225591357E+03  0.49360201060E+03 -0.42799337381E+03  0.11264631664E+04  0.91076704057E+03 0.  0.
         23    2    4    4    0    0 -0.16837461355E+03  0.70919971635E+03 -0.13850263122E+03  0.74828787046E+03  0.97146847936E+02 0.  0.
         23    2    4    4    0    0  0.56118699977E+02 -0.21559770575E+03 -0.28949074258E+03  0.37817529592E+03  0.97877398776E+02 0.  0.
          3    1    3    3  502    0 -0.33305973635E+00 -0.17265131572E+03  0.24485677157E+03  0.29960545111E+03  0.00000000000E+00 0. -1.
         -4    1    3    3    0  502  0.11258897331E+03 -0.32095069488E+03  0.45223048140E+03  0.56586043665E+03  0.00000000000E+00 0.  1.
         13    1    5    5    0    0 -0.13914112596E+03  0.60870324681E+03 -0.83226679565E+02  0.62992584945E+03  0.00000000000E+00 0. -1.
        -13    1    5    5    0    0 -0.29233487587E+02  0.10049646954E+03 -0.55275951656E+02  0.11836202101E+03  0.00000000000E+00 0.  1.
          2    1    6    6  503    0  0.14003837140E+02 -0.19049578151E+03 -0.25324868450E+03  0.31720599999E+03  0.00000000000E+00 0. -1.
         -2    1    6    6    0  503  0.42114862837E+02 -0.25101924240E+02 -0.36242058085E+02  0.60969295933E+02  0.00000000000E+00 0.  1.
<mgrwt>
<rscale>  0 0.19736691E+04</rscale>
<asrwt>0</asrwt>
<pdfrwt beam="1">  1        1 0.13252578E+00 0.19736691E+04</pdfrwt>
<pdfrwt beam="2">  1       -2 0.17392484E+00 0.19736691E+04</pdfrwt>
<totfact> 0.31898096E+00</totfact>
</mgrwt>
</event>
<event>
12    5  0.5297412E-008  0.2046997E+04  0.7818608E-02  0.8584958E-01
         -2   -1    0    0    0  501 -0.00000000000E+00  0.00000000000E+00  0.86991875649E+03  0.86991875649E+03  0.00000000000E+00 0.  1.
          1   -1    0    0  501    0  0.00000000000E+00 -0.00000000000E+00 -0.12041918143E+04  0.12041918143E+04  0.00000000000E+00 0. -1.
        -24    2    1    2    0    0  0.69040145035E+03  0.78106235921E+02 -0.59103194669E+03  0.91564615278E+03  0.79588745159E+02 0.  0.
        254    2    1    2    0    0 -0.69040145035E+03 -0.78106235921E+02  0.25675888889E+03  0.11584644180E+04  0.89070754684E+03 0.  0.
         23    2    4    4    0    0 -0.22021791869E+02  0.28883403949E+03 -0.89802143536E+02  0.31587043963E+03  0.88315615634E+02 0.  0.
         23    2    4    4    0    0 -0.66837965848E+03 -0.36694027541E+03  0.34656103243E+03  0.84259397836E+03  0.92106077886E+02 0.  0.
          1    1    3    3  502    0  0.68935358107E+03  0.75356239264E+02 -0.59272121458E+03  0.91225290394E+03  0.00000000000E+00 0. -1.
         -2    1    3    3    0  502  0.10478692847E+01  0.27499966574E+01  0.16892678983E+01  0.33932488393E+01  0.00000000000E+00 0.  1.
         13    1    5    5    0    0 -0.22525393627E+02  0.24731893095E+03 -0.10766008078E+03  0.27067460161E+03  0.00000000000E+00 0.  1.
        -13    1    5    5    0    0  0.50360175775E+00  0.41515108544E+02  0.17857937243E+02  0.45195838024E+02  0.00000000000E+00 0. -1.
          2    1    6    6  503    0 -0.41188946231E+03 -0.26172817514E+03  0.18621332535E+03  0.52233128315E+03  0.00000000000E+00 0. -1.
         -2    1    6    6    0  503 -0.25649019617E+03 -0.10521210027E+03  0.16034770708E+03  0.32026269521E+03  0.00000000000E+00 0.  1.
<mgrwt>
<rscale>  0 0.20469969E+04</rscale>
<asrwt>0</asrwt>
<pdfrwt beam="1">  1        1 0.18526028E+00 0.20469969E+04</pdfrwt>
<pdfrwt beam="2">  1       -2 0.13383366E+00 0.20469969E+04</pdfrwt>
<totfact> 0.34686706E+00</totfact>
</mgrwt>
</event>
<event>
12    5  0.5297412E-008  0.2636626E+04  0.7818608E-02  0.8355865E-01
         -2   -1    0    0    0  501 -0.00000000000E+00  0.00000000000E+00  0.16143486607E+04  0.16143486607E+04  0.00000000000E+00 0.  1.
          1   -1    0    0  501    0  0.00000000000E+00 -0.00000000000E+00 -0.10765638794E+04  0.10765638794E+04  0.00000000000E+00 0. -1.
        -24    2    1    2    0    0  0.80106979716E+03 -0.22350282387E+03 -0.59198500288E+03  0.10238738804E+04  0.78772755614E+02 0.  0.
        254    2    1    2    0    0 -0.80106979716E+03  0.22350282387E+03  0.11297697842E+04  0.16670386597E+04  0.90053972453E+03 0.  0.
         23    2    4    4    0    0  0.68855694381E+02 -0.21473377200E+03  0.17296677386E+03  0.29876248157E+03  0.92140197773E+02 0.  0.
         23    2    4    4    0    0 -0.86992549154E+03  0.43823659587E+03  0.95680301038E+03  0.13682761782E+04  0.88803289685E+02 0.  0.
          3    1    3    3  502    0  0.58652119757E+03 -0.14872754058E+03 -0.39010760829E+03  0.71993815191E+03  0.00000000000E+00 0. -1.
         -4    1    3    3    0  502  0.21454859959E+03 -0.74775283286E+02 -0.20187739459E+03  0.30393572844E+03  0.00000000000E+00 0.  1.
         13    1    5    5    0    0  0.39103564417E+02 -0.76378855246E+02  0.12029114752E+03  0.14775919075E+03  0.00000000000E+00 0.  1.
        -13    1    5    5    0    0  0.29752129963E+02 -0.13835491676E+03  0.52675626340E+02  0.15100329082E+03  0.00000000000E+00 0. -1.
          3    1    6    6  503    0 -0.32795901914E+03  0.16527489898E+03  0.42192952668E+03  0.55937235894E+03  0.00000000000E+00 0. -1.
         -3    1    6    6    0  503 -0.54196647240E+03  0.27296169689E+03  0.53487348370E+03  0.80890381922E+03  0.00000000000E+00 0.  1.
<mgrwt>
<rscale>  0 0.26366262E+04</rscale>
<asrwt>0</asrwt>
<pdfrwt beam="1">  1        1 0.16562521E+00 0.26366262E+04</pdfrwt>
<pdfrwt beam="2">  1       -2 0.24836133E+00 0.26366262E+04</pdfrwt>
<totfact> 0.66907184E-01</totfact>
</mgrwt>
</event>
<event>
12    5  0.5297412E-008  0.2606191E+04  0.7818608E-02  0.8366101E-01
          1   -1    0    0  501    0  0.00000000000E+00  0.00000000000E+00  0.16526614063E+04  0.16526614063E+04  0.00000000000E+00 0. -1.
         -2   -1    0    0    0  501 -0.00000000000E+00 -0.00000000000E+00 -0.10274688570E+04  0.10274688570E+04  0.00000000000E+00 0.  1.
        -24    2    1    2    0    0 -0.40959259734E+03 -0.10736397481E+04  0.24426612266E+03  0.11773836341E+04  0.78088916010E+02 0.  0.
        254    2    1    2    0    0  0.40959259734E+03  0.10736397481E+04  0.38092642664E+03  0.15027466292E+04  0.89032246094E+03 0.  0.
         23    2    4    4    0    0 -0.16593301805E+03  0.74961378206E+03  0.30990352488E+03  0.83327548863E+03  0.94091745024E+02 0.  0.
         23    2    4    4    0    0  0.57552561539E+03  0.32402596602E+03  0.71022901756E+02  0.66947114052E+03  0.83215351897E+02 0.  0.
          3    1    3    3  502    0 -0.32433455440E+03 -0.85019678719E+03  0.22554616547E+03  0.93749589486E+03  0.00000000000E+00 0. -1.
         -4    1    3    3    0  502 -0.85258042941E+02 -0.22344296090E+03  0.18719957189E+02  0.23988773928E+03  0.00000000000E+00 0.  1.
         13    1    5    5    0    0  0.72471474818E+01  0.46259090475E+01  0.45010811595E+01  0.97046335707E+01  0.00000000000E+00 0.  1.
        -13    1    5    5    0    0 -0.17318016553E+03  0.74498787301E+03  0.30540244372E+03  0.82357085506E+03  0.00000000000E+00 0. -1.
          2    1    6    6  503    0  0.44354490706E+03  0.26190128109E+03  0.88196498053E+02  0.52259256394E+03  0.00000000000E+00 0. -1.
         -2    1    6    6    0  503  0.13198070833E+03  0.62124684932E+02 -0.17173596297E+02  0.14687857658E+03  0.00000000000E+00 0.  1.
<mgrwt>
<rscale>  0 0.26061912E+04</rscale>
<asrwt>0</asrwt>
<pdfrwt beam="1">  1        1 0.25425560E+00 0.26061912E+04</pdfrwt>
<pdfrwt beam="2">  1       -2 0.15807213E+00 0.26061912E+04</pdfrwt>
<totfact> 0.10336701E+00</totfact>
</mgrwt>
</event>
<event>
12    5  0.5297412E-008  0.3644648E+04  0.7818608E-02  0.8080341E-01
         -2   -1    0    0    0  501 -0.00000000000E+00  0.00000000000E+00  0.18995790629E+04  0.18995790629E+04  0.00000000000E+00 0.  1.
          1   -1    0    0  501    0  0.00000000000E+00 -0.00000000000E+00 -0.17482104073E+04  0.17482104073E+04  0.00000000000E+00 0. -1.
        -24    2    1    2    0    0  0.46891661343E+03 -0.78520998962E+02  0.17153651020E+04  0.17818355535E+04  0.80076020708E+02 0.  0.
        254    2    1    2    0    0 -0.46891661343E+03  0.78520998962E+02 -0.15639964464E+04  0.18659539167E+04  0.89980597745E+03 0.  0.
         23    2    4    4    0    0  0.21874250689E+03  0.20120637547E+03 -0.41616743609E+03  0.51928009154E+03  0.90134281791E+02 0.  0.
         23    2    4    4    0    0 -0.68765912032E+03 -0.12268537651E+03 -0.11478290103E+04  0.13466738251E+04  0.89956583684E+02 0.  0.
          3    1    3    3  502    0  0.59260688248E+02 -0.41197905323E+01  0.13399072904E+03  0.14656847313E+03  0.00000000000E+00 0. -1.
         -4    1    3    3    0  502  0.40965592518E+03 -0.74401208430E+02  0.15813743729E+04  0.16352670804E+04  0.00000000000E+00 0.  1.
         13    1    5    5    0    0 -0.75303415011E+01  0.15411502551E+02 -0.31495689912E+02  0.35863615783E+02  0.00000000000E+00 0.  1.
        -13    1    5    5    0    0  0.22627284839E+03  0.18579487292E+03 -0.38467174618E+03  0.48341647575E+03  0.00000000000E+00 0. -1.
          1    1    6    6  503    0 -0.66375335214E+02 -0.13476080698E+02 -0.17037649864E+03  0.18334514219E+03  0.00000000000E+00 0.  1.
         -1    1    6    6    0  503 -0.62128378510E+03 -0.10920929581E+03 -0.97745251169E+03  0.11633286829E+04  0.00000000000E+00 0. -1.
<mgrwt>
<rscale>  0 0.36446475E+04</rscale>
<asrwt>0</asrwt>
<pdfrwt beam="1">  1        1 0.26895545E+00 0.36446475E+04</pdfrwt>
<pdfrwt beam="2">  1       -2 0.29224293E+00 0.36446475E+04</pdfrwt>
<totfact> 0.11094458E-01</totfact>
</mgrwt>
</event>
<event>
12    5  0.5297412E-008  0.3786334E+04  0.7818608E-02  0.8049094E-01
          1   -1    0    0  501    0  0.00000000000E+00  0.00000000000E+00  0.24295870441E+04  0.24295870441E+04  0.00000000000E+00 0. -1.
         -2   -1    0    0    0  501 -0.00000000000E+00 -0.00000000000E+00 -0.14751815210E+04  0.14751815210E+04  0.00000000000E+00 0.  1.
        -24    2    1    2    0    0 -0.24098447956E+03  0.17572232372E+04  0.66299543201E+03  0.18952056055E+04  0.79588437817E+02 0.  0.
        254    2    1    2    0    0  0.24098447956E+03 -0.17572232372E+04  0.29141009101E+03  0.20095629596E+04  0.89861917574E+03 0.  0.
         23    2    4    4    0    0  0.41709695996E+03 -0.87150362205E+03 -0.17933235847E+03  0.98713522005E+03  0.93741189602E+02 0.  0.
         23    2    4    4    0    0 -0.17611248039E+03 -0.88571961512E+03  0.47074244948E+03  0.10224277396E+04  0.90803009784E+02 0.  0.
          3    1    3    3  502    0 -0.14655997054E+03  0.12671542792E+04  0.50152716104E+03  0.13706528683E+04  0.00000000000E+00 0. -1.
         -4    1    3    3    0  502 -0.94424509025E+02  0.49006895801E+03  0.16146827097E+03  0.52455273714E+03  0.00000000000E+00 0.  1.
         13    1    5    5    0    0  0.36426907909E+03 -0.70061660782E+03 -0.17169657281E+03  0.80810599939E+03  0.00000000000E+00 0.  1.
        -13    1    5    5    0    0  0.52827880862E+02 -0.17088701423E+03 -0.76357856574E+01  0.17902922066E+03  0.00000000000E+00 0. -1.
          2    1    6    6  503    0  0.10481940213E+02 -0.46841761546E+02  0.30192749808E+02  0.56706470850E+02  0.00000000000E+00 0. -1.
         -2    1    6    6    0  503 -0.18659442061E+03 -0.83887785358E+03  0.44054969967E+03  0.96572126874E+03  0.00000000000E+00 0.  1.
<mgrwt>
<rscale>  0 0.37863343E+04</rscale>
<asrwt>0</asrwt>
<pdfrwt beam="1">  1        1 0.37378262E+00 0.37863343E+04</pdfrwt>
<pdfrwt beam="2">  1       -2 0.22695100E+00 0.37863343E+04</pdfrwt>
<totfact> 0.94908990E-02</totfact>
</mgrwt>
</event>
<event>
12    5  0.5297412E-008  0.1718689E+04  0.7818608E-02  0.8750776E-01
          1   -1    0    0  501    0  0.00000000000E+00  0.00000000000E+00  0.15245123610E+04  0.15245123610E+04  0.00000000000E+00 0. -1.
         -2   -1    0    0    0  501 -0.00000000000E+00 -0.00000000000E+00 -0.48439970930E+03  0.48439970930E+03  0.00000000000E+00 0.  1.
        -24    2    1    2    0    0 -0.39439697827E+03  0.52348151799E+02 -0.17842859881E+03  0.44319815601E+03  0.79363311114E+02 0.  0.
        254    2    1    2    0    0  0.39439697827E+03 -0.52348151799E+02  0.12185412505E+04  0.15657139143E+04  0.89907061834E+03 0.  0.
         23    2    4    4    0    0  0.59793431944E+03 -0.26902920433E+03  0.93156260356E+03  0.11430273834E+04  0.93811255534E+02 0.  0.
         23    2    4    4    0    0 -0.20353734117E+03  0.21668105253E+03  0.28697864695E+03  0.42268653092E+03  0.89045111230E+02 0.  0.
          3    1    3    3  502    0 -0.32824822137E+02  0.23187826659E+02 -0.34413520750E+02  0.52909684028E+02  0.00000000000E+00 0. -1.
         -4    1    3    3    0  502 -0.36157215613E+03  0.29160325140E+02 -0.14401507806E+03  0.39028847198E+03  0.00000000000E+00 0.  1.
         13    1    5    5    0    0  0.23620826997E+03 -0.75302808345E+02  0.41374459696E+03  0.48233748690E+03  0.00000000000E+00 0.  1.
        -13    1    5    5    0    0  0.36172604947E+03 -0.19372639599E+03  0.51781800659E+03  0.66068989649E+03  0.00000000000E+00 0. -1.
          2    1    6    6  503    0 -0.40380905967E+01  0.45925293135E+02  0.59433046171E+02  0.75217854944E+02  0.00000000000E+00 0.  1.
         -2    1    6    6    0  503 -0.19949925057E+03  0.17075575940E+03  0.22754560078E+03  0.34746867597E+03  0.00000000000E+00 0. -1.
<mgrwt>
<rscale>  0 0.17186894E+04</rscale>
<asrwt>0</asrwt>
<pdfrwt beam="1">  1        1 0.23454036E+00 0.17186894E+04</pdfrwt>
<pdfrwt beam="2">  1       -2 0.74523033E-01 0.17186894E+04</pdfrwt>
<totfact> 0.84947233E+00</totfact>
</mgrwt>
</event>
<event>
12    5  0.5297412E-008  0.1496354E+04  0.7818608E-02  0.8886881E-01
          3   -1    0    0  501    0  0.00000000000E+00  0.00000000000E+00  0.12055681822E+04  0.12055681822E+04  0.00000000000E+00 0. -1.
         -2   -1    0    0    0  501 -0.00000000000E+00 -0.00000000000E+00 -0.46431952129E+03  0.46431952129E+03  0.00000000000E+00 0.  1.
        -24    2    1    2    0    0  0.28431422138E+03 -0.22118236166E+03 -0.89284700224E+02  0.37894379238E+03  0.76618708554E+02 0.  0.
        254    2    1    2    0    0 -0.28431422138E+03  0.22118236166E+03  0.83053336113E+03  0.12909439111E+04  0.92032293468E+03 0.  0.
         23    2    4    4    0    0 -0.47070872279E+03  0.44012619327E+03  0.39412391118E+03  0.76082518732E+03  0.90793945753E+02 0.  0.
         23    2    4    4    0    0  0.18639450141E+03 -0.21894383161E+03  0.43640944995E+03  0.53011872379E+03  0.88844480686E+02 0.  0.
          1    1    3    3  502    0  0.29617904487E+02 -0.52435309751E+02  0.14191125037E+01  0.60238657482E+02  0.00000000000E+00 0. -1.
         -2    1    3    3    0  502  0.25469631690E+03 -0.16874705191E+03 -0.90703812727E+02  0.31870513490E+03  0.00000000000E+00 0.  1.
         13    1    5    5    0    0 -0.30642467829E+03  0.25787904753E+03  0.28904657978E+03  0.49390850559E+03  0.00000000000E+00 0. -1.
        -13    1    5    5    0    0 -0.16428404451E+03  0.18224714574E+03  0.10507733140E+03  0.26691668173E+03  0.00000000000E+00 0.  1.
          3    1    6    6  503    0  0.58364060467E+02 -0.32540308995E+02  0.54279090648E+02  0.86089807441E+02  0.00000000000E+00 0. -1.
         -3    1    6    6    0  503  0.12803044094E+03 -0.18640352262E+03  0.38213035931E+03  0.44402891635E+03  0.00000000000E+00 0.  1.
<mgrwt>
<rscale>  0 0.14963540E+04</rscale>
<asrwt>0</asrwt>
<pdfrwt beam="1">  1        3 0.18547203E+00 0.14963540E+04</pdfrwt>
<pdfrwt beam="2">  1       -2 0.71433773E-01 0.14963540E+04</pdfrwt>
<totfact> 0.12915345E+00</totfact>
</mgrwt>
</event>
<event>
12    5  0.5297412E-008  0.1992804E+04  0.7818608E-02  0.8609993E-01
         -2   -1    0    0    0  501 -0.00000000000E+00  0.00000000000E+00  0.86379251051E+03  0.86379251051E+03  0.00000000000E+00 0.  1.
          1   -1    0    0  501    0  0.00000000000E+00 -0.00000000000E+00 -0.11493693075E+04  0.11493693075E+04  0.00000000000E+00 0. -1.
        -24    2    1    2    0    0 -0.49017654989E+03 -0.47903366705E+03 -0.57759992760E+03  0.89983846446E+03  0.79632163846E+02 0.  0.
        254    2    1    2    0    0  0.49017654989E+03  0.47903366705E+03  0.29202313066E+03  0.11133233535E+04  0.82732404557E+03 0.  0.
         23    2    4    4    0    0  0.32745959031E+03  0.38519253070E+03 -0.22067935982E+03  0.55930349130E+03  0.92292722004E+02 0.  0.
         23    2    4    4    0    0  0.16271695958E+03  0.93841136348E+02  0.51270249048E+03  0.55401986220E+03  0.93761378840E+02 0.  0.
          3    1    3    3  502    0 -0.49314214015E+03 -0.47338670683E+03 -0.57305016322E+03  0.89200371870E+03  0.00000000000E+00 0. -1.
         -4    1    3    3    0  502  0.29655902557E+01 -0.56469602150E+01 -0.45497643812E+01  0.78347457623E+01  0.00000000000E+00 0.  1.
         13    1    5    5    0    0  0.30635649954E+03  0.31022118614E+03 -0.18449373753E+03  0.47342309653E+03  0.00000000000E+00 0.  1.
        -13    1    5    5    0    0  0.21103090773E+02  0.74971344560E+02 -0.36185622289E+02  0.85880394769E+02  0.00000000000E+00 0. -1.
          2    1    6    6  503    0  0.12643362205E+03  0.87484892987E+02  0.28946533869E+03  0.32776401509E+03  0.00000000000E+00 0. -1.
         -2    1    6    6    0  503  0.36283337533E+02  0.63562433609E+01  0.22323715179E+03  0.22625584711E+03  0.00000000000E+00 0.  1.
<mgrwt>
<rscale>  0 0.19928037E+04</rscale>
<asrwt>0</asrwt>
<pdfrwt beam="1">  1        1 0.17682605E+00 0.19928037E+04</pdfrwt>
<pdfrwt beam="2">  1       -2 0.13289116E+00 0.19928037E+04</pdfrwt>
<totfact> 0.38934541E+00</totfact>
</mgrwt>
</event>
<event>
12    5  0.5297412E-008  0.1317835E+04  0.7818608E-02  0.9015540E-01
          1   -1    0    0  501    0  0.00000000000E+00  0.00000000000E+00  0.24530718171E+04  0.24530718171E+04  0.00000000000E+00 0. -1.
         -2   -1    0    0    0  501 -0.00000000000E+00 -0.00000000000E+00 -0.17699137043E+03  0.17699137043E+03  0.00000000000E+00 0.  1.
        -24    2    1    2    0    0  0.13352749473E+03  0.62721785206E+02  0.12148194146E+04  0.12263130100E+04  0.79333311705E+02 0.  0.
        254    2    1    2    0    0 -0.13352749473E+03 -0.62721785206E+02  0.10612610321E+04  0.14037501775E+04  0.90690460820E+03 0.  0.
         23    2    4    4    0    0 -0.26053068563E+02 -0.35492305141E+03  0.10112727569E+04  0.10758794973E+04  0.90526067895E+02 0.  0.
         23    2    4    4    0    0 -0.10747442617E+03  0.29220126620E+03  0.49988275148E+02  0.32787068019E+03  0.89822174464E+02 0.  0.
          1    1    3    3  502    0  0.12118622338E+03  0.60012789174E+02  0.80357039045E+03  0.81486993319E+03  0.00000000000E+00 0. -1.
         -2    1    3    3    0  502  0.12341271357E+02  0.27089960313E+01  0.41124902413E+03  0.41144307685E+03  0.00000000000E+00 0.  1.
         13    1    5    5    0    0 -0.31999934394E+02 -0.10843445506E+03  0.42699238196E+03  0.44170637430E+03  0.00000000000E+00 0. -1.
        -13    1    5    5    0    0  0.59468658301E+01 -0.24648859635E+03  0.58428037497E+03  0.63417312299E+03  0.00000000000E+00 0.  1.
          4    1    6    6  503    0 -0.23631015214E+00  0.58251281275E+01 -0.14253235059E+02  0.15399437322E+02  0.00000000000E+00 0. -1.
         -4    1    6    6    0  503 -0.10723811602E+03  0.28637613807E+03  0.64241510207E+02  0.31247124287E+03  0.00000000000E+00 0.  1.
<mgrwt>
<rscale>  0 0.13178354E+04</rscale>
<asrwt>0</asrwt>
<pdfrwt beam="1">  1        1 0.37739564E+00 0.13178354E+04</pdfrwt>
<pdfrwt beam="2">  1       -2 0.27229443E-01 0.13178354E+04</pdfrwt>
<totfact> 0.15500008E+01</totfact>
</mgrwt>
</event>
<event>
12    5  0.5297412E-008  0.1215383E+04  0.7818608E-02  0.9099497E-01
          1   -1    0    0  501    0  0.00000000000E+00  0.00000000000E+00  0.19399999017E+04  0.19399999017E+04  0.00000000000E+00 0. -1.
         -2   -1    0    0    0  501 -0.00000000000E+00 -0.00000000000E+00 -0.19035516007E+03  0.19035516007E+03  0.00000000000E+00 0.  1.
        -24    2    1    2    0    0  0.15151531819E+03 -0.21840128949E+03  0.40752176826E+03  0.49297301994E+03  0.79324598237E+02 0.  0.
        254    2    1    2    0    0 -0.15151531819E+03  0.21840128949E+03  0.13421229733E+04  0.16373820418E+04  0.89948310732E+03 0.  0.
         23    2    4    4    0    0 -0.24716969604E+03  0.22947450600E+03  0.64717204260E+02  0.35386898791E+03  0.85343637902E+02 0.  0.
         23    2    4    4    0    0  0.95654377857E+02 -0.11073216505E+02  0.12774057691E+04  0.12835130539E+04  0.79799025784E+02 0.  0.
          1    1    3    3  502    0  0.14889899813E+03 -0.21480364656E+03  0.41117763338E+03  0.48721511102E+03  0.00000000000E+00 0. -1.
         -2    1    3    3    0  502  0.26163200566E+01 -0.35976429359E+01 -0.36558651184E+01  0.57579089170E+01  0.00000000000E+00 0.  1.
         13    1    5    5    0    0 -0.24066488496E+02 -0.63666982865E+00  0.17807425741E+02  0.29945043472E+02  0.00000000000E+00 0. -1.
        -13    1    5    5    0    0 -0.22310320755E+03  0.23011117583E+03  0.46909778519E+02  0.32392394443E+03  0.00000000000E+00 0.  1.
          2    1    6    6  503    0  0.60702527409E+02 -0.39981301806E+02  0.97726661631E+03  0.97996598955E+03  0.00000000000E+00 0. -1.
         -2    1    6    6    0  503  0.34951850448E+02  0.28908085301E+02  0.30013915278E+03  0.30354706435E+03  0.00000000000E+00 0.  1.
<mgrwt>
<rscale>  0 0.12153831E+04</rscale>
<asrwt>0</asrwt>
<pdfrwt beam="1">  1        1 0.29846151E+00 0.12153831E+04</pdfrwt>
<pdfrwt beam="2">  1       -2 0.29285411E-01 0.12153831E+04</pdfrwt>
<totfact> 0.30510011E+01</totfact>
</mgrwt>
</event>
<event>
12    5  0.5297412E-008  0.2413812E+04  0.7818608E-02  0.8434351E-01
          1   -1    0    0  501    0  0.00000000000E+00  0.00000000000E+00  0.80598800948E+03  0.80598800948E+03  0.00000000000E+00 0. -1.
         -2   -1    0    0    0  501 -0.00000000000E+00 -0.00000000000E+00 -0.18072501577E+04  0.18072501577E+04  0.00000000000E+00 0.  1.
        -24    2    1    2    0    0  0.72855277110E+01  0.88504364862E+03  0.16410399734E+03  0.90376062682E+03  0.80608993110E+02 0.  0.
        254    2    1    2    0    0 -0.72855277110E+01 -0.88504364862E+03 -0.11653661455E+04  0.17094775403E+04  0.88367407387E+03 0.  0.
         23    2    4    4    0    0 -0.30874636925E+03 -0.79950603296E+03 -0.10610138165E+04  0.13668506869E+04  0.89421832769E+02 0.  0.
         23    2    4    4    0    0  0.30146084154E+03 -0.85537615666E+02 -0.10435232907E+03  0.34262685347E+03  0.91150586735E+02 0.  0.
          3    1    3    3  502    0  0.98936910762E+01  0.88519231334E+03  0.16111276790E+03  0.89978922015E+03  0.00000000000E+00 0. -1.
         -4    1    3    3    0  502 -0.26081633652E+01 -0.14866471990E+00  0.29912294465E+01  0.39714066702E+01  0.00000000000E+00 0.  1.
         13    1    5    5    0    0 -0.11147857799E+03 -0.33163502148E+03 -0.36850847138E+03  0.50814147075E+03  0.00000000000E+00 0. -1.
        -13    1    5    5    0    0 -0.19726779126E+03 -0.46787101148E+03 -0.69250534508E+03  0.85870921610E+03  0.00000000000E+00 0.  1.
          4    1    6    6  503    0  0.65662918673E+02  0.14645365468E+02 -0.37365918432E+01  0.67380024762E+02  0.00000000000E+00 0. -1.
         -4    1    6    6    0  503  0.23579792286E+03 -0.10018298113E+03 -0.10061573723E+03  0.27524682871E+03  0.00000000000E+00 0.  1.
<mgrwt>
<rscale>  0 0.24138119E+04</rscale>
<asrwt>0</asrwt>
<pdfrwt beam="1">  1        1 0.12399816E+00 0.24138119E+04</pdfrwt>
<pdfrwt beam="2">  1       -2 0.27803849E+00 0.24138119E+04</pdfrwt>
<totfact> 0.74207433E-01</totfact>
</mgrwt>
</event>
<event>
12    5  0.5297412E-008  0.1066414E+04  0.7818608E-02  0.9238560E-01
          1   -1    0    0  501    0  0.00000000000E+00  0.00000000000E+00  0.32561678826E+03  0.32561678826E+03  0.00000000000E+00 0. -1.
         -2   -1    0    0    0  501 -0.00000000000E+00 -0.00000000000E+00 -0.87314127697E+03  0.87314127697E+03  0.00000000000E+00 0.  1.
        -24    2    1    2    0    0  0.45149904644E+02  0.49528634546E+02  0.51543496822E+02  0.11646964731E+03  0.80105225489E+02 0.  0.
        254    2    1    2    0    0 -0.45149904644E+02 -0.49528634546E+02 -0.59906798553E+03  0.10822884179E+04  0.89887383360E+03 0.  0.
         23    2    4    4    0    0 -0.18091749338E+03 -0.43012601372E+03 -0.22789691272E+03  0.52557273486E+03  0.80933118815E+02 0.  0.
         23    2    4    4    0    0  0.13576758873E+03  0.38059737917E+03 -0.37117107282E+03  0.55671568305E+03  0.94218805323E+02 0.  0.
          1    1    3    3  502    0  0.67003578711E+02  0.26846459107E+02  0.42215614713E+02  0.83620392563E+02  0.00000000000E+00 0. -1.
         -2    1    3    3    0  502 -0.21853674067E+02  0.22682175438E+02  0.93278821080E+01  0.32849254747E+02  0.00000000000E+00 0.  1.
         13    1    5    5    0    0 -0.35331465982E+02 -0.26210070822E+02 -0.26222735137E+02  0.51214374340E+02  0.00000000000E+00 0.  1.
        -13    1    5    5    0    0 -0.14558602740E+03 -0.40391594289E+03 -0.20167417758E+03  0.47435836052E+03  0.00000000000E+00 0. -1.
          2    1    6    6  503    0  0.13530936516E+03  0.36148922366E+03 -0.37392586293E+03  0.53740453487E+03  0.00000000000E+00 0. -1.
         -2    1    6    6    0  503  0.45822357850E+00  0.19108155505E+02  0.27547901147E+01  0.19311148185E+02  0.00000000000E+00 0.  1.
<mgrwt>
<rscale>  0 0.10664135E+04</rscale>
<asrwt>0</asrwt>
<pdfrwt beam="1">  1        1 0.50094892E-01 0.10664135E+04</pdfrwt>
<pdfrwt beam="2">  1       -2 0.13432942E+00 0.10664135E+04</pdfrwt>
<totfact> 0.27407497E+01</totfact>
</mgrwt>
</event>
<event>
12    5  0.5297412E-008  0.1844477E+04  0.7818608E-02  0.8682998E-01
          1   -1    0    0  501    0  0.00000000000E+00  0.00000000000E+00  0.10442051662E+04  0.10442051662E+04  0.00000000000E+00 0. -1.
         -2   -1    0    0    0  501 -0.00000000000E+00 -0.00000000000E+00 -0.81451797328E+03  0.81451797328E+03  0.00000000000E+00 0.  1.
        -24    2    1    2    0    0 -0.17959425426E+03 -0.66952768630E+03  0.21611378392E+03  0.73101858501E+03  0.84626149256E+02 0.  0.
        254    2    1    2    0    0  0.17959425426E+03  0.66952768630E+03  0.13573409022E+02  0.11277045545E+04  0.88938850111E+03 0.  0.
         23    2    4    4    0    0  0.25018650458E+03  0.28015866656E+03  0.40757505736E+03  0.56157612645E+03  0.90377834059E+02 0.  0.
         23    2    4    4    0    0 -0.70592250318E+02  0.38936901974E+03 -0.39400164834E+03  0.56612842805E+03  0.93126788885E+02 0.  0.
          1    1    3    3  502    0 -0.25516491128E+01 -0.45762646456E+02  0.35371894652E+02  0.57895609982E+02  0.00000000000E+00 0. -1.
         -2    1    3    3    0  502 -0.17704260515E+03 -0.62376503984E+03  0.18074188927E+03  0.67312297503E+03  0.00000000000E+00 0.  1.
         13    1    5    5    0    0  0.11080142487E+03  0.68396912075E+02  0.10836227121E+03  0.16940329145E+03  0.00000000000E+00 0. -1.
        -13    1    5    5    0    0  0.13938507972E+03  0.21176175448E+03  0.29921278615E+03  0.39217283499E+03  0.00000000000E+00 0.  1.
          2    1    6    6  503    0 -0.76334663239E+02  0.16341850387E+03 -0.18214465343E+03  0.25633818091E+03  0.00000000000E+00 0. -1.
         -2    1    6    6    0  503  0.57424129211E+01  0.22595051587E+03 -0.21185699490E+03  0.30979024713E+03  0.00000000000E+00 0.  1.
<mgrwt>
<rscale>  0 0.18444770E+04</rscale>
<asrwt>0</asrwt>
<pdfrwt beam="1">  1        1 0.16064695E+00 0.18444770E+04</pdfrwt>
<pdfrwt beam="2">  1       -2 0.12531046E+00 0.18444770E+04</pdfrwt>
<totfact> 0.54909154E+00</totfact>
</mgrwt>
</event>
<event>
12    5  0.5297412E-008  0.2682822E+04  0.7818608E-02  0.8340600E-01
          3   -1    0    0  501    0  0.00000000000E+00  0.00000000000E+00  0.10921616889E+04  0.10921616889E+04  0.00000000000E+00 0. -1.
         -4   -1    0    0    0  501 -0.00000000000E+00 -0.00000000000E+00 -0.16475428695E+04  0.16475428695E+04  0.00000000000E+00 0.  1.
        -24    2    1    2    0    0  0.96132920821E+03  0.11804661764E+03 -0.95158896598E+03  0.13601664976E+04  0.80265126384E+02 0.  0.
        254    2    1    2    0    0 -0.96132920821E+03 -0.11804661764E+03  0.39620778545E+03  0.13795380608E+04  0.89891924080E+03 0.  0.
         23    2    4    4    0    0  0.15870286573E+03  0.28559946711E+02  0.18568549248E+02  0.18490985113E+03  0.88569700665E+02 0.  0.
         23    2    4    4    0    0 -0.11200320739E+04 -0.14660656436E+03  0.37763923621E+03  0.11946282097E+04  0.92519377903E+02 0.  0.
          3    1    3    3  502    0  0.65469612257E+02  0.52090138882E+00 -0.40303509267E+02  0.76882470867E+02  0.00000000000E+00 0. -1.
         -4    1    3    3    0  502  0.89585959595E+03  0.11752571626E+03 -0.91128545672E+03  0.12832840267E+04  0.00000000000E+00 0.  1.
         13    1    5    5    0    0  0.49255681000E+02 -0.20861987905E+02 -0.22446825409E+02  0.58010383735E+02  0.00000000000E+00 0. -1.
        -13    1    5    5    0    0  0.10944718473E+03  0.49421934616E+02  0.41015374657E+02  0.12689946739E+03  0.00000000000E+00 0.  1.
          1    1    6    6  503    0 -0.13512366898E+03 -0.25517398561E+02  0.15908044344E+02  0.13842907723E+03  0.00000000000E+00 0. -1.
         -1    1    6    6    0  503 -0.98490840496E+03 -0.12108916579E+03  0.36173119186E+03  0.10561991325E+04  0.00000000000E+00 0.  1.
<mgrwt>
<rscale>  0 0.26828218E+04</rscale>
<asrwt>0</asrwt>
<pdfrwt beam="1">  1        3 0.16802488E+00 0.26828218E+04</pdfrwt>
<pdfrwt beam="2">  1       -4 0.25346813E+00 0.26828218E+04</pdfrwt>
<totfact> 0.28774602E-02</totfact>
</mgrwt>
</event>
<event>
12    5  0.5297412E-008  0.1372833E+04  0.7818608E-02  0.8973722E-01
         -2   -1    0    0    0  501 -0.00000000000E+00  0.00000000000E+00  0.74982399579E+03  0.74982399579E+03  0.00000000000E+00 0.  1.
          1   -1    0    0  501    0  0.00000000000E+00 -0.00000000000E+00 -0.62837060808E+03  0.62837060808E+03  0.00000000000E+00 0. -1.
        -24    2    1    2    0    0 -0.13460292065E+03  0.37739783608E+02  0.39640206648E+03  0.42832005173E+03  0.82348229459E+02 0.  0.
        254    2    1    2    0    0  0.13460292065E+03 -0.37739783608E+02 -0.27494867877E+03  0.94987455214E+03  0.89840005083E+03 0.  0.
         23    2    4    4    0    0  0.41735828452E+02  0.15810322180E+03 -0.55370029283E+03  0.58484487208E+03  0.93386305220E+02 0.  0.
         23    2    4    4    0    0  0.92867092195E+02 -0.19584300541E+03  0.27875161406E+03  0.36502968005E+03  0.92549583439E+02 0.  0.
          3    1    3    3  502    0 -0.45907699814E+02 -0.84524987583E+01  0.52867984094E+02  0.70526487079E+02  0.00000000000E+00 0. -1.
         -4    1    3    3    0  502 -0.88695220833E+02  0.46192282366E+02  0.34353408238E+03  0.35779356465E+03  0.00000000000E+00 0.  1.
         13    1    5    5    0    0  0.19273029163E+02  0.22764791787E+02 -0.25889945136E+02  0.39496514497E+02  0.00000000000E+00 0. -1.
        -13    1    5    5    0    0  0.22462799289E+02  0.13533843002E+03 -0.52781034769E+03  0.54534835759E+03  0.00000000000E+00 0.  1.
          1    1    6    6  503    0 -0.64843801693E+01 -0.19360564889E+00  0.40937123044E+02  0.41447951849E+02  0.00000000000E+00 0. -1.
         -1    1    6    6    0  503  0.99351472365E+02 -0.19564939976E+03  0.23781449102E+03  0.32358172820E+03  0.00000000000E+00 0.  1.
<mgrwt>
<rscale>  0 0.13728326E+04</rscale>
<asrwt>0</asrwt>
<pdfrwt beam="1">  1        1 0.96672401E-01 0.13728326E+04</pdfrwt>
<pdfrwt beam="2">  1       -2 0.11535754E+00 0.13728326E+04</pdfrwt>
<totfact> 0.16020866E+01</totfact>
</mgrwt>
</event>
<event>
12    5  0.5297412E-008  0.2989687E+04  0.7818608E-02  0.8246682E-01
          1   -1    0    0  501    0  0.00000000000E+00  0.00000000000E+00  0.11588119604E+04  0.11588119604E+04  0.00000000000E+00 0. -1.
         -2   -1    0    0    0  501 -0.00000000000E+00 -0.00000000000E+00 -0.19283166939E+04  0.19283166939E+04  0.00000000000E+00 0.  1.
        -24    2    1    2    0    0 -0.44442483157E+03 -0.12826800508E+04 -0.32628844034E+03  0.13983928459E+04  0.79100324817E+02 0.  0.
        254    2    1    2    0    0  0.44442483157E+03  0.12826800508E+04 -0.44321629307E+03  0.16887358084E+04  0.90144683953E+03 0.  0.
         23    2    4    4    0    0  0.50955940110E+03  0.12714714771E+04 -0.59990901695E+03  0.14981113137E+04  0.90311567552E+02 0.  0.
         23    2    4    4    0    0 -0.65134569530E+02  0.11208573750E+02  0.15669272388E+03  0.19062449476E+03  0.86121681429E+02 0.  0.
          3    1    3    3  502    0 -0.27953917990E+03 -0.87685066500E+03 -0.19112131223E+03  0.93996627482E+03  0.00000000000E+00 0. -1.
         -4    1    3    3    0  502 -0.16488565167E+03 -0.40582938584E+03 -0.13516712811E+03  0.45842657106E+03  0.00000000000E+00 0.  1.
         13    1    5    5    0    0  0.17052880548E+03  0.32028547997E+03 -0.15072999837E+03  0.39291525115E+03  0.00000000000E+00 0.  1.
        -13    1    5    5    0    0  0.33903059562E+03  0.95118599711E+03 -0.44917901858E+03  0.11051960625E+04  0.00000000000E+00 0. -1.
          1    1    6    6  503    0  0.11880133056E+01 -0.57929151323E+01  0.10415567657E+03  0.10432341158E+03  0.00000000000E+00 0. -1.
         -1    1    6    6    0  503 -0.66322582836E+02  0.17001488882E+02  0.52537047308E+02  0.86301083180E+02  0.00000000000E+00 0.  1.
<mgrwt>
<rscale>  0 0.29896866E+04</rscale>
<asrwt>0</asrwt>
<pdfrwt beam="1">  1        1 0.17827877E+00 0.29896866E+04</pdfrwt>
<pdfrwt beam="2">  1       -2 0.29666410E+00 0.29896866E+04</pdfrwt>
<totfact> 0.28536664E-01</totfact>
</mgrwt>
</event>
<event>
12    5  0.5297412E-008  0.4114680E+04  0.7818608E-02  0.7981803E-01
          1   -1    0    0  501    0  0.00000000000E+00  0.00000000000E+00  0.29993977797E+04  0.29993977797E+04  0.00000000000E+00 0. -1.
         -2   -1    0    0    0  501 -0.00000000000E+00 -0.00000000000E+00 -0.14111656802E+04  0.14111656802E+04  0.00000000000E+00 0.  1.
        -24    2    1    2    0    0  0.19937508015E+02  0.15778062720E+04  0.19955055796E+04  0.25452055079E+04  0.78475620301E+02 0.  0.
        254    2    1    2    0    0 -0.19937508015E+02 -0.15778062720E+04 -0.40727348015E+03  0.18653579520E+04  0.90764445980E+03 0.  0.
         23    2    4    4    0    0  0.85756235877E+02  0.49257831649E+02 -0.16772145413E+03  0.21488010100E+03  0.90898325937E+02 0.  0.
         23    2    4    4    0    0 -0.10569374389E+03 -0.16270641036E+04 -0.23955202602E+03  0.16504778510E+04  0.90461034396E+02 0.  0.
          3    1    3    3  502    0 -0.21718124243E+02  0.32433646633E+03  0.44093837733E+03  0.54780696684E+03  0.00000000000E+00 0. -1.
         -4    1    3    3    0  502  0.41655632258E+02  0.12534698056E+04  0.15545672023E+04  0.19973985410E+04  0.00000000000E+00 0.  1.
         13    1    5    5    0    0  0.55973919276E+02  0.15759722689E+02 -0.15888824454E+03  0.16919492531E+03  0.00000000000E+00 0.  1.
        -13    1    5    5    0    0  0.29782316600E+02  0.33498108960E+02 -0.88332095956E+01  0.45685175689E+02  0.00000000000E+00 0. -1.
          2    1    6    6  503    0 -0.23450915704E+02 -0.76688644411E+03 -0.75593696229E+02  0.77095990201E+03  0.00000000000E+00 0. -1.
         -2    1    6    6    0  503 -0.82242828188E+02 -0.86017765950E+03 -0.16395832979E+03  0.87951794899E+03  0.00000000000E+00 0.  1.
<mgrwt>
<rscale>  0 0.41146797E+04</rscale>
<asrwt>0</asrwt>
<pdfrwt beam="1">  1        1 0.46144581E+00 0.41146797E+04</pdfrwt>
<pdfrwt beam="2">  1       -2 0.21710241E+00 0.41146797E+04</pdfrwt>
<totfact> 0.42102920E-02</totfact>
</mgrwt>
</event>
<event>
12    5  0.5297412E-008  0.2642108E+04  0.7818608E-02  0.8354037E-01
          1   -1    0    0  501    0  0.00000000000E+00  0.00000000000E+00  0.11017604669E+04  0.11017604669E+04  0.00000000000E+00 0. -1.
         -2   -1    0    0    0  501 -0.00000000000E+00 -0.00000000000E+00 -0.15839960649E+04  0.15839960649E+04  0.00000000000E+00 0.  1.
        -24    2    1    2    0    0  0.10592103711E+04  0.17885230540E+03  0.24168442072E+03  0.11039032783E+04  0.79223300090E+02 0.  0.
        254    2    1    2    0    0 -0.10592103711E+04 -0.17885230540E+03 -0.72392001873E+03  0.15818532535E+04  0.90790129681E+03 0.  0.
         23    2    4    4    0    0 -0.11033417625E+04 -0.15193469862E+03 -0.85983262615E+03  0.14102310613E+04  0.94827758496E+02 0.  0.
         23    2    4    4    0    0  0.44131391443E+02 -0.26917606778E+02  0.13591260742E+03  0.17162219217E+03  0.91158119355E+02 0.  0.
          1    1    3    3  502    0  0.53156462079E+03  0.74261514431E+02  0.83254646845E+02  0.54314551902E+03  0.00000000000E+00 0. -1.
         -2    1    3    3    0  502  0.52764575029E+03  0.10459079097E+03  0.15842977387E+03  0.56075775929E+03  0.00000000000E+00 0.  1.
         13    1    5    5    0    0 -0.46395966029E+03 -0.10488415708E+03 -0.33677382331E+03  0.58281717618E+03  0.00000000000E+00 0.  1.
        -13    1    5    5    0    0 -0.63938210223E+03 -0.47050541539E+02 -0.52305880284E+03  0.82741388515E+03  0.00000000000E+00 0. -1.
          1    1    6    6  503    0 -0.12397039938E+02 -0.41722492704E+02  0.38928132663E+02  0.58393942402E+02  0.00000000000E+00 0. -1.
         -1    1    6    6    0  503  0.56528431382E+02  0.14804885926E+02  0.96984474755E+02  0.11322824977E+03  0.00000000000E+00 0.  1.
<mgrwt>
<rscale>  0 0.26421084E+04</rscale>
<asrwt>0</asrwt>
<pdfrwt beam="1">  1        1 0.16950161E+00 0.26421084E+04</pdfrwt>
<pdfrwt beam="2">  1       -2 0.24369170E+00 0.26421084E+04</pdfrwt>
<totfact> 0.68393308E-01</totfact>
</mgrwt>
</event>
<event>
12    5  0.5297412E-008  0.1563307E+04  0.7818608E-02  0.8843413E-01
         -2   -1    0    0    0  501 -0.00000000000E+00  0.00000000000E+00  0.16820497308E+04  0.16820497308E+04  0.00000000000E+00 0.  1.
          1   -1    0    0  501    0  0.00000000000E+00 -0.00000000000E+00 -0.36323651829E+03  0.36323651829E+03  0.00000000000E+00 0. -1.
        -24    2    1    2    0    0  0.13777567142E+03  0.44275125729E+03  0.13594344657E+03  0.48963280199E+03  0.79049659400E+02 0.  0.
        254    2    1    2    0    0 -0.13777567142E+03 -0.44275125729E+03  0.11828697659E+04  0.15556534471E+04  0.89770036915E+03 0.  0.
         23    2    4    4    0    0 -0.16449778161E+03 -0.19050461188E+03  0.12486794332E+04  0.12771160909E+04  0.92052459542E+02 0.  0.
         23    2    4    4    0    0  0.26722110196E+02 -0.25224664541E+03 -0.65809667287E+02  0.27853735621E+03  0.94391234772E+02 0.  0.
          3    1    3    3  502    0  0.78242539555E+02  0.34552467892E+03  0.12242231613E+03  0.37482852376E+03  0.00000000000E+00 0. -1.
         -4    1    3    3    0  502  0.59533131864E+02  0.97226578370E+02  0.13521130445E+02  0.11480427823E+03  0.00000000000E+00 0.  1.
         13    1    5    5    0    0 -0.22618983962E+02 -0.87269235016E+01  0.29338906949E+03  0.29438906862E+03  0.00000000000E+00 0.  1.
        -13    1    5    5    0    0 -0.14187879765E+03 -0.18177768838E+03  0.95529036371E+03  0.98272702223E+03  0.00000000000E+00 0. -1.
          2    1    6    6  503    0  0.16767785711E+02 -0.55761248437E+02 -0.57182740480E+02  0.81610913938E+02  0.00000000000E+00 0. -1.
         -2    1    6    6    0  503  0.99543244849E+01 -0.19648539698E+03 -0.86269268069E+01  0.19692644227E+03  0.00000000000E+00 0.  1.
<mgrwt>
<rscale>  0 0.15633066E+04</rscale>
<asrwt>0</asrwt>
<pdfrwt beam="1">  1        1 0.55882542E-01 0.15633066E+04</pdfrwt>
<pdfrwt beam="2">  1       -2 0.25877688E+00 0.15633066E+04</pdfrwt>
<totfact> 0.32583838E+00</totfact>
</mgrwt>
</event>
<event>
12    5  0.5297412E-008  0.1600692E+04  0.7818608E-02  0.8820123E-01
          1   -1    0    0  501    0  0.00000000000E+00  0.00000000000E+00  0.29886854940E+04  0.29886854940E+04  0.00000000000E+00 0. -1.
         -2   -1    0    0    0  501 -0.00000000000E+00 -0.00000000000E+00 -0.21432615716E+03  0.21432615716E+03  0.00000000000E+00 0.  1.
        -24    2    1    2    0    0 -0.23046183376E+03  0.71352868445E+02 -0.11451978791E+02  0.25433746689E+03  0.79702638533E+02 0.  0.
        254    2    1    2    0    0  0.23046183376E+03 -0.71352868445E+02  0.27858113157E+04  0.29486741843E+04  0.93580493161E+03 0.  0.
         23    2    4    4    0    0  0.55931698927E+03 -0.16539049876E+03  0.14187910480E+04  0.15366357319E+04  0.89954560743E+02 0.  0.
         23    2    4    4    0    0 -0.32885515551E+03  0.94037630314E+02  0.13670202676E+04  0.14120384524E+04  0.90107656304E+02 0.  0.
          3    1    3    3  502    0 -0.80559337023E+02 -0.10602382516E+02  0.11112959299E+02  0.82010457632E+02  0.00000000000E+00 0. -1.
         -4    1    3    3    0  502 -0.14990249674E+03  0.81955250961E+02 -0.22564938090E+02  0.17232700926E+03  0.00000000000E+00 0.  1.
         13    1    5    5    0    0  0.50126020878E+03 -0.17513268224E+03  0.12915633371E+04  0.13964487485E+04  0.00000000000E+00 0. -1.
        -13    1    5    5    0    0  0.58056780496E+02  0.97421834779E+01  0.12722771089E+03  0.14018698342E+03  0.00000000000E+00 0.  1.
          1    1    6    6  503    0 -0.25344633977E+03  0.68173438944E+02  0.87203035938E+03  0.91066987026E+03  0.00000000000E+00 0. -1.
         -1    1    6    6    0  503 -0.75408815738E+02  0.25864191370E+02  0.49498990826E+03  0.50136858215E+03  0.00000000000E+00 0.  1.
<mgrwt>
<rscale>  0 0.16006917E+04</rscale>
<asrwt>0</asrwt>
<pdfrwt beam="1">  1        1 0.45979774E+00 0.16006917E+04</pdfrwt>
<pdfrwt beam="2">  1       -2 0.32973257E-01 0.16006917E+04</pdfrwt>
<totfact> 0.44278577E+00</totfact>
</mgrwt>
</event>
<event>
12    5  0.5297412E-008  0.2542042E+04  0.7818608E-02  0.8388159E-01
          1   -1    0    0  501    0  0.00000000000E+00  0.00000000000E+00  0.99414954839E+03  0.99414954839E+03  0.00000000000E+00 0. -1.
         -2   -1    0    0    0  501 -0.00000000000E+00 -0.00000000000E+00 -0.16250018053E+04  0.16250018053E+04  0.00000000000E+00 0.  1.
        -24    2    1    2    0    0 -0.18461920055E+03  0.58990421182E+03  0.67497449091E+03  0.91867723116E+03  0.79410725623E+02 0.  0.
        254    2    1    2    0    0  0.18461920055E+03 -0.58990421182E+03 -0.13058267479E+04  0.17004741226E+04  0.89685980943E+03 0.  0.
         23    2    4    4    0    0 -0.44855370475E+02 -0.65753886987E+03 -0.43978741444E+03  0.79759268202E+03  0.91497250554E+02 0.  0.
         23    2    4    4    0    0  0.22947457103E+03  0.67634658053E+02 -0.86603933341E+03  0.90288144054E+03  0.89094011812E+02 0.  0.
          1    1    3    3  502    0 -0.18426743235E+03  0.55255496383E+03  0.60794300258E+03  0.84194190362E+03  0.00000000000E+00 0. -1.
         -2    1    3    3    0  502 -0.35176820570E+00  0.37349247987E+02  0.67031488327E+02  0.76735327544E+02  0.00000000000E+00 0.  1.
         13    1    5    5    0    0  0.25626672408E+02 -0.15606495390E+03 -0.12191963923E+03  0.19969325127E+03  0.00000000000E+00 0.  1.
        -13    1    5    5    0    0 -0.70482042883E+02 -0.50147391597E+03 -0.31786777521E+03  0.59789943075E+03  0.00000000000E+00 0. -1.
          2    1    6    6  503    0  0.22771109714E+03  0.80567613961E+02 -0.83432708369E+03  0.86858803052E+03  0.00000000000E+00 0. -1.
         -2    1    6    6    0  503  0.17634738875E+01 -0.12932955908E+02 -0.31712249719E+02  0.34293410022E+02  0.00000000000E+00 0.  1.
<mgrwt>
<rscale>  0 0.25420423E+04</rscale>
<asrwt>0</asrwt>
<pdfrwt beam="1">  1        1 0.15294608E+00 0.25420423E+04</pdfrwt>
<pdfrwt beam="2">  1       -2 0.25000028E+00 0.25420423E+04</pdfrwt>
<totfact> 0.76287407E-01</totfact>
</mgrwt>
</event>
<event>
12    5  0.5297412E-008  0.1127108E+04  0.7818608E-02  0.9179166E-01
         -2   -1    0    0    0  501 -0.00000000000E+00  0.00000000000E+00  0.44549526166E+03  0.44549526166E+03  0.00000000000E+00 0.  1.
          1   -1    0    0  501    0  0.00000000000E+00 -0.00000000000E+00 -0.71289845531E+03  0.71289845531E+03  0.00000000000E+00 0. -1.
        -24    2    1    2    0    0 -0.65968441195E+02  0.10929011081E+03  0.84360540756E+02  0.17340251160E+03  0.81581656250E+02 0.  0.
        254    2    1    2    0    0  0.65968441195E+02 -0.10929011081E+03 -0.35176373441E+03  0.98499120537E+03  0.91113873052E+03 0.  0.
         23    2    4    4    0    0  0.31239626003E+03 -0.37642484217E+03 -0.43791646278E+02  0.49989354064E+03  0.93213510856E+02 0.  0.
         23    2    4    4    0    0 -0.24642781884E+03  0.26713473136E+03 -0.30797208813E+03  0.48509766473E+03  0.91571298243E+02 0.  0.
          1    1    3    3  502    0 -0.11830577359E+02  0.68769018580E+01  0.51070496106E+02  0.52872014453E+02  0.00000000000E+00 0. -1.
         -2    1    3    3    0  502 -0.54137863835E+02  0.10241320895E+03  0.33290044650E+02  0.12053049714E+03  0.00000000000E+00 0.  1.
         13    1    5    5    0    0  0.26968417120E+03 -0.26307115521E+03 -0.37302209975E+02  0.37858610615E+03  0.00000000000E+00 0. -1.
        -13    1    5    5    0    0  0.42712088832E+02 -0.11335368696E+03 -0.64894363031E+01  0.12130743449E+03  0.00000000000E+00 0.  1.
          1    1    6    6  503    0 -0.22958865147E+03  0.24887051625E+03 -0.24657031180E+03  0.41886083775E+03  0.00000000000E+00 0. -1.
         -1    1    6    6    0  503 -0.16839167364E+02  0.18264215114E+02 -0.61401776332E+02  0.66236826977E+02  0.00000000000E+00 0.  1.
<mgrwt>
<rscale>  0 0.11271076E+04</rscale>
<asrwt>0</asrwt>
<pdfrwt beam="1">  1        1 0.10967669E+00 0.11271076E+04</pdfrwt>
<pdfrwt beam="2">  1       -2 0.68537732E-01 0.11271076E+04</pdfrwt>
<totfact> 0.44943059E+01</totfact>
</mgrwt>
</event>
<event>
12    5  0.5297412E-008  0.1658204E+04  0.7818608E-02  0.8785568E-01
         -2   -1    0    0    0  501 -0.00000000000E+00  0.00000000000E+00  0.50376285350E+03  0.50376285350E+03  0.00000000000E+00 0.  1.
          1   -1    0    0  501    0  0.00000000000E+00 -0.00000000000E+00 -0.13645506916E+04  0.13645506916E+04  0.00000000000E+00 0. -1.
        -24    2    1    2    0    0  0.34093704313E+03 -0.46557397547E+03 -0.24169304358E+03  0.63047594970E+03  0.78020521866E+02 0.  0.
        254    2    1    2    0    0 -0.34093704313E+03  0.46557397547E+03 -0.61909479455E+03  0.12378375954E+04  0.90330855969E+03 0.  0.
         23    2    4    4    0    0 -0.41358906423E+03  0.12362316130E+03  0.82605794936E+02  0.44877711172E+03  0.90766616045E+02 0.  0.
         23    2    4    4    0    0  0.72652021106E+02  0.34195081417E+03 -0.70170058949E+03  0.78906048370E+03  0.89577085122E+02 0.  0.
          1    1    3    3  502    0  0.24609216058E+03 -0.33751593767E+03 -0.21181963256E+03  0.46834380152E+03  0.00000000000E+00 0. -1.
         -2    1    3    3    0  502  0.94844882547E+02 -0.12805803780E+03 -0.29873411012E+02  0.16213214819E+03  0.00000000000E+00 0.  1.
         13    1    5    5    0    0 -0.45400894868E+02  0.45028634441E+02  0.20885112283E+02  0.67268172931E+02  0.00000000000E+00 0. -1.
        -13    1    5    5    0    0 -0.36818816936E+03  0.78594526860E+02  0.61720682653E+02  0.38150893879E+03  0.00000000000E+00 0.  1.
          2    1    6    6  503    0  0.59007199863E+02  0.86777895365E+02 -0.22149597756E+03  0.24509737011E+03  0.00000000000E+00 0. -1.
         -2    1    6    6    0  503  0.13644821244E+02  0.25517291880E+03 -0.48020461193E+03  0.54396311360E+03  0.00000000000E+00 0.  1.
<mgrwt>
<rscale>  0 0.16582038E+04</rscale>
<asrwt>0</asrwt>
<pdfrwt beam="1">  1        1 0.20993088E+00 0.16582038E+04</pdfrwt>
<pdfrwt beam="2">  1       -2 0.77501978E-01 0.16582038E+04</pdfrwt>
<totfact> 0.10119670E+01</totfact>
</mgrwt>
</event>
<event>
12    5  0.5297412E-008  0.2104112E+04  0.7818608E-02  0.8559434E-01
          1   -1    0    0  501    0  0.00000000000E+00  0.00000000000E+00  0.10386052342E+04  0.10386052342E+04  0.00000000000E+00 0. -1.
         -2   -1    0    0    0  501 -0.00000000000E+00 -0.00000000000E+00 -0.10656809171E+04  0.10656809171E+04  0.00000000000E+00 0.  1.
        -24    2    1    2    0    0 -0.67443721447E+03 -0.35055330088E+03 -0.38153566897E+03  0.85402442813E+03  0.77685803847E+02 0.  0.
        254    2    1    2    0    0  0.67443721447E+03  0.35055330088E+03  0.35445998609E+03  0.12502617232E+04  0.92723207542E+03 0.  0.
         23    2    4    4    0    0  0.87260547577E+03  0.30183929410E+03  0.13661970056E+03  0.93794628714E+03  0.92363516462E+02 0.  0.
         23    2    4    4    0    0 -0.19816826130E+03  0.48714006779E+02  0.21784028553E+03  0.31231543603E+03  0.91884859161E+02 0.  0.
          3    1    3    3  502    0 -0.16776652731E+02  0.18715491466E+01 -0.15591461845E+02  0.22979391974E+02  0.00000000000E+00 0. -1.
         -4    1    3    3    0  502 -0.65766056174E+03 -0.35242485002E+03 -0.36594420712E+03  0.83104503615E+03  0.00000000000E+00 0.  1.
         13    1    5    5    0    0  0.66145841069E+02  0.21161375032E+02  0.35727571367E+02  0.78099522660E+02  0.00000000000E+00 0.  1.
        -13    1    5    5    0    0  0.80645963471E+03  0.28067791907E+03  0.10089212920E+03  0.85984676448E+03  0.00000000000E+00 0. -1.
          2    1    6    6  503    0 -0.15266736766E+03  0.32073657924E+02  0.21244230031E+03  0.26356740247E+03  0.00000000000E+00 0. -1.
         -2    1    6    6    0  503 -0.45500893640E+02  0.16640348855E+02  0.53979852111E+01  0.48748033564E+02  0.00000000000E+00 0.  1.
<mgrwt>
<rscale>  0 0.21041120E+04</rscale>
<asrwt>0</asrwt>
<pdfrwt beam="1">  1        1 0.15978542E+00 0.21041120E+04</pdfrwt>
<pdfrwt beam="2">  1       -2 0.16395091E+00 0.21041120E+04</pdfrwt>
<totfact> 0.26818658E+00</totfact>
</mgrwt>
</event>
<event>
12    5  0.5297412E-008  0.1466355E+04  0.7818608E-02  0.8907140E-01
         -2   -1    0    0    0  501 -0.00000000000E+00  0.00000000000E+00  0.59737221235E+03  0.59737221235E+03  0.00000000000E+00 0.  1.
          1   -1    0    0  501    0  0.00000000000E+00 -0.00000000000E+00 -0.89985683913E+03  0.89985683913E+03  0.00000000000E+00 0. -1.
        -24    2    1    2    0    0 -0.41501137847E+03  0.17508140748E+03  0.18207816592E+02  0.45727642276E+03  0.76695884644E+02 0.  0.
        254    2    1    2    0    0  0.41501137847E+03 -0.17508140748E+03 -0.32069244337E+03  0.10399526287E+04  0.88077799883E+03 0.  0.
         23    2    4    4    0    0  0.14234766264E+03  0.14960428450E+03 -0.51717832659E+03  0.56353395137E+03  0.86329565352E+02 0.  0.
         23    2    4    4    0    0  0.27266371584E+03 -0.32468569198E+03  0.19648588322E+03  0.47641867734E+03  0.92745637667E+02 0.  0.
          1    1    3    3  502    0 -0.28695615261E+03  0.10796953743E+03  0.46076456533E+02  0.31003918201E+03  0.00000000000E+00 0. -1.
         -2    1    3    3    0  502 -0.12805522586E+03  0.67111870052E+02 -0.27868639941E+02  0.14723724075E+03  0.00000000000E+00 0.  1.
         13    1    5    5    0    0 -0.54596748733E+01  0.21565433524E+02 -0.22660009216E+02  0.31754558578E+02  0.00000000000E+00 0. -1.
        -13    1    5    5    0    0  0.14780733751E+03  0.12803885098E+03 -0.49451831737E+03  0.53177939279E+03  0.00000000000E+00 0.  1.
          3    1    6    6  503    0  0.45859108567E+02 -0.77217472399E+02  0.49644538345E+01  0.89945770796E+02  0.00000000000E+00 0. -1.
         -3    1    6    6    0  503  0.22680460727E+03 -0.24746821958E+03  0.19152142938E+03  0.38647290655E+03  0.00000000000E+00 0.  1.
<mgrwt>
<rscale>  0 0.14663553E+04</rscale>
<asrwt>0</asrwt>
<pdfrwt beam="1">  1        1 0.13843951E+00 0.14663553E+04</pdfrwt>
<pdfrwt beam="2">  1       -2 0.91903417E-01 0.14663553E+04</pdfrwt>
<totfact> 0.15578966E+01</totfact>
</mgrwt>
</event>
<event>
12    5  0.5297412E-008  0.1870884E+04  0.7818608E-02  0.8669487E-01
          1   -1    0    0  501    0  0.00000000000E+00  0.00000000000E+00  0.10719846364E+04  0.10719846364E+04  0.00000000000E+00 0. -1.
         -2   -1    0    0    0  501 -0.00000000000E+00 -0.00000000000E+00 -0.81629120260E+03  0.81629120260E+03  0.00000000000E+00 0.  1.
        -24    2    1    2    0    0 -0.26378348565E+03  0.64688185013E+03  0.99379056574E+01  0.70275333489E+03  0.75667908697E+02 0.  0.
        254    2    1    2    0    0  0.26378348565E+03 -0.64688185013E+03  0.24575552809E+03  0.11855225041E+04  0.92575913322E+03 0.  0.
         23    2    4    4    0    0  0.29423764534E+03 -0.82934619734E+03  0.35349688831E+03  0.95283466042E+03  0.92427988557E+02 0.  0.
         23    2    4    4    0    0 -0.30454159689E+02  0.18246434722E+03 -0.10774136022E+03  0.23268784365E+03  0.91185185370E+02 0.  0.
          1    1    3    3  502    0 -0.14892543699E+02  0.21152480640E+02  0.13821429862E+02  0.29329971334E+02  0.00000000000E+00 0. -1.
         -2    1    3    3    0  502 -0.24889094195E+03  0.62572936949E+03 -0.38835242047E+01  0.67342336356E+03  0.00000000000E+00 0.  1.
         13    1    5    5    0    0  0.27594270798E+03 -0.72616528740E+03  0.28409437778E+03  0.82714570554E+03  0.00000000000E+00 0. -1.
        -13    1    5    5    0    0  0.18294937354E+02 -0.10318090994E+03  0.69402510531E+02  0.12568895488E+03  0.00000000000E+00 0.  1.
          1    1    6    6  503    0 -0.46344439408E+02  0.15144433481E+03 -0.11666826876E+03  0.19670963003E+03  0.00000000000E+00 0. -1.
         -1    1    6    6    0  503  0.15890279719E+02  0.31020012402E+02  0.89269085377E+01  0.35978213616E+02  0.00000000000E+00 0.  1.
<mgrwt>
<rscale>  0 0.18708839E+04</rscale>
<asrwt>0</asrwt>
<pdfrwt beam="1">  1        1 0.16492071E+00 0.18708839E+04</pdfrwt>
<pdfrwt beam="2">  1       -2 0.12558326E+00 0.18708839E+04</pdfrwt>
<totfact> 0.51889691E+00</totfact>
</mgrwt>
</event>
<event>
12    5  0.5297412E-008  0.1524788E+04  0.7818608E-02  0.8868135E-01
          1   -1    0    0  501    0  0.00000000000E+00  0.00000000000E+00  0.70228775841E+03  0.70228775841E+03  0.00000000000E+00 0. -1.
         -2   -1    0    0    0  501 -0.00000000000E+00 -0.00000000000E+00 -0.82764400967E+03  0.82764400967E+03  0.00000000000E+00 0.  1.
        -24    2    1    2    0    0  0.55598507090E+01 -0.32678164344E+03 -0.36163269380E+03  0.49441617286E+03  0.82776762023E+02 0.  0.
        254    2    1    2    0    0 -0.55598507090E+01  0.32678164344E+03  0.23627644254E+03  0.10355155952E+04  0.95375512381E+03 0.  0.
         23    2    4    4    0    0 -0.16147951821E+03  0.50198693604E+03 -0.16714217626E+03  0.56058155653E+03  0.90822110055E+02 0.  0.
         23    2    4    4    0    0  0.15591966750E+03 -0.17520529260E+03  0.40341861880E+03  0.47493403869E+03  0.88362445863E+02 0.  0.
          3    1    3    3  502    0  0.26767477902E+02 -0.33558549078E+02 -0.52396971670E+02  0.67735638550E+02  0.00000000000E+00 0. -1.
         -4    1    3    3    0  502 -0.21207627193E+02 -0.29322309437E+03 -0.30923572213E+03  0.42668053431E+03  0.00000000000E+00 0.  1.
         13    1    5    5    0    0 -0.98609802189E+02  0.39346996648E+03 -0.97748262149E+02  0.41724960199E+03  0.00000000000E+00 0. -1.
        -13    1    5    5    0    0 -0.62869716017E+02  0.10851696957E+03 -0.69393914109E+02  0.14333195454E+03  0.00000000000E+00 0.  1.
          2    1    6    6  503    0  0.14505128884E+03 -0.16337760034E+03  0.30478685382E+03  0.37500285726E+03  0.00000000000E+00 0. -1.
         -2    1    6    6    0  503  0.10868378653E+02 -0.11827692259E+02  0.98631764980E+02  0.99931181429E+02  0.00000000000E+00 0.  1.
<mgrwt>
<rscale>  0 0.15247875E+04</rscale>
<asrwt>0</asrwt>
<pdfrwt beam="1">  1        1 0.10804427E+00 0.15247875E+04</pdfrwt>
<pdfrwt beam="2">  1       -2 0.12732985E+00 0.15247875E+04</pdfrwt>
<totfact> 0.10485475E+01</totfact>
</mgrwt>
</event>
<event>
12    5  0.5297412E-008  0.3590572E+04  0.7818608E-02  0.8092655E-01
         -2   -1    0    0    0  501 -0.00000000000E+00  0.00000000000E+00  0.61891485462E+03  0.61891485462E+03  0.00000000000E+00 0.  1.
          1   -1    0    0  501    0  0.00000000000E+00 -0.00000000000E+00 -0.52075852738E+04  0.52075852738E+04  0.00000000000E+00 0. -1.
        -24    2    1    2    0    0  0.55784941216E+02 -0.51101464358E+03 -0.47470611303E+04  0.47754865610E+04  0.80215921470E+02 0.  0.
        254    2    1    2    0    0 -0.55784941216E+02  0.51101464358E+03  0.15839071113E+03  0.10510135674E+04  0.90293630774E+03 0.  0.
         23    2    4    4    0    0  0.94400541029E+02 -0.23496004531E+03  0.40690735210E+01  0.26927330828E+03  0.91508863803E+02 0.  0.
         23    2    4    4    0    0 -0.15018548224E+03  0.74597468889E+03  0.15432163761E+03  0.78174025910E+03  0.90932663645E+02 0.  0.
          3    1    3    3  502    0  0.66605915614E+02 -0.35769784955E+03 -0.35505760267E+04  0.35691699624E+04  0.00000000000E+00 0. -1.
         -4    1    3    3    0  502 -0.10820974398E+02 -0.15331679404E+03 -0.11964851036E+04  0.12063165986E+04  0.00000000000E+00 0.  1.
         13    1    5    5    0    0  0.38734121467E+02 -0.18939734852E+03  0.23549898480E+02  0.19474672144E+03  0.00000000000E+00 0.  1.
        -13    1    5    5    0    0  0.55666419561E+02 -0.45562696793E+02 -0.19480824959E+02  0.74526586846E+02  0.00000000000E+00 0. -1.
          4    1    6    6  503    0  0.11130332863E+01 -0.23866624823E+01  0.16956047941E+01  0.31321041679E+01  0.00000000000E+00 0. -1.
         -4    1    6    6    0  503 -0.15129851553E+03  0.74836135138E+03  0.15262603282E+03  0.77860815493E+03  0.00000000000E+00 0.  1.
<mgrwt>
<rscale>  0 0.35905720E+04</rscale>
<asrwt>0</asrwt>
<pdfrwt beam="1">  1        1 0.80116696E+00 0.35905720E+04</pdfrwt>
<pdfrwt beam="2">  1       -2 0.95217671E-01 0.35905720E+04</pdfrwt>
<totfact> 0.29587672E-03</totfact>
</mgrwt>
</event>
<event>
12    5  0.5297412E-008  0.1306261E+04  0.7818608E-02  0.9024615E-01
          1   -1    0    0  501    0  0.00000000000E+00  0.00000000000E+00  0.16256183338E+04  0.16256183338E+04  0.00000000000E+00 0. -1.
         -2   -1    0    0    0  501 -0.00000000000E+00 -0.00000000000E+00 -0.26241065327E+03  0.26241065327E+03  0.00000000000E+00 0.  1.
        -24    2    1    2    0    0  0.40519353369E+02 -0.29966549575E+03  0.53890812980E+03  0.62352453219E+03  0.83184388757E+02 0.  0.
        254    2    1    2    0    0 -0.40519353369E+02  0.29966549575E+03  0.82429955069E+03  0.12645044548E+04  0.90997831826E+03 0.  0.
         23    2    4    4    0    0  0.10875675050E+03 -0.29845519707E+03  0.34732076463E+03  0.47987384761E+03  0.93507543198E+02 0.  0.
         23    2    4    4    0    0 -0.14927610387E+03  0.59812069283E+03  0.47697878607E+03  0.78463060723E+03  0.90026157730E+02 0.  0.
          3    1    3    3  502    0  0.58950804828E+01 -0.47503774768E+01  0.56835095844E+02  0.57337127411E+02  0.00000000000E+00 0. -1.
         -4    1    3    3    0  502  0.34624272887E+02 -0.29491511828E+03  0.48207303396E+03  0.56618740478E+03  0.00000000000E+00 0.  1.
         13    1    5    5    0    0  0.65060302419E+02 -0.22205673405E+03  0.30323982897E+03  0.38143994280E+03  0.00000000000E+00 0.  1.
        -13    1    5    5    0    0  0.43696448082E+02 -0.76398463024E+02  0.44080935658E+02  0.98433904809E+02  0.00000000000E+00 0. -1.
          2    1    6    6  503    0 -0.36175130072E+02  0.29179764597E+03  0.26072618342E+03  0.39297919658E+03  0.00000000000E+00 0. -1.
         -2    1    6    6    0  503 -0.11310097380E+03  0.30632304686E+03  0.21625260265E+03  0.39165141065E+03  0.00000000000E+00 0.  1.
<mgrwt>
<rscale>  0 0.13062612E+04</rscale>
<asrwt>0</asrwt>
<pdfrwt beam="1">  1        1 0.25009512E+00 0.13062612E+04</pdfrwt>
<pdfrwt beam="2">  1       -2 0.40370870E-01 0.13062612E+04</pdfrwt>
<totfact> 0.26826360E+01</totfact>
</mgrwt>
</event>
<event>
12    5  0.5297412E-008  0.2833154E+04  0.7818608E-02  0.8293049E-01
          1   -1    0    0  501    0  0.00000000000E+00  0.00000000000E+00  0.13556890116E+04  0.13556890116E+04  0.00000000000E+00 0. -1.
         -2   -1    0    0    0  501 -0.00000000000E+00 -0.00000000000E+00 -0.14801995865E+04  0.14801995865E+04  0.00000000000E+00 0.  1.
        -24    2    1    2    0    0  0.59746024202E+03 -0.59216870677E+03 -0.10096607548E+04  0.13165769352E+04  0.79608219457E+02 0.  0.
        254    2    1    2    0    0 -0.59746024202E+03  0.59216870677E+03  0.88515017989E+03  0.15193116628E+04  0.90398814691E+03 0.  0.
         23    2    4    4    0    0 -0.73993437400E+03  0.66847369142E+03  0.87305245175E+03  0.13285152025E+04  0.91499212759E+02 0.  0.
         23    2    4    4    0    0  0.14247413199E+03 -0.76304984653E+02  0.12097728142E+02  0.19079646027E+03  0.10067574315E+03 0.  0.
          3    1    3    3  502    0  0.13089123539E+03 -0.14266139599E+03 -0.28483322762E+03  0.34440493168E+03  0.00000000000E+00 0. -1.
         -4    1    3    3    0  502  0.46656900662E+03 -0.44950731078E+03 -0.72482752716E+03  0.97217200356E+03  0.00000000000E+00 0.  1.
         13    1    5    5    0    0 -0.30749623314E+03  0.30130525574E+03  0.32161772496E+03  0.53737952281E+03  0.00000000000E+00 0. -1.
        -13    1    5    5    0    0 -0.43243814087E+03  0.36716843568E+03  0.55143472679E+03  0.79113567973E+03  0.00000000000E+00 0.  1.
          1    1    6    6  503    0  0.62559993695E+02 -0.10246360723E+02  0.49650830438E+02  0.80522951277E+02  0.00000000000E+00 0. -1.
         -1    1    6    6    0  503  0.79914138290E+02 -0.66058623930E+02 -0.37553102296E+02  0.11027350900E+03  0.00000000000E+00 0.  1.
<mgrwt>
<rscale>  0 0.28331539E+04</rscale>
<asrwt>0</asrwt>
<pdfrwt beam="1">  1        1 0.20856754E+00 0.28331539E+04</pdfrwt>
<pdfrwt beam="2">  1       -2 0.22772301E+00 0.28331539E+04</pdfrwt>
<totfact> 0.55289932E-01</totfact>
</mgrwt>
</event>
<event>
12    5  0.5297412E-008  0.1552692E+04  0.7818608E-02  0.8850150E-01
         -2   -1    0    0    0  501 -0.00000000000E+00  0.00000000000E+00  0.21259871730E+03  0.21259871730E+03  0.00000000000E+00 0.  1.
          1   -1    0    0  501    0  0.00000000000E+00 -0.00000000000E+00 -0.28349791832E+04  0.28349791832E+04  0.00000000000E+00 0. -1.
        -24    2    1    2    0    0 -0.10148317411E+03 -0.26039805927E+03 -0.16816202370E+04  0.17065206929E+04  0.79121868521E+02 0.  0.
        254    2    1    2    0    0  0.10148317411E+03  0.26039805927E+03 -0.94076022887E+03  0.13410572075E+04  0.91394673898E+03 0.  0.
         23    2    4    4    0    0  0.36126865672E+02 -0.12609361283E+03  0.12450748719E+03  0.20139970110E+03  0.88628300299E+02 0.  0.
         23    2    4    4    0    0  0.65356308442E+02  0.38649167211E+03 -0.10652677161E+04  0.11396575064E+04  0.10186591865E+03 0.  0.
          3    1    3    3  502    0 -0.86607713118E+02 -0.17097543622E+03 -0.13131556803E+04  0.13270687007E+04  0.00000000000E+00 0. -1.
         -4    1    3    3    0  502 -0.14875460996E+02 -0.89422623053E+02 -0.36846455672E+03  0.37945199224E+03  0.00000000000E+00 0.  1.
         13    1    5    5    0    0 -0.60870759532E+01  0.10221278936E+02 -0.18080718133E+00  0.11897887543E+02  0.00000000000E+00 0.  1.
        -13    1    5    5    0    0  0.42213941625E+02 -0.13631489177E+03  0.12468829437E+03  0.18950181355E+03  0.00000000000E+00 0. -1.
          3    1    6    6  503    0  0.78192458104E+00  0.27447553074E+03 -0.76434997331E+03  0.81213811023E+03  0.00000000000E+00 0. -1.
         -3    1    6    6    0  503  0.64574383861E+02  0.11201614136E+03 -0.30091774275E+03  0.32751939619E+03  0.00000000000E+00 0.  1.
<mgrwt>
<rscale>  0 0.15526918E+04</rscale>
<asrwt>0</asrwt>
<pdfrwt beam="1">  1        1 0.43615059E+00 0.15526918E+04</pdfrwt>
<pdfrwt beam="2">  1       -2 0.32707499E-01 0.15526918E+04</pdfrwt>
<totfact> 0.58254599E+00</totfact>
</mgrwt>
</event>
<event>
12    5  0.5297412E-008  0.1619909E+04  0.7818608E-02  0.8808410E-01
         -2   -1    0    0    0  501 -0.00000000000E+00  0.00000000000E+00  0.37050285356E+03  0.37050285356E+03  0.00000000000E+00 0.  1.
          1   -1    0    0  501    0  0.00000000000E+00 -0.00000000000E+00 -0.17706378096E+04  0.17706378096E+04  0.00000000000E+00 0. -1.
        -24    2    1    2    0    0  0.46005455293E+03 -0.18837579099E+03 -0.16433232980E+03  0.53124669199E+03  0.89901628643E+02 0.  0.
        254    2    1    2    0    0 -0.46005455293E+03  0.18837579099E+03 -0.12358026262E+04  0.16098939711E+04  0.90410996955E+03 0.  0.
         23    2    4    4    0    0 -0.66515450426E+03  0.21207097406E+03 -0.11882299683E+04  0.13811936718E+04  0.91656362506E+02 0.  0.
         23    2    4    4    0    0  0.20509995133E+03 -0.23695183072E+02 -0.47572657867E+02  0.22870029933E+03  0.86100042985E+02 0.  0.
          1    1    3    3  502    0  0.13647333226E+02 -0.24533591677E+02 -0.19403821840E+02  0.34127043921E+02  0.00000000000E+00 0. -1.
         -2    1    3    3    0  502  0.44640721970E+03 -0.16384219931E+03 -0.14492850796E+03  0.49711964807E+03  0.00000000000E+00 0.  1.
         13    1    5    5    0    0 -0.32953302907E+03  0.57025663966E+02 -0.56472959206E+03  0.65632572382E+03  0.00000000000E+00 0. -1.
        -13    1    5    5    0    0 -0.33562147519E+03  0.15504531010E+03 -0.62350037627E+03  0.72486794797E+03  0.00000000000E+00 0.  1.
          2    1    6    6  503    0 -0.48052614923E+01 -0.34995207391E+01 -0.13947870124E+02  0.15161802809E+02  0.00000000000E+00 0. -1.
         -2    1    6    6    0  503  0.20990521282E+03 -0.20195662333E+02 -0.33624787743E+02  0.21353849652E+03  0.00000000000E+00 0.  1.
<mgrwt>
<rscale>  0 0.16199091E+04</rscale>
<asrwt>0</asrwt>
<pdfrwt beam="1">  1        1 0.27240582E+00 0.16199091E+04</pdfrwt>
<pdfrwt beam="2">  1       -2 0.57000439E-01 0.16199091E+04</pdfrwt>
<totfact> 0.10350864E+01</totfact>
</mgrwt>
</event>
<event>
12    5  0.5297412E-008  0.1237497E+04  0.7818608E-02  0.9080654E-01
         -2   -1    0    0    0  501 -0.00000000000E+00  0.00000000000E+00  0.41250442652E+03  0.41250442652E+03  0.00000000000E+00 0.  1.
          1   -1    0    0  501    0  0.00000000000E+00 -0.00000000000E+00 -0.92811075924E+03  0.92811075924E+03  0.00000000000E+00 0. -1.
        -24    2    1    2    0    0 -0.12154397620E+03  0.23668903629E+03 -0.23629468572E+02  0.27827136333E+03  0.77986933586E+02 0.  0.
        254    2    1    2    0    0  0.12154397620E+03 -0.23668903629E+03 -0.49197686415E+03  0.10623438224E+04  0.90318244234E+03 0.  0.
         23    2    4    4    0    0 -0.13319216091E+03  0.15259277877E+03 -0.54361406621E+03  0.58690605821E+03  0.88981797707E+02 0.  0.
         23    2    4    4    0    0  0.25473613711E+03 -0.38928181506E+03  0.51637202058E+02  0.47543776423E+03  0.83329682156E+02 0.  0.
          1    1    3    3  502    0 -0.16370996871E+02  0.26598620712E+01 -0.13685891438E+02  0.21503209743E+02  0.00000000000E+00 0. -1.
         -2    1    3    3    0  502 -0.10517297933E+03  0.23402917422E+03 -0.99435771340E+01  0.25676815358E+03  0.00000000000E+00 0.  1.
         13    1    5    5    0    0 -0.11522513814E+03  0.10150603706E+03 -0.29624452039E+03  0.33367817412E+03  0.00000000000E+00 0. -1.
        -13    1    5    5    0    0 -0.17967022771E+02  0.51086741714E+02 -0.24736954581E+03  0.25322788409E+03  0.00000000000E+00 0.  1.
          3    1    6    6  503    0  0.23895762510E+03 -0.36200079803E+03  0.25520437918E+02  0.43450732689E+03  0.00000000000E+00 0. -1.
         -3    1    6    6    0  503  0.15778512010E+02 -0.27281017034E+02  0.26116764140E+02  0.40930437339E+02  0.00000000000E+00 0.  1.
<mgrwt>
<rscale>  0 0.12374971E+04</rscale>
<asrwt>0</asrwt>
<pdfrwt beam="1">  1        1 0.14278627E+00 0.12374971E+04</pdfrwt>
<pdfrwt beam="2">  1       -2 0.63462220E-01 0.12374971E+04</pdfrwt>
<totfact> 0.34326007E+01</totfact>
</mgrwt>
</event>
<event>
12    5  0.5297412E-008  0.1373570E+04  0.7818608E-02  0.8973175E-01
          3   -1    0    0  501    0  0.00000000000E+00  0.00000000000E+00  0.68480055091E+03  0.68480055091E+03  0.00000000000E+00 0. -1.
         -4   -1    0    0    0  501 -0.00000000000E+00 -0.00000000000E+00 -0.68877561273E+03  0.68877561273E+03  0.00000000000E+00 0.  1.
        -24    2    1    2    0    0 -0.10505294217E+03 -0.18230534263E+03 -0.24532250755E+03  0.33713269731E+03  0.95937293463E+02 0.  0.
        254    2    1    2    0    0  0.10505294217E+03  0.18230534263E+03  0.24134744572E+03  0.10364434663E+04  0.98574596664E+03 0.  0.
         23    2    4    4    0    0  0.47197506229E+03  0.30591608981E+03 -0.29621064944E+01  0.56946272424E+03  0.89072480589E+02 0.  0.
         23    2    4    4    0    0 -0.36692212012E+03 -0.12361074718E+03  0.24430955222E+03  0.46698074209E+03  0.92045625250E+02 0.  0.
          3    1    3    3  502    0  0.14487119679E+02 -0.62461978120E+01 -0.59972500676E+01  0.16877755540E+02  0.00000000000E+00 0. -1.
         -4    1    3    3    0  502 -0.11954006185E+03 -0.17605914482E+03 -0.23932525748E+03  0.32025494177E+03  0.00000000000E+00 0.  1.
         13    1    5    5    0    0  0.16456781656E+03  0.12988875582E+03  0.37300314830E+02  0.21294358084E+03  0.00000000000E+00 0. -1.
        -13    1    5    5    0    0  0.30740724574E+03  0.17602733399E+03 -0.40262421324E+02  0.35651914340E+03  0.00000000000E+00 0.  1.
          2    1    6    6  503    0 -0.52520763166E+02 -0.32962537804E+02  0.62219125625E+01  0.62319111499E+02  0.00000000000E+00 0. -1.
         -2    1    6    6    0  503 -0.31440135695E+03 -0.90648209377E+02  0.23808763966E+03  0.40466163059E+03  0.00000000000E+00 0.  1.
<mgrwt>
<rscale>  0 0.13735704E+04</rscale>
<asrwt>0</asrwt>
<pdfrwt beam="1">  1        3 0.10535393E+00 0.13735704E+04</pdfrwt>
<pdfrwt beam="2">  1       -4 0.10596548E+00 0.13735704E+04</pdfrwt>
<totfact> 0.12403090E+00</totfact>
</mgrwt>
</event>
<event>
12    5  0.5297412E-008  0.1284466E+04  0.7818608E-02  0.9041975E-01
         -2   -1    0    0    0  501 -0.00000000000E+00  0.00000000000E+00  0.15937120681E+04  0.15937120681E+04  0.00000000000E+00 0.  1.
          1   -1    0    0  501    0  0.00000000000E+00 -0.00000000000E+00 -0.25880680288E+03  0.25880680288E+03  0.00000000000E+00 0. -1.
        -24    2    1    2    0    0 -0.12955393393E+01 -0.89400477788E+02  0.77518059047E+03  0.78441411239E+03  0.80040165018E+02 0.  0.
        254    2    1    2    0    0  0.12955393393E+01  0.89400477788E+02  0.55972467474E+03  0.10681047586E+04  0.90529660330E+03 0.  0.
         23    2    4    4    0    0 -0.62187620810E+02 -0.33855217141E+03  0.51115212708E+03  0.62321148863E+03  0.92904195770E+02 0.  0.
         23    2    4    4    0    0  0.63483160149E+02  0.42795264920E+03  0.48572547664E+02  0.44489326996E+03  0.91635951982E+02 0.  0.
          1    1    3    3  502    0  0.48846904415E+01  0.50204946547E+01  0.54126442108E+01  0.88522474344E+01  0.00000000000E+00 0. -1.
         -2    1    3    3    0  502 -0.61802297808E+01 -0.94420972443E+02  0.76976794626E+03  0.77556186495E+03  0.00000000000E+00 0.  1.
         13    1    5    5    0    0 -0.15156748883E+02 -0.11805694212E+01  0.30704867580E+02  0.34262365271E+02  0.00000000000E+00 0.  1.
        -13    1    5    5    0    0 -0.47030871927E+02 -0.33737160199E+03  0.48044725950E+03  0.58894912336E+03  0.00000000000E+00 0. -1.
          1    1    6    6  503    0  0.13236642092E+02  0.34423449089E+03  0.41871736512E+02  0.34702425813E+03  0.00000000000E+00 0. -1.
         -1    1    6    6    0  503  0.50246518057E+02  0.83718158301E+02  0.67008111524E+01  0.97869011828E+02  0.00000000000E+00 0.  1.
<mgrwt>
<rscale>  0 0.12844665E+04</rscale>
<asrwt>0</asrwt>
<pdfrwt beam="1">  1        1 0.39816432E-01 0.12844665E+04</pdfrwt>
<pdfrwt beam="2">  1       -2 0.24518647E+00 0.12844665E+04</pdfrwt>
<totfact> 0.62868535E+00</totfact>
</mgrwt>
</event>
<event>
12    5  0.5297412E-008  0.1646040E+04  0.7818608E-02  0.8792753E-01
          1   -1    0    0  501    0  0.00000000000E+00  0.00000000000E+00  0.21129801921E+04  0.21129801921E+04  0.00000000000E+00 0. -1.
         -2   -1    0    0    0  501 -0.00000000000E+00 -0.00000000000E+00 -0.32057172677E+03  0.32057172677E+03  0.00000000000E+00 0.  1.
        -24    2    1    2    0    0 -0.40362338093E+03  0.23646383171E+03  0.13576536112E+03  0.49476054467E+03  0.86768576922E+02 0.  0.
        254    2    1    2    0    0  0.40362338093E+03 -0.23646383171E+03  0.16566431042E+04  0.19387913742E+04  0.89197457395E+03 0.  0.
         23    2    4    4    0    0 -0.16130423767E+03 -0.37318666540E+03  0.62536836946E+03  0.75148290810E+03  0.91398136349E+02 0.  0.
         23    2    4    4    0    0  0.56492761860E+03  0.13672283369E+03  0.10312747347E+04  0.11873084661E+04  0.91309734413E+02 0.  0.
          1    1    3    3  502    0  0.13375051492E+01  0.66927461109E+01  0.10631024169E+02  0.12633306986E+02  0.00000000000E+00 0. -1.
         -2    1    3    3    0  502 -0.40496088608E+03  0.22977108560E+03  0.12513433695E+03  0.48212723769E+03  0.00000000000E+00 0.  1.
         13    1    5    5    0    0 -0.12337676068E+03 -0.34848601456E+03  0.57674079452E+03  0.68505056126E+03  0.00000000000E+00 0.  1.
        -13    1    5    5    0    0 -0.37927476986E+02 -0.24700650841E+02  0.48627574941E+02  0.66432346844E+02  0.00000000000E+00 0. -1.
          1    1    6    6  503    0  0.15803638415E+03  0.92851641245E+00  0.31475092008E+03  0.35219952094E+03  0.00000000000E+00 0. -1.
         -1    1    6    6    0  503  0.40689123445E+03  0.13579431728E+03  0.71652381464E+03  0.83510894512E+03  0.00000000000E+00 0.  1.
<mgrwt>
<rscale>  0 0.16460397E+04</rscale>
<asrwt>0</asrwt>
<pdfrwt beam="1">  1        1 0.32507387E+00 0.16460397E+04</pdfrwt>
<pdfrwt beam="2">  1       -2 0.49318728E-01 0.16460397E+04</pdfrwt>
<totfact> 0.81611626E+00</totfact>
</mgrwt>
</event>
<event>
12    5  0.5297412E-008  0.1795306E+04  0.7818608E-02  0.8708799E-01
          1   -1    0    0  501    0  0.00000000000E+00  0.00000000000E+00  0.86494110742E+03  0.86494110742E+03  0.00000000000E+00 0. -1.
         -2   -1    0    0    0  501 -0.00000000000E+00 -0.00000000000E+00 -0.93160242460E+03  0.93160242460E+03  0.00000000000E+00 0.  1.
        -24    2    1    2    0    0 -0.33643211328E+03  0.54828764333E+03  0.13285937346E+03  0.66167334792E+03  0.79712606044E+02 0.  0.
        254    2    1    2    0    0  0.33643211328E+03 -0.54828764333E+03 -0.19952069065E+03  0.11348701841E+04  0.91340895666E+03 0.  0.
         23    2    4    4    0    0 -0.25101675949E+03 -0.40066166464E+03  0.24426232840E+02  0.48245778885E+03  0.92896146922E+02 0.  0.
         23    2    4    4    0    0  0.58744887277E+03 -0.14762597869E+03 -0.22394692349E+03  0.65241239526E+03  0.92736730797E+02 0.  0.
          3    1    3    3  502    0 -0.18002948764E+03  0.32422239771E+03  0.11306760122E+03  0.38770486461E+03  0.00000000000E+00 0. -1.
         -4    1    3    3    0  502 -0.15640262563E+03  0.22406524562E+03  0.19791772247E+02  0.27396848331E+03  0.00000000000E+00 0.  1.
         13    1    5    5    0    0 -0.21044693157E+03 -0.34159611390E+03 -0.13377110043E+02  0.40144085880E+03  0.00000000000E+00 0. -1.
        -13    1    5    5    0    0 -0.40569827927E+02 -0.59065550730E+02  0.37803342883E+02  0.81016930047E+02  0.00000000000E+00 0.  1.
          1    1    6    6  503    0  0.50405107819E+03 -0.13555093140E+03 -0.15782052916E+03  0.54529704185E+03  0.00000000000E+00 0. -1.
         -1    1    6    6    0  503  0.83397794583E+02 -0.12075047295E+02 -0.66126394330E+02  0.10711535341E+03  0.00000000000E+00 0.  1.
<mgrwt>
<rscale>  0 0.17953064E+04</rscale>
<asrwt>0</asrwt>
<pdfrwt beam="1">  1        1 0.13306786E+00 0.17953064E+04</pdfrwt>
<pdfrwt beam="2">  1       -2 0.14332345E+00 0.17953064E+04</pdfrwt>
<totfact> 0.54354623E+00</totfact>
</mgrwt>
</event>
<event>
12    5  0.5297412E-008  0.2269493E+04  0.7818608E-02  0.8490048E-01
          1   -1    0    0  501    0  0.00000000000E+00  0.00000000000E+00  0.29554834838E+04  0.29554834838E+04  0.00000000000E+00 0. -1.
         -2   -1    0    0    0  501 -0.00000000000E+00 -0.00000000000E+00 -0.43568136833E+03  0.43568136833E+03  0.00000000000E+00 0.  1.
        -24    2    1    2    0    0  0.14484923257E+03  0.34851155541E+03 -0.24069662093E+03  0.45453759186E+03  0.78917391363E+02 0.  0.
        254    2    1    2    0    0 -0.14484923257E+03 -0.34851155541E+03  0.27604987364E+04  0.29366272603E+04  0.92789265951E+03 0.  0.
         23    2    4    4    0    0  0.23893760787E+03 -0.34911879209E+03  0.59815937025E+03  0.73862067049E+03  0.93759005995E+02 0.  0.
         23    2    4    4    0    0 -0.38378684044E+03  0.60723668209E+00  0.21623393661E+04  0.21980065898E+04  0.90712329065E+02 0.  0.
          3    1    3    3  502    0  0.23260914478E+01  0.86686294314E+00  0.50187818703E+01  0.55991360268E+01  0.00000000000E+00 0. -1.
         -4    1    3    3    0  502  0.14252314112E+03  0.34764469246E+03 -0.24571540280E+03  0.44893845584E+03  0.00000000000E+00 0.  1.
         13    1    5    5    0    0  0.11231028452E+03 -0.93728148440E+02  0.17034448818E+03  0.22453465316E+03  0.00000000000E+00 0. -1.
        -13    1    5    5    0    0  0.12662732335E+03 -0.25539064365E+03  0.42781488207E+03  0.51408601732E+03  0.00000000000E+00 0.  1.
          2    1    6    6  503    0 -0.17805350367E+03 -0.42239738040E+02  0.10931028013E+04  0.11083144770E+04  0.00000000000E+00 0. -1.
         -2    1    6    6    0  503 -0.20573333677E+03  0.42846974722E+02  0.10692365648E+04  0.10896921128E+04  0.00000000000E+00 0.  1.
<mgrwt>
<rscale>  0 0.22694925E+04</rscale>
<asrwt>0</asrwt>
<pdfrwt beam="1">  1        1 0.45468975E+00 0.22694925E+04</pdfrwt>
<pdfrwt beam="2">  1       -2 0.67027905E-01 0.22694925E+04</pdfrwt>
<totfact> 0.10487334E+00</totfact>
</mgrwt>
</event>
<event>
12    5  0.5297412E-008  0.1225325E+04  0.7818608E-02  0.9090974E-01
          3   -1    0    0  501    0  0.00000000000E+00  0.00000000000E+00  0.64003981584E+03  0.64003981584E+03  0.00000000000E+00 0. -1.
         -2   -1    0    0    0  501 -0.00000000000E+00 -0.00000000000E+00 -0.58645648433E+03  0.58645648433E+03  0.00000000000E+00 0.  1.
        -24    2    1    2    0    0  0.44994652246E+02  0.74516769496E+02  0.22411020269E+03  0.25342397915E+03  0.80131533058E+02 0.  0.
        254    2    1    2    0    0 -0.44994652246E+02 -0.74516769496E+02 -0.17052687118E+03  0.97307232102E+03  0.95405086891E+03 0.  0.
         23    2    4    4    0    0  0.24301700093E+03  0.28674593422E+03  0.13737916173E+03  0.41053788775E+03  0.91585095224E+02 0.  0.
         23    2    4    4    0    0 -0.28801165318E+03 -0.36126270372E+03 -0.30790603291E+03  0.56253443327E+03  0.90429033186E+02 0.  0.
          1    1    3    3  502    0  0.64405133928E+02  0.74818535100E+02  0.19224788215E+03  0.21611358741E+03  0.00000000000E+00 0. -1.
         -2    1    3    3    0  502 -0.19410481683E+02 -0.30176560332E+00  0.31862320545E+02  0.37310391744E+02  0.00000000000E+00 0.  1.
         13    1    5    5    0    0  0.88171771342E+02  0.14364929747E+03  0.10125135140E+03  0.19662456125E+03  0.00000000000E+00 0. -1.
        -13    1    5    5    0    0  0.15484522959E+03  0.14309663676E+03  0.36127810326E+02  0.21391332651E+03  0.00000000000E+00 0.  1.
          2    1    6    6  503    0 -0.22259751653E+03 -0.31038071490E+03 -0.28497678225E+03  0.47654759360E+03  0.00000000000E+00 0. -1.
         -2    1    6    6    0  503 -0.65414136649E+02 -0.50881988819E+02 -0.22929250663E+02  0.85986839665E+02  0.00000000000E+00 0.  1.
<mgrwt>
<rscale>  0 0.12253253E+04</rscale>
<asrwt>0</asrwt>
<pdfrwt beam="1">  1        3 0.98467664E-01 0.12253253E+04</pdfrwt>
<pdfrwt beam="2">  1       -2 0.90224074E-01 0.12253253E+04</pdfrwt>
<totfact> 0.38973955E+00</totfact>
</mgrwt>
</event>
<event>
12    5  0.5297412E-008  0.1647177E+04  0.7818608E-02  0.8792078E-01
         -2   -1    0    0    0  501 -0.00000000000E+00  0.00000000000E+00  0.35986033861E+03  0.35986033861E+03  0.00000000000E+00 0.  1.
          1   -1    0    0  501    0  0.00000000000E+00 -0.00000000000E+00 -0.18848916296E+04  0.18848916296E+04  0.00000000000E+00 0. -1.
        -24    2    1    2    0    0 -0.31651215893E+03  0.46407299237E+02 -0.11785544514E+04  0.12238447147E+04  0.80446917773E+02 0.  0.
        254    2    1    2    0    0  0.31651215893E+03 -0.46407299237E+02 -0.34647683966E+03  0.10209072536E+04  0.90546774422E+03 0.  0.
         23    2    4    4    0    0 -0.29328362235E+03  0.83790053297E+02 -0.19247587846E+03  0.37224944052E+03  0.92122885382E+02 0.  0.
         23    2    4    4    0    0  0.60979578128E+03 -0.13019735253E+03 -0.15400096120E+03  0.64865781306E+03  0.90765725445E+02 0.  0.
          1    1    3    3  502    0 -0.21719661003E+03  0.11202753097E+02 -0.66738027655E+03  0.70192328827E+03  0.00000000000E+00 0. -1.
         -2    1    3    3    0  502 -0.99315548907E+02  0.35204546140E+02 -0.51117417483E+03  0.52192142640E+03  0.00000000000E+00 0.  1.
         13    1    5    5    0    0 -0.17114011574E+03  0.51447236713E+02 -0.16438150040E+03  0.24281069798E+03  0.00000000000E+00 0. -1.
        -13    1    5    5    0    0 -0.12214350661E+03  0.32342816584E+02 -0.28094378055E+02  0.12943874254E+03  0.00000000000E+00 0.  1.
          2    1    6    6  503    0  0.55554426430E+03 -0.13702209405E+03 -0.12117736784E+03  0.58488326898E+03  0.00000000000E+00 0. -1.
         -2    1    6    6    0  503  0.54251516982E+02  0.68247415158E+01 -0.32823593359E+02  0.63774544080E+02  0.00000000000E+00 0.  1.
<mgrwt>
<rscale>  0 0.16471767E+04</rscale>
<asrwt>0</asrwt>
<pdfrwt beam="1">  1        1 0.28998333E+00 0.16471767E+04</pdfrwt>
<pdfrwt beam="2">  1       -2 0.55363129E-01 0.16471767E+04</pdfrwt>
<totfact> 0.91811914E+00</totfact>
</mgrwt>
</event>
<event>
12    5  0.5297412E-008  0.1382088E+04  0.7818608E-02  0.8966887E-01
          1   -1    0    0  501    0  0.00000000000E+00  0.00000000000E+00  0.20996998550E+04  0.20996998550E+04  0.00000000000E+00 0. -1.
         -2   -1    0    0    0  501 -0.00000000000E+00 -0.00000000000E+00 -0.22743322730E+03  0.22743322730E+03  0.00000000000E+00 0.  1.
        -24    2    1    2    0    0  0.18556105816E+03  0.35537360084E+03  0.90698060890E+03  0.99485729347E+03  0.80024414921E+02 0.  0.
        254    2    1    2    0    0 -0.18556105816E+03 -0.35537360084E+03  0.96528601879E+03  0.13322757888E+04  0.82611039026E+03 0.  0.
         23    2    4    4    0    0 -0.19857580530E+01 -0.50555634231E+03  0.24608572720E+03  0.56963826225E+03  0.91314873941E+02 0.  0.
         23    2    4    4    0    0 -0.18357530011E+03  0.15018274148E+03  0.71920029159E+03  0.76263752656E+03  0.90067701464E+02 0.  0.
          1    1    3    3  502    0  0.14598705798E+03  0.31758885676E+03  0.72554893695E+03  0.80535468146E+03  0.00000000000E+00 0. -1.
         -2    1    3    3    0  502  0.39574000181E+02  0.37784744076E+02  0.18143167194E+03  0.18950261201E+03  0.00000000000E+00 0.  1.
         13    1    5    5    0    0  0.27820227048E+02 -0.16350028197E+03  0.11635402738E+03  0.20259458760E+03  0.00000000000E+00 0. -1.
        -13    1    5    5    0    0 -0.29805985101E+02 -0.34205606034E+03  0.12973169983E+03  0.36704367465E+03  0.00000000000E+00 0.  1.
          3    1    6    6  503    0 -0.12982565162E+03  0.15202273951E+03  0.56965355697E+03  0.60371416093E+03  0.00000000000E+00 0. -1.
         -3    1    6    6    0  503 -0.53749648490E+02 -0.18399980352E+01  0.14954673462E+03  0.15892336562E+03  0.00000000000E+00 0.  1.
<mgrwt>
<rscale>  0 0.13820876E+04</rscale>
<asrwt>0</asrwt>
<pdfrwt beam="1">  1        1 0.32303073E+00 0.13820876E+04</pdfrwt>
<pdfrwt beam="2">  1       -2 0.34989729E-01 0.13820876E+04</pdfrwt>
<totfact> 0.16775968E+01</totfact>
</mgrwt>
</event>
<event>
12    5  0.5297412E-008  0.1202078E+04  0.7818608E-02  0.9111040E-01
          1   -1    0    0  501    0  0.00000000000E+00  0.00000000000E+00  0.22515886092E+04  0.22515886092E+04  0.00000000000E+00 0. -1.
         -2   -1    0    0    0  501 -0.00000000000E+00 -0.00000000000E+00 -0.16044131316E+03  0.16044131316E+03  0.00000000000E+00 0.  1.
        -24    2    1    2    0    0  0.22076753264E+03  0.12149847327E+03  0.49195925098E+03  0.55836763759E+03  0.79059038711E+02 0.  0.
        254    2    1    2    0    0 -0.22076753264E+03 -0.12149847327E+03  0.15991880450E+04  0.18536622847E+04  0.90286282460E+03 0.  0.
         23    2    4    4    0    0 -0.55933193607E+03 -0.46699361993E+02  0.11160401698E+04  0.12519750923E+04  0.82842779879E+02 0.  0.
         23    2    4    4    0    0  0.33856440344E+03 -0.74799111279E+02  0.48314787526E+03  0.60168719240E+03  0.91514183661E+02 0.  0.
          3    1    3    3  502    0  0.11445433883E+03  0.31130355132E+02  0.28572661983E+03  0.30936805906E+03  0.00000000000E+00 0. -1.
         -4    1    3    3    0  502  0.10631319380E+03  0.90368118140E+02  0.20623263115E+03  0.24899957852E+03  0.00000000000E+00 0.  1.
         13    1    5    5    0    0 -0.96795657935E+01 -0.13415213470E+02  0.37804093877E+02  0.41265136135E+02  0.00000000000E+00 0. -1.
        -13    1    5    5    0    0 -0.54965237028E+03 -0.33284148523E+02  0.10782360759E+04  0.12107099562E+04  0.00000000000E+00 0.  1.
          1    1    6    6  503    0 -0.48153045966E+01  0.36355284955E+01  0.12026268650E+02  0.13454938255E+02  0.00000000000E+00 0. -1.
         -1    1    6    6    0  503  0.34337970803E+03 -0.78434639775E+02  0.47112160661E+03  0.58823225415E+03  0.00000000000E+00 0.  1.
<mgrwt>
<rscale>  0 0.12020779E+04</rscale>
<asrwt>0</asrwt>
<pdfrwt beam="1">  1        1 0.34639823E+00 0.12020779E+04</pdfrwt>
<pdfrwt beam="2">  1       -2 0.24683281E-01 0.12020779E+04</pdfrwt>
<totfact> 0.25719809E+01</totfact>
</mgrwt>
</event>
<event>
12    5  0.5297412E-008  0.1361255E+04  0.7818608E-02  0.8982352E-01
          1   -1    0    0  501    0  0.00000000000E+00  0.00000000000E+00  0.10198088444E+04  0.10198088444E+04  0.00000000000E+00 0. -1.
         -2   -1    0    0    0  501 -0.00000000000E+00 -0.00000000000E+00 -0.45425544256E+03  0.45425544256E+03  0.00000000000E+00 0.  1.
        -24    2    1    2    0    0 -0.32631622854E+03  0.94236166243E+02  0.32484295022E+03  0.47652046327E+03  0.78651596149E+02 0.  0.
        254    2    1    2    0    0  0.32631622854E+03 -0.94236166243E+02  0.24071045167E+03  0.99754382373E+03  0.90652601876E+03 0.  0.
         23    2    4    4    0    0  0.21327854822E+03  0.25172040704E+03  0.45253602235E+03  0.56658759577E+03  0.85917109525E+02 0.  0.
         23    2    4    4    0    0  0.11303768032E+03 -0.34595657328E+03 -0.21182557069E+03  0.43095622796E+03  0.91595470687E+02 0.  0.
          1    1    3    3  502    0 -0.15789685414E+03  0.56352407678E+01  0.15783245014E+03  0.22332544594E+03  0.00000000000E+00 0. -1.
         -2    1    3    3    0  502 -0.16841937439E+03  0.88600925475E+02  0.16701050008E+03  0.25319501733E+03  0.00000000000E+00 0.  1.
         13    1    5    5    0    0  0.87747473913E+02  0.50289823910E+02  0.10545418881E+03  0.14611389908E+03  0.00000000000E+00 0.  1.
        -13    1    5    5    0    0  0.12553107431E+03  0.20143058313E+03  0.34708183355E+03  0.42047369670E+03  0.00000000000E+00 0. -1.
          1    1    6    6  503    0  0.74302105357E+02 -0.27321882331E+03 -0.20232596736E+03  0.34800161686E+03  0.00000000000E+00 0. -1.
         -1    1    6    6    0  503  0.38735574960E+02 -0.72737749975E+02 -0.94996033273E+01  0.82954611097E+02  0.00000000000E+00 0.  1.
<mgrwt>
<rscale>  0 0.13612549E+04</rscale>
<asrwt>0</asrwt>
<pdfrwt beam="1">  1        1 0.15689367E+00 0.13612549E+04</pdfrwt>
<pdfrwt beam="2">  1       -2 0.69885453E-01 0.13612549E+04</pdfrwt>
<totfact> 0.23359066E+01</totfact>
</mgrwt>
</event>
<event>
12    5  0.5297412E-008  0.1803026E+04  0.7818608E-02  0.8704692E-01
          3   -1    0    0  501    0  0.00000000000E+00  0.00000000000E+00  0.15388153390E+04  0.15388153390E+04  0.00000000000E+00 0. -1.
         -4   -1    0    0    0  501 -0.00000000000E+00 -0.00000000000E+00 -0.52815051573E+03  0.52815051573E+03  0.00000000000E+00 0.  1.
        -24    2    1    2    0    0  0.35415513554E+03 -0.50639048701E+03  0.68660819069E+03  0.92717265504E+03  0.79756751322E+02 0.  0.
        254    2    1    2    0    0 -0.35415513554E+03  0.50639048701E+03  0.32405663263E+03  0.11397931997E+04  0.90125393294E+03 0.  0.
         23    2    4    4    0    0 -0.63783548739E+03  0.40601437567E+03  0.31714244144E+03  0.82498681184E+03  0.91335257779E+02 0.  0.
         23    2    4    4    0    0  0.28368035186E+03  0.10037611134E+03  0.69141911951E+01  0.31480638789E+03  0.92224454788E+02 0.  0.
          1    1    3    3  502    0  0.34162809541E+03 -0.47384574813E+03  0.61910300477E+03  0.85119215169E+03  0.00000000000E+00 0. -1.
         -2    1    3    3    0  502  0.12527040128E+02 -0.32544738874E+02  0.67505185920E+02  0.75980503347E+02  0.00000000000E+00 0.  1.
         13    1    5    5    0    0 -0.19842938567E+03  0.17753815841E+03  0.10529893153E+03  0.28632478720E+03  0.00000000000E+00 0.  1.
        -13    1    5    5    0    0 -0.43940610173E+03  0.22847621726E+03  0.21184350991E+03  0.53866202463E+03  0.00000000000E+00 0. -1.
          1    1    6    6  503    0  0.11881167671E+03  0.90197809625E+02 -0.44137828997E+01  0.14923585649E+03  0.00000000000E+00 0. -1.
         -1    1    6    6    0  503  0.16486867515E+03  0.10178301711E+02  0.11327974095E+02  0.16557053140E+03  0.00000000000E+00 0.  1.
<mgrwt>
<rscale>  0 0.18030265E+04</rscale>
<asrwt>0</asrwt>
<pdfrwt beam="1">  1        3 0.23674082E+00 0.18030265E+04</pdfrwt>
<pdfrwt beam="2">  1       -4 0.81253926E-01 0.18030265E+04</pdfrwt>
<totfact> 0.25569175E-01</totfact>
</mgrwt>
</event>
<event>
12    5  0.5297412E-008  0.1100435E+04  0.7818608E-02  0.9204768E-01
         -2   -1    0    0    0  501 -0.00000000000E+00  0.00000000000E+00  0.32084918743E+03  0.32084918743E+03  0.00000000000E+00 0.  1.
          1   -1    0    0  501    0  0.00000000000E+00 -0.00000000000E+00 -0.94355640973E+03  0.94355640973E+03  0.00000000000E+00 0. -1.
        -24    2    1    2    0    0 -0.72156979268E+02  0.94168403463E+02 -0.23434418372E+03  0.27434416017E+03  0.79203559935E+02 0.  0.
        254    2    1    2    0    0  0.72156979268E+02 -0.94168403463E+02 -0.38836303857E+03  0.99006143699E+03  0.90295153879E+03 0.  0.
         23    2    4    4    0    0  0.18934254665E+03 -0.26931146066E+03 -0.59164431818E+03  0.68303898656E+03  0.90111015463E+02 0.  0.
         23    2    4    4    0    0 -0.11718556738E+03  0.17514305720E+03  0.20328127961E+03  0.30702245043E+03  0.92368602564E+02 0.  0.
          3    1    3    3  502    0 -0.62515479887E+02  0.58898756485E+02 -0.21796848702E+03  0.23428083591E+03  0.00000000000E+00 0. -1.
         -4    1    3    3    0  502 -0.96414993805E+01  0.35269646977E+02 -0.16375696704E+02  0.40063324260E+02  0.00000000000E+00 0.  1.
         13    1    5    5    0    0  0.11902138876E+03 -0.12885942718E+03 -0.23423687141E+03  0.29263929142E+03  0.00000000000E+00 0.  1.
        -13    1    5    5    0    0  0.70321157895E+02 -0.14045203348E+03 -0.35740744678E+03  0.39039969514E+03  0.00000000000E+00 0. -1.
          3    1    6    6  503    0 -0.57181268984E+02  0.47663158094E+02  0.12593881726E+03  0.14629442865E+03  0.00000000000E+00 0. -1.
         -3    1    6    6    0  503 -0.60004298401E+02  0.12747989910E+03  0.77342462352E+02  0.16072802178E+03  0.00000000000E+00 0.  1.
<mgrwt>
<rscale>  0 0.11004350E+04</rscale>
<asrwt>0</asrwt>
<pdfrwt beam="1">  1        1 0.14516252E+00 0.11004350E+04</pdfrwt>
<pdfrwt beam="2">  1       -2 0.49361414E-01 0.11004350E+04</pdfrwt>
<totfact> 0.56907985E+01</totfact>
</mgrwt>
</event>
<event>
12    5  0.5297412E-008  0.1542156E+04  0.7818608E-02  0.8856893E-01
         -2   -1    0    0    0  501 -0.00000000000E+00  0.00000000000E+00  0.13570873262E+04  0.13570873262E+04  0.00000000000E+00 0.  1.
          1   -1    0    0  501    0  0.00000000000E+00 -0.00000000000E+00 -0.43811595592E+03  0.43811595592E+03  0.00000000000E+00 0. -1.
        -24    2    1    2    0    0 -0.29657803705E+03  0.16684763588E+03 -0.13012195357E+03  0.37315296551E+03  0.80713983966E+02 0.  0.
        254    2    1    2    0    0  0.29657803705E+03 -0.16684763588E+03  0.10490933239E+04  0.14220503166E+04  0.89768236877E+03 0.  0.
         23    2    4    4    0    0  0.27097542199E+03  0.27429089601E+02 -0.61176584113E+02  0.29051632995E+03  0.80480614082E+02 0.  0.
         23    2    4    4    0    0  0.25602615054E+02 -0.19427672548E+03  0.11102699080E+04  0.11315339867E+04  0.96285795905E+02 0.  0.
          1    1    3    3  502    0 -0.28320234147E+03  0.17592977320E+03 -0.12164442303E+03  0.35489747388E+03  0.00000000000E+00 0. -1.
         -2    1    3    3    0  502 -0.13375695575E+02 -0.90821373196E+01 -0.84775305372E+01  0.18255491623E+02  0.00000000000E+00 0.  1.
         13    1    5    5    0    0  0.27448063388E+03  0.19581192248E+02 -0.61287259474E+02  0.28192050234E+03  0.00000000000E+00 0.  1.
        -13    1    5    5    0    0 -0.35052118894E+01  0.78478973523E+01  0.11067536077E+00  0.85958276086E+01  0.00000000000E+00 0. -1.
          4    1    6    6  503    0 -0.36632226152E+02 -0.59371393410E+02  0.35212587329E+03  0.35897007255E+03  0.00000000000E+00 0.  1.
         -4    1    6    6    0  503  0.62234841206E+02 -0.13490533207E+03  0.75814403471E+03  0.77256391415E+03  0.00000000000E+00 0. -1.
<mgrwt>
<rscale>  0 0.15421564E+04</rscale>
<asrwt>0</asrwt>
<pdfrwt beam="1">  1        1 0.67402455E-01 0.15421564E+04</pdfrwt>
<pdfrwt beam="2">  1       -2 0.20878266E+00 0.15421564E+04</pdfrwt>
<totfact> 0.52137602E+00</totfact>
</mgrwt>
</event>
<event>
12    5  0.5297412E-008  0.2956531E+04  0.7818608E-02  0.8256254E-01
          1   -1    0    0  501    0  0.00000000000E+00  0.00000000000E+00  0.23063381861E+04  0.23063381861E+04  0.00000000000E+00 0. -1.
         -2   -1    0    0    0  501 -0.00000000000E+00 -0.00000000000E+00 -0.94750593279E+03  0.94750593279E+03  0.00000000000E+00 0.  1.
        -24    2    1    2    0    0 -0.10517584124E+04 -0.83115894915E+03  0.63999243518E+03  0.14875769159E+04  0.79207366368E+02 0.  0.
        254    2    1    2    0    0  0.10517584124E+04  0.83115894915E+03  0.71883981814E+03  0.17662672030E+04  0.89774617306E+03 0.  0.
         23    2    4    4    0    0  0.65236325341E+03  0.50048464374E+03 -0.56651414288E+02  0.82911006432E+03  0.90285231384E+02 0.  0.
         23    2    4    4    0    0  0.39939515902E+03  0.33067430541E+03  0.77549123243E+03  0.93715713864E+03  0.89525759491E+02 0.  0.
          1    1    3    3  502    0 -0.65150900113E+03 -0.48634671395E+03  0.42275035646E+03  0.91635962843E+03  0.00000000000E+00 0. -1.
         -2    1    3    3    0  502 -0.40024941130E+03 -0.34481223521E+03  0.21724207872E+03  0.57121728752E+03  0.00000000000E+00 0.  1.
         13    1    5    5    0    0  0.54728989503E+03  0.44208614453E+03 -0.21509125032E+02  0.70386719688E+03  0.00000000000E+00 0. -1.
        -13    1    5    5    0    0  0.10507335838E+03  0.58398499207E+02 -0.35142289255E+02  0.12524286744E+03  0.00000000000E+00 0.  1.
          4    1    6    6  503    0  0.12920080313E+03  0.60779600327E+02  0.24361541129E+03  0.28237470843E+03  0.00000000000E+00 0. -1.
         -4    1    6    6    0  503  0.27019435589E+03  0.26989470509E+03  0.53187582115E+03  0.65478243021E+03  0.00000000000E+00 0.  1.
<mgrwt>
<rscale>  0 0.29565312E+04</rscale>
<asrwt>0</asrwt>
<pdfrwt beam="1">  1        1 0.35482126E+00 0.29565312E+04</pdfrwt>
<pdfrwt beam="2">  1       -2 0.14577014E+00 0.29565312E+04</pdfrwt>
<totfact> 0.44727110E-01</totfact>
</mgrwt>
</event>
<event>
12    5  0.5297412E-008  0.1298965E+04  0.7818608E-02  0.9030387E-01
          1   -1    0    0  501    0  0.00000000000E+00  0.00000000000E+00  0.54863536205E+03  0.54863536205E+03  0.00000000000E+00 0. -1.
         -2   -1    0    0    0  501 -0.00000000000E+00 -0.00000000000E+00 -0.76886635573E+03  0.76886635573E+03  0.00000000000E+00 0.  1.
        -24    2    1    2    0    0 -0.27312937744E+03 -0.10573655181E+03  0.12015511053E+03  0.32658714256E+03  0.80262294327E+02 0.  0.
        254    2    1    2    0    0  0.27312937744E+03  0.10573655181E+03 -0.34038610421E+03  0.99091457522E+03  0.88332843282E+03 0.  0.
         23    2    4    4    0    0  0.56310689237E+02  0.26690882874E+03  0.21959302238E+03  0.36237194013E+03  0.93172479490E+02 0.  0.
         23    2    4    4    0    0  0.21681868820E+03 -0.16117227694E+03 -0.55997912659E+03  0.62854263508E+03  0.92208326587E+02 0.  0.
          1    1    3    3  502    0 -0.21485528940E+03 -0.63961983309E+02  0.57652949262E+02  0.23146877381E+03  0.00000000000E+00 0. -1.
         -2    1    3    3    0  502 -0.58274088043E+02 -0.41774568499E+02  0.62502161269E+02  0.95118368751E+02  0.00000000000E+00 0.  1.
         13    1    5    5    0    0  0.81160125416E+02  0.19591261797E+03  0.14860436108E+03  0.25894396299E+03  0.00000000000E+00 0.  1.
        -13    1    5    5    0    0 -0.24849436179E+02  0.70996210778E+02  0.70988661303E+02  0.10342797715E+03  0.00000000000E+00 0. -1.
          1    1    6    6  503    0  0.15796686889E+03 -0.79536516263E+02 -0.42370912891E+03  0.45913942872E+03  0.00000000000E+00 0. -1.
         -1    1    6    6    0  503  0.58851819311E+02 -0.81635760673E+02 -0.13626999768E+03  0.16940320636E+03  0.00000000000E+00 0.  1.
<mgrwt>
<rscale>  0 0.12989646E+04</rscale>
<asrwt>0</asrwt>
<pdfrwt beam="1">  1        1 0.84405441E-01 0.12989646E+04</pdfrwt>
<pdfrwt beam="2">  1       -2 0.11828713E+00 0.12989646E+04</pdfrwt>
<totfact> 0.18408777E+01</totfact>
</mgrwt>
</event>
<event>
12    5  0.5297412E-008  0.1721769E+04  0.7818608E-02  0.8749045E-01
          1   -1    0    0  501    0  0.00000000000E+00  0.00000000000E+00  0.14500658086E+04  0.14500658086E+04  0.00000000000E+00 0. -1.
         -2   -1    0    0    0  501 -0.00000000000E+00 -0.00000000000E+00 -0.51109534882E+03  0.51109534882E+03  0.00000000000E+00 0.  1.
        -24    2    1    2    0    0 -0.54582392854E+03  0.26944570384E+03  0.22425068679E+03  0.65359196475E+03  0.79808129761E+02 0.  0.
        254    2    1    2    0    0  0.54582392854E+03 -0.26944570384E+03  0.71471977302E+03  0.13075691927E+04  0.91015827827E+03 0.  0.
         23    2    4    4    0    0  0.54452857348E+03 -0.58812068741E+02 -0.21017824897E+01  0.55529180382E+03  0.91511437122E+02 0.  0.
         23    2    4    4    0    0  0.12953550552E+01 -0.21063363510E+03  0.71682155551E+03  0.75227738889E+03  0.87863082251E+02 0.  0.
          1    1    3    3  502    0 -0.36542735726E+03  0.18698579373E+03  0.18991456816E+03  0.45229236528E+03  0.00000000000E+00 0. -1.
         -2    1    3    3    0  502 -0.18039657128E+03  0.82459910109E+02  0.34336118634E+02  0.20129959947E+03  0.00000000000E+00 0.  1.
         13    1    5    5    0    0  0.33025380263E+03  0.39531611211E+01 -0.22755185551E+02  0.33106041760E+03  0.00000000000E+00 0.  1.
        -13    1    5    5    0    0  0.21427477085E+03 -0.62765229862E+02  0.20653403061E+02  0.22423138621E+03  0.00000000000E+00 0. -1.
          3    1    6    6  503    0 -0.18051766099E+02 -0.11069423889E+03  0.50447651645E+03  0.51679361106E+03  0.00000000000E+00 0. -1.
         -3    1    6    6    0  503  0.19347121154E+02 -0.99939396205E+02  0.21234503906E+03  0.23548377784E+03  0.00000000000E+00 0.  1.
<mgrwt>
<rscale>  0 0.17217687E+04</rscale>
<asrwt>0</asrwt>
<pdfrwt beam="1">  1        1 0.22308705E+00 0.17217687E+04</pdfrwt>
<pdfrwt beam="2">  1       -2 0.78630054E-01 0.17217687E+04</pdfrwt>
<totfact> 0.84878470E+00</totfact>
</mgrwt>
</event>
<event>
12    5  0.5297412E-008  0.1494324E+04  0.7818608E-02  0.8888236E-01
         -2   -1    0    0    0  501 -0.00000000000E+00  0.00000000000E+00  0.25864139465E+03  0.25864139465E+03  0.00000000000E+00 0.  1.
          1   -1    0    0  501    0  0.00000000000E+00 -0.00000000000E+00 -0.21583967294E+04  0.21583967294E+04  0.00000000000E+00 0. -1.
        -24    2    1    2    0    0  0.34658175087E+03  0.31722575761E+03 -0.57851497900E+03  0.75171611209E+03  0.98216296617E+02 0.  0.
        254    2    1    2    0    0 -0.34658175087E+03 -0.31722575761E+03 -0.13212403558E+04  0.16653220120E+04  0.89825955857E+03 0.  0.
         23    2    4    4    0    0 -0.76253900981E+02 -0.49018499423E+03 -0.12147673093E+04  0.13155266525E+04  0.94099796652E+02 0.  0.
         23    2    4    4    0    0 -0.27032784989E+03  0.17295923662E+03 -0.10647304652E+03  0.34979535952E+03  0.89600446158E+02 0.  0.
          1    1    3    3  502    0  0.29115014849E+03  0.25699723425E+03 -0.52832140515E+03  0.65569771581E+03  0.00000000000E+00 0. -1.
         -2    1    3    3    0  502  0.55431602372E+02  0.60228523362E+02 -0.50193573849E+02  0.96018396277E+02  0.00000000000E+00 0.  1.
         13    1    5    5    0    0 -0.34788659625E+01 -0.12930801662E+03 -0.22531247368E+03  0.25980449662E+03  0.00000000000E+00 0. -1.
        -13    1    5    5    0    0 -0.72775035018E+02 -0.36087697761E+03 -0.98945483558E+03  0.10557221558E+04  0.00000000000E+00 0.  1.
          2    1    6    6  503    0 -0.17994605245E+03  0.65780858995E+02 -0.45563937687E+02  0.19693596833E+03  0.00000000000E+00 0. -1.
         -2    1    6    6    0  503 -0.90381797433E+02  0.10717837763E+03 -0.60909108830E+02  0.15285939119E+03  0.00000000000E+00 0.  1.
<mgrwt>
<rscale>  0 0.14943236E+04</rscale>
<asrwt>0</asrwt>
<pdfrwt beam="1">  1        1 0.33206104E+00 0.14943236E+04</pdfrwt>
<pdfrwt beam="2">  1       -2 0.39790984E-01 0.14943236E+04</pdfrwt>
<totfact> 0.11820702E+01</totfact>
</mgrwt>
</event>
<event>
12    5  0.5297412E-008  0.2237858E+04  0.7818608E-02  0.8502834E-01
         -2   -1    0    0    0  501 -0.00000000000E+00  0.00000000000E+00  0.11125054289E+04  0.11125054289E+04  0.00000000000E+00 0.  1.
          1   -1    0    0  501    0  0.00000000000E+00 -0.00000000000E+00 -0.11253900885E+04  0.11253900885E+04  0.00000000000E+00 0. -1.
        -24    2    1    2    0    0  0.32343323849E+03  0.53173968787E+03  0.69662365187E+03  0.93753610337E+03  0.79581890867E+02 0.  0.
        254    2    1    2    0    0 -0.32343323849E+03 -0.53173968787E+03 -0.70950831145E+03  0.13003594141E+04  0.89452579971E+03 0.  0.
         23    2    4    4    0    0 -0.88814159873E+02  0.23686577989E+02  0.18024631612E+03  0.22164564329E+03  0.90493357458E+02 0.  0.
         23    2    4    4    0    0 -0.23461907862E+03 -0.55542626586E+03 -0.88975462757E+03  0.10787137708E+04  0.91736869119E+02 0.  0.
          3    1    3    3  502    0  0.31358909591E+02  0.89593996063E+02  0.77023287839E+02  0.12224177768E+03  0.00000000000E+00 0. -1.
         -4    1    3    3    0  502  0.29207432890E+03  0.44214569180E+03  0.61960036404E+03  0.81529432569E+03  0.00000000000E+00 0.  1.
         13    1    5    5    0    0 -0.23624845884E+02 -0.34044048502E+02  0.49484474370E+02  0.64543348109E+02  0.00000000000E+00 0.  1.
        -13    1    5    5    0    0 -0.65189313989E+02  0.57730626491E+02  0.13076184175E+03  0.15710229518E+03  0.00000000000E+00 0. -1.
          4    1    6    6  503    0 -0.21188003810E+03 -0.44558751102E+03 -0.77101202990E+03  0.91536928656E+03  0.00000000000E+00 0.  1.
         -4    1    6    6    0  503 -0.22739040520E+02 -0.10983875484E+03 -0.11874259766E+03  0.16334448423E+03  0.00000000000E+00 0. -1.
<mgrwt>
<rscale>  0 0.22378584E+04</rscale>
<asrwt>0</asrwt>
<pdfrwt beam="1">  1        1 0.17313694E+00 0.22378584E+04</pdfrwt>
<pdfrwt beam="2">  1       -2 0.17115468E+00 0.22378584E+04</pdfrwt>
<totfact> 0.20226970E+00</totfact>
</mgrwt>
</event>
<event>
12    5  0.5297412E-008  0.1345917E+04  0.7818608E-02  0.8993924E-01
          3   -1    0    0  501    0  0.00000000000E+00  0.00000000000E+00  0.11143186013E+04  0.11143186013E+04  0.00000000000E+00 0. -1.
         -4   -1    0    0    0  501 -0.00000000000E+00 -0.00000000000E+00 -0.40641292214E+03  0.40641292214E+03  0.00000000000E+00 0.  1.
        -24    2    1    2    0    0 -0.19266658078E+03 -0.31079805201E+03  0.12511559820E+03  0.39368846773E+03  0.74972369753E+02 0.  0.
        254    2    1    2    0    0  0.19266658078E+03  0.31079805201E+03  0.58279008095E+03  0.11270430557E+04  0.89267347359E+03 0.  0.
         23    2    4    4    0    0 -0.22864210412E+03 -0.10830392381E+03 -0.26070841929E+02  0.27133685006E+03  0.94535949308E+02 0.  0.
         23    2    4    4    0    0  0.42130868490E+03  0.41910197583E+03  0.60886092288E+03  0.85570620564E+03  0.91509632497E+02 0.  0.
          1    1    3    3  502    0 -0.19314471053E+03 -0.30435914449E+03  0.10941290972E+03  0.37671017089E+03  0.00000000000E+00 0. -1.
         -2    1    3    3    0  502  0.47812974570E+00 -0.64389075224E+01  0.15702688477E+02  0.16978296839E+02  0.00000000000E+00 0.  1.
         13    1    5    5    0    0 -0.10221825741E+03  0.18234704876E+01 -0.14730883175E+02  0.10329034859E+03  0.00000000000E+00 0. -1.
        -13    1    5    5    0    0 -0.12642384672E+03 -0.11012739430E+03 -0.11339958754E+02  0.16804650148E+03  0.00000000000E+00 0.  1.
          3    1    6    6  503    0  0.25538196174E+03  0.18962040473E+03  0.32267670119E+03  0.45309612420E+03  0.00000000000E+00 0. -1.
         -3    1    6    6    0  503  0.16592672316E+03  0.22948157109E+03  0.28618422169E+03  0.40261008144E+03  0.00000000000E+00 0.  1.
<mgrwt>
<rscale>  0 0.13459175E+04</rscale>
<asrwt>0</asrwt>
<pdfrwt beam="1">  1        3 0.17143363E+00 0.13459175E+04</pdfrwt>
<pdfrwt beam="2">  1       -4 0.62525065E-01 0.13459175E+04</pdfrwt>
<totfact> 0.12188289E+00</totfact>
</mgrwt>
</event>
<event>
12    5  0.5297412E-008  0.1776713E+04  0.7818608E-02  0.8718782E-01
         -2   -1    0    0    0  501 -0.00000000000E+00  0.00000000000E+00  0.11782477958E+04  0.11782477958E+04  0.00000000000E+00 0.  1.
          1   -1    0    0  501    0  0.00000000000E+00 -0.00000000000E+00 -0.66978889630E+03  0.66978889630E+03  0.00000000000E+00 0. -1.
        -24    2    1    2    0    0 -0.13193246999E+03 -0.61133508867E+03  0.38813529107E+02  0.63296446077E+03  0.89446918744E+02 0.  0.
        254    2    1    2    0    0  0.13193246999E+03  0.61133508867E+03  0.46964537035E+03  0.12150722313E+04  0.92989084632E+03 0.  0.
         23    2    4    4    0    0 -0.29151514894E+03  0.13757431135E+03 -0.10769241986E+03  0.35173072329E+03  0.90603924882E+02 0.  0.
         23    2    4    4    0    0  0.42344761894E+03  0.47376077732E+03  0.57733779021E+03  0.86334150799E+03  0.91008105704E+02 0.  0.
          3    1    3    3  502    0 -0.44896344555E+02 -0.34499774214E+03  0.55335228792E+02  0.35227987649E+03  0.00000000000E+00 0. -1.
         -4    1    3    3    0  502 -0.87036125439E+02 -0.26633734653E+03 -0.16521699685E+02  0.28068458427E+03  0.00000000000E+00 0.  1.
         13    1    5    5    0    0 -0.27210362489E+03  0.15072639025E+03 -0.96053954892E+02  0.32555366631E+03  0.00000000000E+00 0. -1.
        -13    1    5    5    0    0 -0.19411524048E+02 -0.13152078899E+02 -0.11638464970E+02  0.26177056979E+02  0.00000000000E+00 0.  1.
          2    1    6    6  503    0  0.31714844030E+03  0.30309442584E+03  0.42796056911E+03  0.61286182201E+03  0.00000000000E+00 0. -1.
         -2    1    6    6    0  503  0.10629917864E+03  0.17066635149E+03  0.14937722109E+03  0.25047968598E+03  0.00000000000E+00 0.  1.
<mgrwt>
<rscale>  0 0.17767130E+04</rscale>
<asrwt>0</asrwt>
<pdfrwt beam="1">  1        1 0.10304445E+00 0.17767130E+04</pdfrwt>
<pdfrwt beam="2">  1       -2 0.18126889E+00 0.17767130E+04</pdfrwt>
<totfact> 0.42814398E+00</totfact>
</mgrwt>
</event>
<event>
12    5  0.5297412E-008  0.1116201E+04  0.7818608E-02  0.9189544E-01
         -2   -1    0    0    0  501 -0.00000000000E+00  0.00000000000E+00  0.30233609382E+03  0.30233609382E+03  0.00000000000E+00 0.  1.
          1   -1    0    0  501    0  0.00000000000E+00 -0.00000000000E+00 -0.10302312497E+04  0.10302312497E+04  0.00000000000E+00 0. -1.
        -24    2    1    2    0    0 -0.50784739221E+02 -0.89307072476E+02  0.49700074331E+02  0.13965152135E+03  0.80483582767E+02 0.  0.
        254    2    1    2    0    0  0.50784739221E+02  0.89307072476E+02 -0.77759523019E+03  0.11929158222E+04  0.89879862806E+03 0.  0.
         23    2    4    4    0    0  0.14507656981E+03 -0.37809394178E+03 -0.29570397972E+03  0.50881913509E+03  0.86335558640E+02 0.  0.
         23    2    4    4    0    0 -0.94291830592E+02  0.46740101426E+03 -0.48189125047E+03  0.68409668707E+03  0.91730270542E+02 0.  0.
          3    1    3    3  502    0  0.11308132545E+02 -0.35710708133E+02 -0.93191896668E+01  0.38600205091E+02  0.00000000000E+00 0. -1.
         -4    1    3    3    0  502 -0.62092871766E+02 -0.53596364343E+02  0.59019263998E+02  0.10105131626E+03  0.00000000000E+00 0.  1.
         13    1    5    5    0    0  0.58878877315E+02 -0.26706522425E+03 -0.19227450789E+03  0.33430531342E+03  0.00000000000E+00 0.  1.
        -13    1    5    5    0    0  0.86197692498E+02 -0.11102871754E+03 -0.10342947183E+03  0.17451382167E+03  0.00000000000E+00 0. -1.
          3    1    6    6  503    0  0.18195208803E+02  0.47882582309E+02 -0.50797480290E+02  0.72140081202E+02  0.00000000000E+00 0. -1.
         -3    1    6    6    0  503 -0.11248703940E+03  0.41951843195E+03 -0.43109377018E+03  0.61195660587E+03  0.00000000000E+00 0.  1.
<mgrwt>
<rscale>  0 0.11162009E+04</rscale>
<asrwt>0</asrwt>
<pdfrwt beam="1">  1        1 0.15849711E+00 0.11162009E+04</pdfrwt>
<pdfrwt beam="2">  1       -2 0.46513245E-01 0.11162009E+04</pdfrwt>
<totfact> 0.54803552E+01</totfact>
</mgrwt>
</event>
<event>
12    5  0.5297412E-008  0.1773946E+04  0.7818608E-02  0.8720279E-01
         -2   -1    0    0    0  501 -0.00000000000E+00  0.00000000000E+00  0.48336455141E+03  0.48336455141E+03  0.00000000000E+00 0.  1.
          1   -1    0    0  501    0  0.00000000000E+00 -0.00000000000E+00 -0.16275942412E+04  0.16275942412E+04  0.00000000000E+00 0. -1.
        -24    2    1    2    0    0  0.33021580253E+03  0.10986677369E+02  0.24706224454E+03  0.42027542638E+03  0.80177914812E+02 0.  0.
        254    2    1    2    0    0 -0.33021580253E+03 -0.10986677369E+02 -0.13912919344E+04  0.16906833663E+04  0.90197218084E+03 0.  0.
         23    2    4    4    0    0 -0.89383924042E+02 -0.31046393902E+03 -0.11487766223E+03  0.35449373838E+03  0.89953265423E+02 0.  0.
         23    2    4    4    0    0 -0.24083187849E+03  0.29947726165E+03 -0.12764142721E+04  0.13361896279E+04  0.92101594034E+02 0.  0.
          3    1    3    3  502    0 -0.14188728697E+01  0.66587074232E+01  0.17566222876E+00  0.68104656219E+01  0.00000000000E+00 0. -1.
         -4    1    3    3    0  502  0.33163467540E+03  0.43279699454E+01  0.24688658231E+03  0.41346496076E+03  0.00000000000E+00 0.  1.
         13    1    5    5    0    0 -0.26922904009E+02 -0.19754966932E+03 -0.34138626414E+02  0.20227743429E+03  0.00000000000E+00 0. -1.
        -13    1    5    5    0    0 -0.62461020033E+02 -0.11291426969E+03 -0.80739035820E+02  0.15221630408E+03  0.00000000000E+00 0.  1.
          2    1    6    6  503    0 -0.18017435243E+03  0.17537996913E+03 -0.71107255992E+03  0.75421821532E+03  0.00000000000E+00 0. -1.
         -2    1    6    6    0  503 -0.60657526054E+02  0.12409729252E+03 -0.56534171221E+03  0.58197141257E+03  0.00000000000E+00 0.  1.
<mgrwt>
<rscale>  0 0.17739463E+04</rscale>
<asrwt>0</asrwt>
<pdfrwt beam="1">  1        1 0.25039912E+00 0.17739463E+04</pdfrwt>
<pdfrwt beam="2">  1       -2 0.74363777E-01 0.17739463E+04</pdfrwt>
<totfact> 0.72152234E+00</totfact>
</mgrwt>
</event>
<event>
12    5  0.5297412E-008  0.1938407E+04  0.7818608E-02  0.8635971E-01
          1   -1    0    0  501    0  0.00000000000E+00  0.00000000000E+00  0.12801408887E+04  0.12801408887E+04  0.00000000000E+00 0. -1.
         -2   -1    0    0    0  501 -0.00000000000E+00 -0.00000000000E+00 -0.73379060715E+03  0.73379060715E+03  0.00000000000E+00 0.  1.
        -24    2    1    2    0    0 -0.76127537692E+03  0.82606909693E+02  0.38279614469E+03  0.85990523756E+03  0.80870440619E+02 0.  0.
        254    2    1    2    0    0  0.76127537692E+03 -0.82606909693E+02  0.16355413686E+03  0.11540262583E+04  0.84773966999E+03 0.  0.
         23    2    4    4    0    0  0.31359542774E+03 -0.34643905820E+03 -0.19617905067E+03  0.51540213818E+03  0.93760496868E+02 0.  0.
         23    2    4    4    0    0  0.44767994918E+03  0.26383214851E+03  0.35973318753E+03  0.63862412009E+03  0.91695480080E+02 0.  0.
          3    1    3    3  502    0 -0.65956171550E+03  0.48038769023E+02  0.31172500873E+03  0.73109634177E+03  0.00000000000E+00 0. -1.
         -2    1    3    3    0  502 -0.10171366142E+03  0.34568140670E+02  0.71071135954E+02  0.12880889579E+03  0.00000000000E+00 0.  1.
         13    1    5    5    0    0  0.16379919437E+03 -0.20335238886E+03 -0.61327416407E+02  0.26822270996E+03  0.00000000000E+00 0.  1.
        -13    1    5    5    0    0  0.14979623337E+03 -0.14308666934E+03 -0.13485163427E+03  0.24717942822E+03  0.00000000000E+00 0. -1.
          2    1    6    6  503    0  0.25695509385E+03  0.10840527811E+03  0.22347332490E+03  0.35737648429E+03  0.00000000000E+00 0. -1.
         -2    1    6    6    0  503  0.19072485533E+03  0.15542687040E+03  0.13625986263E+03  0.28124763581E+03  0.00000000000E+00 0.  1.
<mgrwt>
<rscale>  0 0.19384069E+04</rscale>
<asrwt>0</asrwt>
<pdfrwt beam="1">  1        1 0.19694475E+00 0.19384069E+04</pdfrwt>
<pdfrwt beam="2">  1       -2 0.11289086E+00 0.19384069E+04</pdfrwt>
<totfact> 0.47178074E+00</totfact>
</mgrwt>
</event>
<event>
12    5  0.5297412E-008  0.1644279E+04  0.7818608E-02  0.8793798E-01
          3   -1    0    0  501    0  0.00000000000E+00  0.00000000000E+00  0.60670702692E+03  0.60670702692E+03  0.00000000000E+00 0. -1.
         -4   -1    0    0    0  501 -0.00000000000E+00 -0.00000000000E+00 -0.11140690881E+04  0.11140690881E+04  0.00000000000E+00 0.  1.
        -24    2    1    2    0    0 -0.40448499778E+03  0.14569754877E+03 -0.55940551583E+03  0.71042561605E+03  0.83271457589E+02 0.  0.
        254    2    1    2    0    0  0.40448499778E+03 -0.14569754877E+03  0.52043454680E+02  0.10103504989E+04  0.91283279979E+03 0.  0.
         23    2    4    4    0    0  0.11870614569E+03 -0.33710292799E+03 -0.32551545443E+03  0.49161112149E+03  0.89396032422E+02 0.  0.
         23    2    4    4    0    0  0.28577885209E+03  0.19140537922E+03  0.37755890911E+03  0.51873937745E+03  0.90742715227E+02 0.  0.
          3    1    3    3  502    0 -0.38063711909E+03  0.15670143669E+03 -0.52746358176E+03  0.66907233299E+03  0.00000000000E+00 0. -1.
         -4    1    3    3    0  502 -0.23847878695E+02 -0.11003887923E+02 -0.31941934065E+02  0.41353283056E+02  0.00000000000E+00 0.  1.
         13    1    5    5    0    0  0.48199646385E+02 -0.41899121723E+02 -0.71143907871E+02  0.95604382430E+02  0.00000000000E+00 0. -1.
        -13    1    5    5    0    0  0.70506499304E+02 -0.29520380627E+03 -0.25437154656E+03  0.39600673906E+03  0.00000000000E+00 0.  1.
          3    1    6    6  503    0  0.12933120847E+03  0.10671414289E+03  0.24499951938E+03  0.29688252605E+03  0.00000000000E+00 0. -1.
         -3    1    6    6    0  503  0.15644764362E+03  0.84691236330E+02  0.13255938973E+03  0.22185685140E+03  0.00000000000E+00 0.  1.
<mgrwt>
<rscale>  0 0.16442792E+04</rscale>
<asrwt>0</asrwt>
<pdfrwt beam="1">  1        3 0.93339544E-01 0.16442792E+04</pdfrwt>
<pdfrwt beam="2">  1       -4 0.17139524E+00 0.16442792E+04</pdfrwt>
<totfact> 0.46378167E-01</totfact>
</mgrwt>
</event>
<event>
12    5  0.5297412E-008  0.1620667E+04  0.7818608E-02  0.8807951E-01
         -2   -1    0    0    0  501 -0.00000000000E+00  0.00000000000E+00  0.68846476755E+03  0.68846476755E+03  0.00000000000E+00 0.  1.
          1   -1    0    0  501    0  0.00000000000E+00 -0.00000000000E+00 -0.95377518710E+03  0.95377518710E+03  0.00000000000E+00 0. -1.
        -24    2    1    2    0    0 -0.52570738542E+03  0.14858373800E+03 -0.20468291577E+03  0.58872770160E+03  0.79119076990E+02 0.  0.
        254    2    1    2    0    0  0.52570738542E+03 -0.14858373800E+03 -0.60627503785E+02  0.10535122530E+04  0.89875858317E+03 0.  0.
         23    2    4    4    0    0  0.30305000112E+03 -0.62147060613E+02  0.40666851672E+03  0.52079593060E+03  0.10073509076E+03 0.  0.
         23    2    4    4    0    0  0.22265738430E+03 -0.86436677382E+02 -0.46729602051E+03  0.53271632245E+03  0.91506827281E+02 0.  0.
          1    1    3    3  502    0 -0.33856642956E+03  0.13148305615E+03 -0.15053620897E+03  0.39316176250E+03  0.00000000000E+00 0. -1.
         -2    1    3    3    0  502 -0.18714095586E+03  0.17100681842E+02 -0.54146706796E+02  0.19556593910E+03  0.00000000000E+00 0.  1.
         13    1    5    5    0    0  0.27135646770E+03 -0.82605638106E+02  0.38171091420E+03  0.47556413451E+03  0.00000000000E+00 0.  1.
        -13    1    5    5    0    0  0.31693533421E+02  0.20458577493E+02  0.24957602520E+02  0.45231796088E+02  0.00000000000E+00 0. -1.
          1    1    6    6  503    0 -0.26472859405E+01 -0.14179720580E+02 -0.91563097127E+01  0.17085391600E+02  0.00000000000E+00 0. -1.
         -1    1    6    6    0  503  0.22530467024E+03 -0.72256956802E+02 -0.45813971080E+03  0.51563093085E+03  0.00000000000E+00 0.  1.
<mgrwt>
<rscale>  0 0.16206673E+04</rscale>
<asrwt>0</asrwt>
<pdfrwt beam="1">  1        1 0.14673464E+00 0.16206673E+04</pdfrwt>
<pdfrwt beam="2">  1       -2 0.10591766E+00 0.16206673E+04</pdfrwt>
<totfact> 0.99484427E+00</totfact>
</mgrwt>
</event>
<event>
12    5  0.5297412E-008  0.1396088E+04  0.7818608E-02  0.8956655E-01
         -2   -1    0    0    0  501 -0.00000000000E+00  0.00000000000E+00  0.19545046002E+03  0.19545046002E+03  0.00000000000E+00 0.  1.
          1   -1    0    0  501    0  0.00000000000E+00 -0.00000000000E+00 -0.24930376176E+04  0.24930376176E+04  0.00000000000E+00 0. -1.
        -24    2    1    2    0    0  0.13924057029E+03 -0.38621502085E+03 -0.54860329078E+03  0.69008655138E+03  0.81877341122E+02 0.  0.
        254    2    1    2    0    0 -0.13924057029E+03  0.38621502085E+03 -0.17489838668E+04  0.19984015263E+04  0.87527944970E+03 0.  0.
         23    2    4    4    0    0  0.48920310971E+02 -0.26255926945E+03 -0.57154486038E+03  0.63788152892E+03  0.94333189906E+02 0.  0.
         23    2    4    4    0    0 -0.18816088126E+03  0.64877429030E+03 -0.11774390064E+04  0.13605199974E+04  0.91320601740E+02 0.  0.
          1    1    3    3  502    0  0.36714623813E+02 -0.12560820943E+03 -0.11672458997E+03  0.17535682416E+03  0.00000000000E+00 0. -1.
         -2    1    3    3    0  502  0.10252594648E+03 -0.26060681143E+03 -0.43187870081E+03  0.51472972721E+03  0.00000000000E+00 0.  1.
         13    1    5    5    0    0  0.23647871657E+02 -0.54065869950E+01 -0.38391553766E+02  0.45413262572E+02  0.00000000000E+00 0. -1.
        -13    1    5    5    0    0  0.25272439314E+02 -0.25715268245E+03 -0.53315330661E+03  0.59246826635E+03  0.00000000000E+00 0.  1.
          3    1    6    6  503    0 -0.13707051205E+03  0.35989816267E+03 -0.60258588246E+03  0.71513967762E+03  0.00000000000E+00 0. -1.
         -3    1    6    6    0  503 -0.51090369214E+02  0.28887612763E+03 -0.57485312399E+03  0.64538031973E+03  0.00000000000E+00 0.  1.
<mgrwt>
<rscale>  0 0.13960879E+04</rscale>
<asrwt>0</asrwt>
<pdfrwt beam="1">  1        1 0.38354423E+00 0.13960879E+04</pdfrwt>
<pdfrwt beam="2">  1       -2 0.30069303E-01 0.13960879E+04</pdfrwt>
<totfact> 0.12020603E+01</totfact>
</mgrwt>
</event>
<event>
12    5  0.5297412E-008  0.1599786E+04  0.7818608E-02  0.8820680E-01
         -4   -1    0    0    0  501 -0.00000000000E+00  0.00000000000E+00  0.18747314999E+03  0.18747314999E+03  0.00000000000E+00 0.  1.
          3   -1    0    0  501    0  0.00000000000E+00 -0.00000000000E+00 -0.34129081478E+04  0.34129081478E+04  0.00000000000E+00 0. -1.
        -24    2    1    2    0    0 -0.40267990554E+03  0.12718389625E+02 -0.19623786967E+04  0.20049593500E+04  0.81357126726E+02 0.  0.
        254    2    1    2    0    0  0.40267990554E+03 -0.12718389625E+02 -0.12630563012E+04  0.15954219479E+04  0.88755118616E+03 0.  0.
         23    2    4    4    0    0  0.10318427332E+03  0.42656545655E+01 -0.12742102597E+04  0.12817376616E+04  0.92598365968E+02 0.  0.
         23    2    4    4    0    0  0.29949563222E+03 -0.16984044191E+02  0.11153958501E+02  0.31368428622E+03  0.91034768934E+02 0.  0.
          3    1    3    3  502    0 -0.32034326431E+03 -0.11983218972E+02 -0.16563908946E+04  0.16871260179E+04  0.00000000000E+00 0. -1.
         -4    1    3    3    0  502 -0.82336641228E+02  0.24701608597E+02 -0.30598780205E+03  0.31783333204E+03  0.00000000000E+00 0.  1.
         13    1    5    5    0    0 -0.37517414405E+01  0.28436455043E+02 -0.22730786635E+03  0.22911039620E+03  0.00000000000E+00 0.  1.
        -13    1    5    5    0    0  0.10693601476E+03 -0.24170800477E+02 -0.10469023933E+04  0.10526272654E+04  0.00000000000E+00 0. -1.
          1    1    6    6  503    0  0.12154318979E+03  0.65270176412E+01  0.47293630096E+02  0.13058344609E+03  0.00000000000E+00 0. -1.
         -1    1    6    6    0  503  0.17795244243E+03 -0.23511061832E+02 -0.36139671595E+02  0.18310084013E+03  0.00000000000E+00 0.  1.
<mgrwt>
<rscale>  0 0.15997858E+04</rscale>
<asrwt>0</asrwt>
<pdfrwt beam="1">  1        3 0.52506277E+00 0.15997858E+04</pdfrwt>
<pdfrwt beam="2">  1       -4 0.28842025E-01 0.15997858E+04</pdfrwt>
<totfact> 0.66952997E-02</totfact>
</mgrwt>
</event>
<event>
12    5  0.5297412E-008  0.1933932E+04  0.7818608E-02  0.8638148E-01
         -2   -1    0    0    0  501 -0.00000000000E+00  0.00000000000E+00  0.26649971287E+03  0.26649971287E+03  0.00000000000E+00 0.  1.
          1   -1    0    0  501    0  0.00000000000E+00 -0.00000000000E+00 -0.35085334660E+04  0.35085334660E+04  0.00000000000E+00 0. -1.
        -24    2    1    2    0    0 -0.56480537408E+03  0.97142912236E+02 -0.22368651534E+04  0.23104948039E+04  0.79866564747E+02 0.  0.
        254    2    1    2    0    0  0.56480537408E+03 -0.97142912236E+02 -0.10051685997E+04  0.14645383750E+04  0.89781227547E+03 0.  0.
         23    2    4    4    0    0 -0.53444296315E+02 -0.36790565952E+03 -0.39554091149E+03  0.55054694774E+03  0.91861101039E+02 0.  0.
         23    2    4    4    0    0  0.61824967040E+03  0.27076274729E+03 -0.60962768819E+03  0.91399142723E+03  0.90494699168E+02 0.  0.
          1    1    3    3  502    0 -0.36197156237E+03  0.60435170621E+02 -0.12733723893E+04  0.13251992543E+04  0.00000000000E+00 0. -1.
         -4    1    3    3    0  502 -0.20283381171E+03  0.36707741614E+02 -0.96349276411E+03  0.98529554955E+03  0.00000000000E+00 0.  1.
         13    1    5    5    0    0 -0.14464473214E+02 -0.30952996014E+03 -0.29430303021E+03  0.42735499389E+03  0.00000000000E+00 0.  1.
        -13    1    5    5    0    0 -0.38979823101E+02 -0.58375699383E+02 -0.10123788128E+03  0.12319195385E+03  0.00000000000E+00 0. -1.
          4    1    6    6  503    0  0.22836629238E+02 -0.10294168929E+01 -0.41130242140E+02  0.47056010802E+02  0.00000000000E+00 0. -1.
         -4    1    6    6    0  503  0.59541304116E+03  0.27179216418E+03 -0.56849744605E+03  0.86693541643E+03  0.00000000000E+00 0.  1.
<mgrwt>
<rscale>  0 0.19339319E+04</rscale>
<asrwt>0</asrwt>
<pdfrwt beam="1">  1        1 0.53977434E+00 0.19339319E+04</pdfrwt>
<pdfrwt beam="2">  1       -2 0.40999959E-01 0.19339319E+04</pdfrwt>
<totfact> 0.11420087E+00</totfact>
</mgrwt>
</event>
<event>
12    5  0.5297412E-008  0.2615786E+04  0.7818608E-02  0.8362859E-01
         -2   -1    0    0    0  501 -0.00000000000E+00  0.00000000000E+00  0.23631357802E+04  0.23631357802E+04  0.00000000000E+00 0.  1.
          1   -1    0    0  501    0  0.00000000000E+00 -0.00000000000E+00 -0.72386219172E+03  0.72386219172E+03  0.00000000000E+00 0. -1.
        -24    2    1    2    0    0 -0.27075922952E+03 -0.10379655250E+04  0.11916269170E+04  0.16053141341E+04  0.79848409038E+02 0.  0.
        254    2    1    2    0    0  0.27075922952E+03  0.10379655250E+04  0.44764667153E+03  0.14816838378E+04  0.91886694422E+03 0.  0.
         23    2    4    4    0    0  0.44381768958E+03  0.45919062736E+03  0.56648671831E+03  0.85854803616E+03  0.91473244923E+02 0.  0.
         23    2    4    4    0    0 -0.17305846006E+03  0.57877489768E+03 -0.11884004677E+03  0.62313580166E+03  0.96154343671E+02 0.  0.
          3    1    3    3  502    0 -0.88726074373E+02 -0.24103634430E+03  0.32017410336E+03  0.41046594500E+03  0.00000000000E+00 0. -1.
         -4    1    3    3    0  502 -0.18203315515E+03 -0.79692918074E+03  0.87145281362E+03  0.11948481891E+04  0.00000000000E+00 0.  1.
         13    1    5    5    0    0  0.15017120761E+03  0.17036268027E+03  0.14624599812E+03  0.27011613500E+03  0.00000000000E+00 0. -1.
        -13    1    5    5    0    0  0.29364648197E+03  0.28882794709E+03  0.42024072019E+03  0.58843190116E+03  0.00000000000E+00 0.  1.
          2    1    6    6  503    0 -0.55105300073E+01  0.15305578818E+03 -0.14148073052E+02  0.15380704863E+03  0.00000000000E+00 0. -1.
         -2    1    6    6    0  503 -0.16754793005E+03  0.42571910950E+03 -0.10469197372E+03  0.46932875303E+03  0.00000000000E+00 0.  1.
<mgrwt>
<rscale>  0 0.26157864E+04</rscale>
<asrwt>0</asrwt>
<pdfrwt beam="1">  1        1 0.11136342E+00 0.26157864E+04</pdfrwt>
<pdfrwt beam="2">  1       -2 0.36355935E+00 0.26157864E+04</pdfrwt>
<totfact> 0.25478475E-01</totfact>
</mgrwt>
</event>
<event>
12    5  0.5297412E-008  0.1473846E+04  0.7818608E-02  0.8902033E-01
         -2   -1    0    0    0  501 -0.00000000000E+00  0.00000000000E+00  0.85152703987E+03  0.85152703987E+03  0.00000000000E+00 0.  1.
          1   -1    0    0  501    0  0.00000000000E+00 -0.00000000000E+00 -0.63774354308E+03  0.63774354308E+03  0.00000000000E+00 0. -1.
        -24    2    1    2    0    0 -0.14411376831E+03 -0.21217771942E+03  0.45200938023E+03  0.52585936361E+03  0.80171239503E+02 0.  0.
        254    2    1    2    0    0  0.14411376831E+03  0.21217771942E+03 -0.23822588345E+03  0.96341121934E+03  0.89756417218E+03 0.  0.
         23    2    4    4    0    0  0.34061283189E+03  0.18420847933E+02  0.22253940121E+03  0.41731574988E+03  0.90951751618E+02 0.  0.
         23    2    4    4    0    0 -0.19649906358E+03  0.19375687149E+03 -0.46076528466E+03  0.54609546946E+03  0.98802869278E+02 0.  0.
          3    1    3    3  502    0 -0.10277184084E+03 -0.10927277281E+03  0.19563397701E+03  0.24652635378E+03  0.00000000000E+00 0. -1.
         -4    1    3    3    0  502 -0.41341927469E+02 -0.10290494661E+03  0.25637540322E+03  0.27933300983E+03  0.00000000000E+00 0.  1.
         13    1    5    5    0    0  0.32664879280E+03  0.17510823417E+02  0.23145685570E+03  0.40072227144E+03  0.00000000000E+00 0. -1.
        -13    1    5    5    0    0  0.13964039088E+02  0.91002451600E+00 -0.89174544910E+01  0.16593478444E+02  0.00000000000E+00 0.  1.
          3    1    6    6  503    0 -0.17286239130E+03  0.11381596893E+03 -0.29256809563E+03  0.35837350864E+03  0.00000000000E+00 0. -1.
         -3    1    6    6    0  503 -0.23636672282E+02  0.79940902564E+02 -0.16819718902E+03  0.18772196082E+03  0.00000000000E+00 0.  1.
<mgrwt>
<rscale>  0 0.14738465E+04</rscale>
<asrwt>0</asrwt>
<pdfrwt beam="1">  1        1 0.98114392E-01 0.14738465E+04</pdfrwt>
<pdfrwt beam="2">  1       -2 0.13100416E+00 0.14738465E+04</pdfrwt>
<totfact> 0.11316382E+01</totfact>
</mgrwt>
</event>
<event>
12    5  0.7491066E-008  0.2995029E+04  0.7818608E-02  0.8245152E-01
         -2   -1    0    0    0  501 -0.00000000000E+00  0.00000000000E+00  0.13834945840E+04  0.13834945840E+04  0.00000000000E+00 0.  1.
          1   -1    0    0  501    0  0.00000000000E+00 -0.00000000000E+00 -0.16209312806E+04  0.16209312806E+04  0.00000000000E+00 0. -1.
        -24    2    1    2    0    0 -0.31583165041E+03  0.70727576396E+03  0.10139206789E+04  0.12783750674E+04  0.78860840582E+02 0.  0.
        254    2    1    2    0    0  0.31583165041E+03 -0.70727576396E+03 -0.12513573755E+04  0.17260507971E+04  0.90186885717E+03 0.  0.
         23    2    4    4    0    0 -0.15067116709E+03 -0.37906391166E+03 -0.88732196368E+02  0.42744972061E+03  0.91916327513E+02 0.  0.
         23    2    4    4    0    0  0.46650281751E+03 -0.32821185230E+03 -0.11626251791E+04  0.12986010765E+04  0.96537817398E+02 0.  0.
          1    1    3    3  502    0 -0.45924988476E+02  0.12935043750E+03  0.22875517030E+03  0.26677625117E+03  0.00000000000E+00 0. -1.
         -2    1    3    3    0  502 -0.26990666194E+03  0.57792532646E+03  0.78516550862E+03  0.10115988163E+04  0.00000000000E+00 0.  1.
         13    1    5    5    0    0 -0.25686922914E+02 -0.24900035484E+02  0.13462184641E+02  0.38223817068E+02  0.00000000000E+00 0. -1.
        -13    1    5    5    0    0 -0.12498424418E+03 -0.35416387618E+03 -0.10219438101E+03  0.38922590354E+03  0.00000000000E+00 0.  1.
          1    1    6    6  503    0  0.41896364241E+02 -0.24342539191E+02 -0.50402474907E+02  0.69916192886E+02  0.00000000000E+00 0. -1.
         -1    1    6    6    0  503  0.42460645327E+03 -0.30386931311E+03 -0.11122227042E+04  0.12286848836E+04  0.00000000000E+00 0.  1.
<mgrwt>
<rscale>  0 0.29950290E+04</rscale>
<asrwt>0</asrwt>
<pdfrwt beam="1">  1        1 0.24937404E+00 0.29950290E+04</pdfrwt>
<pdfrwt beam="2">  1       -2 0.21284532E+00 0.29950290E+04</pdfrwt>
<totfact> 0.44331786E-01</totfact>
</mgrwt>
</event>
<event>
12    5  0.5297412E-008  0.3258809E+04  0.7818608E-02  0.8173456E-01
          1   -1    0    0  501    0  0.00000000000E+00  0.00000000000E+00  0.19095042972E+04  0.19095042972E+04  0.00000000000E+00 0. -1.
         -2   -1    0    0    0  501 -0.00000000000E+00 -0.00000000000E+00 -0.13903914669E+04  0.13903914669E+04  0.00000000000E+00 0.  1.
        -24    2    1    2    0    0 -0.34591058928E+03 -0.16060500469E+03 -0.12272998996E+04  0.12877581341E+04  0.81288776213E+02 0.  0.
        254    2    1    2    0    0  0.34591058928E+03  0.16060500469E+03  0.17464127299E+04  0.20121376300E+04  0.92373822883E+03 0.  0.
         23    2    4    4    0    0 -0.60156585126E+02  0.46749887781E+03  0.85621660381E+03  0.98253996800E+03  0.10051816057E+03 0.  0.
         23    2    4    4    0    0  0.40606717440E+03 -0.30689387312E+03  0.89019612610E+03  0.10295976620E+04  0.92454329753E+02 0.  0.
          3    1    3    3  502    0 -0.87559731135E+01  0.12880940198E+01 -0.65805749964E+01  0.11028609099E+02  0.00000000000E+00 0. -1.
         -4    1    3    3    0  502 -0.33715461616E+03 -0.16189309871E+03 -0.12207193246E+04  0.12767295250E+04  0.00000000000E+00 0.  1.
         13    1    5    5    0    0 -0.38221986351E+01  0.33905138465E+03  0.65036182655E+03  0.73344458282E+03  0.00000000000E+00 0.  1.
        -13    1    5    5    0    0 -0.56334386491E+02  0.12844749316E+03  0.20585477725E+03  0.24909538518E+03  0.00000000000E+00 0. -1.
          4    1    6    6  503    0  0.50985499070E+01 -0.13283766258E+02  0.62838258308E+01  0.15554424587E+02  0.00000000000E+00 0.  1.
         -4    1    6    6    0  503  0.40096862450E+03 -0.29361010686E+03  0.88391230027E+03  0.10140432374E+04  0.00000000000E+00 0. -1.
<mgrwt>
<rscale>  0 0.32588087E+04</rscale>
<asrwt>0</asrwt>
<pdfrwt beam="1">  1        1 0.29376989E+00 0.32588087E+04</pdfrwt>
<pdfrwt beam="2">  1       -2 0.21390638E+00 0.32588087E+04</pdfrwt>
<totfact> 0.27151934E-01</totfact>
</mgrwt>
</event>
<event>
12    5  0.5297412E-008  0.2118554E+04  0.7818608E-02  0.8553114E-01
         -2   -1    0    0    0  501 -0.00000000000E+00  0.00000000000E+00  0.20012161562E+04  0.20012161562E+04  0.00000000000E+00 0.  1.
          1   -1    0    0  501    0  0.00000000000E+00 -0.00000000000E+00 -0.56069309842E+03  0.56069309842E+03  0.00000000000E+00 0. -1.
        -24    2    1    2    0    0 -0.73430192330E+03  0.22006483355E+03  0.10602229667E+04  0.13107238651E+04  0.79350272877E+02 0.  0.
        254    2    1    2    0    0  0.73430192330E+03 -0.22006483355E+03  0.38030009105E+03  0.12511853895E+04  0.91280275756E+03 0.  0.
         23    2    4    4    0    0 -0.79202115902E+02 -0.22492501213E+03 -0.13238249227E+03  0.28518225101E+03  0.83303996216E+02 0.  0.
         23    2    4    4    0    0  0.81350403920E+03  0.48601785891E+01  0.51268258332E+03  0.96600313852E+03  0.92229004401E+02 0.  0.
          1    1    3    3  502    0 -0.22398097346E+03  0.77733440129E+02  0.38973097716E+03  0.45618000695E+03  0.00000000000E+00 0. -1.
         -2    1    3    3    0  502 -0.51032094984E+03  0.14233139342E+03  0.67049198957E+03  0.85454385814E+03  0.00000000000E+00 0.  1.
         13    1    5    5    0    0 -0.30110130018E+02 -0.12078775660E+02 -0.65529336898E+01  0.33097699181E+02  0.00000000000E+00 0.  1.
        -13    1    5    5    0    0 -0.49091985884E+02 -0.21284623647E+03 -0.12582955858E+03  0.25208455183E+03  0.00000000000E+00 0. -1.
          3    1    6    6  503    0  0.51270155294E+03 -0.69525018366E+01  0.27101567772E+03  0.57996613457E+03  0.00000000000E+00 0. -1.
         -3    1    6    6    0  503  0.30080248626E+03  0.11812680426E+02  0.24166690560E+03  0.38603700395E+03  0.00000000000E+00 0.  1.
<mgrwt>
<rscale>  0 0.21185543E+04</rscale>
<asrwt>0</asrwt>
<pdfrwt beam="1">  1        1 0.86260478E-01 0.21185543E+04</pdfrwt>
<pdfrwt beam="2">  1       -2 0.30787940E+00 0.21185543E+04</pdfrwt>
<totfact> 0.86387193E-01</totfact>
</mgrwt>
</event>
<event>
12    5  0.5297412E-008  0.1111949E+04  0.7818608E-02  0.9193623E-01
         -2   -1    0    0    0  501 -0.00000000000E+00  0.00000000000E+00  0.26026151620E+03  0.26026151620E+03  0.00000000000E+00 0.  1.
          1   -1    0    0  501    0  0.00000000000E+00 -0.00000000000E+00 -0.11876814317E+04  0.11876814317E+04  0.00000000000E+00 0. -1.
        -24    2    1    2    0    0  0.40016861057E+02 -0.10127347029E+03  0.20236323899E+02  0.13685432883E+03  0.80386152796E+02 0.  0.
        254    2    1    2    0    0 -0.40016861057E+02  0.10127347029E+03 -0.94765623944E+03  0.13110886191E+04  0.89946837300E+03 0.  0.
         23    2    4    4    0    0  0.20083365758E+03 -0.32118755435E+03 -0.55229665861E+03  0.67693946032E+03  0.98589201976E+02 0.  0.
         23    2    4    4    0    0 -0.24085051864E+03  0.42246102464E+03 -0.39535958082E+03  0.63414915877E+03  0.96714361682E+02 0.  0.
          3    1    3    3  502    0  0.32826129571E+02 -0.19880149233E+02 -0.22661159657E+02  0.44567962407E+02  0.00000000000E+00 0. -1.
         -4    1    3    3    0  502  0.71907314859E+01 -0.81393321060E+02  0.42897483557E+02  0.92286366425E+02  0.00000000000E+00 0.  1.
         13    1    5    5    0    0  0.14688897894E+03 -0.14960905125E+03 -0.33032040030E+03  0.39124264492E+03  0.00000000000E+00 0.  1.
        -13    1    5    5    0    0  0.53944678647E+02 -0.17157850309E+03 -0.22197625831E+03  0.28569681540E+03  0.00000000000E+00 0. -1.
          2    1    6    6  503    0 -0.85621276876E+02  0.77453716392E+02 -0.11768565881E+03  0.16486356640E+03  0.00000000000E+00 0. -1.
         -2    1    6    6    0  503 -0.15522924177E+03  0.34500730825E+03 -0.27767392202E+03  0.46928559237E+03  0.00000000000E+00 0.  1.
<mgrwt>
<rscale>  0 0.11119492E+04</rscale>
<asrwt>0</asrwt>
<pdfrwt beam="1">  1        1 0.18272022E+00 0.11119492E+04</pdfrwt>
<pdfrwt beam="2">  1       -2 0.40040234E-01 0.11119492E+04</pdfrwt>
<totfact> 0.56214905E+01</totfact>
</mgrwt>
</event>
<event>
12    5  0.5297412E-008  0.2615895E+04  0.7818608E-02  0.8362822E-01
         -2   -1    0    0    0  501 -0.00000000000E+00  0.00000000000E+00  0.13806451793E+04  0.13806451793E+04  0.00000000000E+00 0.  1.
          1   -1    0    0  501    0  0.00000000000E+00 -0.00000000000E+00 -0.12390772575E+04  0.12390772575E+04  0.00000000000E+00 0. -1.
        -24    2    1    2    0    0  0.43745772667E+03  0.61846862399E+03  0.92877062896E+03  0.12011638692E+04  0.79416988362E+02 0.  0.
        254    2    1    2    0    0 -0.43745772667E+03 -0.61846862399E+03 -0.78720270717E+03  0.14185585676E+04  0.90484673072E+03 0.  0.
         23    2    4    4    0    0 -0.70125285079E+03 -0.37740576346E+03 -0.62265169858E+03  0.10150561665E+04  0.91941352466E+02 0.  0.
         23    2    4    4    0    0  0.26379512412E+03 -0.24106286053E+03 -0.16455100858E+03  0.40350240115E+03  0.89654799504E+02 0.  0.
          1    1    3    3  502    0  0.13909373836E+03  0.25402930680E+03  0.32287260129E+03  0.43373341286E+03  0.00000000000E+00 0. -1.
         -2    1    3    3    0  502  0.29836398832E+03  0.36443931719E+03  0.60589802767E+03  0.76743045638E+03  0.00000000000E+00 0.  1.
         13    1    5    5    0    0 -0.35544181316E+02 -0.18711229422E+02 -0.89163881861E+01  0.41146092283E+02  0.00000000000E+00 0. -1.
        -13    1    5    5    0    0 -0.66570866947E+03 -0.35869453404E+03 -0.61373531040E+03  0.97391007418E+03  0.00000000000E+00 0.  1.
          3    1    6    6  503    0  0.58425875751E+02 -0.15713151956E+02 -0.47475738024E+02  0.76905343135E+02  0.00000000000E+00 0. -1.
         -3    1    6    6    0  503  0.20536924836E+03 -0.22534970857E+03 -0.11707527056E+03  0.32659705801E+03  0.00000000000E+00 0.  1.
<mgrwt>
<rscale>  0 0.26158945E+04</rscale>
<asrwt>0</asrwt>
<pdfrwt beam="1">  1        1 0.19062727E+00 0.26158945E+04</pdfrwt>
<pdfrwt beam="2">  1       -2 0.21240695E+00 0.26158945E+04</pdfrwt>
<totfact> 0.85353661E-01</totfact>
</mgrwt>
</event>
<event>
12    5  0.5297412E-008  0.2061238E+04  0.7818608E-02  0.8578513E-01
          1   -1    0    0  501    0  0.00000000000E+00  0.00000000000E+00  0.19061761296E+04  0.19061761296E+04  0.00000000000E+00 0. -1.
         -2   -1    0    0    0  501 -0.00000000000E+00 -0.00000000000E+00 -0.55722819943E+03  0.55722819943E+03  0.00000000000E+00 0.  1.
        -24    2    1    2    0    0  0.80913106926E+03  0.13888886274E+03  0.66861868461E+03  0.10618240246E+04  0.80225372500E+02 0.  0.
        254    2    1    2    0    0 -0.80913106926E+03 -0.13888886274E+03  0.68032924553E+03  0.14015803044E+04  0.90972317982E+03 0.  0.
         23    2    4    4    0    0  0.17839685978E+03  0.54563295481E+02  0.18430736873E+03  0.27573817183E+03  0.85204110495E+02 0.  0.
         23    2    4    4    0    0 -0.98752792904E+03 -0.19345215822E+03  0.49602187680E+03  0.11258421326E+04  0.94061985049E+02 0.  0.
          1    1    3    3  502    0  0.24724541810E+03  0.75657949671E+02  0.23284087675E+03  0.34795013437E+03  0.00000000000E+00 0. -1.
         -2    1    3    3    0  502  0.56188565116E+03  0.63230913065E+02  0.43577780786E+03  0.71387389025E+03  0.00000000000E+00 0.  1.
         13    1    5    5    0    0  0.79409775848E+02  0.31495744291E+02  0.14184926094E+03  0.16558715904E+03  0.00000000000E+00 0. -1.
        -13    1    5    5    0    0  0.98987083929E+02  0.23067551190E+02  0.42458107791E+02  0.11015101280E+03  0.00000000000E+00 0.  1.
          3    1    6    6  503    0 -0.52088668452E+03 -0.12478083517E+03  0.21765652449E+03  0.57815876503E+03  0.00000000000E+00 0. -1.
         -3    1    6    6    0  503 -0.46664124452E+03 -0.68671323047E+02  0.27836535230E+03  0.54768336752E+03  0.00000000000E+00 0.  1.
<mgrwt>
<rscale>  0 0.20612376E+04</rscale>
<asrwt>0</asrwt>
<pdfrwt beam="1">  1        1 0.29325786E+00 0.20612376E+04</pdfrwt>
<pdfrwt beam="2">  1       -2 0.85727416E-01 0.20612376E+04</pdfrwt>
<totfact> 0.33043123E+00</totfact>
</mgrwt>
</event>
<event>
12    5  0.5297412E-008  0.1500045E+04  0.7818608E-02  0.8884423E-01
         -2   -1    0    0    0  501 -0.00000000000E+00  0.00000000000E+00  0.57710171791E+03  0.57710171791E+03  0.00000000000E+00 0.  1.
          1   -1    0    0  501    0  0.00000000000E+00 -0.00000000000E+00 -0.97475723684E+03  0.97475723684E+03  0.00000000000E+00 0. -1.
        -24    2    1    2    0    0  0.12880920791E+03  0.45128920510E+03 -0.30976849036E+02  0.47729906434E+03  0.81246987403E+02 0.  0.
        254    2    1    2    0    0 -0.12880920791E+03 -0.45128920510E+03 -0.36667866989E+03  0.10745598904E+04  0.89441151181E+03 0.  0.
         23    2    4    4    0    0 -0.46734807486E+03 -0.42102859768E+03 -0.34168974248E+03  0.72205646342E+03  0.94521707090E+02 0.  0.
         23    2    4    4    0    0  0.33853886695E+03 -0.30260607414E+02 -0.24988927410E+02  0.35250342700E+03  0.90055265000E+02 0.  0.
          3    1    3    3  502    0  0.24193472961E+02  0.16991974047E+02 -0.26190201077E+01  0.29680137841E+02  0.00000000000E+00 0. -1.
         -4    1    3    3    0  502  0.10461573495E+03  0.43429723105E+03 -0.28357828928E+02  0.44761892649E+03  0.00000000000E+00 0.  1.
         13    1    5    5    0    0 -0.12899311963E+03 -0.17471799899E+03 -0.12899533321E+03  0.25259730813E+03  0.00000000000E+00 0.  1.
        -13    1    5    5    0    0 -0.33835495522E+03 -0.24631059870E+03 -0.21269440927E+03  0.46945915529E+03  0.00000000000E+00 0. -1.
          4    1    6    6  503    0  0.30380862853E+03 -0.47872434606E+02 -0.25649911565E+01  0.30756793062E+03  0.00000000000E+00 0. -1.
         -4    1    6    6    0  503  0.34730238419E+02  0.17611827192E+02 -0.22423936254E+02  0.44935496378E+02  0.00000000000E+00 0.  1.
<mgrwt>
<rscale>  0 0.15000454E+04</rscale>
<asrwt>0</asrwt>
<pdfrwt beam="1">  1        1 0.14996265E+00 0.15000454E+04</pdfrwt>
<pdfrwt beam="2">  1       -2 0.88784880E-01 0.15000454E+04</pdfrwt>
<totfact> 0.14647086E+01</totfact>
</mgrwt>
</event>
<event>
12    5  0.5297412E-008  0.2265224E+04  0.7818608E-02  0.8491760E-01
         -2   -1    0    0    0  501 -0.00000000000E+00  0.00000000000E+00  0.14954127608E+04  0.14954127608E+04  0.00000000000E+00 0.  1.
          1   -1    0    0  501    0  0.00000000000E+00 -0.00000000000E+00 -0.85783028267E+03  0.85783028267E+03  0.00000000000E+00 0. -1.
        -24    2    1    2    0    0  0.28237518652E+03 -0.57412039644E+03  0.10021221785E+04  0.11915438385E+04  0.78599509411E+02 0.  0.
        254    2    1    2    0    0 -0.28237518652E+03  0.57412039644E+03 -0.36453970039E+03  0.11616992049E+04  0.89850201670E+03 0.  0.
         23    2    4    4    0    0  0.30445401033E+03  0.10762238436E+03 -0.19150315999E+03  0.38593721295E+03  0.89438526538E+02 0.  0.
         23    2    4    4    0    0 -0.58682919686E+03  0.46649801209E+03 -0.17303654040E+03  0.77576199199E+03  0.99378681490E+02 0.  0.
          1    1    3    3  502    0  0.95257857493E+02 -0.11831906918E+03  0.23563762709E+03  0.28035433445E+03  0.00000000000E+00 0. -1.
         -2    1    3    3    0  502  0.18711732903E+03 -0.45580132727E+03  0.76648455145E+03  0.91118950409E+03  0.00000000000E+00 0.  1.
         13    1    5    5    0    0  0.12789422556E+03  0.64565561563E+02 -0.38444244531E+02  0.14833612038E+03  0.00000000000E+00 0.  1.
        -13    1    5    5    0    0  0.17655978477E+03  0.43056822797E+02 -0.15305891546E+03  0.23760109257E+03  0.00000000000E+00 0. -1.
          4    1    6    6  503    0 -0.47563067672E+03  0.42127311973E+03 -0.15849901578E+03  0.65484159920E+03  0.00000000000E+00 0. -1.
         -4    1    6    6    0  503 -0.11119852013E+03  0.45224892358E+02 -0.14537524623E+02  0.12092039278E+03  0.00000000000E+00 0.  1.
<mgrwt>
<rscale>  0 0.22652244E+04</rscale>
<asrwt>0</asrwt>
<pdfrwt beam="1">  1        1 0.13197389E+00 0.22652244E+04</pdfrwt>
<pdfrwt beam="2">  1       -2 0.23006350E+00 0.22652244E+04</pdfrwt>
<totfact> 0.13387481E+00</totfact>
</mgrwt>
</event>
<event>
12    5  0.5297412E-008  0.1479342E+04  0.7818608E-02  0.8898307E-01
         -2   -1    0    0    0  501 -0.00000000000E+00  0.00000000000E+00  0.17990810775E+04  0.17990810775E+04  0.00000000000E+00 0.  1.
          1   -1    0    0  501    0  0.00000000000E+00 -0.00000000000E+00 -0.30410720758E+03  0.30410720758E+03  0.00000000000E+00 0. -1.
        -24    2    1    2    0    0  0.27285544630E+03 -0.19385869468E+03  0.92328791728E+03  0.98520040463E+03  0.78281357963E+02 0.  0.
        254    2    1    2    0    0 -0.27285544630E+03  0.19385869468E+03  0.57168595260E+03  0.11179878804E+04  0.90057802787E+03 0.  0.
         23    2    4    4    0    0 -0.54946527456E+03  0.31541847349E+03  0.32692586178E+03  0.71850944630E+03  0.89299518161E+02 0.  0.
         23    2    4    4    0    0  0.27660982826E+03 -0.12155977881E+03  0.24476009082E+03  0.39947843412E+03  0.91573688111E+02 0.  0.
          1    1    3    3  502    0  0.40271093078E+02 -0.62227869480E+02  0.15627758779E+03  0.17296460078E+03  0.00000000000E+00 0. -1.
         -2    1    3    3    0  502  0.23258435323E+03 -0.13163082520E+03  0.76701032949E+03  0.81223580385E+03  0.00000000000E+00 0.  1.
         13    1    5    5    0    0 -0.48236233915E+03  0.28513520258E+03  0.31818241275E+03  0.64437221989E+03  0.00000000000E+00 0. -1.
        -13    1    5    5    0    0 -0.67102935410E+02  0.30283270912E+02  0.87434490266E+01  0.74137226402E+02  0.00000000000E+00 0.  1.
          3    1    6    6  503    0  0.27534655804E+03 -0.13188765195E+03  0.23713573892E+03  0.38657914899E+03  0.00000000000E+00 0. -1.
         -3    1    6    6    0  503  0.12632702228E+01  0.10327873131E+02  0.76243518998E+01  0.12899285134E+02  0.00000000000E+00 0.  1.
<mgrwt>
<rscale>  0 0.14793425E+04</rscale>
<asrwt>0</asrwt>
<pdfrwt beam="1">  1        1 0.46785725E-01 0.14793425E+04</pdfrwt>
<pdfrwt beam="2">  1       -2 0.27678170E+00 0.14793425E+04</pdfrwt>
<totfact> 0.32186709E+00</totfact>
</mgrwt>
</event>
<event>
12    5  0.5297412E-008  0.2724925E+04  0.7818608E-02  0.8326963E-01
          1   -1    0    0  501    0  0.00000000000E+00  0.00000000000E+00  0.20656837689E+04  0.20656837689E+04  0.00000000000E+00 0. -1.
         -2   -1    0    0    0  501 -0.00000000000E+00 -0.00000000000E+00 -0.89863914221E+03  0.89863914221E+03  0.00000000000E+00 0.  1.
        -24    2    1    2    0    0 -0.11449732925E+04  0.37615397813E+03  0.25392371380E+03  0.12342390949E+04  0.80082676767E+02 0.  0.
        254    2    1    2    0    0  0.11449732925E+04 -0.37615397813E+03  0.91312091286E+03  0.17300838162E+04  0.84079994861E+03 0.  0.
         23    2    4    4    0    0  0.75047614146E+03 -0.37004541660E+03  0.13451277544E+03  0.85237902301E+03  0.91149672790E+02 0.  0.
         23    2    4    4    0    0  0.39449715107E+03 -0.61085615240E+01  0.77860813742E+03  0.87770479316E+03  0.92031274875E+02 0.  0.
          3    1    3    3  502    0 -0.27372746638E+02 -0.26137904505E+01  0.99455732062E+01  0.29240615339E+02  0.00000000000E+00 0. -1.
         -4    1    3    3    0  502 -0.11176005459E+04  0.37876776858E+03  0.24397814060E+03  0.12049984796E+04  0.00000000000E+00 0.  1.
         13    1    5    5    0    0  0.12001320865E+03 -0.58969357099E+02  0.56026189029E+02  0.14498099594E+03  0.00000000000E+00 0.  1.
        -13    1    5    5    0    0  0.63046293282E+03 -0.31107605950E+03  0.78486586413E+02  0.70739802707E+03  0.00000000000E+00 0. -1.
          3    1    6    6  503    0  0.38422510635E+03 -0.22685836110E+02  0.72832624106E+03  0.82377344757E+03  0.00000000000E+00 0. -1.
         -3    1    6    6    0  503  0.10272044720E+02  0.16577274586E+02  0.50281896354E+02  0.53931345583E+02  0.00000000000E+00 0.  1.
<mgrwt>
<rscale>  0 0.27249252E+04</rscale>
<asrwt>0</asrwt>
<pdfrwt beam="1">  1        1 0.31779750E+00 0.27249252E+04</pdfrwt>
<pdfrwt beam="2">  1       -2 0.13825218E+00 0.27249252E+04</pdfrwt>
<totfact> 0.76421348E-01</totfact>
</mgrwt>
</event>
<event>
12    5  0.5297412E-008  0.1468942E+04  0.7818608E-02  0.8905373E-01
          1   -1    0    0  501    0  0.00000000000E+00  0.00000000000E+00  0.41858091660E+03  0.41858091660E+03  0.00000000000E+00 0. -1.
         -2   -1    0    0    0  501 -0.00000000000E+00 -0.00000000000E+00 -0.12887535687E+04  0.12887535687E+04  0.00000000000E+00 0.  1.
        -24    2    1    2    0    0  0.20053749621E+03  0.31668521538E+03 -0.56963457338E+03  0.68601908464E+03  0.75058805357E+02 0.  0.
        254    2    1    2    0    0 -0.20053749621E+03 -0.31668521538E+03 -0.30053807874E+03  0.10213154007E+04  0.90125312643E+03 0.  0.
         23    2    4    4    0    0 -0.66904584717E+02 -0.30048012968E+03  0.27529116659E+03  0.42274392569E+03  0.90347487587E+02 0.  0.
         23    2    4    4    0    0 -0.13363291149E+03 -0.16205085701E+02 -0.57582924533E+03  0.59857147501E+03  0.92672169968E+02 0.  0.
          3    1    3    3  502    0  0.23579975731E+02  0.96623916717E+01 -0.61020662246E+02  0.66127893428E+02  0.00000000000E+00 0. -1.
         -4    1    3    3    0  502  0.17695752048E+03  0.30702282371E+03 -0.50861391114E+03  0.61989119121E+03  0.00000000000E+00 0.  1.
         13    1    5    5    0    0  0.12805741780E+02 -0.29646024380E+02  0.58380996275E+02  0.66717422838E+02  0.00000000000E+00 0.  1.
        -13    1    5    5    0    0 -0.79710326498E+02 -0.27083410530E+03  0.21691017031E+03  0.35602650285E+03  0.00000000000E+00 0. -1.
          4    1    6    6  503    0 -0.30252575532E+02  0.33527901819E+02 -0.22414678284E+03  0.22865064790E+03  0.00000000000E+00 0. -1.
         -4    1    6    6    0  503 -0.10338033596E+03 -0.49732987520E+02 -0.35168246249E+03  0.36992082711E+03  0.00000000000E+00 0.  1.
<mgrwt>
<rscale>  0 0.14689420E+04</rscale>
<asrwt>0</asrwt>
<pdfrwt beam="1">  1        1 0.64397065E-01 0.14689420E+04</pdfrwt>
<pdfrwt beam="2">  1       -2 0.19826978E+00 0.14689420E+04</pdfrwt>
<totfact> 0.65280667E+00</totfact>
</mgrwt>
</event>
<event>
12    5  0.5297412E-008  0.1446140E+04  0.7818608E-02  0.8921081E-01
         -2   -1    0    0    0  501 -0.00000000000E+00  0.00000000000E+00  0.10945893524E+04  0.10945893524E+04  0.00000000000E+00 0.  1.
          1   -1    0    0  501    0  0.00000000000E+00 -0.00000000000E+00 -0.47764939545E+03  0.47764939545E+03  0.00000000000E+00 0. -1.
        -24    2    1    2    0    0 -0.31233051400E+03  0.26997087043E+03  0.10260002568E+02  0.42080151143E+03  0.80833306998E+02 0.  0.
        254    2    1    2    0    0  0.31233051400E+03 -0.26997087043E+03  0.60667995436E+03  0.11514372364E+04  0.88730632900E+03 0.  0.
         23    2    4    4    0    0 -0.26061335384E+03 -0.23270599175E+03  0.85717447225E+02  0.37101349624E+03  0.90731112859E+02 0.  0.
         23    2    4    4    0    0  0.57294386784E+03 -0.37264878678E+02  0.52096250713E+03  0.78042374015E+03  0.89475882090E+02 0.  0.
          3    1    3    3  502    0 -0.72627727390E+02  0.38530906513E+02 -0.24513697388E+02  0.85792417510E+02  0.00000000000E+00 0. -1.
         -4    1    3    3    0  502 -0.23970278661E+03  0.23143996391E+03  0.34773699956E+02  0.33500909392E+03  0.00000000000E+00 0.  1.
         13    1    5    5    0    0 -0.23887572579E+03 -0.16650353502E+03  0.72880931352E+02  0.30016107293E+03  0.00000000000E+00 0. -1.
        -13    1    5    5    0    0 -0.21737628051E+02 -0.66202456728E+02  0.12836515873E+02  0.70852423317E+02  0.00000000000E+00 0.  1.
          1    1    6    6  503    0  0.46812936251E+03  0.43833233794E+01  0.42672537472E+03  0.63344996566E+03  0.00000000000E+00 0. -1.
         -1    1    6    6    0  503  0.10481450533E+03 -0.41648202058E+02  0.94237132414E+02  0.14697377449E+03  0.00000000000E+00 0.  1.
<mgrwt>
<rscale>  0 0.14461396E+04</rscale>
<asrwt>0</asrwt>
<pdfrwt beam="1">  1        1 0.73484523E-01 0.14461396E+04</pdfrwt>
<pdfrwt beam="2">  1       -2 0.16839836E+00 0.14461396E+04</pdfrwt>
<totfact> 0.87659834E+00</totfact>
</mgrwt>
</event>
<event>
12    5  0.5297412E-008  0.1522066E+04  0.7818608E-02  0.8869911E-01
         -2   -1    0    0    0  501 -0.00000000000E+00  0.00000000000E+00  0.24130916367E+03  0.24130916367E+03  0.00000000000E+00 0.  1.
          1   -1    0    0  501    0  0.00000000000E+00 -0.00000000000E+00 -0.24001209082E+04  0.24001209082E+04  0.00000000000E+00 0. -1.
        -24    2    1    2    0    0 -0.43549249153E+03  0.14802506269E+03 -0.10245473303E+04  0.11253671619E+04  0.72033933718E+02 0.  0.
        254    2    1    2    0    0  0.43549249153E+03 -0.14802506269E+03 -0.11342644142E+04  0.15160629100E+04  0.89460933168E+03 0.  0.
         23    2    4    4    0    0  0.10385186245E+03  0.12138333652E+03  0.98294067873E+02  0.20846102436E+03  0.90967857946E+02 0.  0.
         23    2    4    4    0    0  0.33164062908E+03 -0.26940839921E+03 -0.12325584821E+04  0.13076018856E+04  0.89754593924E+02 0.  0.
          3    1    3    3  502    0 -0.22047413501E+03  0.37870000793E+02 -0.51184973116E+03  0.55859925569E+03  0.00000000000E+00 0. -1.
         -4    1    3    3    0  502 -0.21501835652E+03  0.11015506190E+03 -0.51269759916E+03  0.56676790619E+03  0.00000000000E+00 0.  1.
         13    1    5    5    0    0  0.51474837969E+02  0.58514630492E+02  0.99793853558E+02  0.12661924867E+03  0.00000000000E+00 0. -1.
        -13    1    5    5    0    0  0.52377024485E+02  0.62868706027E+02 -0.14997856853E+01  0.81841775693E+02  0.00000000000E+00 0.  1.
          3    1    6    6  503    0  0.79639952929E+02 -0.30096934615E+02 -0.17920772719E+03  0.19840301676E+03  0.00000000000E+00 0. -1.
         -3    1    6    6    0  503  0.25200067615E+03 -0.23931146459E+03 -0.10533507549E+04  0.11091988688E+04  0.00000000000E+00 0.  1.
<mgrwt>
<rscale>  0 0.15220659E+04</rscale>
<asrwt>0</asrwt>
<pdfrwt beam="1">  1        1 0.36924936E+00 0.15220659E+04</pdfrwt>
<pdfrwt beam="2">  1       -2 0.37124488E-01 0.15220659E+04</pdfrwt>
<totfact> 0.92289338E+00</totfact>
</mgrwt>
</event>
<event>
12    5  0.5297412E-008  0.1920241E+04  0.7818608E-02  0.8644846E-01
         -2   -1    0    0    0  501 -0.00000000000E+00  0.00000000000E+00  0.58633417919E+03  0.58633417919E+03  0.00000000000E+00 0.  1.
          1   -1    0    0  501    0  0.00000000000E+00 -0.00000000000E+00 -0.15721942501E+04  0.15721942501E+04  0.00000000000E+00 0. -1.
        -24    2    1    2    0    0 -0.23943831583E+03 -0.62687515802E+03 -0.64528512299E+02  0.67882777345E+03  0.79624407611E+02 0.  0.
        254    2    1    2    0    0  0.23943831583E+03  0.62687515802E+03 -0.92133155865E+03  0.14797006559E+04  0.94358837383E+03 0.  0.
         23    2    4    4    0    0 -0.30279773552E+01  0.49908775132E+03  0.77410671758E+01  0.50705949495E+03  0.89172053542E+02 0.  0.
         23    2    4    4    0    0  0.24246629318E+03  0.12778740670E+03 -0.92907262582E+03  0.97264116093E+03  0.87950891092E+02 0.  0.
          3    1    3    3  502    0 -0.18117990186E+03 -0.52733962940E+03 -0.29845698012E+02  0.55839413254E+03  0.00000000000E+00 0. -1.
         -4    1    3    3    0  502 -0.58258413968E+02 -0.99535528619E+02 -0.34682814287E+02  0.12043364091E+03  0.00000000000E+00 0.  1.
         13    1    5    5    0    0 -0.42261079192E+02  0.21407706643E+03 -0.13144003087E+02  0.21860410336E+03  0.00000000000E+00 0. -1.
        -13    1    5    5    0    0  0.39233101836E+02  0.28501068489E+03  0.20885070262E+02  0.28845539159E+03  0.00000000000E+00 0.  1.
          4    1    6    6  503    0  0.15122743944E+03  0.31961138940E+02 -0.46071114208E+03  0.48594856650E+03  0.00000000000E+00 0. -1.
         -4    1    6    6    0  503  0.91238853738E+02  0.95826267757E+02 -0.46836148374E+03  0.48669259443E+03  0.00000000000E+00 0.  1.
<mgrwt>
<rscale>  0 0.19202408E+04</rscale>
<asrwt>0</asrwt>
<pdfrwt beam="1">  1        1 0.24187604E+00 0.19202408E+04</pdfrwt>
<pdfrwt beam="2">  1       -2 0.90205260E-01 0.19202408E+04</pdfrwt>
<totfact> 0.50257927E+00</totfact>
</mgrwt>
</event>
<event>
12    5  0.5297412E-008  0.2222493E+04  0.7818608E-02  0.8509124E-01
         -2   -1    0    0    0  501 -0.00000000000E+00  0.00000000000E+00  0.46154410830E+03  0.46154410830E+03  0.00000000000E+00 0.  1.
          1   -1    0    0  501    0  0.00000000000E+00 -0.00000000000E+00 -0.26755173604E+04  0.26755173604E+04  0.00000000000E+00 0. -1.
        -24    2    1    2    0    0 -0.78726797614E+03  0.33397273054E+03 -0.42290975690E+03  0.95744889556E+03  0.80790309671E+02 0.  0.
        254    2    1    2    0    0  0.78726797614E+03 -0.33397273054E+03 -0.17910634952E+04  0.21796125731E+04  0.90081844681E+03 0.  0.
         23    2    4    4    0    0  0.91050585448E+03 -0.86888969657E+02 -0.11241844540E+04  0.14521326862E+04  0.91258137119E+02 0.  0.
         23    2    4    4    0    0 -0.12323787834E+03 -0.24708376089E+03 -0.66687904114E+03  0.72747988690E+03  0.90892083116E+02 0.  0.
          1    1    3    3  502    0 -0.24599164522E+03  0.12398352719E+03 -0.17355230435E+03  0.32558287252E+03  0.00000000000E+00 0. -1.
         -2    1    3    3    0  502 -0.54127633091E+03  0.20998920335E+03 -0.24935745255E+03  0.63186602304E+03  0.00000000000E+00 0.  1.
         13    1    5    5    0    0  0.73374385521E+03 -0.80259707299E+02 -0.84897813877E+03  0.11249824647E+04  0.00000000000E+00 0.  1.
        -13    1    5    5    0    0  0.17676199927E+03 -0.66292623586E+01 -0.27520631525E+03  0.32715022155E+03  0.00000000000E+00 0. -1.
          2    1    6    6  503    0 -0.56165290834E+01 -0.42421827284E+02 -0.44023254012E+02  0.61393841083E+02  0.00000000000E+00 0. -1.
         -2    1    6    6    0  503 -0.11762134926E+03 -0.20466193360E+03 -0.62285578713E+03  0.66608604582E+03  0.00000000000E+00 0.  1.
<mgrwt>
<rscale>  0 0.22224934E+04</rscale>
<asrwt>0</asrwt>
<pdfrwt beam="1">  1        1 0.41161806E+00 0.22224934E+04</pdfrwt>
<pdfrwt beam="2">  1       -2 0.71006785E-01 0.22224934E+04</pdfrwt>
<totfact> 0.14716022E+00</totfact>
</mgrwt>
</event>
<event>
12    5  0.5297412E-008  0.2320601E+04  0.7818608E-02  0.8469842E-01
          1   -1    0    0  501    0  0.00000000000E+00  0.00000000000E+00  0.15501197813E+04  0.15501197813E+04  0.00000000000E+00 0. -1.
         -2   -1    0    0    0  501 -0.00000000000E+00 -0.00000000000E+00 -0.86851183889E+03  0.86851183889E+03  0.00000000000E+00 0.  1.
        -24    2    1    2    0    0 -0.49556851448E+03 -0.61379588419E+03 -0.32483694407E+03  0.85950882950E+03  0.10441670249E+03 0.  0.
        254    2    1    2    0    0  0.49556851448E+03  0.61379588419E+03  0.10064448865E+04  0.15591227907E+04  0.89196357938E+03 0.  0.
         23    2    4    4    0    0  0.47359571515E+03  0.36979261787E+03  0.11208751741E+04  0.12748403734E+04  0.88415723701E+02 0.  0.
         23    2    4    4    0    0  0.21972799322E+02  0.24400326633E+03 -0.11443028761E+03  0.28428241726E+03  0.87759923400E+02 0.  0.
          3    1    3    3  502    0 -0.10482341118E+03 -0.16779918049E+03 -0.40703232922E+02  0.20199323176E+03  0.00000000000E+00 0. -1.
         -4    1    3    3    0  502 -0.39074510329E+03 -0.44599670371E+03 -0.28413371115E+03  0.65751559774E+03  0.00000000000E+00 0.  1.
         13    1    5    5    0    0  0.20206485597E+03  0.21372248947E+03  0.53695094478E+03  0.61222857302E+03  0.00000000000E+00 0. -1.
        -13    1    5    5    0    0  0.27153085919E+03  0.15607012840E+03  0.58392422929E+03  0.66261180040E+03  0.00000000000E+00 0.  1.
          4    1    6    6  503    0  0.35851672070E+01  0.19453317454E+03 -0.12389416047E+03  0.23066376486E+03  0.00000000000E+00 0.  1.
         -4    1    6    6    0  503  0.18387632115E+02  0.49470091786E+02  0.94638728614E+01  0.53618652404E+02  0.00000000000E+00 0. -1.
<mgrwt>
<rscale>  0 0.23206011E+04</rscale>
<asrwt>0</asrwt>
<pdfrwt beam="1">  1        1 0.23847997E+00 0.23206011E+04</pdfrwt>
<pdfrwt beam="2">  1       -2 0.13361721E+00 0.23206011E+04</pdfrwt>
<totfact> 0.19380391E+00</totfact>
</mgrwt>
</event>
<event>
12    5  0.5297412E-008  0.2294613E+04  0.7818608E-02  0.8480048E-01
          1   -1    0    0  501    0  0.00000000000E+00  0.00000000000E+00  0.27690690746E+04  0.27690690746E+04  0.00000000000E+00 0. -1.
         -2   -1    0    0    0  501 -0.00000000000E+00 -0.00000000000E+00 -0.47536260293E+03  0.47536260293E+03  0.00000000000E+00 0.  1.
        -24    2    1    2    0    0 -0.39511090683E+03  0.28363418876E+03  0.21434268356E+04  0.21992171618E+04  0.75607827832E+02 0.  0.
        254    2    1    2    0    0  0.39511090683E+03 -0.28363418876E+03  0.15027963611E+03  0.10452145157E+04  0.91286824522E+03 0.  0.
         23    2    4    4    0    0  0.16877291520E+03 -0.27248884055E+03  0.51088650438E+03  0.60949979353E+03  0.88036996947E+02 0.  0.
         23    2    4    4    0    0  0.22633799163E+03 -0.11145348216E+02 -0.36060686827E+03  0.43571472220E+03  0.91961407439E+02 0.  0.
          1    1    3    3  502    0 -0.30605102172E+03  0.23397673678E+03  0.15543022266E+04  0.16013331174E+04  0.00000000000E+00 0. -1.
         -2    1    3    3    0  502 -0.89059885112E+02  0.49657451978E+02  0.58912460898E+03  0.59788404443E+03  0.00000000000E+00 0.  1.
         13    1    5    5    0    0  0.17245600376E+02 -0.26817565650E+02  0.11641708702E+03  0.12070431107E+03  0.00000000000E+00 0. -1.
        -13    1    5    5    0    0  0.15152731482E+03 -0.24567127490E+03  0.39446941735E+03  0.48879548246E+03  0.00000000000E+00 0.  1.
          2    1    6    6  503    0  0.10313925261E+03 -0.51020178261E+02 -0.16896781842E+03  0.20442819688E+03  0.00000000000E+00 0. -1.
         -2    1    6    6    0  503  0.12319873902E+03  0.39874830045E+02 -0.19163904985E+03  0.23128652531E+03  0.00000000000E+00 0.  1.
<mgrwt>
<rscale>  0 0.22946127E+04</rscale>
<asrwt>0</asrwt>
<pdfrwt beam="1">  1        1 0.42601062E+00 0.22946127E+04</pdfrwt>
<pdfrwt beam="2">  1       -2 0.73132710E-01 0.22946127E+04</pdfrwt>
<totfact> 0.11768747E+00</totfact>
</mgrwt>
</event>
<event>
12    5  0.5297412E-008  0.2354269E+04  0.7818608E-02  0.8456826E-01
          1   -1    0    0  501    0  0.00000000000E+00  0.00000000000E+00  0.38333815620E+04  0.38333815620E+04  0.00000000000E+00 0. -1.
         -4   -1    0    0    0  501 -0.00000000000E+00 -0.00000000000E+00 -0.36146834064E+03  0.36146834064E+03  0.00000000000E+00 0.  1.
        -24    2    1    2    0    0 -0.21855328986E+03 -0.63889486165E+03  0.17847995027E+03  0.70272927185E+03  0.77596083165E+02 0.  0.
        254    2    1    2    0    0  0.21855328986E+03  0.63889486165E+03  0.32934332711E+04  0.34921206308E+04  0.94459070719E+03 0.  0.
         23    2    4    4    0    0  0.50758344553E+02 -0.20064212140E+03  0.13160776448E+04  0.13354926743E+04  0.92987341033E+02 0.  0.
         23    2    4    4    0    0  0.16779494530E+03  0.83953698304E+03  0.19773556263E+04  0.21566279565E+04  0.90174166209E+02 0.  0.
          1    1    3    3  502    0  0.27157001832E+01 -0.97948532626E+00  0.47132142207E+01  0.55270975456E+01  0.00000000000E+00 0. -1.
         -2    1    3    3    0  502 -0.22126899004E+03 -0.63791537632E+03  0.17376673605E+03  0.69720217431E+03  0.00000000000E+00 0.  1.
         13    1    5    5    0    0  0.64471051560E+02 -0.10861471324E+03  0.92018945474E+03  0.92881769203E+03  0.00000000000E+00 0.  1.
        -13    1    5    5    0    0 -0.13712707008E+02 -0.92027408156E+02  0.39588819003E+03  0.40667498226E+03  0.00000000000E+00 0. -1.
          2    1    6    6  503    0  0.52493088229E+02  0.30262816241E+03  0.60562639724E+03  0.67906013138E+03  0.00000000000E+00 0.  1.
         -2    1    6    6    0  503  0.11530185708E+03  0.53690882063E+03  0.13717292291E+04  0.14775678251E+04  0.00000000000E+00 0. -1.
<mgrwt>
<rscale>  0 0.23542694E+04</rscale>
<asrwt>0</asrwt>
<pdfrwt beam="1">  1        1 0.58975098E+00 0.23542694E+04</pdfrwt>
<pdfrwt beam="2">  1       -4 0.55610516E-01 0.23542694E+04</pdfrwt>
<totfact> 0.18563816E-01</totfact>
</mgrwt>
</event>
<event>
12    5  0.5297412E-008  0.1076811E+04  0.7818608E-02  0.9228093E-01
         -2   -1    0    0    0  501 -0.00000000000E+00  0.00000000000E+00  0.50446622318E+03  0.50446622318E+03  0.00000000000E+00 0.  1.
          1   -1    0    0  501    0  0.00000000000E+00 -0.00000000000E+00 -0.57462770388E+03  0.57462770388E+03  0.00000000000E+00 0. -1.
        -24    2    1    2    0    0 -0.15372203021E+03 -0.34672200524E+02 -0.49166188557E-01  0.17659124788E+03  0.79698446325E+02 0.  0.
        254    2    1    2    0    0  0.15372203021E+03  0.34672200524E+02 -0.70112314512E+02  0.90250267919E+03  0.88586834531E+03 0.  0.
         23    2    4    4    0    0  0.35448992726E+02  0.33425495906E+03 -0.32870534756E+03  0.47888457923E+03  0.91105575988E+02 0.  0.
         23    2    4    4    0    0  0.11827303749E+03 -0.29958275853E+03  0.25859303304E+03  0.42361809995E+03  0.94040402283E+02 0.  0.
          3    1    3    3  502    0 -0.12035698781E+03  0.31687104370E+01 -0.20541701876E+02  0.12213847370E+03  0.00000000000E+00 0. -1.
         -4    1    3    3    0  502 -0.33365042401E+02 -0.37840910961E+02  0.20492535688E+02  0.54452774178E+02  0.00000000000E+00 0.  1.
         13    1    5    5    0    0  0.32778106578E+02  0.28933480844E+03 -0.32071255458E+03  0.43318076863E+03  0.00000000000E+00 0.  1.
        -13    1    5    5    0    0  0.26708861477E+01  0.44920150619E+02 -0.79927929805E+01  0.45703810608E+02  0.00000000000E+00 0. -1.
          2    1    6    6  503    0  0.30197898297E+01 -0.33398997874E+02 -0.21270535416E+01  0.33602627075E+02  0.00000000000E+00 0. -1.
         -2    1    6    6    0  503  0.11525324766E+03 -0.26618376066E+03  0.26072008659E+03  0.39001547288E+03  0.00000000000E+00 0.  1.
<mgrwt>
<rscale>  0 0.10768106E+04</rscale>
<asrwt>0</asrwt>
<pdfrwt beam="1">  1        1 0.88404262E-01 0.10768106E+04</pdfrwt>
<pdfrwt beam="2">  1       -2 0.77610188E-01 0.10768106E+04</pdfrwt>
<totfact> 0.47117645E+01</totfact>
</mgrwt>
</event>
<event>
12    5  0.5297412E-008  0.2826341E+04  0.7818608E-02  0.8295137E-01
         -2   -1    0    0    0  501 -0.00000000000E+00  0.00000000000E+00  0.10201779113E+04  0.10201779113E+04  0.00000000000E+00 0.  1.
          1   -1    0    0  501    0  0.00000000000E+00 -0.00000000000E+00 -0.19575515568E+04  0.19575515568E+04  0.00000000000E+00 0. -1.
        -24    2    1    2    0    0 -0.50738193364E+03  0.11405638234E+04 -0.64056902422E+03  0.14053138883E+04  0.79096068501E+02 0.  0.
        254    2    1    2    0    0  0.50738193364E+03 -0.11405638234E+04 -0.29680462127E+03  0.15724155799E+04  0.90888696260E+03 0.  0.
         23    2    4    4    0    0  0.50202132366E+03 -0.23323114554E+03  0.11430139998E+03  0.57286974333E+03  0.93234951209E+02 0.  0.
         23    2    4    4    0    0  0.53606099735E+01 -0.90733267787E+03 -0.41110602125E+03  0.99954583654E+03  0.82476628055E+02 0.  0.
          3    1    3    3  502    0 -0.69729235071E+02  0.17045556485E+03 -0.12630705811E+03  0.22331757374E+03  0.00000000000E+00 0. -1.
         -4    1    3    3    0  502 -0.43765269857E+03  0.97010825856E+03 -0.51426196611E+03  0.11819963146E+04  0.00000000000E+00 0.  1.
         13    1    5    5    0    0  0.54924315373E+02 -0.32226278603E+02  0.44578933876E+02  0.77733485689E+02  0.00000000000E+00 0.  1.
        -13    1    5    5    0    0  0.44709700829E+03 -0.20100486694E+03  0.69722466100E+02  0.49513625764E+03  0.00000000000E+00 0. -1.
          4    1    6    6  503    0 -0.34864223092E+02 -0.38029479260E+03 -0.15415661907E+03  0.41182994857E+03  0.00000000000E+00 0. -1.
         -4    1    6    6    0  503  0.40224833066E+02 -0.52703788526E+03 -0.25694940217E+03  0.58771588797E+03  0.00000000000E+00 0.  1.
<mgrwt>
<rscale>  0 0.28263410E+04</rscale>
<asrwt>0</asrwt>
<pdfrwt beam="1">  1        1 0.30116178E+00 0.28263410E+04</pdfrwt>
<pdfrwt beam="2">  1       -2 0.15695045E+00 0.28263410E+04</pdfrwt>
<totfact> 0.64169883E-01</totfact>
</mgrwt>
</event>
<event>
12    5  0.5297412E-008  0.1820821E+04  0.7818608E-02  0.8695305E-01
          1   -1    0    0  501    0  0.00000000000E+00  0.00000000000E+00  0.81388967746E+03  0.81388967746E+03  0.00000000000E+00 0. -1.
         -2   -1    0    0    0  501 -0.00000000000E+00 -0.00000000000E+00 -0.10183782814E+04  0.10183782814E+04  0.00000000000E+00 0.  1.
        -24    2    1    2    0    0 -0.94179986882E+02 -0.67870357706E+03 -0.19719721346E+03  0.71717362872E+03  0.77089929936E+02 0.  0.
        254    2    1    2    0    0  0.94179986882E+02  0.67870357706E+03 -0.72913904951E+01  0.11150943301E+04  0.87970096357E+03 0.  0.
         23    2    4    4    0    0  0.15558864539E+03 -0.17494101563E+03  0.31277784812E+02  0.25343170965E+03  0.91853938997E+02 0.  0.
         23    2    4    4    0    0 -0.61408658509E+02  0.85364459269E+03 -0.38569175307E+02  0.86166262049E+03  0.92167110750E+02 0.  0.
          3    1    3    3  502    0  0.48497334112E+01 -0.19241567489E+03 -0.39860449502E+02  0.19656084883E+03  0.00000000000E+00 0. -1.
         -4    1    3    3    0  502 -0.99029720293E+02 -0.48628790217E+03 -0.15733676396E+03  0.52061277989E+03  0.00000000000E+00 0.  1.
         13    1    5    5    0    0  0.15316731090E+03 -0.18529345076E+03  0.26790630806E+02  0.24189176490E+03  0.00000000000E+00 0.  1.
        -13    1    5    5    0    0  0.24213344883E+01  0.10352435133E+02  0.44871540060E+01  0.11539944755E+02  0.00000000000E+00 0. -1.
          1    1    6    6  503    0  0.11855333730E+02  0.24027339473E+03 -0.40365932759E+02  0.24392880453E+03  0.00000000000E+00 0. -1.
         -1    1    6    6    0  503 -0.73263992239E+02  0.61337119796E+03  0.17967574520E+01  0.61773381596E+03  0.00000000000E+00 0.  1.
<mgrwt>
<rscale>  0 0.18208213E+04</rscale>
<asrwt>0</asrwt>
<pdfrwt beam="1">  1        1 0.12521380E+00 0.18208213E+04</pdfrwt>
<pdfrwt beam="2">  1       -2 0.15667358E+00 0.18208213E+04</pdfrwt>
<totfact> 0.47303966E+00</totfact>
</mgrwt>
</event>
<event>
12    5  0.5297412E-008  0.1332110E+04  0.7818608E-02  0.9004482E-01
         -2   -1    0    0    0  501 -0.00000000000E+00  0.00000000000E+00  0.31748312571E+03  0.31748312571E+03  0.00000000000E+00 0.  1.
          1   -1    0    0  501    0  0.00000000000E+00 -0.00000000000E+00 -0.13973325019E+04  0.13973325019E+04  0.00000000000E+00 0. -1.
        -24    2    1    2    0    0  0.30824862573E+03  0.14188521906E+03 -0.12407461381E+03  0.36992719502E+03  0.79391367109E+02 0.  0.
        254    2    1    2    0    0 -0.30824862573E+03 -0.14188521906E+03 -0.95577476240E+03  0.13448884326E+04  0.88321620742E+03 0.  0.
         23    2    4    4    0    0 -0.34059976268E+02  0.22087872590E+03  0.40973085748E+02  0.24552197520E+03  0.93030925051E+02 0.  0.
         23    2    4    4    0    0 -0.27418864947E+03 -0.36276394496E+03 -0.99674784815E+03  0.10993664574E+04  0.91231790537E+02 0.  0.
          3    1    3    3  502    0  0.58633343851E+02  0.16644447954E+02 -0.55329876769E+02  0.82318296400E+02  0.00000000000E+00 0. -1.
         -4    1    3    3    0  502  0.24961528188E+03  0.12524077111E+03 -0.68744737037E+02  0.28760889862E+03  0.00000000000E+00 0.  1.
         13    1    5    5    0    0  0.31984383717E+02  0.67715583837E+02  0.19198743487E+02  0.77311013754E+02  0.00000000000E+00 0.  1.
        -13    1    5    5    0    0 -0.66044359986E+02  0.15316314206E+03  0.21774342261E+02  0.16821096145E+03  0.00000000000E+00 0. -1.
          2    1    6    6  503    0 -0.14942620397E+03 -0.26192619137E+03 -0.69577041668E+03  0.75830732087E+03  0.00000000000E+00 0. -1.
         -2    1    6    6    0  503 -0.12476244550E+03 -0.10083775359E+03 -0.30097743147E+03  0.34105913653E+03  0.00000000000E+00 0.  1.
<mgrwt>
<rscale>  0 0.13321103E+04</rscale>
<asrwt>0</asrwt>
<pdfrwt beam="1">  1        1 0.21497423E+00 0.13321103E+04</pdfrwt>
<pdfrwt beam="2">  1       -2 0.48843558E-01 0.13321103E+04</pdfrwt>
<totfact> 0.26334057E+01</totfact>
</mgrwt>
</event>
<event>
12    5  0.5297412E-008  0.1972561E+04  0.7818608E-02  0.8619558E-01
         -2   -1    0    0    0  501 -0.00000000000E+00  0.00000000000E+00  0.14652415475E+04  0.14652415475E+04  0.00000000000E+00 0.  1.
          1   -1    0    0  501    0  0.00000000000E+00 -0.00000000000E+00 -0.66388334103E+03  0.66388334103E+03  0.00000000000E+00 0. -1.
        -24    2    1    2    0    0  0.37652711933E+03  0.55639849921E+03  0.74661764739E+03  0.10077012364E+04  0.81681753999E+02 0.  0.
        254    2    1    2    0    0 -0.37652711933E+03 -0.55639849921E+03  0.54740559066E+02  0.11214236521E+04  0.89623798023E+03 0.  0.
         23    2    4    4    0    0 -0.63314649972E+03 -0.24569818987E+03 -0.73063774870E+02  0.68926637656E+03  0.92237367883E+02 0.  0.
         23    2    4    4    0    0  0.25661938040E+03 -0.31070030934E+03  0.12780433394E+03  0.43215727556E+03  0.89653635886E+02 0.  0.
          3    1    3    3  502    0  0.86392393076E+01  0.10406340708E+02  0.38513988233E+02  0.40819795104E+02  0.00000000000E+00 0. -1.
         -4    1    3    3    0  502  0.36788788002E+03  0.54599215850E+03  0.70810365916E+03  0.96688144130E+03  0.00000000000E+00 0.  1.
         13    1    5    5    0    0 -0.17618428553E+03 -0.25133100314E+02 -0.20291879362E+02  0.17912100817E+03  0.00000000000E+00 0.  1.
        -13    1    5    5    0    0 -0.45696221420E+03 -0.22056508956E+03 -0.52771895508E+02  0.51014536839E+03  0.00000000000E+00 0. -1.
          1    1    6    6  503    0  0.26027795519E+03 -0.29874924559E+03  0.13391479425E+03  0.41824502127E+03  0.00000000000E+00 0. -1.
         -1    1    6    6    0  503 -0.36585747883E+01 -0.11951063749E+02 -0.61104603150E+01  0.13912254291E+02  0.00000000000E+00 0.  1.
<mgrwt>
<rscale>  0 0.19725612E+04</rscale>
<asrwt>0</asrwt>
<pdfrwt beam="1">  1        1 0.10213590E+00 0.19725612E+04</pdfrwt>
<pdfrwt beam="2">  1       -2 0.22542178E+00 0.19725612E+04</pdfrwt>
<totfact> 0.21942563E+00</totfact>
</mgrwt>
</event>
<event>
12    5  0.5297412E-008  0.2792273E+04  0.7818608E-02  0.8305671E-01
         -2   -1    0    0    0  501 -0.00000000000E+00  0.00000000000E+00  0.62270418306E+03  0.62270418306E+03  0.00000000000E+00 0.  1.
          1   -1    0    0  501    0  0.00000000000E+00 -0.00000000000E+00 -0.31302128851E+04  0.31302128851E+04  0.00000000000E+00 0. -1.
        -24    2    1    2    0    0  0.11156264418E+04  0.15203213578E+02 -0.36863235715E+03  0.11777544799E+04  0.79764056539E+02 0.  0.
        254    2    1    2    0    0 -0.11156264418E+04 -0.15203213578E+02 -0.21388763449E+04  0.25751625883E+04  0.90100879133E+03 0.  0.
         23    2    4    4    0    0 -0.42592328796E+03 -0.23120797220E+03 -0.15839276149E+04  0.16588398158E+04  0.89750051519E+02 0.  0.
         23    2    4    4    0    0 -0.68970315386E+03  0.21600475862E+03 -0.55494872999E+03  0.91632277246E+03  0.96596243254E+02 0.  0.
          1    1    3    3  502    0  0.22023125994E+03 -0.25383924149E+02 -0.88252088573E+02  0.23860968672E+03  0.00000000000E+00 0. -1.
         -2    1    3    3    0  502  0.89539518188E+03  0.40587137727E+02 -0.28038026858E+03  0.93914479315E+03  0.00000000000E+00 0.  1.
         13    1    5    5    0    0 -0.41057260360E+02 -0.56230999019E+02 -0.25036936289E+03  0.25987004782E+03  0.00000000000E+00 0.  1.
        -13    1    5    5    0    0 -0.38486602760E+03 -0.17497697318E+03 -0.13335582520E+04  0.13989697680E+04  0.00000000000E+00 0. -1.
          4    1    6    6  503    0 -0.55615513776E+03  0.14467574176E+03 -0.40351760289E+03  0.70218663000E+03  0.00000000000E+00 0. -1.
         -4    1    6    6    0  503 -0.13354801611E+03  0.71329016864E+02 -0.15143112710E+03  0.21413614246E+03  0.00000000000E+00 0.  1.
<mgrwt>
<rscale>  0 0.27922727E+04</rscale>
<asrwt>0</asrwt>
<pdfrwt beam="1">  1        1 0.48157121E+00 0.27922727E+04</pdfrwt>
<pdfrwt beam="2">  1       -2 0.95800644E-01 0.27922727E+04</pdfrwt>
<totfact> 0.33367172E-01</totfact>
</mgrwt>
</event>
<event>
12    5  0.5297412E-008  0.1740360E+04  0.7818608E-02  0.8738674E-01
          1   -1    0    0  501    0  0.00000000000E+00  0.00000000000E+00  0.26079320044E+04  0.26079320044E+04  0.00000000000E+00 0. -1.
         -2   -1    0    0    0  501 -0.00000000000E+00 -0.00000000000E+00 -0.29035021721E+03  0.29035021721E+03  0.00000000000E+00 0.  1.
        -24    2    1    2    0    0 -0.18336771701E+03 -0.39529402219E+03  0.16308633471E+04  0.16899284706E+04  0.79132137828E+02 0.  0.
        254    2    1    2    0    0  0.18336771701E+03  0.39529402219E+03  0.68671844019E+03  0.12083537511E+04  0.89367526992E+03 0.  0.
         23    2    4    4    0    0  0.43004583766E+03  0.53117594866E+03  0.55629064744E+03  0.88624741565E+03  0.94275587500E+02 0.  0.
         23    2    4    4    0    0 -0.24667812064E+03 -0.13588192647E+03  0.13042779275E+03  0.32210633544E+03  0.86180560830E+02 0.  0.
          3    1    3    3  502    0 -0.48545120120E+02 -0.14156022586E+03  0.43468140648E+03  0.45972149327E+03  0.00000000000E+00 0. -1.
         -4    1    3    3    0  502 -0.13482259689E+03 -0.25373379633E+03  0.11961819406E+04  0.12302069773E+04  0.00000000000E+00 0.  1.
         13    1    5    5    0    0  0.33706064549E+03  0.37400949013E+03  0.36559153819E+03  0.62221391036E+03  0.00000000000E+00 0. -1.
        -13    1    5    5    0    0  0.92985192163E+02  0.15716645853E+03  0.19069910925E+03  0.26403350529E+03  0.00000000000E+00 0.  1.
          4    1    6    6  503    0 -0.69713284410E+02  0.19206023797E+00  0.45586282131E+02  0.83295186109E+02  0.00000000000E+00 0. -1.
         -4    1    6    6    0  503 -0.17696483623E+03 -0.13607398671E+03  0.84841510616E+02  0.23881114933E+03  0.00000000000E+00 0.  1.
<mgrwt>
<rscale>  0 0.17403604E+04</rscale>
<asrwt>0</asrwt>
<pdfrwt beam="1">  1        1 0.40122029E+00 0.17403604E+04</pdfrwt>
<pdfrwt beam="2">  1       -2 0.44669266E-01 0.17403604E+04</pdfrwt>
<totfact> 0.45175786E+00</totfact>
</mgrwt>
</event>
<event>
12    5  0.5297412E-008  0.1916844E+04  0.7818608E-02  0.8646517E-01
         -2   -1    0    0    0  501 -0.00000000000E+00  0.00000000000E+00  0.68412807696E+03  0.68412807696E+03  0.00000000000E+00 0.  1.
          1   -1    0    0  501    0  0.00000000000E+00 -0.00000000000E+00 -0.13426904844E+04  0.13426904844E+04  0.00000000000E+00 0. -1.
        -24    2    1    2    0    0  0.19757044262E+03 -0.72923628908E+03 -0.15766923528E+03  0.77589767740E+03  0.79611387027E+02 0.  0.
        254    2    1    2    0    0 -0.19757044262E+03  0.72923628908E+03 -0.50089317216E+03  0.12509208840E+04  0.86202635859E+03 0.  0.
         23    2    4    4    0    0  0.30264984585E+03  0.46766998280E+03 -0.33005055395E+03  0.65389060045E+03  0.91254628279E+02 0.  0.
         23    2    4    4    0    0 -0.50022028847E+03  0.26156630627E+03 -0.17084261821E+03  0.59703028351E+03  0.92847669064E+02 0.  0.
          1    1    3    3  502    0  0.67580643276E+02 -0.17470038670E+03 -0.68201446606E+02  0.19934594498E+03  0.00000000000E+00 0. -1.
         -2    1    3    3    0  502  0.12998979935E+03 -0.55453590237E+03 -0.89467788676E+02  0.57655173243E+03  0.00000000000E+00 0.  1.
         13    1    5    5    0    0  0.24834434006E+03  0.31028927353E+03 -0.24576558362E+03  0.46728478105E+03  0.00000000000E+00 0.  1.
        -13    1    5    5    0    0  0.54305505791E+02  0.15738070927E+03 -0.84284970335E+02  0.18660581940E+03  0.00000000000E+00 0. -1.
          2    1    6    6  503    0 -0.71385016392E+02  0.49920157197E+02 -0.61043053242E+02  0.10636774421E+03  0.00000000000E+00 0. -1.
         -2    1    6    6    0  503 -0.42883527208E+03  0.21164614908E+03 -0.10979956497E+03  0.49066253930E+03  0.00000000000E+00 0.  1.
<mgrwt>
<rscale>  0 0.19168435E+04</rscale>
<asrwt>0</asrwt>
<pdfrwt beam="1">  1        1 0.20656777E+00 0.19168435E+04</pdfrwt>
<pdfrwt beam="2">  1       -2 0.10525047E+00 0.19168435E+04</pdfrwt>
<totfact> 0.50531462E+00</totfact>
</mgrwt>
</event>
<event>
12    5  0.5297412E-008  0.1142083E+04  0.7818608E-02  0.9165119E-01
          1   -1    0    0  501    0  0.00000000000E+00  0.00000000000E+00  0.54792728720E+03  0.54792728720E+03  0.00000000000E+00 0. -1.
         -2   -1    0    0    0  501 -0.00000000000E+00 -0.00000000000E+00 -0.59513055387E+03  0.59513055387E+03  0.00000000000E+00 0.  1.
        -24    2    1    2    0    0 -0.55943314606E+02 -0.16313291065E+03 -0.16964257351E+02  0.19066934461E+03  0.79529943780E+02 0.  0.
        254    2    1    2    0    0  0.55943314606E+02  0.16313291065E+03 -0.30239009316E+02  0.95238849646E+03  0.93615567590E+03 0.  0.
         23    2    4    4    0    0  0.32824417926E+03  0.37428447387E+03  0.18313612903E+03  0.53641136399E+03  0.79782210181E+02 0.  0.
         23    2    4    4    0    0 -0.27230086465E+03 -0.21115156321E+03 -0.21337513835E+03  0.41597713248E+03  0.93676472714E+02 0.  0.
          1    1    3    3  502    0 -0.41392514801E+02 -0.10133200016E+03  0.27860077506E+02  0.11294998210E+03  0.00000000000E+00 0. -1.
         -2    1    3    3    0  502 -0.14550799805E+02 -0.61800910492E+02 -0.44824334857E+02  0.77719362504E+02  0.00000000000E+00 0.  1.
         13    1    5    5    0    0  0.80421798550E+02  0.13766810476E+03  0.35639360950E+02  0.16337177480E+03  0.00000000000E+00 0. -1.
        -13    1    5    5    0    0  0.24782238071E+03  0.23661636910E+03  0.14749676808E+03  0.37303958919E+03  0.00000000000E+00 0.  1.
          3    1    6    6  503    0 -0.12611935643E+03 -0.45700365746E+02 -0.10312060539E+03  0.16919951168E+03  0.00000000000E+00 0. -1.
         -3    1    6    6    0  503 -0.14618150822E+03 -0.16545119747E+03 -0.11025453296E+03  0.24677762080E+03  0.00000000000E+00 0.  1.
<mgrwt>
<rscale>  0 0.11420828E+04</rscale>
<asrwt>0</asrwt>
<pdfrwt beam="1">  1        1 0.84296505E-01 0.11420828E+04</pdfrwt>
<pdfrwt beam="2">  1       -2 0.91558547E-01 0.11420828E+04</pdfrwt>
<totfact> 0.34443288E+01</totfact>
</mgrwt>
</event>
<event>
12    5  0.5297412E-008  0.2997803E+04  0.7818608E-02  0.8244358E-01
         -2   -1    0    0    0  501 -0.00000000000E+00  0.00000000000E+00  0.11221482577E+04  0.11221482577E+04  0.00000000000E+00 0.  1.
          1   -1    0    0  501    0  0.00000000000E+00 -0.00000000000E+00 -0.20021471667E+04  0.20021471667E+04  0.00000000000E+00 0. -1.
        -24    2    1    2    0    0 -0.27504700735E+03  0.86989922588E+03 -0.14573806224E+04  0.17212006451E+04  0.78726505259E+02 0.  0.
        254    2    1    2    0    0  0.27504700735E+03 -0.86989922588E+03  0.57738171347E+03  0.14030947793E+04  0.89606350066E+03 0.  0.
         23    2    4    4    0    0  0.75589218237E+02 -0.92435138956E+03  0.67957462318E+03  0.11534930302E+04  0.92656791683E+02 0.  0.
         23    2    4    4    0    0  0.19945778911E+03  0.54452163675E+02 -0.10219290972E+03  0.24960174906E+03  0.95442100643E+02 0.  0.
          3    1    3    3  502    0 -0.22972559257E+03  0.73045734973E+03 -0.12739898430E+04  0.14864023371E+04  0.00000000000E+00 0. -1.
         -4    1    3    3    0  502 -0.45321414775E+02  0.13944187615E+03 -0.18339077939E+03  0.23479830797E+03  0.00000000000E+00 0.  1.
         13    1    5    5    0    0  0.92227889236E+01 -0.10609617997E+03  0.11743537780E+03  0.15853241687E+03  0.00000000000E+00 0. -1.
        -13    1    5    5    0    0  0.66366429314E+02 -0.81825520958E+03  0.56213924538E+03  0.99496061337E+03  0.00000000000E+00 0.  1.
          2    1    6    6  503    0  0.43678260699E+02 -0.20822670801E+02  0.53165897689E+00  0.48390667884E+02  0.00000000000E+00 0. -1.
         -2    1    6    6    0  503  0.15577952841E+03  0.75274834476E+02 -0.10272456869E+03  0.20121108118E+03  0.00000000000E+00 0.  1.
<mgrwt>
<rscale>  0 0.29978032E+04</rscale>
<asrwt>0</asrwt>
<pdfrwt beam="1">  1        1 0.30802264E+00 0.29978032E+04</pdfrwt>
<pdfrwt beam="2">  1       -2 0.17263820E+00 0.29978032E+04</pdfrwt>
<totfact> 0.45374846E-01</totfact>
</mgrwt>
</event>
<event>
12    5  0.5297412E-008  0.1151366E+04  0.7818608E-02  0.9156524E-01
          1   -1    0    0  501    0  0.00000000000E+00  0.00000000000E+00  0.18187957556E+04  0.18187957556E+04  0.00000000000E+00 0. -1.
         -2   -1    0    0    0  501 -0.00000000000E+00 -0.00000000000E+00 -0.18221458653E+03  0.18221458653E+03  0.00000000000E+00 0.  1.
        -24    2    1    2    0    0 -0.14200391036E+03 -0.12448499581E+03  0.15144899477E+03  0.25472299625E+03  0.79280401519E+02 0.  0.
        254    2    1    2    0    0  0.14200391036E+03  0.12448499581E+03  0.14851321743E+04  0.17462873459E+04  0.89902185430E+03 0.  0.
         23    2    4    4    0    0  0.17457168144E+03  0.73474718889E+02 -0.42743935993E+02  0.21452743031E+03  0.91220436381E+02 0.  0.
         23    2    4    4    0    0 -0.32567771080E+02  0.51010276923E+02  0.15278761103E+04  0.15317599156E+04  0.90665994061E+02 0.  0.
          1    1    3    3  502    0 -0.87303711698E+02 -0.32140888186E+02  0.96889202116E+02  0.13432234459E+03  0.00000000000E+00 0. -1.
         -2    1    3    3    0  502 -0.54700198662E+02 -0.92344107626E+02  0.54559792651E+02  0.12040065166E+03  0.00000000000E+00 0.  1.
         13    1    5    5    0    0  0.12702183317E+03  0.52579350593E+02 -0.71714964402E+02  0.15505537827E+03  0.00000000000E+00 0. -1.
        -13    1    5    5    0    0  0.47549848268E+02  0.20895368296E+02  0.28971028409E+02  0.59472052038E+02  0.00000000000E+00 0.  1.
          2    1    6    6  503    0 -0.12610486416E+00  0.65893366654E+02  0.12280885146E+04  0.12298550123E+04  0.00000000000E+00 0. -1.
         -2    1    6    6    0  503 -0.32441666216E+02 -0.14883089731E+02  0.29978759577E+03  0.30190490332E+03  0.00000000000E+00 0.  1.
<mgrwt>
<rscale>  0 0.11513663E+04</rscale>
<asrwt>0</asrwt>
<pdfrwt beam="1">  1        1 0.27981472E+00 0.11513663E+04</pdfrwt>
<pdfrwt beam="2">  1       -2 0.28033015E-01 0.11513663E+04</pdfrwt>
<totfact> 0.40154292E+01</totfact>
</mgrwt>
</event>
<event>
12    5  0.5297412E-008  0.1323263E+04  0.7818608E-02  0.9011318E-01
         -2   -1    0    0    0  501 -0.00000000000E+00  0.00000000000E+00  0.30375728461E+03  0.30375728461E+03  0.00000000000E+00 0.  1.
          1   -1    0    0  501    0  0.00000000000E+00 -0.00000000000E+00 -0.14411374426E+04  0.14411374426E+04  0.00000000000E+00 0. -1.
        -24    2    1    2    0    0 -0.24852412452E+02 -0.12141025698E+03 -0.73349411202E+03  0.74824106910E+03  0.80579105310E+02 0.  0.
        254    2    1    2    0    0  0.24852412452E+02  0.12141025698E+03 -0.40388604593E+03  0.99665365808E+03  0.90268293612E+03 0.  0.
         23    2    4    4    0    0 -0.10123474498E+03 -0.25321982008E+03  0.13828482237E+03  0.32000563512E+03  0.94404255946E+02 0.  0.
         23    2    4    4    0    0  0.12608715744E+03  0.37463007706E+03 -0.54217086831E+03  0.67664802295E+03  0.87507888900E+02 0.  0.
          1    1    3    3  502    0 -0.46930807960E+02 -0.73147197330E+02 -0.56326702560E+03  0.56993223749E+03  0.00000000000E+00 0. -1.
         -4    1    3    3    0  502  0.22078395508E+02 -0.48263059652E+02 -0.17022708643E+03  0.17830883161E+03  0.00000000000E+00 0.  1.
         13    1    5    5    0    0 -0.10458828640E+03 -0.14337529145E+03  0.70976785811E+02  0.19113578413E+03  0.00000000000E+00 0. -1.
        -13    1    5    5    0    0  0.33535414194E+01 -0.10984452863E+03  0.67308036563E+02  0.12886985099E+03  0.00000000000E+00 0.  1.
          3    1    6    6  503    0  0.62039626631E+02  0.77341530377E+02 -0.10854573593E+03  0.14701293951E+03  0.00000000000E+00 0. -1.
         -3    1    6    6    0  503  0.64047530804E+02  0.29728854668E+03 -0.43362513237E+03  0.52963508345E+03  0.00000000000E+00 0.  1.
<mgrwt>
<rscale>  0 0.13232626E+04</rscale>
<asrwt>0</asrwt>
<pdfrwt beam="1">  1        1 0.22171346E+00 0.13232626E+04</pdfrwt>
<pdfrwt beam="2">  1       -2 0.46731889E-01 0.13232626E+04</pdfrwt>
<totfact> 0.26853329E+01</totfact>
</mgrwt>
</event>
<event>
12    5  0.5297412E-008  0.1654400E+04  0.7818608E-02  0.8787808E-01
         -2   -1    0    0    0  501 -0.00000000000E+00  0.00000000000E+00  0.48189247001E+03  0.48189247001E+03  0.00000000000E+00 0.  1.
          1   -1    0    0  501    0  0.00000000000E+00 -0.00000000000E+00 -0.14199422475E+04  0.14199422475E+04  0.00000000000E+00 0. -1.
        -24    2    1    2    0    0 -0.30380208283E+03 -0.48969255581E+03 -0.36829484487E+03  0.68842464591E+03  0.78694952758E+02 0.  0.
        254    2    1    2    0    0  0.30380208283E+03  0.48969255581E+03 -0.56975493262E+03  0.12134100716E+04  0.90313277753E+03 0.  0.
         23    2    4    4    0    0  0.39933194973E+03  0.55142904273E+03 -0.72669943664E+03  0.10001442726E+04  0.93040311652E+02 0.  0.
         23    2    4    4    0    0 -0.95529866896E+02 -0.61736486918E+02  0.15694450402E+03  0.21326579898E+03  0.88957149167E+02 0.  0.
          3    1    3    3  502    0 -0.35442033347E+02 -0.51501262604E+02 -0.13390187344E+02  0.63936021887E+02  0.00000000000E+00 0. -1.
         -4    1    3    3    0  502 -0.26836004949E+03 -0.43819129320E+03 -0.35490465752E+03  0.62448862402E+03  0.00000000000E+00 0.  1.
         13    1    5    5    0    0  0.37403842266E+03  0.48012749706E+03 -0.67287052648E+03  0.90729372337E+03  0.00000000000E+00 0.  1.
        -13    1    5    5    0    0  0.25293527068E+02  0.71301545662E+02 -0.53828910153E+02  0.92850549237E+02  0.00000000000E+00 0. -1.
          4    1    6    6  503    0 -0.10637491008E+02 -0.97833910437E+01 -0.10919806332E+02  0.18113893165E+02  0.00000000000E+00 0. -1.
         -4    1    6    6    0  503 -0.84892375887E+02 -0.51953095875E+02  0.16786431035E+03  0.19515190582E+03  0.00000000000E+00 0.  1.
<mgrwt>
<rscale>  0 0.16543996E+04</rscale>
<asrwt>0</asrwt>
<pdfrwt beam="1">  1        1 0.21845265E+00 0.16543996E+04</pdfrwt>
<pdfrwt beam="2">  1       -2 0.74137305E-01 0.16543996E+04</pdfrwt>
<totfact> 0.10214507E+01</totfact>
</mgrwt>
</event>
<event>
12    5  0.5297412E-008  0.1221539E+04  0.7818608E-02  0.9094210E-01
          1   -1    0    0  501    0  0.00000000000E+00  0.00000000000E+00  0.10507178507E+04  0.10507178507E+04  0.00000000000E+00 0. -1.
         -4   -1    0    0    0  501 -0.00000000000E+00 -0.00000000000E+00 -0.35503269867E+03  0.35503269867E+03  0.00000000000E+00 0.  1.
        -24    2    1    2    0    0  0.60228133558E+02 -0.16100905478E+03  0.38726282703E+03  0.43177026896E+03  0.83076616227E+02 0.  0.
        254    2    1    2    0    0 -0.60228133558E+02  0.16100905478E+03  0.30842232497E+03  0.97398028038E+03  0.90772347785E+03 0.  0.
         23    2    4    4    0    0  0.21453827514E+03  0.25677989607E+03 -0.18570603204E+03  0.39353459550E+03  0.91761435217E+02 0.  0.
         23    2    4    4    0    0 -0.27476640870E+03 -0.95770841288E+02  0.49412835701E+03  0.58044568488E+03  0.89920667849E+02 0.  0.
          3    1    3    3  502    0  0.36762617971E+02 -0.10817914090E+03  0.33460843251E+03  0.35357745928E+03  0.00000000000E+00 0. -1.
         -4    1    3    3    0  502  0.23465515586E+02 -0.52829913887E+02  0.52654394521E+02  0.78192809678E+02  0.00000000000E+00 0.  1.
         13    1    5    5    0    0  0.20689574969E+03  0.26147988204E+03 -0.18980437701E+03  0.38367079832E+03  0.00000000000E+00 0. -1.
        -13    1    5    5    0    0  0.76425254537E+01 -0.46999859680E+01  0.40983449677E+01  0.98637971838E+01  0.00000000000E+00 0.  1.
          1    1    6    6  503    0 -0.23645122716E+03 -0.94042050542E+02  0.47184431642E+03  0.53608781840E+03  0.00000000000E+00 0. -1.
         -1    1    6    6    0  503 -0.38315181545E+02 -0.17287907453E+01  0.22284040588E+02  0.44357866486E+02  0.00000000000E+00 0.  1.
<mgrwt>
<rscale>  0 0.12215387E+04</rscale>
<asrwt>0</asrwt>
<pdfrwt beam="1">  1        1 0.16164890E+00 0.12215387E+04</pdfrwt>
<pdfrwt beam="2">  1       -4 0.54620416E-01 0.12215387E+04</pdfrwt>
<totfact> 0.21359934E+01</totfact>
</mgrwt>
</event>
<event>
12    5  0.5297412E-008  0.1367661E+04  0.7818608E-02  0.8977566E-01
         -2   -1    0    0    0  501 -0.00000000000E+00  0.00000000000E+00  0.12849118746E+03  0.12849118746E+03  0.00000000000E+00 0.  1.
          1   -1    0    0  501    0  0.00000000000E+00 -0.00000000000E+00 -0.36393463449E+04  0.36393463449E+04  0.00000000000E+00 0. -1.
        -24    2    1    2    0    0 -0.30169363363E+03  0.21781801252E+03 -0.82485518638E+03  0.90839781518E+03  0.79603875469E+02 0.  0.
        254    2    1    2    0    0  0.30169363363E+03 -0.21781801252E+03 -0.26859999710E+04  0.28594397172E+04  0.90737859601E+03 0.  0.
         23    2    4    4    0    0  0.34500627885E+03 -0.44600083622E+03 -0.97078253568E+03  0.11263701938E+04  0.91350991430E+02 0.  0.
         23    2    4    4    0    0 -0.43312645225E+02  0.22818282370E+03 -0.17152174354E+04  0.17330695233E+04  0.87268183431E+02 0.  0.
          3    1    3    3  502    0 -0.19644917071E+03  0.15039765463E+03 -0.63069429549E+03  0.67748581207E+03  0.00000000000E+00 0. -1.
         -4    1    3    3    0  502 -0.10524446292E+03  0.67420357887E+02 -0.19416089088E+03  0.23091200311E+03  0.00000000000E+00 0.  1.
         13    1    5    5    0    0  0.15889644776E+03 -0.27761433317E+03 -0.52384111234E+03  0.61378115813E+03  0.00000000000E+00 0. -1.
        -13    1    5    5    0    0  0.18610983109E+03 -0.16838650305E+03 -0.44694142334E+03  0.51258903571E+03  0.00000000000E+00 0.  1.
          1    1    6    6  503    0 -0.49163086707E+01  0.19640674342E+03 -0.14448755015E+04  0.14581717984E+04  0.00000000000E+00 0. -1.
         -1    1    6    6    0  503 -0.38396336554E+02  0.31776080275E+02 -0.27034193390E+03  0.27489772491E+03  0.00000000000E+00 0.  1.
<mgrwt>
<rscale>  0 0.13676607E+04</rscale>
<asrwt>0</asrwt>
<pdfrwt beam="1">  1        1 0.55989945E+00 0.13676607E+04</pdfrwt>
<pdfrwt beam="2">  1       -2 0.19767875E-01 0.13676607E+04</pdfrwt>
<totfact> 0.36861628E+00</totfact>
</mgrwt>
</event>
<event>
12    5  0.5297412E-008  0.1325532E+04  0.7818608E-02  0.9009560E-01
          1   -1    0    0  501    0  0.00000000000E+00  0.00000000000E+00  0.11085192219E+04  0.11085192219E+04  0.00000000000E+00 0. -1.
         -2   -1    0    0    0  501 -0.00000000000E+00 -0.00000000000E+00 -0.39625708094E+03  0.39625708094E+03  0.00000000000E+00 0.  1.
        -24    2    1    2    0    0  0.23062790927E+03  0.10819216444E+03 -0.72957105511E+02  0.27419735418E+03  0.70474625307E+02 0.  0.
        254    2    1    2    0    0 -0.23062790927E+03 -0.10819216444E+03  0.78521924650E+03  0.12305789487E+04  0.91261191474E+03 0.  0.
         23    2    4    4    0    0  0.29315133969E+02 -0.22544250883E+02  0.91158012097E+03  0.91675569819E+03  0.89972622961E+02 0.  0.
         23    2    4    4    0    0 -0.25994304324E+03 -0.85647913561E+02 -0.12636087448E+03  0.31382325050E+03  0.87246840237E+02 0.  0.
          1    1    3    3  502    0  0.15793006028E+03  0.41601603795E+02 -0.27424353799E+02  0.16560402338E+03  0.00000000000E+00 0. -1.
         -2    1    3    3    0  502  0.72697848992E+02  0.66590560649E+02 -0.45532751711E+02  0.10859333080E+03  0.00000000000E+00 0.  1.
         13    1    5    5    0    0  0.58954876304E+02 -0.29311338537E+02  0.55797439318E+03  0.56184540173E+03  0.00000000000E+00 0. -1.
        -13    1    5    5    0    0 -0.29639742336E+02  0.67670876542E+01  0.35360572780E+03  0.35491029646E+03  0.00000000000E+00 0.  1.
          3    1    6    6  503    0 -0.76766815285E+02 -0.46682738793E+02 -0.36387911405E+01  0.89920313785E+02  0.00000000000E+00 0. -1.
         -3    1    6    6    0  503 -0.18317622796E+03 -0.38965174768E+02 -0.12272208333E+03  0.22390293672E+03  0.00000000000E+00 0.  1.
<mgrwt>
<rscale>  0 0.13255317E+04</rscale>
<asrwt>0</asrwt>
<pdfrwt beam="1">  1        1 0.17054142E+00 0.13255317E+04</pdfrwt>
<pdfrwt beam="2">  1       -2 0.60962628E-01 0.13255317E+04</pdfrwt>
<totfact> 0.26899988E+01</totfact>
</mgrwt>
</event>
<event>
12    5  0.5297412E-008  0.1182653E+04  0.7818608E-02  0.9128177E-01
         -2   -1    0    0    0  501 -0.00000000000E+00  0.00000000000E+00  0.21812874616E+03  0.21812874616E+03  0.00000000000E+00 0.  1.
          1   -1    0    0  501    0  0.00000000000E+00 -0.00000000000E+00 -0.16030317714E+04  0.16030317714E+04  0.00000000000E+00 0. -1.
        -24    2    1    2    0    0 -0.86472394994E+02  0.10996158644E+03 -0.52850783676E+03  0.55239727858E+03  0.79077141322E+02 0.  0.
        254    2    1    2    0    0  0.86472394994E+02 -0.10996158644E+03 -0.85639518849E+03  0.12687632390E+04  0.92562325605E+03 0.  0.
         23    2    4    4    0    0 -0.12109466469E+03 -0.45686611885E+03 -0.64711730123E+03  0.80565947484E+03  0.83281567475E+02 0.  0.
         23    2    4    4    0    0  0.20756705969E+03  0.34690453242E+03 -0.20927788726E+03  0.46310376414E+03  0.85094203029E+02 0.  0.
          1    1    3    3  502    0 -0.92838462695E+02  0.11440765500E+03 -0.52158163970E+03  0.54199215727E+03  0.00000000000E+00 0. -1.
         -2    1    3    3    0  502  0.63660677011E+01 -0.44460685639E+01 -0.69261970631E+01  0.10405121307E+02  0.00000000000E+00 0.  1.
         13    1    5    5    0    0 -0.10699331211E+03 -0.24310994466E+03 -0.36595562141E+03  0.45218749526E+03  0.00000000000E+00 0.  1.
        -13    1    5    5    0    0 -0.14101352579E+02 -0.21375617419E+03 -0.28116167982E+03  0.35347197958E+03  0.00000000000E+00 0. -1.
          1    1    6    6  503    0  0.13773554079E+03  0.27158086118E+03 -0.18903241141E+03  0.35841386123E+03  0.00000000000E+00 0. -1.
         -1    1    6    6    0  503  0.69831518901E+02  0.75323671233E+02 -0.20245475852E+02  0.10468990292E+03  0.00000000000E+00 0.  1.
<mgrwt>
<rscale>  0 0.11826535E+04</rscale>
<asrwt>0</asrwt>
<pdfrwt beam="1">  1        1 0.24662027E+00 0.11826535E+04</pdfrwt>
<pdfrwt beam="2">  1       -2 0.33558269E-01 0.11826535E+04</pdfrwt>
<totfact> 0.40095182E+01</totfact>
</mgrwt>
</event>
<event>
12    5  0.5297412E-008  0.1460417E+04  0.7818608E-02  0.8911211E-01
          1   -1    0    0  501    0  0.00000000000E+00  0.00000000000E+00  0.11060557394E+04  0.11060557394E+04  0.00000000000E+00 0. -1.
         -2   -1    0    0    0  501 -0.00000000000E+00 -0.00000000000E+00 -0.48207705350E+03  0.48207705350E+03  0.00000000000E+00 0.  1.
        -24    2    1    2    0    0  0.23663216057E+03 -0.35965730178E+03  0.71713957812E+02  0.44329721991E+03  0.77597546974E+02 0.  0.
        254    2    1    2    0    0 -0.23663216057E+03  0.35965730178E+03  0.55226472806E+03  0.11448355730E+04  0.90570635700E+03 0.  0.
         23    2    4    4    0    0  0.55371067531E+02  0.42703291083E+02  0.67712170306E+03  0.68710631341E+03  0.93443881431E+02 0.  0.
         23    2    4    4    0    0 -0.29200322810E+03  0.31695401070E+03 -0.12485697501E+03  0.45772925955E+03  0.90559818457E+02 0.  0.
          1    1    3    3  502    0  0.15402087981E+03 -0.24021257871E+03  0.10073029945E+02  0.28552754740E+03  0.00000000000E+00 0. -1.
         -2    1    3    3    0  502  0.82611280764E+02 -0.11944472306E+03  0.61640927868E+02  0.15776967252E+03  0.00000000000E+00 0.  1.
         13    1    5    5    0    0  0.69865415346E+02 -0.15456573969E+01  0.38336826008E+03  0.38968549903E+03  0.00000000000E+00 0. -1.
        -13    1    5    5    0    0 -0.14494347815E+02  0.44248948480E+02  0.29375344298E+03  0.29742081437E+03  0.00000000000E+00 0.  1.
          4    1    6    6  503    0 -0.26813941922E+03  0.25451637053E+03 -0.83124965566E+02  0.37892887315E+03  0.00000000000E+00 0. -1.
         -4    1    6    6    0  503 -0.23863808878E+02  0.62437640168E+02 -0.41732009440E+02  0.78800386394E+02  0.00000000000E+00 0.  1.
<mgrwt>
<rscale>  0 0.14604165E+04</rscale>
<asrwt>0</asrwt>
<pdfrwt beam="1">  1        1 0.17016242E+00 0.14604165E+04</pdfrwt>
<pdfrwt beam="2">  1       -2 0.74165701E-01 0.14604165E+04</pdfrwt>
<totfact> 0.17476627E+01</totfact>
</mgrwt>
</event>
<event>
12    5  0.5297412E-008  0.1890272E+04  0.7818608E-02  0.8659714E-01
          1   -1    0    0  501    0  0.00000000000E+00  0.00000000000E+00  0.85504444381E+03  0.85504444381E+03  0.00000000000E+00 0. -1.
         -2   -1    0    0    0  501 -0.00000000000E+00 -0.00000000000E+00 -0.10447198905E+04  0.10447198905E+04  0.00000000000E+00 0.  1.
        -24    2    1    2    0    0  0.45163555952E+03  0.42139672767E+03  0.31711458457E+03  0.69901383992E+03  0.80677183517E+02 0.  0.
        254    2    1    2    0    0 -0.45163555952E+03 -0.42139672767E+03 -0.50679003123E+03  0.12007504944E+04  0.89633461009E+03 0.  0.
         23    2    4    4    0    0 -0.41703383887E+03  0.17041434422E+03 -0.35420890565E+03  0.58231009549E+03  0.10326096543E+03 0.  0.
         23    2    4    4    0    0 -0.34601720650E+02 -0.59181107189E+03 -0.15258112558E+03  0.61844039888E+03  0.88033534513E+02 0.  0.
          3    1    3    3  502    0  0.33861616252E+03  0.33687950037E+03  0.27760734153E+03  0.55246225153E+03  0.00000000000E+00 0. -1.
         -4    1    3    3    0  502  0.11301939700E+03  0.84517227296E+02  0.39507243041E+02  0.14655158839E+03  0.00000000000E+00 0.  1.
         13    1    5    5    0    0 -0.83496728163E+02  0.14439384436E+02 -0.11643557473E+03  0.14400500859E+03  0.00000000000E+00 0. -1.
        -13    1    5    5    0    0 -0.33353711071E+03  0.15597495979E+03 -0.23777333092E+03  0.43830508689E+03  0.00000000000E+00 0.  1.
          3    1    6    6  503    0 -0.47670061303E+02 -0.40345400558E+03 -0.69510501544E+02  0.41216414107E+03  0.00000000000E+00 0.  1.
         -3    1    6    6    0  503  0.13068340653E+02 -0.18835706632E+03 -0.83070624032E+02  0.20627625781E+03  0.00000000000E+00 0. -1.
<mgrwt>
<rscale>  0 0.18902719E+04</rscale>
<asrwt>0</asrwt>
<pdfrwt beam="1">  1        1 0.13154530E+00 0.18902719E+04</pdfrwt>
<pdfrwt beam="2">  1       -2 0.16072614E+00 0.18902719E+04</pdfrwt>
<totfact> 0.40472605E+00</totfact>
</mgrwt>
</event>
<event>
12    5  0.5297412E-008  0.1189496E+04  0.7818608E-02  0.9122100E-01
         -2   -1    0    0    0  501 -0.00000000000E+00  0.00000000000E+00  0.32742797718E+03  0.32742797718E+03  0.00000000000E+00 0.  1.
          1   -1    0    0  501    0  0.00000000000E+00 -0.00000000000E+00 -0.10803149977E+04  0.10803149977E+04  0.00000000000E+00 0. -1.
        -24    2    1    2    0    0  0.21662933446E+03  0.91256252323E+02 -0.77064203406E+02  0.25970627389E+03  0.79072657165E+02 0.  0.
        254    2    1    2    0    0 -0.21662933446E+03 -0.91256252323E+02 -0.67582281716E+03  0.11480367010E+04  0.89777269650E+03 0.  0.
         23    2    4    4    0    0 -0.25639477715E+02 -0.75911275266E+02 -0.85914159135E+03  0.86742536889E+03  0.88783962992E+02 0.  0.
         23    2    4    4    0    0 -0.19098985675E+03 -0.15344977057E+02  0.18331877419E+03  0.28061133214E+03  0.91784274519E+02 0.  0.
          1    1    3    3  502    0  0.41107547324E+02 -0.13450746320E+02 -0.81016694049E+01  0.44004432399E+02  0.00000000000E+00 0. -1.
         -2    1    3    3    0  502  0.17552178714E+03  0.10470699864E+03 -0.68962534001E+02  0.21570184149E+03  0.00000000000E+00 0.  1.
         13    1    5    5    0    0 -0.32058063881E+02 -0.83939079402E+02 -0.49184496238E+03  0.49998495530E+03  0.00000000000E+00 0. -1.
        -13    1    5    5    0    0  0.64185861669E+01  0.80278041365E+01 -0.36729662897E+03  0.36744041359E+03  0.00000000000E+00 0.  1.
          1    1    6    6  503    0 -0.10809209740E+03  0.37175451081E+02  0.97054909970E+02  0.14995189640E+03  0.00000000000E+00 0. -1.
         -1    1    6    6    0  503 -0.82897759345E+02 -0.52520428138E+02  0.86263864224E+02  0.13065943574E+03  0.00000000000E+00 0.  1.
<mgrwt>
<rscale>  0 0.11894963E+04</rscale>
<asrwt>0</asrwt>
<pdfrwt beam="1">  1        1 0.16620231E+00 0.11894963E+04</pdfrwt>
<pdfrwt beam="2">  1       -2 0.50373535E-01 0.11894963E+04</pdfrwt>
<totfact> 0.42466038E+01</totfact>
</mgrwt>
</event>
<event>
12    5  0.5297412E-008  0.1618080E+04  0.7818608E-02  0.8809517E-01
          1   -1    0    0  501    0  0.00000000000E+00  0.00000000000E+00  0.17690770463E+04  0.17690770463E+04  0.00000000000E+00 0. -1.
         -2   -1    0    0    0  501 -0.00000000000E+00 -0.00000000000E+00 -0.36999296572E+03  0.36999296572E+03  0.00000000000E+00 0.  1.
        -24    2    1    2    0    0  0.12154291183E+03 -0.11609096242E+03 -0.20605487619E+03  0.27869443806E+03  0.83439719767E+02 0.  0.
        254    2    1    2    0    0 -0.12154291183E+03  0.11609096242E+03  0.16051389568E+04  0.18603755740E+04  0.92535204905E+03 0.  0.
         23    2    4    4    0    0 -0.42513085879E+02  0.43032196061E+02 -0.10055265166E+03  0.14891026335E+03  0.91674960627E+02 0.  0.
         23    2    4    4    0    0 -0.79029825955E+02  0.73058766359E+02  0.17056916084E+04  0.17114653106E+04  0.90257130645E+02 0.  0.
          3    1    3    3  502    0  0.14478565662E+02  0.87392712453E+01 -0.46823578554E+02  0.49784045980E+02  0.00000000000E+00 0. -1.
         -4    1    3    3    0  502  0.10706434617E+03 -0.12483023367E+03 -0.15923129763E+03  0.22891039208E+03  0.00000000000E+00 0.  1.
         13    1    5    5    0    0 -0.36738544640E+02 -0.37514329325E+01 -0.94406653653E+02  0.10137263026E+03  0.00000000000E+00 0.  1.
        -13    1    5    5    0    0 -0.57745412391E+01  0.46783628994E+02 -0.61459980049E+01  0.47537633090E+02  0.00000000000E+00 0. -1.
          2    1    6    6  503    0 -0.31440151877E+02  0.53231636092E+00  0.99536215755E+03  0.99585872050E+03  0.00000000000E+00 0. -1.
         -2    1    6    6    0  503 -0.47589674078E+02  0.72526449998E+02  0.71032945089E+03  0.71560659013E+03  0.00000000000E+00 0.  1.
<mgrwt>
<rscale>  0 0.16180804E+04</rscale>
<asrwt>0</asrwt>
<pdfrwt beam="1">  1        1 0.27216569E+00 0.16180804E+04</pdfrwt>
<pdfrwt beam="2">  1       -2 0.56921996E-01 0.16180804E+04</pdfrwt>
<totfact> 0.10407755E+01</totfact>
</mgrwt>
</event>
<event>
12    5  0.5297412E-008  0.2102942E+04  0.7818608E-02  0.8559949E-01
          1   -1    0    0  501    0  0.00000000000E+00  0.00000000000E+00  0.10874924230E+04  0.10874924230E+04  0.00000000000E+00 0. -1.
         -2   -1    0    0    0  501 -0.00000000000E+00 -0.00000000000E+00 -0.10166425573E+04  0.10166425573E+04  0.00000000000E+00 0.  1.
        -24    2    1    2    0    0  0.41891500627E+03 -0.16625887972E+03 -0.69959744987E+03  0.83614422636E+03  0.81047997212E+02 0.  0.
        254    2    1    2    0    0 -0.41891500627E+03  0.16625887972E+03  0.77044731553E+03  0.12679907540E+04  0.90059962726E+03 0.  0.
         23    2    4    4    0    0 -0.21209978203E+03  0.33056917333E+03  0.87794997446E+03  0.96602850291E+03  0.90291831824E+02 0.  0.
         23    2    4    4    0    0 -0.20681522423E+03 -0.16431029361E+03 -0.10750265893E+03  0.30196225107E+03  0.99267163939E+02 0.  0.
          3    1    3    3  502    0  0.21550813864E+02  0.39623359309E+01 -0.62508298259E+02  0.66237640624E+02  0.00000000000E+00 0. -1.
         -4    1    3    3    0  502  0.39736419240E+03 -0.17022121565E+03 -0.63708915161E+03  0.76990658574E+03  0.00000000000E+00 0.  1.
         13    1    5    5    0    0 -0.88259849519E+02  0.11683212306E+03  0.23071115077E+03  0.27325296175E+03  0.00000000000E+00 0. -1.
        -13    1    5    5    0    0 -0.12383993251E+03  0.21373705027E+03  0.64723882369E+03  0.69277554116E+03  0.00000000000E+00 0.  1.
          1    1    6    6  503    0 -0.19993699451E+01  0.19932420186E+01 -0.25537414460E+02  0.25692995762E+02  0.00000000000E+00 0. -1.
         -1    1    6    6    0  503 -0.20481585429E+03 -0.16630353563E+03 -0.81965244466E+02  0.27626925531E+03  0.00000000000E+00 0.  1.
<mgrwt>
<rscale>  0 0.21029418E+04</rscale>
<asrwt>0</asrwt>
<pdfrwt beam="1">  1        1 0.16730653E+00 0.21029418E+04</pdfrwt>
<pdfrwt beam="2">  1       -2 0.15640655E+00 0.21029418E+04</pdfrwt>
<totfact> 0.27989671E+00</totfact>
</mgrwt>
</event>
<event>
12    5  0.5297412E-008  0.1579385E+04  0.7818608E-02  0.8833314E-01
         -2   -1    0    0    0  501 -0.00000000000E+00  0.00000000000E+00  0.22761655438E+03  0.22761655438E+03  0.00000000000E+00 0.  1.
          1   -1    0    0  501    0  0.00000000000E+00 -0.00000000000E+00 -0.27397565708E+04  0.27397565708E+04  0.00000000000E+00 0. -1.
        -24    2    1    2    0    0 -0.38739786204E+02 -0.31456464463E+03 -0.60679817097E+02  0.33230407204E+03  0.79323826186E+02 0.  0.
        254    2    1    2    0    0  0.38739786204E+02  0.31456464463E+03 -0.24514601994E+04  0.26350690532E+04  0.91295132361E+03 0.  0.
         23    2    4    4    0    0 -0.11178474260E+03 -0.27734466207E+03 -0.51965964847E+03  0.60699634382E+03  0.94776162103E+02 0.  0.
         23    2    4    4    0    0  0.15052452880E+03  0.59190930670E+03 -0.19318005509E+04  0.20280727094E+04  0.90616140420E+02 0.  0.
          1    1    3    3  502    0  0.22805755304E+02 -0.92353533395E+02 -0.59062016265E+01  0.95310864141E+02  0.00000000000E+00 0. -1.
         -2    1    3    3    0  502 -0.61545541508E+02 -0.22221111124E+03 -0.54773615470E+02  0.23699320790E+03  0.00000000000E+00 0.  1.
         13    1    5    5    0    0 -0.16444740885E+02 -0.13929554336E+03 -0.29458119240E+03  0.32626945432E+03  0.00000000000E+00 0. -1.
        -13    1    5    5    0    0 -0.95340001711E+02 -0.13804911871E+03 -0.22507845607E+03  0.28072688950E+03  0.00000000000E+00 0.  1.
          2    1    6    6  503    0  0.10742707950E+03  0.53346899371E+03 -0.16729589749E+04  0.17592388912E+04  0.00000000000E+00 0. -1.
         -2    1    6    6    0  503  0.43097449300E+02  0.58440312995E+02 -0.25884157600E+03  0.26883381816E+03  0.00000000000E+00 0.  1.
<mgrwt>
<rscale>  0 0.15793846E+04</rscale>
<asrwt>0</asrwt>
<pdfrwt beam="1">  1        1 0.42150104E+00 0.15793846E+04</pdfrwt>
<pdfrwt beam="2">  1       -2 0.35017929E-01 0.15793846E+04</pdfrwt>
<totfact> 0.59621374E+00</totfact>
</mgrwt>
</event>
<event>
12    5  0.5297412E-008  0.2062798E+04  0.7818608E-02  0.8577811E-01
         -2   -1    0    0    0  501 -0.00000000000E+00  0.00000000000E+00  0.12974824112E+04  0.12974824112E+04  0.00000000000E+00 0.  1.
          1   -1    0    0  501    0  0.00000000000E+00 -0.00000000000E+00 -0.81988276847E+03  0.81988276847E+03  0.00000000000E+00 0. -1.
        -24    2    1    2    0    0 -0.76460146502E+03  0.18934896858E+03  0.47354356691E+03  0.92255912608E+03  0.80021241688E+02 0.  0.
        254    2    1    2    0    0  0.76460146502E+03 -0.18934896858E+03  0.40560758114E+01  0.11948060536E+04  0.89837443291E+03 0.  0.
         23    2    4    4    0    0  0.64495838609E+03  0.24261974170E+03  0.15797207078E+03  0.71246972873E+03  0.88443656401E+02 0.  0.
         23    2    4    4    0    0  0.11964307893E+03 -0.43196871029E+03 -0.15391599497E+03  0.48233632485E+03  0.89703755546E+02 0.  0.
          3    1    3    3  502    0 -0.56755620689E+03  0.12104996944E+03  0.31281326430E+03  0.65926116327E+03  0.00000000000E+00 0. -1.
         -4    1    3    3    0  502 -0.19704525814E+03  0.68298999145E+02  0.16073030261E+03  0.26329796280E+03  0.00000000000E+00 0.  1.
         13    1    5    5    0    0  0.37069679970E+03  0.17109235102E+03  0.60449570262E+02  0.41272613248E+03  0.00000000000E+00 0. -1.
        -13    1    5    5    0    0  0.27426158639E+03  0.71527390688E+02  0.97522500516E+02  0.29974359625E+03  0.00000000000E+00 0.  1.
          3    1    6    6  503    0  0.12226105648E+03 -0.39667030842E+03 -0.11714579871E+03  0.43129831633E+03  0.00000000000E+00 0. -1.
         -3    1    6    6    0  503 -0.26179775479E+01 -0.35298401869E+02 -0.36770196259E+02  0.51038008521E+02  0.00000000000E+00 0.  1.
<mgrwt>
<rscale>  0 0.20627976E+04</rscale>
<asrwt>0</asrwt>
<pdfrwt beam="1">  1        1 0.12613581E+00 0.20627976E+04</pdfrwt>
<pdfrwt beam="2">  1       -2 0.19961268E+00 0.20627976E+04</pdfrwt>
<totfact> 0.22973373E+00</totfact>
</mgrwt>
</event>
<event>
12    5  0.5297412E-008  0.1644369E+04  0.7818608E-02  0.8793745E-01
         -2   -1    0    0    0  501 -0.00000000000E+00  0.00000000000E+00  0.44134294098E+03  0.44134294098E+03  0.00000000000E+00 0.  1.
          1   -1    0    0  501    0  0.00000000000E+00 -0.00000000000E+00 -0.15316603620E+04  0.15316603620E+04  0.00000000000E+00 0. -1.
        -24    2    1    2    0    0  0.16367821261E+03  0.52209590722E+03 -0.17527428207E+03  0.58002375416E+03  0.79572531743E+02 0.  0.
        254    2    1    2    0    0 -0.16367821261E+03 -0.52209590722E+03 -0.91504313896E+03  0.13929795488E+04  0.89650063230E+03 0.  0.
         23    2    4    4    0    0 -0.23522607352E+03  0.11125484614E+03 -0.13232050938E+01  0.27510135694E+03  0.89275188415E+02 0.  0.
         23    2    4    4    0    0  0.71547860911E+02 -0.63335075336E+03 -0.91371993387E+03  0.11178781919E+04  0.92278172848E+02 0.  0.
          3    1    3    3  502    0  0.46890621216E+02  0.60919237344E+02 -0.31034115934E+02  0.82903559564E+02  0.00000000000E+00 0. -1.
         -4    1    3    3    0  502  0.11678759139E+03  0.46117666988E+03 -0.14424016614E+03  0.49712019459E+03  0.00000000000E+00 0.  1.
         13    1    5    5    0    0 -0.20305061222E+03  0.11514340564E+03  0.23033898421E+02  0.23455940711E+03  0.00000000000E+00 0. -1.
        -13    1    5    5    0    0 -0.32175461300E+02 -0.38885595016E+01 -0.24357103515E+02  0.40541949836E+02  0.00000000000E+00 0.  1.
          3    1    6    6  503    0  0.51542724656E+01 -0.41227815437E+03 -0.61355884258E+03  0.73922547061E+03  0.00000000000E+00 0. -1.
         -3    1    6    6    0  503  0.66393588446E+02 -0.22107259899E+03 -0.30016109129E+03  0.37865272129E+03  0.00000000000E+00 0.  1.
<mgrwt>
<rscale>  0 0.16443692E+04</rscale>
<asrwt>0</asrwt>
<pdfrwt beam="1">  1        1 0.23564005E+00 0.16443692E+04</pdfrwt>
<pdfrwt beam="2">  1       -2 0.67898914E-01 0.16443692E+04</pdfrwt>
<totfact> 0.10365575E+01</totfact>
</mgrwt>
</event>
<event>
12    5  0.5297412E-008  0.1012414E+04  0.7818608E-02  0.9295033E-01
          1   -1    0    0  501    0  0.00000000000E+00  0.00000000000E+00  0.27816494799E+03  0.27816494799E+03  0.00000000000E+00 0. -1.
         -2   -1    0    0    0  501 -0.00000000000E+00 -0.00000000000E+00 -0.92120002074E+03  0.92120002074E+03  0.00000000000E+00 0.  1.
        -24    2    1    2    0    0  0.64479871229E+02 -0.22316566952E+02 -0.46586307760E+02  0.11501390196E+03  0.80013940152E+02 0.  0.
        254    2    1    2    0    0 -0.64479871229E+02  0.22316566952E+02 -0.59644876498E+03  0.10843510668E+04  0.90300078837E+03 0.  0.
         23    2    4    4    0    0  0.31422717056E+03 -0.26535085560E+03 -0.27438410418E+03  0.50275579401E+03  0.91252180815E+02 0.  0.
         23    2    4    4    0    0 -0.37870704178E+03  0.28766742255E+03 -0.32206466080E+03  0.58159527276E+03  0.91410317052E+02 0.  0.
          3    1    3    3  502    0  0.46514442807E+02  0.19872089600E+02 -0.13471957323E+01  0.50599488842E+02  0.00000000000E+00 0. -1.
         -4    1    3    3    0  502  0.17965428422E+02 -0.42188656552E+02 -0.45239112028E+02  0.64414413116E+02  0.00000000000E+00 0.  1.
         13    1    5    5    0    0  0.22373048480E+03 -0.13202598013E+03 -0.17941380519E+03  0.31571427391E+03  0.00000000000E+00 0.  1.
        -13    1    5    5    0    0  0.90496685760E+02 -0.13332487547E+03 -0.94970298984E+02  0.18704152010E+03  0.00000000000E+00 0. -1.
          3    1    6    6  503    0 -0.17417449484E+03  0.82880586457E+02 -0.10345220639E+03  0.21887965933E+03  0.00000000000E+00 0. -1.
         -3    1    6    6    0  503 -0.20453254695E+03  0.20478683609E+03 -0.21861245441E+03  0.36271561342E+03  0.00000000000E+00 0.  1.
<mgrwt>
<rscale>  0 0.10124141E+04</rscale>
<asrwt>0</asrwt>
<pdfrwt beam="1">  1        1 0.42794607E-01 0.10124141E+04</pdfrwt>
<pdfrwt beam="2">  1       -2 0.14172308E+00 0.10124141E+04</pdfrwt>
<totfact> 0.29392757E+01</totfact>
</mgrwt>
</event>
<event>
12    5  0.5297412E-008  0.1469840E+04  0.7818608E-02  0.8904760E-01
         -2   -1    0    0    0  501 -0.00000000000E+00  0.00000000000E+00  0.35589661499E+03  0.35589661499E+03  0.00000000000E+00 0.  1.
          1   -1    0    0  501    0  0.00000000000E+00 -0.00000000000E+00 -0.15175968823E+04  0.15175968823E+04  0.00000000000E+00 0. -1.
        -24    2    1    2    0    0  0.37768985162E+03  0.98435030556E+02 -0.65780754595E+02  0.40360919231E+03  0.78956907125E+02 0.  0.
        254    2    1    2    0    0 -0.37768985162E+03 -0.98435030556E+02 -0.10959195128E+04  0.14698843050E+04  0.89843264213E+03 0.  0.
         23    2    4    4    0    0  0.57521650712E+02 -0.34472851824E+03 -0.80983270654E+03  0.88658688888E+03  0.89781999084E+02 0.  0.
         23    2    4    4    0    0 -0.43521150233E+03  0.24629348769E+03 -0.28608680621E+03  0.58329741614E+03  0.91217767704E+02 0.  0.
          3    1    3    3  502    0  0.37626068788E+02  0.33217286540E+02  0.41324868960E+01  0.50360566175E+02  0.00000000000E+00 0. -1.
         -4    1    3    3    0  502  0.34006378283E+03  0.65217744016E+02 -0.69913241491E+02  0.35324862613E+03  0.00000000000E+00 0.  1.
         13    1    5    5    0    0  0.50766588034E+02 -0.34871728241E+03 -0.79852079783E+03  0.87282097482E+03  0.00000000000E+00 0. -1.
        -13    1    5    5    0    0  0.67550626780E+01  0.39887641642E+01 -0.11311908707E+02  0.13765914061E+02  0.00000000000E+00 0.  1.
          4    1    6    6  503    0 -0.31654061174E+03  0.20281424267E+03 -0.17353438754E+03  0.41406009174E+03  0.00000000000E+00 0. -1.
         -4    1    6    6    0  503 -0.11867089059E+03  0.43479245022E+02 -0.11255241868E+03  0.16923732440E+03  0.00000000000E+00 0.  1.
<mgrwt>
<rscale>  0 0.14698403E+04</rscale>
<asrwt>0</asrwt>
<pdfrwt beam="1">  1        1 0.23347645E+00 0.14698403E+04</pdfrwt>
<pdfrwt beam="2">  1       -2 0.54753325E-01 0.14698403E+04</pdfrwt>
<totfact> 0.16983869E+01</totfact>
</mgrwt>
</event>
<event>
12    5  0.5297412E-008  0.1663923E+04  0.7818608E-02  0.8782212E-01
          1   -1    0    0  501    0  0.00000000000E+00  0.00000000000E+00  0.83558659408E+03  0.83558659408E+03  0.00000000000E+00 0. -1.
         -2   -1    0    0    0  501 -0.00000000000E+00 -0.00000000000E+00 -0.82835195911E+03  0.82835195911E+03  0.00000000000E+00 0.  1.
        -24    2    1    2    0    0 -0.45232736294E+03 -0.17971834015E+03  0.34765695641E+03  0.60372747133E+03  0.81992531666E+02 0.  0.
        254    2    1    2    0    0  0.45232736294E+03  0.17971834015E+03 -0.34042232144E+03  0.10602110819E+04  0.87821492592E+03 0.  0.
         23    2    4    4    0    0 -0.68659102811E+02 -0.12293411253E+03  0.19010564425E+03  0.25221001962E+03  0.87423507145E+02 0.  0.
         23    2    4    4    0    0  0.52098646575E+03  0.30265245268E+03 -0.53052796569E+03  0.80800106223E+03  0.91544467801E+02 0.  0.
          3    1    3    3  502    0 -0.33920725113E+03 -0.16318114324E+03  0.29300578685E+03  0.47701366422E+03  0.00000000000E+00 0. -1.
         -4    1    3    3    0  502 -0.11312011181E+03 -0.16537196911E+02  0.54651169561E+02  0.12671380711E+03  0.00000000000E+00 0.  1.
         13    1    5    5    0    0 -0.31412469358E+02 -0.51984063272E+02  0.15158292045E+03  0.16329870740E+03  0.00000000000E+00 0. -1.
        -13    1    5    5    0    0 -0.37246633453E+02 -0.70950049254E+02  0.38522723799E+02  0.88911312225E+02  0.00000000000E+00 0.  1.
          2    1    6    6  503    0  0.10010555894E+03  0.96407284143E+02 -0.96413201627E+02  0.16914784307E+03  0.00000000000E+00 0.  1.
         -2    1    6    6    0  503  0.42088090681E+03  0.20624516854E+03 -0.43411476406E+03  0.63885321917E+03  0.00000000000E+00 0. -1.
<mgrwt>
<rscale>  0 0.16639228E+04</rscale>
<asrwt>0</asrwt>
<pdfrwt beam="1">  1        1 0.12855178E+00 0.16639228E+04</pdfrwt>
<pdfrwt beam="2">  1       -2 0.12743876E+00 0.16639228E+04</pdfrwt>
<totfact> 0.78662032E+00</totfact>
</mgrwt>
</event>
<event>
12    5  0.5297412E-008  0.3791417E+04  0.7818608E-02  0.8047999E-01
          1   -1    0    0  501    0  0.00000000000E+00  0.00000000000E+00  0.12247093814E+04  0.12247093814E+04  0.00000000000E+00 0. -1.
         -2   -1    0    0    0  501 -0.00000000000E+00 -0.00000000000E+00 -0.29343379537E+04  0.29343379537E+04  0.00000000000E+00 0.  1.
        -24    2    1    2    0    0  0.13319163561E+04  0.16332341611E+03 -0.21020146293E+04  0.24954852387E+04  0.91133729982E+02 0.  0.
        254    2    1    2    0    0 -0.13319163561E+04 -0.16332341611E+03  0.39238605694E+03  0.16635620964E+04  0.90155216870E+03 0.  0.
         23    2    4    4    0    0 -0.12369768007E+04  0.86854538524E+02  0.52474688711E+03  0.13502728677E+04  0.10110492276E+03 0.  0.
         23    2    4    4    0    0 -0.94939555435E+02 -0.25017795463E+03 -0.13236083017E+03  0.31328922868E+03  0.95016963104E+02 0.  0.
          3    1    3    3  502    0  0.22536540515E+03  0.51855247634E+02 -0.40912242079E+03  0.46995711266E+03  0.00000000000E+00 0. -1.
         -4    1    3    3    0  502  0.11065509510E+04  0.11146816847E+03 -0.16928922085E+04  0.20255281260E+04  0.00000000000E+00 0.  1.
         13    1    5    5    0    0 -0.66110560228E+03  0.51843445544E+02  0.33490996423E+03  0.74290850335E+03  0.00000000000E+00 0.  1.
        -13    1    5    5    0    0 -0.57587119843E+03  0.35011092980E+02  0.18983692288E+03  0.60736436437E+03  0.00000000000E+00 0. -1.
          3    1    6    6  503    0 -0.10088733801E+02 -0.15713122604E+03 -0.63613650128E+02  0.16981961379E+03  0.00000000000E+00 0. -1.
         -3    1    6    6    0  503 -0.84850821634E+02 -0.93046728591E+02 -0.68747180041E+02  0.14346961489E+03  0.00000000000E+00 0.  1.
<mgrwt>
<rscale>  0 0.37914173E+04</rscale>
<asrwt>0</asrwt>
<pdfrwt beam="1">  1        1 0.18841683E+00 0.37914173E+04</pdfrwt>
<pdfrwt beam="2">  1       -2 0.45143661E+00 0.37914173E+04</pdfrwt>
<totfact> 0.24315323E-02</totfact>
</mgrwt>
</event>
<event>
12    5  0.5297412E-008  0.1324430E+04  0.7818608E-02  0.9010413E-01
          1   -1    0    0  501    0  0.00000000000E+00  0.00000000000E+00  0.14289127865E+04  0.14289127865E+04  0.00000000000E+00 0. -1.
         -4   -1    0    0    0  501 -0.00000000000E+00 -0.00000000000E+00 -0.30689670882E+03  0.30689670882E+03  0.00000000000E+00 0.  1.
        -24    2    1    2    0    0 -0.98672788734E+02  0.32524959104E+03  0.38788531821E+03  0.52205066740E+03  0.80983106530E+02 0.  0.
        254    2    1    2    0    0  0.98672788734E+02 -0.32524959104E+03  0.73413075945E+03  0.12137588279E+04  0.90484192245E+03 0.  0.
         23    2    4    4    0    0  0.40547128620E+03 -0.10996470408E+03  0.70586437401E+03  0.82640190209E+03  0.90533911910E+02 0.  0.
         23    2    4    4    0    0 -0.30679849746E+03 -0.21528488697E+03  0.28266385443E+02  0.38735692581E+03  0.93666956969E+02 0.  0.
          3    1    3    3  502    0 -0.61946166064E+02  0.29538668971E+03  0.32826573170E+03  0.44592489789E+03  0.00000000000E+00 0. -1.
         -2    1    3    3    0  502 -0.36726622669E+02  0.29862901334E+02  0.59619586509E+02  0.76125769515E+02  0.00000000000E+00 0.  1.
         13    1    5    5    0    0  0.40514548346E+03 -0.98473469120E+02  0.67411541846E+03  0.79263578287E+03  0.00000000000E+00 0.  1.
        -13    1    5    5    0    0  0.32580273986E+00 -0.11491234959E+02  0.31748955552E+02  0.33766119217E+02  0.00000000000E+00 0. -1.
          3    1    6    6  503    0 -0.43696962352E+02 -0.22318271359E+02 -0.27649143611E+02  0.56320554842E+02  0.00000000000E+00 0. -1.
         -3    1    6    6    0  503 -0.26310153511E+03 -0.19296661561E+03  0.55915529054E+02  0.33103637097E+03  0.00000000000E+00 0.  1.
<mgrwt>
<rscale>  0 0.13244299E+04</rscale>
<asrwt>0</asrwt>
<pdfrwt beam="1">  1        1 0.21983273E+00 0.13244299E+04</pdfrwt>
<pdfrwt beam="2">  1       -4 0.47214879E-01 0.13244299E+04</pdfrwt>
<totfact> 0.15357850E+01</totfact>
</mgrwt>
</event>
<event>
12    5  0.5297412E-008  0.1810452E+04  0.7818608E-02  0.8700761E-01
         -2   -1    0    0    0  501 -0.00000000000E+00  0.00000000000E+00  0.49851198043E+03  0.49851198043E+03  0.00000000000E+00 0.  1.
          1   -1    0    0  501    0  0.00000000000E+00 -0.00000000000E+00 -0.16437597370E+04  0.16437597370E+04  0.00000000000E+00 0. -1.
        -24    2    1    2    0    0  0.11155646606E+02  0.32448031602E+03 -0.12481722350E+04  0.12922360788E+04  0.80797470128E+02 0.  0.
        254    2    1    2    0    0 -0.11155646606E+02 -0.32448031602E+03  0.10292447844E+03  0.85003563861E+03  0.77881654754E+03 0.  0.
         23    2    4    4    0    0 -0.15832036611E+03 -0.28963821332E+03  0.38657192204E+03  0.51649067553E+03  0.91482971439E+02 0.  0.
         23    2    4    4    0    0  0.14716471951E+03 -0.34842102700E+02 -0.28364744359E+03  0.33354496308E+03  0.89022150910E+02 0.  0.
          1    1    3    3  502    0  0.31311512150E+02  0.18495141103E+03 -0.83022690246E+03  0.85115459512E+03  0.00000000000E+00 0. -1.
         -4    1    3    3    0  502 -0.20155865544E+02  0.13952890499E+03 -0.41794533253E+03  0.44108148366E+03  0.00000000000E+00 0.  1.
         13    1    5    5    0    0 -0.60607887156E+02 -0.13298972740E+03  0.23896177205E+03  0.28011124947E+03  0.00000000000E+00 0.  1.
        -13    1    5    5    0    0 -0.97712478959E+02 -0.15664848592E+03  0.14761014998E+03  0.23637942606E+03  0.00000000000E+00 0. -1.
          1    1    6    6  503    0  0.97642830914E+02 -0.10717010645E+02 -0.93629884921E+02  0.13570383965E+03  0.00000000000E+00 0. -1.
         -1    1    6    6    0  503  0.49521888595E+02 -0.24125092055E+02 -0.19001755867E+03  0.19784112343E+03  0.00000000000E+00 0.  1.
<mgrwt>
<rscale>  0 0.18104518E+04</rscale>
<asrwt>0</asrwt>
<pdfrwt beam="1">  1        1 0.25288611E+00 0.18104518E+04</pdfrwt>
<pdfrwt beam="2">  1       -2 0.76694151E-01 0.18104518E+04</pdfrwt>
<totfact> 0.65471263E+00</totfact>
</mgrwt>
</event>
<event>
12    5  0.5297412E-008  0.1322610E+04  0.7818608E-02  0.9011825E-01
         -2   -1    0    0    0  501 -0.00000000000E+00  0.00000000000E+00  0.69951756825E+03  0.69951756825E+03  0.00000000000E+00 0.  1.
          1   -1    0    0  501    0  0.00000000000E+00 -0.00000000000E+00 -0.62517984625E+03  0.62517984625E+03  0.00000000000E+00 0. -1.
        -24    2    1    2    0    0 -0.32960660852E+01  0.34202708106E+03 -0.10242670466E+03  0.36558974550E+03  0.78557265479E+02 0.  0.
        254    2    1    2    0    0  0.32960660852E+01 -0.34202708106E+03  0.17676442667E+03  0.95910766900E+03  0.87843523949E+03 0.  0.
         23    2    4    4    0    0  0.23274440352E+03  0.10867290825E+03 -0.18641819310E+03  0.32996769778E+03  0.90261733330E+02 0.  0.
         23    2    4    4    0    0 -0.22944833744E+03 -0.45069998930E+03  0.36318261976E+03  0.62913997122E+03  0.90213458941E+02 0.  0.
          1    1    3    3  502    0 -0.48351415060E+00  0.60729019005E+01  0.96590906645E+01  0.11419805423E+02  0.00000000000E+00 0. -1.
         -2    1    3    3    0  502 -0.28125519346E+01  0.33595417916E+03 -0.11208579533E+03  0.35416994008E+03  0.00000000000E+00 0.  1.
         13    1    5    5    0    0  0.88602991289E+02  0.74874452967E+01 -0.28366564868E+02  0.93333884013E+02  0.00000000000E+00 0. -1.
        -13    1    5    5    0    0  0.14414141223E+03  0.10118546295E+03 -0.15805162823E+03  0.23663381377E+03  0.00000000000E+00 0.  1.
          1    1    6    6  503    0 -0.11653202616E+03 -0.13494111670E+03  0.13174450768E+03  0.22168769339E+03  0.00000000000E+00 0. -1.
         -1    1    6    6    0  503 -0.11291631128E+03 -0.31575887261E+03  0.23143811209E+03  0.40745227783E+03  0.00000000000E+00 0.  1.
<mgrwt>
<rscale>  0 0.13226100E+04</rscale>
<asrwt>0</asrwt>
<pdfrwt beam="1">  1        1 0.96181515E-01 0.13226100E+04</pdfrwt>
<pdfrwt beam="2">  1       -2 0.10761809E+00 0.13226100E+04</pdfrwt>
<totfact> 0.19183687E+01</totfact>
</mgrwt>
</event>
<event>
12    5  0.5297412E-008  0.2172464E+04  0.7818608E-02  0.8529978E-01
          1   -1    0    0  501    0  0.00000000000E+00  0.00000000000E+00  0.23938488651E+04  0.23938488651E+04  0.00000000000E+00 0. -1.
         -2   -1    0    0    0  501 -0.00000000000E+00 -0.00000000000E+00 -0.49288803563E+03  0.49288803563E+03  0.00000000000E+00 0.  1.
        -24    2    1    2    0    0 -0.61673940641E+03  0.11483033784E+03  0.16549591646E+04  0.17715697909E+04  0.77564074536E+02 0.  0.
        254    2    1    2    0    0  0.61673940641E+03 -0.11483033784E+03  0.24600166491E+03  0.11151671099E+04  0.88855352222E+03 0.  0.
         23    2    4    4    0    0  0.46205492587E+03  0.35161951925E+03  0.12137749285E+03  0.60006263958E+03  0.90618071066E+02 0.  0.
         23    2    4    4    0    0  0.15468448054E+03 -0.46644985709E+03  0.12462417206E+03  0.51510447028E+03  0.91097054496E+02 0.  0.
          1    1    3    3  502    0 -0.58388282762E+03  0.96791458080E+02  0.15101085724E+04  0.16219481013E+04  0.00000000000E+00 0. -1.
         -2    1    3    3    0  502 -0.32856578794E+02  0.18038879756E+02  0.14485059218E+03  0.14962168963E+03  0.00000000000E+00 0.  1.
         13    1    5    5    0    0  0.94357707602E+02  0.10019721897E+03 -0.27262095964E+01  0.13766005917E+03  0.00000000000E+00 0. -1.
        -13    1    5    5    0    0  0.36769721827E+03  0.25142230029E+03  0.12410370245E+03  0.46240258040E+03  0.00000000000E+00 0.  1.
          2    1    6    6  503    0  0.56891934595E+00 -0.10142461074E+03  0.64496350190E+01  0.10163106378E+03  0.00000000000E+00 0. -1.
         -2    1    6    6    0  503  0.15411556120E+03 -0.36502524635E+03  0.11817453704E+03  0.41347340649E+03  0.00000000000E+00 0.  1.
<mgrwt>
<rscale>  0 0.21724635E+04</rscale>
<asrwt>0</asrwt>
<pdfrwt beam="1">  1        1 0.36828443E+00 0.21724635E+04</pdfrwt>
<pdfrwt beam="2">  1       -2 0.75828930E-01 0.21724635E+04</pdfrwt>
<totfact> 0.20075050E+00</totfact>
</mgrwt>
</event>
<event>
12    5  0.5297412E-008  0.1254797E+04  0.7818608E-02  0.9066200E-01
          1   -1    0    0  501    0  0.00000000000E+00  0.00000000000E+00  0.75679870792E+03  0.75679870792E+03  0.00000000000E+00 0. -1.
         -2   -1    0    0    0  501 -0.00000000000E+00 -0.00000000000E+00 -0.52012355408E+03  0.52012355408E+03  0.00000000000E+00 0.  1.
        -24    2    1    2    0    0 -0.13708637375E+03  0.94852159441E+02  0.30853073308E+03  0.36116509738E+03  0.86367866103E+02 0.  0.
        254    2    1    2    0    0  0.13708637375E+03 -0.94852159441E+02 -0.71855579233E+02  0.91575716462E+03  0.89758473375E+03 0.  0.
         23    2    4    4    0    0  0.31439653453E+03 -0.23869606748E+03  0.27569492984E+03  0.49016453409E+03  0.91829094458E+02 0.  0.
         23    2    4    4    0    0 -0.17731016077E+03  0.14384390804E+03 -0.34755050907E+03  0.42559263052E+03  0.90596731767E+02 0.  0.
          1    1    3    3  502    0 -0.10957586119E+03  0.94742999953E+02  0.29866371299E+03  0.33193842629E+03  0.00000000000E+00 0. -1.
         -2    1    3    3    0  502 -0.27510512569E+02  0.10915948777E+00  0.98670200908E+01  0.29226671091E+02  0.00000000000E+00 0.  1.
         13    1    5    5    0    0  0.19852590929E+02  0.59119065918E+00  0.36573501522E+02  0.41618456081E+02  0.00000000000E+00 0. -1.
        -13    1    5    5    0    0  0.29454394360E+03 -0.23928725814E+03  0.23912142832E+03  0.44854607801E+03  0.00000000000E+00 0.  1.
          2    1    6    6  503    0 -0.16948141707E+03  0.14080147036E+03 -0.35260671933E+03  0.41578901297E+03  0.00000000000E+00 0.  1.
         -2    1    6    6    0  503 -0.78287436994E+01  0.30424376769E+01  0.50562102601E+01  0.98036175529E+01  0.00000000000E+00 0. -1.
<mgrwt>
<rscale>  0 0.12547969E+04</rscale>
<asrwt>0</asrwt>
<pdfrwt beam="1">  1        1 0.11643057E+00 0.12547969E+04</pdfrwt>
<pdfrwt beam="2">  1       -2 0.80019008E-01 0.12547969E+04</pdfrwt>
<totfact> 0.28815784E+01</totfact>
</mgrwt>
</event>
<event>
12    5  0.5297412E-008  0.1792355E+04  0.7818608E-02  0.8710376E-01
         -2   -1    0    0    0  501 -0.00000000000E+00  0.00000000000E+00  0.87493145267E+03  0.87493145267E+03  0.00000000000E+00 0.  1.
          1   -1    0    0  501    0  0.00000000000E+00 -0.00000000000E+00 -0.91793956784E+03  0.91793956784E+03  0.00000000000E+00 0. -1.
        -24    2    1    2    0    0 -0.63671730209E+02  0.64656395880E+03  0.24999936061E+03  0.70075558809E+03  0.80372084009E+02 0.  0.
        254    2    1    2    0    0  0.63671730209E+02 -0.64656395880E+03 -0.29300747579E+03  0.10921154324E+04  0.82750449838E+03 0.  0.
         23    2    4    4    0    0  0.32740081741E+03 -0.42239052638E+03  0.10933535475E+03  0.55355241134E+03  0.94132886263E+02 0.  0.
         23    2    4    4    0    0 -0.26372908720E+03 -0.22417343241E+03 -0.40234283054E+03  0.53856302109E+03  0.91452802941E+02 0.  0.
          1    1    3    3  502    0  0.34181028709E+01  0.13709307019E+03  0.23293727605E+02  0.13909993195E+03  0.00000000000E+00 0. -1.
         -2    1    3    3    0  502 -0.67089833080E+02  0.50947088860E+03  0.22670563301E+03  0.56165565614E+03  0.00000000000E+00 0.  1.
         13    1    5    5    0    0  0.10263447035E+03 -0.17799688507E+03  0.50677708867E+01  0.20552957914E+03  0.00000000000E+00 0. -1.
        -13    1    5    5    0    0  0.22476634706E+03 -0.24439364131E+03  0.10426758386E+03  0.34802283219E+03  0.00000000000E+00 0.  1.
          2    1    6    6  503    0 -0.89193963758E+02 -0.91776710485E+02 -0.87606923819E+02  0.15509191101E+03  0.00000000000E+00 0. -1.
         -2    1    6    6    0  503 -0.17453512345E+03 -0.13239672193E+03 -0.31473590672E+03  0.38347111009E+03  0.00000000000E+00 0.  1.
<mgrwt>
<rscale>  0 0.17923551E+04</rscale>
<asrwt>0</asrwt>
<pdfrwt beam="1">  1        1 0.14122147E+00 0.17923551E+04</pdfrwt>
<pdfrwt beam="2">  1       -2 0.13460484E+00 0.17923551E+04</pdfrwt>
<totfact> 0.57856381E+00</totfact>
</mgrwt>
</event>
<event>
12    5  0.5297412E-008  0.1398796E+04  0.7818608E-02  0.8954691E-01
          1   -1    0    0  501    0  0.00000000000E+00  0.00000000000E+00  0.18938908695E+04  0.18938908695E+04  0.00000000000E+00 0. -1.
         -2   -1    0    0    0  501 -0.00000000000E+00 -0.00000000000E+00 -0.25828179024E+03  0.25828179024E+03  0.00000000000E+00 0.  1.
        -24    2    1    2    0    0 -0.95874437377E+02  0.14071425455E+02 -0.12253287670E+03  0.17513468977E+03  0.79170328599E+02 0.  0.
        254    2    1    2    0    0  0.95874437377E+02 -0.14071425455E+02  0.17581419560E+04  0.19770379700E+04  0.89901395131E+03 0.  0.
         23    2    4    4    0    0  0.42294767040E+03 -0.88738377689E+02  0.14383712059E+04  0.15046036567E+04  0.90339395316E+02 0.  0.
         23    2    4    4    0    0 -0.32707323302E+03  0.74666952234E+02  0.31977075009E+03  0.47243431326E+03  0.91590360956E+02 0.  0.
          1    1    3    3  502    0 -0.21372469518E+02 -0.29213679626E+02 -0.20542231551E+02  0.41619764628E+02  0.00000000000E+00 0. -1.
         -2    1    3    3    0  502 -0.74501967859E+02  0.43285105081E+02 -0.10199064515E+03  0.13351492514E+03  0.00000000000E+00 0.  1.
         13    1    5    5    0    0  0.34710051752E+03 -0.10553318788E+03  0.12216411406E+04  0.12743716488E+04  0.00000000000E+00 0.  1.
        -13    1    5    5    0    0  0.75847152873E+02  0.16794810189E+02  0.21673006528E+03  0.23023200787E+03  0.00000000000E+00 0. -1.
          1    1    6    6  503    0 -0.31238267445E+02  0.27456455475E+02  0.74233284636E+02  0.85089757598E+02  0.00000000000E+00 0. -1.
         -1    1    6    6    0  503 -0.29583496557E+03  0.47210496759E+02  0.24553746545E+03  0.38734455566E+03  0.00000000000E+00 0.  1.
<mgrwt>
<rscale>  0 0.13987959E+04</rscale>
<asrwt>0</asrwt>
<pdfrwt beam="1">  1        1 0.29136782E+00 0.13987959E+04</pdfrwt>
<pdfrwt beam="2">  1       -2 0.39735661E-01 0.13987959E+04</pdfrwt>
<totfact> 0.18051335E+01</totfact>
</mgrwt>
</event>
<event>
12    5  0.5297412E-008  0.2616065E+04  0.7818608E-02  0.8362765E-01
          1   -1    0    0  501    0  0.00000000000E+00  0.00000000000E+00  0.11100102272E+04  0.11100102272E+04  0.00000000000E+00 0. -1.
         -2   -1    0    0    0  501 -0.00000000000E+00 -0.00000000000E+00 -0.15413807888E+04  0.15413807888E+04  0.00000000000E+00 0.  1.
        -24    2    1    2    0    0 -0.36053613976E+02  0.11481099218E+04 -0.18724177106E+03  0.11666517526E+04  0.80997379034E+02 0.  0.
        254    2    1    2    0    0  0.36053613976E+02 -0.11481099218E+04 -0.24412879052E+03  0.14847392633E+04  0.90851282770E+03 0.  0.
         23    2    4    4    0    0 -0.40060471167E+03 -0.76866080738E+03 -0.73701375524E+02  0.87470915217E+03  0.91436515270E+02 0.  0.
         23    2    4    4    0    0  0.43665832564E+03 -0.37944911442E+03 -0.17042741500E+03  0.61003011116E+03  0.91864622968E+02 0.  0.
          1    1    3    3  502    0  0.15095841188E+02  0.15295659797E+03 -0.44506843826E+02  0.16001395074E+03  0.00000000000E+00 0. -1.
         -2    1    3    3    0  502 -0.51149455164E+02  0.99515332382E+03 -0.14273492723E+03  0.10066378019E+04  0.00000000000E+00 0.  1.
         13    1    5    5    0    0 -0.39698472912E+03 -0.73993168354E+03 -0.57830936337E+02  0.84168889066E+03  0.00000000000E+00 0. -1.
        -13    1    5    5    0    0 -0.36199825452E+01 -0.28729123842E+02 -0.15870439187E+02  0.33020261512E+02  0.00000000000E+00 0.  1.
          1    1    6    6  503    0  0.38895452717E+03 -0.29326084244E+03 -0.13733685977E+03  0.50611160722E+03  0.00000000000E+00 0. -1.
         -1    1    6    6    0  503  0.47703798475E+02 -0.86188271978E+02 -0.33090555228E+02  0.10391850394E+03  0.00000000000E+00 0.  1.
<mgrwt>
<rscale>  0 0.26160646E+04</rscale>
<asrwt>0</asrwt>
<pdfrwt beam="1">  1        1 0.17077080E+00 0.26160646E+04</pdfrwt>
<pdfrwt beam="2">  1       -2 0.23713551E+00 0.26160646E+04</pdfrwt>
<totfact> 0.74197069E-01</totfact>
</mgrwt>
</event>
<event>
12    5  0.5297412E-008  0.1263125E+04  0.7818608E-02  0.9059330E-01
          1   -1    0    0  501    0  0.00000000000E+00  0.00000000000E+00  0.84671692769E+03  0.84671692769E+03  0.00000000000E+00 0. -1.
         -2   -1    0    0    0  501 -0.00000000000E+00 -0.00000000000E+00 -0.47107962813E+03  0.47107962813E+03  0.00000000000E+00 0.  1.
        -24    2    1    2    0    0  0.24645228506E+03  0.24337119844E+02  0.24695734982E+03  0.35859981142E+03  0.79214063826E+02 0.  0.
        254    2    1    2    0    0 -0.24645228506E+03 -0.24337119844E+02  0.12867994973E+03  0.95919674440E+03  0.91769757589E+03 0.  0.
         23    2    4    4    0    0 -0.61479784225E+02 -0.41889564672E+03 -0.11920135589E+03  0.44906782411E+03  0.90551756982E+02 0.  0.
         23    2    4    4    0    0 -0.18497250084E+03  0.39455852688E+03  0.24788130562E+03  0.51012892029E+03  0.94313924929E+02 0.  0.
          3    1    3    3  502    0  0.19838888545E+03  0.73151951514E+01  0.23224446790E+03  0.30553093922E+03  0.00000000000E+00 0. -1.
         -4    1    3    3    0  502  0.48063399611E+02  0.17021924692E+02  0.14712881919E+02  0.53068872201E+02  0.00000000000E+00 0.  1.
         13    1    5    5    0    0 -0.66025316924E+02 -0.15110534030E+03 -0.52531832535E+02  0.17306576718E+03  0.00000000000E+00 0.  1.
        -13    1    5    5    0    0  0.45455326986E+01 -0.26779030643E+03 -0.66669523355E+02  0.27600205693E+03  0.00000000000E+00 0. -1.
          2    1    6    6  503    0 -0.38263200822E+02  0.21719342276E+02  0.13875317860E+02  0.46133792515E+02  0.00000000000E+00 0. -1.
         -2    1    6    6    0  503 -0.14670930001E+03  0.37283918460E+03  0.23400598776E+03  0.46399512777E+03  0.00000000000E+00 0.  1.
<mgrwt>
<rscale>  0 0.12631248E+04</rscale>
<asrwt>0</asrwt>
<pdfrwt beam="1">  1        1 0.13026414E+00 0.12631248E+04</pdfrwt>
<pdfrwt beam="2">  1       -2 0.72473789E-01 0.12631248E+04</pdfrwt>
<totfact> 0.29978565E+01</totfact>
</mgrwt>
</event>
<event>
12    5  0.5297412E-008  0.2154937E+04  0.7818608E-02  0.8537422E-01
         -2   -1    0    0    0  501 -0.00000000000E+00  0.00000000000E+00  0.76645249547E+03  0.76645249547E+03  0.00000000000E+00 0.  1.
          1   -1    0    0  501    0  0.00000000000E+00 -0.00000000000E+00 -0.15146900755E+04  0.15146900755E+04  0.00000000000E+00 0. -1.
        -24    2    1    2    0    0  0.53096721605E+03  0.68619249634E+03 -0.11198573496E+03  0.87846938554E+03  0.79883226850E+02 0.  0.
        254    2    1    2    0    0 -0.53096721605E+03 -0.68619249634E+03 -0.63625184509E+03  0.14026731854E+04  0.89993851357E+03 0.  0.
         23    2    4    4    0    0 -0.55400448501E+03 -0.23685794680E+02 -0.41369436227E+03  0.69771610119E+03  0.90458533096E+02 0.  0.
         23    2    4    4    0    0  0.23037268954E+02 -0.66250670166E+03 -0.22255748282E+03  0.70495708425E+03  0.89368965329E+02 0.  0.
          3    1    3    3  502    0  0.24316848785E+03  0.29027261291E+03 -0.85998415118E+02  0.38831022481E+03  0.00000000000E+00 0. -1.
         -4    1    3    3    0  502  0.28779872821E+03  0.39591988343E+03 -0.25987319838E+02  0.49015916073E+03  0.00000000000E+00 0.  1.
         13    1    5    5    0    0 -0.27782065930E+02  0.56978261541E+01 -0.10986294173E+01  0.28381603140E+02  0.00000000000E+00 0.  1.
        -13    1    5    5    0    0 -0.52622241908E+03 -0.29383620834E+02 -0.41259573285E+03  0.66933449805E+03  0.00000000000E+00 0. -1.
          2    1    6    6  503    0 -0.17264188896E+02 -0.28356055616E+03 -0.58427525203E+02  0.29003175158E+03  0.00000000000E+00 0.  1.
         -2    1    6    6    0  503  0.40301457850E+02 -0.37894614550E+03 -0.16412995761E+03  0.41492533266E+03  0.00000000000E+00 0. -1.
<mgrwt>
<rscale>  0 0.21549366E+04</rscale>
<asrwt>0</asrwt>
<pdfrwt beam="1">  1        1 0.23302924E+00 0.21549366E+04</pdfrwt>
<pdfrwt beam="2">  1       -2 0.11791577E+00 0.21549366E+04</pdfrwt>
<totfact> 0.28474941E+00</totfact>
</mgrwt>
</event>
<event>
12    5  0.5297412E-008  0.1237547E+04  0.7818608E-02  0.9080612E-01
          1   -1    0    0  501    0  0.00000000000E+00  0.00000000000E+00  0.17568214768E+04  0.17568214768E+04  0.00000000000E+00 0. -1.
         -2   -1    0    0    0  501 -0.00000000000E+00 -0.00000000000E+00 -0.21793953664E+03  0.21793953664E+03  0.00000000000E+00 0.  1.
        -24    2    1    2    0    0  0.20275960300E+03  0.19968711742E+03  0.38973864096E+03  0.48915632986E+03  0.79945639783E+02 0.  0.
        254    2    1    2    0    0 -0.20275960300E+03 -0.19968711742E+03  0.11491432992E+04  0.14856046835E+04  0.89749905417E+03 0.  0.
         23    2    4    4    0    0 -0.23524842839E+03  0.28842850733E+03  0.24948468932E+03  0.45760792431E+03  0.92895507380E+02 0.  0.
         23    2    4    4    0    0  0.32488825385E+02 -0.48811562474E+03  0.89965860984E+03  0.10279967592E+04  0.89885125606E+02 0.  0.
          1    1    3    3  502    0  0.19176823294E+03  0.16390579198E+03  0.36705863832E+03  0.44538995025E+03  0.00000000000E+00 0. -1.
         -2    1    3    3    0  502  0.10991370056E+02  0.35781325433E+02  0.22680002634E+02  0.43766379619E+02  0.00000000000E+00 0.  1.
         13    1    5    5    0    0 -0.92694117272E+02  0.12692045111E+03  0.16018404096E+03  0.22441017639E+03  0.00000000000E+00 0. -1.
        -13    1    5    5    0    0 -0.14255431111E+03  0.16150805622E+03  0.89300648359E+02  0.23319774793E+03  0.00000000000E+00 0.  1.
          3    1    6    6  503    0  0.59254430788E+00 -0.40561370864E+03  0.68909720719E+03  0.79961102587E+03  0.00000000000E+00 0. -1.
         -3    1    6    6    0  503  0.31896281077E+02 -0.82501916106E+02  0.21056140265E+03  0.22838573334E+03  0.00000000000E+00 0.  1.
<mgrwt>
<rscale>  0 0.12375473E+04</rscale>
<asrwt>0</asrwt>
<pdfrwt beam="1">  1        1 0.27028022E+00 0.12375473E+04</pdfrwt>
<pdfrwt beam="2">  1       -2 0.33529161E-01 0.12375473E+04</pdfrwt>
<totfact> 0.31418451E+01</totfact>
</mgrwt>
</event>
<event>
12    5  0.5297412E-008  0.1077802E+04  0.7818608E-02  0.9227102E-01
          3   -1    0    0  501    0  0.00000000000E+00  0.00000000000E+00  0.11229975558E+04  0.11229975558E+04  0.00000000000E+00 0. -1.
         -4   -1    0    0    0  501 -0.00000000000E+00 -0.00000000000E+00 -0.25860626477E+03  0.25860626477E+03  0.00000000000E+00 0.  1.
        -24    2    1    2    0    0  0.12485896251E+03  0.75825196487E+01  0.24211821140E+03  0.28429416222E+03  0.80961023077E+02 0.  0.
        254    2    1    2    0    0 -0.12485896251E+03 -0.75825196487E+01  0.62227307958E+03  0.10973096583E+04  0.89510750500E+03 0.  0.
         23    2    4    4    0    0 -0.37903775315E+03 -0.25646503702E+03  0.55156165122E+03  0.72244380177E+03  0.90889262806E+02 0.  0.
         23    2    4    4    0    0  0.25417879064E+03  0.24888251737E+03  0.70711428368E+02  0.37486585653E+03  0.94736155883E+02 0.  0.
          3    1    3    3  502    0  0.13278268986E+03  0.70235145330E+01  0.24225707164E+03  0.27634952730E+03  0.00000000000E+00 0. -1.
         -4    1    3    3    0  502 -0.79237273475E+01  0.55900511573E+00 -0.13886023809E+00  0.79446349169E+01  0.00000000000E+00 0.  1.
         13    1    5    5    0    0 -0.31872243743E+03 -0.17240295804E+03  0.41136824644E+03  0.54820671854E+03  0.00000000000E+00 0. -1.
        -13    1    5    5    0    0 -0.60315315718E+02 -0.84062078971E+02  0.14019340477E+03  0.17423708323E+03  0.00000000000E+00 0.  1.
          4    1    6    6  503    0  0.19904820835E+03  0.23751554355E+03  0.45606932153E+02  0.31323124834E+03  0.00000000000E+00 0. -1.
         -4    1    6    6    0  503  0.55130582285E+02  0.11366973816E+02  0.25104496215E+02  0.61634608192E+02  0.00000000000E+00 0.  1.
<mgrwt>
<rscale>  0 0.10778018E+04</rscale>
<asrwt>0</asrwt>
<pdfrwt beam="1">  1        3 0.17276885E+00 0.10778018E+04</pdfrwt>
<pdfrwt beam="2">  1       -4 0.39785580E-01 0.10778018E+04</pdfrwt>
<totfact> 0.31195628E+00</totfact>
</mgrwt>
</event>
<event>
12    5  0.5297412E-008  0.2007873E+04  0.7818608E-02  0.8602949E-01
         -2   -1    0    0    0  501 -0.00000000000E+00  0.00000000000E+00  0.23000720750E+04  0.23000720750E+04  0.00000000000E+00 0.  1.
          1   -1    0    0  501    0  0.00000000000E+00 -0.00000000000E+00 -0.43819865324E+03  0.43819865324E+03  0.00000000000E+00 0. -1.
        -24    2    1    2    0    0 -0.11278611942E+03 -0.42939154167E+03  0.15989515365E+04  0.16611524792E+04  0.75390571876E+02 0.  0.
        254    2    1    2    0    0  0.11278611942E+03  0.42939154167E+03  0.26292188519E+03  0.10771182490E+04  0.94549352178E+03 0.  0.
         23    2    4    4    0    0 -0.28466547248E+03  0.42396733054E+02 -0.18855639973E+03  0.35599394513E+03  0.91357861692E+02 0.  0.
         23    2    4    4    0    0  0.39745159190E+03  0.38699480861E+03  0.45147828492E+03  0.72112430383E+03  0.91950367101E+02 0.  0.
          1    1    3    3  502    0 -0.14363281151E+02 -0.69216100539E+02  0.37156030459E+03  0.37822510806E+03  0.00000000000E+00 0. -1.
         -2    1    3    3    0  502 -0.98422838271E+02 -0.36017544113E+03  0.12273912319E+04  0.12829273712E+04  0.00000000000E+00 0.  1.
         13    1    5    5    0    0 -0.71657314632E+02  0.46206001341E+02 -0.79872000136E+02  0.11683022599E+03  0.00000000000E+00 0.  1.
        -13    1    5    5    0    0 -0.21300815785E+03 -0.38092682868E+01 -0.10868439960E+03  0.23916371914E+03  0.00000000000E+00 0. -1.
          4    1    6    6  503    0  0.32602540247E+03  0.35896496469E+03  0.37744843715E+03  0.61450446023E+03  0.00000000000E+00 0. -1.
         -4    1    6    6    0  503  0.71426189438E+02  0.28029843919E+02  0.74029847775E+02  0.10661984360E+03  0.00000000000E+00 0.  1.
<mgrwt>
<rscale>  0 0.20078730E+04</rscale>
<asrwt>0</asrwt>
<pdfrwt beam="1">  1        1 0.67415179E-01 0.20078730E+04</pdfrwt>
<pdfrwt beam="2">  1       -2 0.35385724E+00 0.20078730E+04</pdfrwt>
<totfact> 0.63496201E-01</totfact>
</mgrwt>
</event>
<event>
12    5  0.5297412E-008  0.1452650E+04  0.7818608E-02  0.8916565E-01
          1   -1    0    0  501    0  0.00000000000E+00  0.00000000000E+00  0.53406240366E+03  0.53406240366E+03  0.00000000000E+00 0. -1.
         -2   -1    0    0    0  501 -0.00000000000E+00 -0.00000000000E+00 -0.98780262005E+03  0.98780262005E+03  0.00000000000E+00 0.  1.
        -24    2    1    2    0    0 -0.26365170865E+03  0.96499968672E+01 -0.57336503232E+03  0.63572997572E+03  0.76156390675E+02 0.  0.
        254    2    1    2    0    0  0.26365170865E+03 -0.96499968672E+01  0.11962481592E+03  0.88613504798E+03  0.83744843469E+03 0.  0.
         23    2    4    4    0    0 -0.43889548837E+02  0.29325238175E+02  0.42748834159E+03  0.43955340924E+03  0.87605109956E+02 0.  0.
         23    2    4    4    0    0  0.30754125748E+03 -0.38975235042E+02 -0.30786352566E+03  0.44658163874E+03  0.92490624549E+02 0.  0.
          3    1    3    3  502    0 -0.19276500641E+02  0.62142404901E+01 -0.12175645200E+02  0.23631474729E+02  0.00000000000E+00 0. -1.
         -4    1    3    3    0  502 -0.24437520800E+03  0.34357563771E+01 -0.56118938712E+03  0.61209850100E+03  0.00000000000E+00 0.  1.
         13    1    5    5    0    0 -0.53532021835E+02  0.40614318826E+02  0.18875387116E+03  0.20035774039E+03  0.00000000000E+00 0. -1.
        -13    1    5    5    0    0  0.96424729977E+01 -0.11289080651E+02  0.23873447043E+03  0.23919566885E+03  0.00000000000E+00 0.  1.
          4    1    6    6  503    0  0.16513598690E+03 -0.66811737323E+02 -0.17862173292E+03  0.25226855905E+03  0.00000000000E+00 0. -1.
         -4    1    6    6    0  503  0.14240527058E+03  0.27836502281E+02 -0.12924179274E+03  0.19431307969E+03  0.00000000000E+00 0.  1.
<mgrwt>
<rscale>  0 0.14526503E+04</rscale>
<asrwt>0</asrwt>
<pdfrwt beam="1">  1        1 0.82163447E-01 0.14526503E+04</pdfrwt>
<pdfrwt beam="2">  1       -2 0.15196963E+00 0.14526503E+04</pdfrwt>
<totfact> 0.99310920E+00</totfact>
</mgrwt>
</event>
<event>
12    5  0.5297412E-008  0.1185182E+04  0.7818608E-02  0.9125927E-01
         -2   -1    0    0    0  501 -0.00000000000E+00  0.00000000000E+00  0.10634651049E+03  0.10634651049E+03  0.00000000000E+00 0.  1.
          1   -1    0    0  501    0  0.00000000000E+00 -0.00000000000E+00 -0.33020738597E+04  0.33020738597E+04  0.00000000000E+00 0. -1.
        -24    2    1    2    0    0 -0.11894094721E+02 -0.47496419683E+02 -0.14253929630E+04  0.14283380945E+04  0.77506348105E+02 0.  0.
        254    2    1    2    0    0  0.11894094721E+02  0.47496419683E+02 -0.17703343863E+04  0.19800822757E+04  0.88557585782E+03 0.  0.
         23    2    4    4    0    0 -0.99348861257E+02 -0.11347451108E+03 -0.17541436662E+04  0.17630037515E+04  0.91736389231E+02 0.  0.
         23    2    4    4    0    0  0.11124295598E+03  0.16097093076E+03 -0.16190720046E+02  0.21707852421E+03  0.92597572608E+02 0.  0.
          1    1    3    3  502    0 -0.21618899850E+02 -0.32023842798E+02 -0.13568710386E+04  0.13574210543E+04  0.00000000000E+00 0. -1.
         -2    1    3    3    0  502  0.97248051294E+01 -0.15472576885E+02 -0.68521924386E+02  0.70917040208E+02  0.00000000000E+00 0.  1.
         13    1    5    5    0    0 -0.11209128218E+03 -0.88478998632E+02 -0.12605015138E+04  0.12685649589E+04  0.00000000000E+00 0. -1.
        -13    1    5    5    0    0  0.12742420925E+02 -0.24995512446E+02 -0.49364215244E+03  0.49443879257E+03  0.00000000000E+00 0.  1.
          4    1    6    6  503    0  0.43001238902E+02  0.27493591223E+02  0.31243254652E+02  0.59842669281E+02  0.00000000000E+00 0.  1.
         -4    1    6    6    0  503  0.68241717077E+02  0.13347733954E+03 -0.47433974698E+02  0.15723585493E+03  0.00000000000E+00 0. -1.
<mgrwt>
<rscale>  0 0.11851819E+04</rscale>
<asrwt>0</asrwt>
<pdfrwt beam="1">  1        1 0.50801131E+00 0.11851819E+04</pdfrwt>
<pdfrwt beam="2">  1       -2 0.16361003E-01 0.11851819E+04</pdfrwt>
<totfact> 0.95557561E+00</totfact>
</mgrwt>
</event>
<event>
12    5  0.5297412E-008  0.1694037E+04  0.7818608E-02  0.8764772E-01
          1   -1    0    0  501    0  0.00000000000E+00  0.00000000000E+00  0.69015010941E+03  0.69015010941E+03  0.00000000000E+00 0. -1.
         -2   -1    0    0    0  501 -0.00000000000E+00 -0.00000000000E+00 -0.10395428657E+04  0.10395428657E+04  0.00000000000E+00 0.  1.
        -24    2    1    2    0    0  0.25381678648E+03 -0.47554730790E+03  0.16970875508E+03  0.57057526447E+03  0.78656644492E+02 0.  0.
        254    2    1    2    0    0 -0.25381678648E+03  0.47554730790E+03 -0.51910151141E+03  0.11591177107E+04  0.88516624705E+03 0.  0.
         23    2    4    4    0    0 -0.53016814951E+03  0.50743011195E+03 -0.42710773935E+03  0.85375923917E+03  0.88995686301E+02 0.  0.
         23    2    4    4    0    0  0.27635136304E+03 -0.31882804049E+02 -0.91993772064E+02  0.30535847152E+03  0.85990423791E+02 0.  0.
          3    1    3    3  502    0  0.24775624395E+03 -0.45263943473E+03  0.17741584466E+03  0.54565739821E+03  0.00000000000E+00 0. -1.
         -4    1    3    3    0  502  0.60605425284E+01 -0.22907873170E+02 -0.77070895789E+01  0.24917866254E+02  0.00000000000E+00 0.  1.
         13    1    5    5    0    0 -0.48421895859E+03  0.49154304142E+03 -0.40750304317E+03  0.80133718972E+03  0.00000000000E+00 0. -1.
        -13    1    5    5    0    0 -0.45949190922E+02  0.15887070527E+02 -0.19604696178E+02  0.52422049451E+02  0.00000000000E+00 0.  1.
          1    1    6    6  503    0  0.22932631691E+03  0.78821235283E+01 -0.68838549157E+02  0.23956509210E+03  0.00000000000E+00 0. -1.
         -1    1    6    6    0  503  0.47025046121E+02 -0.39764927578E+02 -0.23155222907E+02  0.65793379422E+02  0.00000000000E+00 0.  1.
<mgrwt>
<rscale>  0 0.16940373E+04</rscale>
<asrwt>0</asrwt>
<pdfrwt beam="1">  1        1 0.10617694E+00 0.16940373E+04</pdfrwt>
<pdfrwt beam="2">  1       -2 0.15992967E+00 0.16940373E+04</pdfrwt>
<totfact> 0.58489131E+00</totfact>
</mgrwt>
</event>
<event>
12    5  0.5297412E-008  0.2584390E+04  0.7818608E-02  0.8373523E-01
         -2   -1    0    0    0  501 -0.00000000000E+00  0.00000000000E+00  0.27678697149E+04  0.27678697149E+04  0.00000000000E+00 0.  1.
          1   -1    0    0  501    0  0.00000000000E+00 -0.00000000000E+00 -0.60326817378E+03  0.60326817378E+03  0.00000000000E+00 0. -1.
        -24    2    1    2    0    0  0.64973364114E+03 -0.91819885654E+03  0.77668367957E+03  0.13690966183E+04  0.77104264732E+02 0.  0.
        254    2    1    2    0    0 -0.64973364114E+03  0.91819885654E+03  0.13879178616E+04  0.20020412704E+04  0.90366493417E+03 0.  0.
         23    2    4    4    0    0 -0.54900243007E+03  0.99997279647E+03  0.80827667486E+03  0.14011110026E+04  0.91932564582E+02 0.  0.
         23    2    4    4    0    0 -0.10073121107E+03 -0.81773939937E+02  0.57964118670E+03  0.60093026782E+03  0.91101741610E+02 0.  0.
          3    1    3    3  502    0  0.33383949512E+03 -0.51616465018E+03  0.38922142267E+03  0.72757684849E+03  0.00000000000E+00 0. -1.
         -4    1    3    3    0  502  0.31589414602E+03 -0.40203420635E+03  0.38746225690E+03  0.64151976984E+03  0.00000000000E+00 0.  1.
         13    1    5    5    0    0 -0.40869827365E+03  0.71664775465E+03  0.53562811917E+03  0.98362379250E+03  0.00000000000E+00 0.  1.
        -13    1    5    5    0    0 -0.14030415642E+03  0.28332504183E+03  0.27264855570E+03  0.41748721005E+03  0.00000000000E+00 0. -1.
          1    1    6    6  503    0 -0.53445520224E+02 -0.94340982270E+02  0.36387578485E+03  0.37968701764E+03  0.00000000000E+00 0. -1.
         -1    1    6    6    0  503 -0.47285690843E+02  0.12567042333E+02  0.21576540186E+03  0.22124325018E+03  0.00000000000E+00 0.  1.
<mgrwt>
<rscale>  0 0.25843898E+04</rscale>
<asrwt>0</asrwt>
<pdfrwt beam="1">  1        1 0.92810490E-01 0.25843898E+04</pdfrwt>
<pdfrwt beam="2">  1       -2 0.42582610E+00 0.25843898E+04</pdfrwt>
<totfact> 0.13175079E-01</totfact>
</mgrwt>
</event>
<event>
12    5  0.5297412E-008  0.2403821E+04  0.7818608E-02  0.8438074E-01
         -2   -1    0    0    0  501 -0.00000000000E+00  0.00000000000E+00  0.92688536216E+03  0.92688536216E+03  0.00000000000E+00 0.  1.
          1   -1    0    0  501    0  0.00000000000E+00 -0.00000000000E+00 -0.15585410991E+04  0.15585410991E+04  0.00000000000E+00 0. -1.
        -24    2    1    2    0    0  0.37347997317E+03  0.11528167587E+02  0.72031835023E+03  0.81522468354E+03  0.78182926298E+02 0.  0.
        254    2    1    2    0    0 -0.37347997317E+03 -0.11528167587E+02 -0.13519740871E+04  0.16702017777E+04  0.90670825344E+03 0.  0.
         23    2    4    4    0    0 -0.27606669722E+03  0.27888733659E+03 -0.15440007537E+03  0.43054983582E+03  0.86849352496E+02 0.  0.
         23    2    4    4    0    0 -0.97413275956E+02 -0.29041550417E+03 -0.11975740118E+04  0.12396519419E+04  0.93396530433E+02 0.  0.
          3    1    3    3  502    0  0.19107750361E+03 -0.18940345660E+02  0.30229449256E+03  0.35812191962E+03  0.00000000000E+00 0. -1.
         -4    1    3    3    0  502  0.18240246956E+03  0.30468513248E+02  0.41802385767E+03  0.45710276392E+03  0.00000000000E+00 0.  1.
         13    1    5    5    0    0 -0.92713769635E+02  0.12686099514E+03 -0.23825862409E+02  0.15892522420E+03  0.00000000000E+00 0.  1.
        -13    1    5    5    0    0 -0.18335292758E+03  0.15202634145E+03 -0.13057421296E+03  0.27162461162E+03  0.00000000000E+00 0. -1.
          4    1    6    6  503    0 -0.98602313622E+01 -0.14852571278E+03 -0.67102807957E+03  0.68733965046E+03  0.00000000000E+00 0. -1.
         -4    1    6    6    0  503 -0.87553044594E+02 -0.14188979140E+03 -0.52654593220E+03  0.55231229140E+03  0.00000000000E+00 0.  1.
<mgrwt>
<rscale>  0 0.24038211E+04</rscale>
<asrwt>0</asrwt>
<pdfrwt beam="1">  1        1 0.23977555E+00 0.24038211E+04</pdfrwt>
<pdfrwt beam="2">  1       -2 0.14259775E+00 0.24038211E+04</pdfrwt>
<totfact> 0.16048986E+00</totfact>
</mgrwt>
</event>
<event>
12    5  0.5297412E-008  0.1133439E+04  0.7818608E-02  0.9173200E-01
          1   -1    0    0  501    0  0.00000000000E+00  0.00000000000E+00  0.13724358106E+04  0.13724358106E+04  0.00000000000E+00 0. -1.
         -2   -1    0    0    0  501 -0.00000000000E+00 -0.00000000000E+00 -0.23401511546E+03  0.23401511546E+03  0.00000000000E+00 0.  1.
        -24    2    1    2    0    0  0.72515280907E+02  0.14743947342E+03  0.59503003751E+02  0.19283556723E+03  0.81535785068E+02 0.  0.
        254    2    1    2    0    0 -0.72515280907E+02 -0.14743947342E+03  0.10789176914E+04  0.14136153589E+04  0.89846988466E+03 0.  0.
         23    2    4    4    0    0  0.35299960694E+02  0.36697678961E+03  0.42656399745E+03  0.57088869622E+03  0.89660516415E+02 0.  0.
         23    2    4    4    0    0 -0.10781524160E+03 -0.51441626303E+03  0.65235369396E+03  0.84272666264E+03  0.91513211651E+02 0.  0.
          1    1    3    3  502    0  0.15636889120E+01  0.17991720918E+02 -0.18519576981E+02  0.25867390208E+02  0.00000000000E+00 0. -1.
         -2    1    3    3    0  502  0.70951591995E+02  0.12944775250E+03  0.78022580732E+02  0.16696817702E+03  0.00000000000E+00 0.  1.
         13    1    5    5    0    0  0.11145163111E+02  0.25990670866E+03  0.23739150086E+03  0.35217955158E+03  0.00000000000E+00 0. -1.
        -13    1    5    5    0    0  0.24154797583E+02  0.10707008095E+03  0.18917249660E+03  0.21870914464E+03  0.00000000000E+00 0.  1.
          1    1    6    6  503    0 -0.93995883955E+02 -0.47126960468E+03  0.54737227131E+03  0.72838634659E+03  0.00000000000E+00 0. -1.
         -1    1    6    6    0  503 -0.13819357645E+02 -0.43146658344E+02  0.10498142265E+03  0.11434031605E+03  0.00000000000E+00 0.  1.
<mgrwt>
<rscale>  0 0.11334385E+04</rscale>
<asrwt>0</asrwt>
<pdfrwt beam="1">  1        1 0.21114397E+00 0.11334385E+04</pdfrwt>
<pdfrwt beam="2">  1       -2 0.36002326E-01 0.11334385E+04</pdfrwt>
<totfact> 0.50839329E+01</totfact>
</mgrwt>
</event>
<event>
12    5  0.5297412E-008  0.1356356E+04  0.7818608E-02  0.8986031E-01
          1   -1    0    0  501    0  0.00000000000E+00  0.00000000000E+00  0.12994248046E+04  0.12994248046E+04  0.00000000000E+00 0. -1.
         -2   -1    0    0    0  501 -0.00000000000E+00 -0.00000000000E+00 -0.35394511916E+03  0.35394511916E+03  0.00000000000E+00 0.  1.
        -24    2    1    2    0    0  0.28135855691E+02 -0.25237249730E+02 -0.19019316021E+03  0.20662399241E+03  0.71354683783E+02 0.  0.
        254    2    1    2    0    0 -0.28135855691E+02  0.25237249730E+02  0.11356728457E+04  0.14467459314E+04  0.89548446798E+03 0.  0.
         23    2    4    4    0    0  0.22332154949E+03 -0.32272041536E+03  0.29920317522E+03  0.50248857025E+03  0.94611004709E+02 0.  0.
         23    2    4    4    0    0 -0.25145740518E+03  0.34795766509E+03  0.83646967044E+03  0.94425736111E+03  0.87379008525E+02 0.  0.
          1    1    3    3  502    0  0.33769781218E+02 -0.19700244854E+02 -0.38991937154E+02  0.55216563945E+02  0.00000000000E+00 0. -1.
         -2    1    3    3    0  502 -0.56339255263E+01 -0.55370048765E+01 -0.15120122306E+03  0.15140742846E+03  0.00000000000E+00 0.  1.
         13    1    5    5    0    0  0.14269057856E+03 -0.13372763675E+03  0.11714398263E+03  0.22796138863E+03  0.00000000000E+00 0. -1.
        -13    1    5    5    0    0  0.80630970927E+02 -0.18899277862E+03  0.18205919259E+03  0.27452718162E+03  0.00000000000E+00 0.  1.
          3    1    6    6  503    0 -0.18913868309E+03  0.21420359207E+03  0.61481891506E+03  0.67798150315E+03  0.00000000000E+00 0. -1.
         -3    1    6    6    0  503 -0.62318722090E+02  0.13375407302E+03  0.22165075538E+03  0.26627585796E+03  0.00000000000E+00 0.  1.
<mgrwt>
<rscale>  0 0.13563555E+04</rscale>
<asrwt>0</asrwt>
<pdfrwt beam="1">  1        1 0.19991151E+00 0.13563555E+04</pdfrwt>
<pdfrwt beam="2">  1       -2 0.54453096E-01 0.13563555E+04</pdfrwt>
<totfact> 0.24663726E+01</totfact>
</mgrwt>
</event>
<event>
12    5  0.5297412E-008  0.2016248E+04  0.7818608E-02  0.8599062E-01
         -2   -1    0    0    0  501 -0.00000000000E+00  0.00000000000E+00  0.70029972501E+03  0.70029972501E+03  0.00000000000E+00 0.  1.
          1   -1    0    0  501    0  0.00000000000E+00 -0.00000000000E+00 -0.14512550497E+04  0.14512550497E+04  0.00000000000E+00 0. -1.
        -24    2    1    2    0    0 -0.49488155000E+03 -0.45481404352E+03  0.17464380417E+03  0.69890116674E+03  0.78732584241E+02 0.  0.
        254    2    1    2    0    0  0.49488155000E+03  0.45481404352E+03 -0.92559912883E+03  0.14526536080E+04  0.89537991640E+03 0.  0.
         23    2    4    4    0    0  0.58778480887E+03  0.63911887764E+03 -0.83854206257E+03  0.12106953008E+04  0.93093497427E+02 0.  0.
         23    2    4    4    0    0 -0.92903258868E+02 -0.18430483413E+03 -0.87057066259E+02  0.24195830720E+03  0.91463666265E+02 0.  0.
          3    1    3    3  502    0 -0.14385014766E+02 -0.36716672136E+02  0.15639693938E+02  0.42422195712E+02  0.00000000000E+00 0. -1.
         -4    1    3    3    0  502 -0.48049653523E+03 -0.41809737138E+03  0.15900411023E+03  0.65647897102E+03  0.00000000000E+00 0.  1.
         13    1    5    5    0    0  0.17509292569E+03  0.15562079627E+03 -0.18020453820E+03  0.29554871079E+03  0.00000000000E+00 0.  1.
        -13    1    5    5    0    0  0.41269188317E+03  0.48349808137E+03 -0.65833752437E+03  0.91514658996E+03  0.00000000000E+00 0. -1.
          2    1    6    6  503    0  0.17307477765E+02 -0.39420378752E+02 -0.95058965755E+01  0.44089421830E+02  0.00000000000E+00 0. -1.
         -2    1    6    6    0  503 -0.11021073663E+03 -0.14488445538E+03 -0.77551169684E+02  0.19786888537E+03  0.00000000000E+00 0.  1.
<mgrwt>
<rscale>  0 0.20162475E+04</rscale>
<asrwt>0</asrwt>
<pdfrwt beam="1">  1        1 0.22327001E+00 0.20162475E+04</pdfrwt>
<pdfrwt beam="2">  1       -2 0.10773842E+00 0.20162475E+04</pdfrwt>
<totfact> 0.39731448E+00</totfact>
</mgrwt>
</event>
<event>
12    5  0.5297412E-008  0.2201513E+04  0.7818608E-02  0.8517799E-01
          1   -1    0    0  501    0  0.00000000000E+00  0.00000000000E+00  0.16852216825E+04  0.16852216825E+04  0.00000000000E+00 0. -1.
         -2   -1    0    0    0  501 -0.00000000000E+00 -0.00000000000E+00 -0.71899403284E+03  0.71899403284E+03  0.00000000000E+00 0.  1.
        -24    2    1    2    0    0 -0.58083577037E+03  0.34896193851E+03  0.10730534906E+04  0.12717114386E+04  0.81618397294E+02 0.  0.
        254    2    1    2    0    0  0.58083577037E+03 -0.34896193851E+03 -0.10682584090E+03  0.11325042767E+04  0.90111572502E+03 0.  0.
         23    2    4    4    0    0  0.37727550603E+02 -0.50276075204E+03 -0.20476807726E+03  0.55166457086E+03  0.90620590438E+02 0.  0.
         23    2    4    4    0    0  0.54310821976E+03  0.15379881353E+03  0.97942236363E+02  0.58083970588E+03  0.95715562192E+02 0.  0.
          3    1    3    3  502    0 -0.22363443920E+03  0.98284288735E+02  0.43063674516E+03  0.49509612207E+03  0.00000000000E+00 0. -1.
         -4    1    3    3    0  502 -0.35720133117E+03  0.25067764977E+03  0.64241674541E+03  0.77661531653E+03  0.00000000000E+00 0.  1.
         13    1    5    5    0    0  0.49187049536E+01 -0.44446718736E+03 -0.16688692973E+03  0.47479102942E+03  0.00000000000E+00 0.  1.
        -13    1    5    5    0    0  0.32808845649E+02 -0.58293564675E+02 -0.37881147535E+02  0.76873541442E+02  0.00000000000E+00 0. -1.
          1    1    6    6  503    0  0.87964124722E+02 -0.10397966187E+02  0.18889072545E+02  0.90568217386E+02  0.00000000000E+00 0. -1.
         -1    1    6    6    0  503  0.45514409504E+03  0.16419677972E+03  0.79053163818E+02  0.49027148850E+03  0.00000000000E+00 0.  1.
<mgrwt>
<rscale>  0 0.22015125E+04</rscale>
<asrwt>0</asrwt>
<pdfrwt beam="1">  1        1 0.25926487E+00 0.22015125E+04</pdfrwt>
<pdfrwt beam="2">  1       -2 0.11061447E+00 0.22015125E+04</pdfrwt>
<totfact> 0.25312011E+00</totfact>
</mgrwt>
</event>
<event>
12    5  0.5297412E-008  0.2174953E+04  0.7818608E-02  0.8528926E-01
         -2   -1    0    0    0  501 -0.00000000000E+00  0.00000000000E+00  0.39552825466E+03  0.39552825466E+03  0.00000000000E+00 0.  1.
          1   -1    0    0  501    0  0.00000000000E+00 -0.00000000000E+00 -0.29899374997E+04  0.29899374997E+04  0.00000000000E+00 0. -1.
        -24    2    1    2    0    0  0.54713273689E+03 -0.26136391997E+03 -0.43798605993E+02  0.61307430023E+03  0.79224044801E+02 0.  0.
        254    2    1    2    0    0 -0.54713273689E+03  0.26136391997E+03 -0.25506106390E+04  0.27723914541E+04  0.90159548162E+03 0.  0.
         23    2    4    4    0    0  0.97375439211E+01  0.28195817431E+02  0.44917114200E+02  0.10600540219E+03  0.91267597006E+02 0.  0.
         23    2    4    4    0    0 -0.55687028081E+03  0.23316810254E+03 -0.25955277532E+04  0.26663860519E+04  0.91533526223E+02 0.  0.
          3    1    3    3  502    0  0.28367636485E+03 -0.92163534392E+02 -0.27568495264E+02  0.29954368459E+03  0.00000000000E+00 0. -1.
         -4    1    3    3    0  502  0.26345637204E+03 -0.16920038558E+03 -0.16230110730E+02  0.31353061564E+03  0.00000000000E+00 0.  1.
         13    1    5    5    0    0  0.10479488598E+02 -0.28249714237E+02  0.38944929692E+02  0.49239959225E+02  0.00000000000E+00 0.  1.
        -13    1    5    5    0    0 -0.74194467705E+00  0.56445531668E+02  0.59721845074E+01  0.56765442965E+02  0.00000000000E+00 0. -1.
          2    1    6    6  503    0 -0.23365440636E+03  0.13856168847E+03 -0.12719464095E+04  0.13006311513E+04  0.00000000000E+00 0. -1.
         -2    1    6    6    0  503 -0.32321587445E+03  0.94606414071E+02 -0.13235813438E+04  0.13657549007E+04  0.00000000000E+00 0.  1.
<mgrwt>
<rscale>  0 0.21749527E+04</rscale>
<asrwt>0</asrwt>
<pdfrwt beam="1">  1        1 0.45999038E+00 0.21749527E+04</pdfrwt>
<pdfrwt beam="2">  1       -2 0.60850501E-01 0.21749527E+04</pdfrwt>
<totfact> 0.12283519E+00</totfact>
</mgrwt>
</event>
<event>
12    5  0.5297412E-008  0.1537253E+04  0.7818608E-02  0.8860051E-01
         -2   -1    0    0    0  501 -0.00000000000E+00  0.00000000000E+00  0.12627010302E+04  0.12627010302E+04  0.00000000000E+00 0.  1.
          1   -1    0    0  501    0  0.00000000000E+00 -0.00000000000E+00 -0.46787521693E+03  0.46787521693E+03  0.00000000000E+00 0. -1.
        -24    2    1    2    0    0  0.38741004660E+02 -0.23046049271E+03  0.75844011687E+03  0.79744872029E+03  0.77975293996E+02 0.  0.
        254    2    1    2    0    0 -0.38741004660E+02  0.23046049271E+03  0.36385696455E+02  0.93312752689E+03  0.90265727626E+03 0.  0.
         23    2    4    4    0    0 -0.25157664618E+03  0.21103769916E+02  0.38197638413E+03  0.46694363849E+03  0.91620005935E+02 0.  0.
         23    2    4    4    0    0  0.21283564152E+03  0.20935672279E+03 -0.34559068767E+03  0.46618388840E+03  0.93622896344E+02 0.  0.
          3    1    3    3  502    0  0.56677547224E+01  0.17946915947E+01  0.35025716821E+01  0.69001717299E+01  0.00000000000E+00 0. -1.
         -4    1    3    3    0  502  0.33073249938E+02 -0.23225518430E+03  0.75493754518E+03  0.79054854856E+03  0.00000000000E+00 0.  1.
         13    1    5    5    0    0 -0.18489879377E+03 -0.80567528816E+01  0.32698367577E+03  0.37572702780E+03  0.00000000000E+00 0.  1.
        -13    1    5    5    0    0 -0.66677852416E+02  0.29160522797E+02  0.54992708358E+02  0.91216610687E+02  0.00000000000E+00 0. -1.
          3    1    6    6  503    0  0.97859472551E+02  0.35096126094E+02 -0.10824951157E+03  0.15008721195E+03  0.00000000000E+00 0. -1.
         -3    1    6    6    0  503  0.11497616897E+03  0.17426059670E+03 -0.23734117610E+03  0.31609667645E+03  0.00000000000E+00 0.  1.
<mgrwt>
<rscale>  0 0.15372528E+04</rscale>
<asrwt>0</asrwt>
<pdfrwt beam="1">  1        1 0.71980803E-01 0.15372528E+04</pdfrwt>
<pdfrwt beam="2">  1       -2 0.19426170E+00 0.15372528E+04</pdfrwt>
<totfact> 0.59386667E+00</totfact>
</mgrwt>
</event>
<event>
12    5  0.5297412E-008  0.1323497E+04  0.7818608E-02  0.9011136E-01
          1   -1    0    0  501    0  0.00000000000E+00  0.00000000000E+00  0.16845614779E+04  0.16845614779E+04  0.00000000000E+00 0. -1.
         -2   -1    0    0    0  501 -0.00000000000E+00 -0.00000000000E+00 -0.25995567024E+03  0.25995567024E+03  0.00000000000E+00 0.  1.
        -24    2    1    2    0    0  0.11985426607E+03  0.32217707401E+03  0.43884098076E+03  0.56319412403E+03  0.80268940650E+02 0.  0.
        254    2    1    2    0    0 -0.11985426607E+03 -0.32217707401E+03  0.98576482690E+03  0.13813230241E+04  0.90452080732E+03 0.  0.
         23    2    4    4    0    0  0.19056554832E+03 -0.48300817722E+03  0.30489625066E+03  0.61072728563E+03  0.10204884258E+03 0.  0.
         23    2    4    4    0    0 -0.31041981439E+03  0.16083110321E+03  0.68086857623E+03  0.77059573848E+03  0.89491167972E+02 0.  0.
          1    1    3    3  502    0  0.13112959220E+03  0.28879995349E+03  0.38458893956E+03  0.49850680589E+03  0.00000000000E+00 0. -1.
         -2    1    3    3    0  502 -0.11275326133E+02  0.33377120523E+02  0.54252041195E+02  0.64687318136E+02  0.00000000000E+00 0.  1.
         13    1    5    5    0    0  0.81559407474E+02 -0.22598676872E+03  0.19959852862E+03  0.31234840998E+03  0.00000000000E+00 0. -1.
        -13    1    5    5    0    0  0.10900614085E+03 -0.25702140850E+03  0.10529772204E+03  0.29837887565E+03  0.00000000000E+00 0.  1.
          2    1    6    6  503    0 -0.25055407360E+03  0.16073908104E+03  0.60200710265E+03  0.67158539860E+03  0.00000000000E+00 0. -1.
         -2    1    6    6    0  503 -0.59865740792E+02  0.92022165319E-01  0.78861473587E+02  0.99010339889E+02  0.00000000000E+00 0.  1.
<mgrwt>
<rscale>  0 0.13234973E+04</rscale>
<asrwt>0</asrwt>
<pdfrwt beam="1">  1        1 0.25916330E+00 0.13234973E+04</pdfrwt>
<pdfrwt beam="2">  1       -2 0.39993181E-01 0.13234973E+04</pdfrwt>
<totfact> 0.24872916E+01</totfact>
</mgrwt>
</event>
<event>
12    5  0.5297412E-008  0.1916023E+04  0.7818608E-02  0.8646922E-01
         -2   -1    0    0    0  501 -0.00000000000E+00  0.00000000000E+00  0.68809197452E+03  0.68809197452E+03  0.00000000000E+00 0.  1.
          1   -1    0    0  501    0  0.00000000000E+00 -0.00000000000E+00 -0.13338129030E+04  0.13338129030E+04  0.00000000000E+00 0. -1.
        -24    2    1    2    0    0 -0.39104053849E+03  0.16818869563E+03 -0.89657393332E+03  0.99571899839E+03  0.80071004485E+02 0.  0.
        254    2    1    2    0    0  0.39104053849E+03 -0.16818869563E+03  0.25085300485E+03  0.10261858791E+04  0.89940540824E+03 0.  0.
         23    2    4    4    0    0 -0.12863947891E+03 -0.55077181465E+02 -0.24250119821E+03  0.29445076378E+03  0.91174611083E+02 0.  0.
         23    2    4    4    0    0  0.51968001740E+03 -0.11311151417E+03  0.49335420306E+03  0.73173511533E+03  0.95793393337E+02 0.  0.
          1    1    3    3  502    0 -0.31133228044E+03  0.11442501758E+03 -0.75426035392E+03  0.82397181687E+03  0.00000000000E+00 0. -1.
         -2    1    3    3    0  502 -0.79708258051E+02  0.53763678052E+02 -0.14231357940E+03  0.17174718152E+03  0.00000000000E+00 0.  1.
         13    1    5    5    0    0 -0.12699079768E+03 -0.27081660208E+02 -0.15306659320E+03  0.20072234796E+03  0.00000000000E+00 0.  1.
        -13    1    5    5    0    0 -0.16486812321E+01 -0.27995521257E+02 -0.89434605008E+02  0.93728415825E+02  0.00000000000E+00 0. -1.
          2    1    6    6  503    0  0.82338801876E+02 -0.45551299977E+02  0.12175209756E+03  0.15387713438E+03  0.00000000000E+00 0. -1.
         -2    1    6    6    0  503  0.43734121553E+03 -0.67560214188E+02  0.37160210550E+03  0.57785798095E+03  0.00000000000E+00 0.  1.
<mgrwt>
<rscale>  0 0.19160229E+04</rscale>
<asrwt>0</asrwt>
<pdfrwt beam="1">  1        1 0.20520198E+00 0.19160229E+04</pdfrwt>
<pdfrwt beam="2">  1       -2 0.10586031E+00 0.19160229E+04</pdfrwt>
<totfact> 0.50565905E+00</totfact>
</mgrwt>
</event>
<event>
12    5  0.5297412E-008  0.1646165E+04  0.7818608E-02  0.8792679E-01
         -2   -1    0    0    0  501 -0.00000000000E+00  0.00000000000E+00  0.64162154338E+03  0.64162154338E+03  0.00000000000E+00 0.  1.
          1   -1    0    0  501    0  0.00000000000E+00 -0.00000000000E+00 -0.10558630332E+04  0.10558630332E+04  0.00000000000E+00 0. -1.
        -24    2    1    2    0    0  0.99599644724E+02 -0.18054024252E+03  0.40572202685E+03  0.46189911838E+03  0.78902243885E+02 0.  0.
        254    2    1    2    0    0 -0.99599644724E+02  0.18054024252E+03 -0.81996351671E+03  0.12355854582E+04  0.90100853907E+03 0.  0.
         23    2    4    4    0    0 -0.17617183216E+03  0.49804023790E+03 -0.68524941246E+03  0.87010451748E+03  0.91839648577E+02 0.  0.
         23    2    4    4    0    0  0.76572187436E+02 -0.31749999538E+03 -0.13471410425E+03  0.36548094076E+03  0.93588894751E+02 0.  0.
          3    1    3    3  502    0  0.32740008804E+02 -0.52426702914E+01  0.60791038829E+02  0.69245535381E+02  0.00000000000E+00 0. -1.
         -4    1    3    3    0  502  0.66859635919E+02 -0.17529757223E+03  0.34493098802E+03  0.39265358300E+03  0.00000000000E+00 0.  1.
         13    1    5    5    0    0 -0.15391685632E+03  0.30995285027E+03 -0.42074689506E+03  0.54478355129E+03  0.00000000000E+00 0.  1.
        -13    1    5    5    0    0 -0.22254975840E+02  0.18808738762E+03 -0.26450251740E+03  0.32532096619E+03  0.00000000000E+00 0. -1.
          2    1    6    6  503    0  0.18241339536E+02 -0.80614924580E+02 -0.80897900827E+02  0.11565458439E+03  0.00000000000E+00 0. -1.
         -2    1    6    6    0  503  0.58330847899E+02 -0.23688507080E+03 -0.53816203420E+02  0.24982635636E+03  0.00000000000E+00 0.  1.
<mgrwt>
<rscale>  0 0.16461646E+04</rscale>
<asrwt>0</asrwt>
<pdfrwt beam="1">  1        1 0.16244047E+00 0.16461646E+04</pdfrwt>
<pdfrwt beam="2">  1       -2 0.98711006E-01 0.16461646E+04</pdfrwt>
<totfact> 0.97777186E+00</totfact>
</mgrwt>
</event>
<event>
12    5  0.5297412E-008  0.2997787E+04  0.7818608E-02  0.8244363E-01
         -2   -1    0    0    0  501 -0.00000000000E+00  0.00000000000E+00  0.66766630378E+03  0.66766630378E+03  0.00000000000E+00 0.  1.
          1   -1    0    0  501    0  0.00000000000E+00 -0.00000000000E+00 -0.33649766143E+04  0.33649766143E+04  0.00000000000E+00 0. -1.
        -24    2    1    2    0    0 -0.19109945255E+03  0.60482670022E+03 -0.28658238243E+04  0.29362676605E+04  0.79920235596E+02 0.  0.
        254    2    1    2    0    0  0.19109945255E+03 -0.60482670022E+03  0.16851351374E+03  0.10963752576E+04  0.87824117597E+03 0.  0.
         23    2    4    4    0    0 -0.11837709232E+03  0.17680706099E+03  0.84977734282E+02  0.24677025412E+03  0.91654078981E+02 0.  0.
         23    2    4    4    0    0  0.30947654487E+03 -0.78163376121E+03  0.83535779460E+02  0.84960500351E+03  0.90129723412E+02 0.  0.
          1    1    3    3  502    0 -0.19877090066E+03  0.59048650464E+03 -0.27909159131E+04  0.28596146274E+04  0.00000000000E+00 0. -1.
         -2    1    3    3    0  502  0.76714481087E+01  0.14340195577E+02 -0.74907911161E+02  0.76653033076E+02  0.00000000000E+00 0.  1.
         13    1    5    5    0    0 -0.35880460544E+02  0.11475818049E+02 -0.10059643774E+02  0.38991002572E+02  0.00000000000E+00 0. -1.
        -13    1    5    5    0    0 -0.82496631779E+02  0.16533124294E+03  0.95037378057E+02  0.20777925155E+03  0.00000000000E+00 0.  1.
          4    1    6    6  503    0  0.25850991568E+03 -0.68104345277E+03  0.42815517492E+02  0.72971277199E+03  0.00000000000E+00 0.  1.
         -4    1    6    6    0  503  0.50966629194E+02 -0.10059030844E+03  0.40720261968E+02  0.11989223152E+03  0.00000000000E+00 0. -1.
<mgrwt>
<rscale>  0 0.29977868E+04</rscale>
<asrwt>0</asrwt>
<pdfrwt beam="1">  1        1 0.51768872E+00 0.29977868E+04</pdfrwt>
<pdfrwt beam="2">  1       -2 0.10271789E+00 0.29977868E+04</pdfrwt>
<totfact> 0.18471504E-01</totfact>
</mgrwt>
</event>
<event>
12    5  0.5297412E-008  0.1252587E+04  0.7818608E-02  0.9068033E-01
          1   -1    0    0  501    0  0.00000000000E+00  0.00000000000E+00  0.45976881258E+03  0.45976881258E+03  0.00000000000E+00 0. -1.
         -4   -1    0    0    0  501 -0.00000000000E+00 -0.00000000000E+00 -0.85313269015E+03  0.85313269015E+03  0.00000000000E+00 0.  1.
        -24    2    1    2    0    0  0.16174264437E+03  0.14398083782E+03 -0.29072779428E+03  0.37111430235E+03  0.79448161537E+02 0.  0.
        254    2    1    2    0    0 -0.16174264437E+03 -0.14398083782E+03 -0.10263608329E+03  0.94178720038E+03  0.91078965768E+03 0.  0.
         23    2    4    4    0    0 -0.25957409812E+03 -0.25460664734E+03  0.31495549937E+03  0.48951761637E+03  0.90704315628E+02 0.  0.
         23    2    4    4    0    0  0.97831453755E+02  0.11062580952E+03 -0.41759158266E+03  0.45226958401E+03  0.91411069546E+02 0.  0.
          3    1    3    3  502    0  0.62132469636E+02  0.73799710848E+02 -0.70719808552E+02  0.11961660598E+03  0.00000000000E+00 0. -1.
         -4    1    3    3    0  502  0.99610174734E+02  0.70181126971E+02 -0.22000798573E+03  0.25149769637E+03  0.00000000000E+00 0.  1.
         13    1    5    5    0    0 -0.19227473904E+03 -0.12829104312E+03  0.18250790573E+03  0.29451197373E+03  0.00000000000E+00 0. -1.
        -13    1    5    5    0    0 -0.67299359085E+02 -0.12631560422E+03  0.13244759363E+03  0.19500564264E+03  0.00000000000E+00 0.  1.
          1    1    6    6  503    0  0.58393862064E+02  0.98187532312E+02 -0.19608481568E+03  0.22693587104E+03  0.00000000000E+00 0. -1.
         -1    1    6    6    0  503  0.39437591691E+02  0.12438277205E+02 -0.22150676698E+03  0.22533371296E+03  0.00000000000E+00 0.  1.
<mgrwt>
<rscale>  0 0.12525874E+04</rscale>
<asrwt>0</asrwt>
<pdfrwt beam="1">  1        1 0.70733664E-01 0.12525874E+04</pdfrwt>
<pdfrwt beam="2">  1       -4 0.13125118E+00 0.12525874E+04</pdfrwt>
<totfact> 0.99083295E+00</totfact>
</mgrwt>
</event>
<event>
12    5  0.5297412E-008  0.1582212E+04  0.7818608E-02  0.8831551E-01
         -2   -1    0    0    0  501 -0.00000000000E+00  0.00000000000E+00  0.50109835328E+03  0.50109835328E+03  0.00000000000E+00 0.  1.
          1   -1    0    0  501    0  0.00000000000E+00 -0.00000000000E+00 -0.12489544063E+04  0.12489544063E+04  0.00000000000E+00 0. -1.
        -24    2    1    2    0    0 -0.29248110816E+03 -0.17066065711E+03 -0.69283443400E+03  0.77495539878E+03  0.76590199460E+02 0.  0.
        254    2    1    2    0    0  0.29248110816E+03  0.17066065711E+03 -0.55021619013E+02  0.97509736078E+03  0.91275255460E+03 0.  0.
         23    2    4    4    0    0  0.17437680946E+03 -0.21062414517E+03  0.31227123310E+03  0.42484271338E+03  0.90599149449E+02 0.  0.
         23    2    4    4    0    0  0.11810429869E+03  0.38128480228E+03 -0.36729285211E+03  0.55025464740E+03  0.92463030205E+02 0.  0.
          3    1    3    3  502    0 -0.26242705719E+03 -0.13240162666E+03 -0.63239197514E+03  0.69736486957E+03  0.00000000000E+00 0. -1.
         -4    1    3    3    0  502 -0.30054050970E+02 -0.38259030452E+02 -0.60442458854E+02  0.77590529210E+02  0.00000000000E+00 0.  1.
         13    1    5    5    0    0  0.16931316975E+02 -0.17789244439E+02 -0.11478115944E+01  0.24585446582E+02  0.00000000000E+00 0. -1.
        -13    1    5    5    0    0  0.15744549249E+03 -0.19283490073E+03  0.31341904470E+03  0.40025726679E+03  0.00000000000E+00 0.  1.
          2    1    6    6  503    0  0.11232901202E+03  0.23523155888E+03 -0.20332148299E+03  0.33059237542E+03  0.00000000000E+00 0. -1.
         -2    1    6    6    0  503  0.57752866698E+01  0.14605324340E+03 -0.16397136912E+03  0.21966227198E+03  0.00000000000E+00 0.  1.
<mgrwt>
<rscale>  0 0.15822124E+04</rscale>
<asrwt>0</asrwt>
<pdfrwt beam="1">  1        1 0.19214683E+00 0.15822124E+04</pdfrwt>
<pdfrwt beam="2">  1       -2 0.77092055E-01 0.15822124E+04</pdfrwt>
<totfact> 0.12462051E+01</totfact>
</mgrwt>
</event>
<event>
12    5  0.5297412E-008  0.1272753E+04  0.7818608E-02  0.9051456E-01
          1   -1    0    0  501    0  0.00000000000E+00  0.00000000000E+00  0.15102998887E+04  0.15102998887E+04  0.00000000000E+00 0. -1.
         -2   -1    0    0    0  501 -0.00000000000E+00 -0.00000000000E+00 -0.26814210499E+03  0.26814210499E+03  0.00000000000E+00 0.  1.
        -24    2    1    2    0    0 -0.22741476472E+03 -0.20361966210E+03  0.20787816261E+03  0.37803348096E+03  0.80731284051E+02 0.  0.
        254    2    1    2    0    0  0.22741476472E+03  0.20361966210E+03  0.10342796211E+04  0.14004085127E+04  0.89343786908E+03 0.  0.
         23    2    4    4    0    0 -0.29580463758E+02 -0.10280490562E+03 -0.11602440692E+03  0.17932892484E+03  0.85166588672E+02 0.  0.
         23    2    4    4    0    0  0.25699522848E+03  0.30642456773E+03  0.11503040280E+04  0.12210795879E+04  0.88845033402E+02 0.  0.
          1    1    3    3  502    0 -0.13707502354E+02  0.16390827174E+01 -0.32677329831E+01  0.14186623692E+02  0.00000000000E+00 0. -1.
         -2    1    3    3    0  502 -0.21370726236E+03 -0.20525874482E+03  0.21114589560E+03  0.36384685726E+03  0.00000000000E+00 0.  1.
         13    1    5    5    0    0 -0.82880383011E+01 -0.11259357413E+03 -0.10106939405E+03  0.15152896399E+03  0.00000000000E+00 0. -1.
        -13    1    5    5    0    0 -0.21292425457E+02  0.97886685101E+01 -0.14955012865E+02  0.27799960842E+02  0.00000000000E+00 0.  1.
          4    1    6    6  503    0 -0.45209827405E+00  0.36683566643E+02  0.95144459797E+02  0.10197233294E+03  0.00000000000E+00 0. -1.
         -4    1    6    6    0  503  0.25744732675E+03  0.26974100108E+03  0.10551595682E+04  0.11191072549E+04  0.00000000000E+00 0.  1.
<mgrwt>
<rscale>  0 0.12727529E+04</rscale>
<asrwt>0</asrwt>
<pdfrwt beam="1">  1        1 0.23235382E+00 0.12727529E+04</pdfrwt>
<pdfrwt beam="2">  1       -2 0.41252633E-01 0.12727529E+04</pdfrwt>
<totfact> 0.30941280E+01</totfact>
</mgrwt>
</event>
<event>
12    5  0.5297412E-008  0.1483281E+04  0.7818608E-02  0.8895647E-01
         -2   -1    0    0    0  501 -0.00000000000E+00  0.00000000000E+00  0.43255338373E+03  0.43255338373E+03  0.00000000000E+00 0.  1.
          1   -1    0    0  501    0  0.00000000000E+00 -0.00000000000E+00 -0.12715907457E+04  0.12715907457E+04  0.00000000000E+00 0. -1.
        -24    2    1    2    0    0  0.26510803030E+03 -0.52106311602E+01 -0.72695063679E+03  0.77806258710E+03  0.81331068571E+02 0.  0.
        254    2    1    2    0    0 -0.26510803030E+03  0.52106311602E+01 -0.11208672515E+03  0.92608154229E+03  0.88020121030E+03 0.  0.
         23    2    4    4    0    0 -0.25229074158E+03  0.36054757675E+03  0.15212564902E+03  0.47364467495E+03  0.86901620414E+02 0.  0.
         23    2    4    4    0    0 -0.12817288725E+02 -0.35533694559E+03 -0.26421237418E+03  0.45243686735E+03  0.91990828220E+02 0.  0.
          1    1    3    3  502    0  0.21153806187E+03 -0.19345505394E+02 -0.64551293617E+03  0.67956570761E+03  0.00000000000E+00 0. -1.
         -2    1    3    3    0  502  0.53569968438E+02  0.14134874234E+02 -0.81437700621E+02  0.98496879496E+02  0.00000000000E+00 0.  1.
         13    1    5    5    0    0 -0.31558364713E+02  0.25638580629E+02 -0.85553424147E+01  0.41550704974E+02  0.00000000000E+00 0. -1.
        -13    1    5    5    0    0 -0.22073237687E+03  0.33490899612E+03  0.16068099144E+03  0.43209396997E+03  0.00000000000E+00 0.  1.
          4    1    6    6  503    0 -0.21445918597E+02 -0.51734631679E+02 -0.11150867646E+02  0.57102901754E+02  0.00000000000E+00 0. -1.
         -4    1    6    6    0  503  0.86286298715E+01 -0.30360231391E+03 -0.25306150653E+03  0.39533396559E+03  0.00000000000E+00 0.  1.
<mgrwt>
<rscale>  0 0.14832813E+04</rscale>
<asrwt>0</asrwt>
<pdfrwt beam="1">  1        1 0.19562934E+00 0.14832813E+04</pdfrwt>
<pdfrwt beam="2">  1       -2 0.66546675E-01 0.14832813E+04</pdfrwt>
<totfact> 0.16715639E+01</totfact>
</mgrwt>
</event>
<event>
12    5  0.5297412E-008  0.2974714E+04  0.7818608E-02  0.8250989E-01
         -2   -1    0    0    0  501 -0.00000000000E+00  0.00000000000E+00  0.57318398630E+03  0.57318398630E+03  0.00000000000E+00 0.  1.
          1   -1    0    0  501    0  0.00000000000E+00 -0.00000000000E+00 -0.38595475649E+04  0.38595475649E+04  0.00000000000E+00 0. -1.
        -24    2    1    2    0    0 -0.29788297774E+03  0.48387354762E+03 -0.33208624538E+04  0.33700343610E+04  0.78334401106E+02 0.  0.
        254    2    1    2    0    0  0.29788297774E+03 -0.48387354762E+03  0.34498875261E+02  0.10626971902E+04  0.89736685204E+03 0.  0.
         23    2    4    4    0    0  0.19049039015E+02 -0.90992863370E+02  0.41828143899E+03  0.43937775620E+03  0.97215653895E+02 0.  0.
         23    2    4    4    0    0  0.27883393873E+03 -0.39288068425E+03 -0.38378256373E+03  0.62331943400E+03  0.95574385344E+02 0.  0.
          3    1    3    3  502    0 -0.24877065869E+03  0.34978292720E+03 -0.25949578636E+04  0.26302169588E+04  0.00000000000E+00 0. -1.
         -4    1    3    3    0  502 -0.49112319051E+02  0.13409062042E+03 -0.72590459024E+03  0.73981740213E+03  0.00000000000E+00 0.  1.
         13    1    5    5    0    0  0.41657113892E+02 -0.71448513009E+02  0.38843162815E+03  0.39713893651E+03  0.00000000000E+00 0. -1.
        -13    1    5    5    0    0 -0.22608074877E+02 -0.19544350361E+02  0.29849810844E+02  0.42238819682E+02  0.00000000000E+00 0.  1.
          2    1    6    6  503    0  0.13453822376E+03 -0.26802121096E+03 -0.24746816759E+03  0.38881409072E+03  0.00000000000E+00 0. -1.
         -2    1    6    6    0  503  0.14429571497E+03 -0.12485947329E+03 -0.13631439615E+03  0.23450534327E+03  0.00000000000E+00 0.  1.
<mgrwt>
<rscale>  0 0.29747140E+04</rscale>
<asrwt>0</asrwt>
<pdfrwt beam="1">  1        1 0.59377655E+00 0.29747140E+04</pdfrwt>
<pdfrwt beam="2">  1       -2 0.88182151E-01 0.29747140E+04</pdfrwt>
<totfact> 0.10548540E-01</totfact>
</mgrwt>
</event>
<event>
12    5  0.5297412E-008  0.1835137E+04  0.7818608E-02  0.8687834E-01
          1   -1    0    0  501    0  0.00000000000E+00  0.00000000000E+00  0.89502093070E+03  0.89502093070E+03  0.00000000000E+00 0. -1.
         -2   -1    0    0    0  501 -0.00000000000E+00 -0.00000000000E+00 -0.94068406969E+03  0.94068406969E+03  0.00000000000E+00 0.  1.
        -24    2    1    2    0    0  0.28792000289E+03  0.16509422267E+03 -0.62816399452E+03  0.71531558788E+03  0.83260770073E+02 0.  0.
        254    2    1    2    0    0 -0.28792000289E+03 -0.16509422267E+03  0.58250085553E+03  0.11203894125E+04  0.89766984942E+03 0.  0.
         23    2    4    4    0    0 -0.39307727307E+03  0.20749579456E+03  0.56121070003E+03  0.72185693004E+03  0.92497190549E+02 0.  0.
         23    2    4    4    0    0  0.10515727018E+03 -0.37259001723E+03  0.21290155498E+02  0.39853248247E+03  0.92160167354E+02 0.  0.
          1    1    3    3  502    0  0.15897201760E+03  0.12415847658E+03 -0.43493236452E+03  0.47943048651E+03  0.00000000000E+00 0. -1.
         -2    1    3    3    0  502  0.12894798529E+03  0.40935746093E+02 -0.19323163000E+03  0.23588510137E+03  0.00000000000E+00 0.  1.
         13    1    5    5    0    0  0.22052221792E+01 -0.48271149732E+01  0.65093382129E+01  0.83985431947E+01  0.00000000000E+00 0. -1.
        -13    1    5    5    0    0 -0.39528249525E+03  0.21232290953E+03  0.55470136181E+03  0.71345838685E+03  0.00000000000E+00 0.  1.
          2    1    6    6  503    0  0.77067148261E+01 -0.37446848679E+02 -0.26121499577E+02  0.46303268454E+02  0.00000000000E+00 0. -1.
         -2    1    6    6    0  503  0.97450555356E+02 -0.33514316855E+03  0.47411655074E+02  0.35222921401E+03  0.00000000000E+00 0.  1.
<mgrwt>
<rscale>  0 0.18351370E+04</rscale>
<asrwt>0</asrwt>
<pdfrwt beam="1">  1        1 0.13769553E+00 0.18351370E+04</pdfrwt>
<pdfrwt beam="2">  1       -2 0.14472063E+00 0.18351370E+04</pdfrwt>
<totfact> 0.49865488E+00</totfact>
</mgrwt>
</event>
<event>
12    5  0.5297412E-008  0.1343246E+04  0.7818608E-02  0.8995957E-01
         -2   -1    0    0    0  501 -0.00000000000E+00  0.00000000000E+00  0.21321060979E+03  0.21321060979E+03  0.00000000000E+00 0.  1.
          1   -1    0    0  501    0  0.00000000000E+00 -0.00000000000E+00 -0.21156411337E+04  0.21156411337E+04  0.00000000000E+00 0. -1.
        -24    2    1    2    0    0 -0.12984456156E+03  0.80228444766E+02 -0.10549702777E+04  0.10688755136E+04  0.78970648639E+02 0.  0.
        254    2    1    2    0    0  0.12984456156E+03 -0.80228444766E+02 -0.84746024627E+03  0.12599762299E+04  0.91981249033E+03 0.  0.
         23    2    4    4    0    0 -0.77862108325E+02 -0.37287535612E+03 -0.68429443373E+02  0.39730956251E+03  0.89854107458E+02 0.  0.
         23    2    4    4    0    0  0.20770666988E+03  0.29264691135E+03 -0.77903080290E+03  0.86266666738E+03  0.92306617947E+02 0.  0.
          1    1    3    3  502    0 -0.56898047033E+02  0.32138248230E+02 -0.71044644172E+03  0.71344544382E+03  0.00000000000E+00 0. -1.
         -2    1    3    3    0  502 -0.72946514526E+02  0.48090196535E+02 -0.34452383594E+03  0.35543006980E+03  0.00000000000E+00 0.  1.
         13    1    5    5    0    0  0.15598857751E+02 -0.22743848004E+02  0.36515337209E+01  0.27819789425E+02  0.00000000000E+00 0.  1.
        -13    1    5    5    0    0 -0.93460966076E+02 -0.35013150811E+03 -0.72080977094E+02  0.36948977308E+03  0.00000000000E+00 0. -1.
          3    1    6    6  503    0  0.18322689217E+03  0.21120355320E+03 -0.52554281213E+03  0.59529344215E+03  0.00000000000E+00 0. -1.
         -3    1    6    6    0  503  0.24479777719E+02  0.81443358154E+02 -0.25348799077E+03  0.26737322523E+03  0.00000000000E+00 0.  1.
<mgrwt>
<rscale>  0 0.13432455E+04</rscale>
<asrwt>0</asrwt>
<pdfrwt beam="1">  1        1 0.32548327E+00 0.13432455E+04</pdfrwt>
<pdfrwt beam="2">  1       -2 0.32801630E-01 0.13432455E+04</pdfrwt>
<totfact> 0.18564746E+01</totfact>
</mgrwt>
</event>
<event>
12    5  0.5297412E-008  0.2419556E+04  0.7818608E-02  0.8432218E-01
         -2   -1    0    0    0  501 -0.00000000000E+00  0.00000000000E+00  0.82192591922E+03  0.82192591922E+03  0.00000000000E+00 0.  1.
          1   -1    0    0  501    0  0.00000000000E+00 -0.00000000000E+00 -0.17806503307E+04  0.17806503307E+04  0.00000000000E+00 0. -1.
        -24    2    1    2    0    0 -0.46418714303E+03 -0.34614097179E+03  0.51545493271E+03  0.77950990303E+03  0.81600399296E+02 0.  0.
        254    2    1    2    0    0  0.46418714303E+03  0.34614097179E+03 -0.14741793441E+04  0.18230663468E+04  0.90281941174E+03 0.  0.
         23    2    4    4    0    0  0.30832976941E+03 -0.31513156269E+02 -0.13477233611E+04  0.13866247106E+04  0.10153572876E+03 0.  0.
         23    2    4    4    0    0  0.15585737363E+03  0.37765412806E+03 -0.12645598303E+03  0.43644163626E+03  0.87040363414E+02 0.  0.
          3    1    3    3  502    0 -0.28612892052E+02 -0.31897091942E+02  0.15021961682E+02  0.45406843082E+02  0.00000000000E+00 0. -1.
         -4    1    3    3    0  502 -0.43557425098E+03 -0.31424387985E+03  0.50043297102E+03  0.73410305995E+03  0.00000000000E+00 0.  1.
         13    1    5    5    0    0  0.55717503066E+02 -0.29723934203E+02 -0.43605011991E+03  0.44059920504E+03  0.00000000000E+00 0.  1.
        -13    1    5    5    0    0  0.25261226634E+03 -0.17892220664E+01 -0.91167324120E+03  0.94602550555E+03  0.00000000000E+00 0. -1.
          3    1    6    6  503    0  0.14412122456E+03  0.29765605443E+03 -0.13039908726E+03  0.35549117579E+03  0.00000000000E+00 0.  1.
         -3    1    6    6    0  503  0.11736149069E+02  0.79998073623E+02  0.39431042299E+01  0.80950460464E+02  0.00000000000E+00 0. -1.
<mgrwt>
<rscale>  0 0.24195559E+04</rscale>
<asrwt>0</asrwt>
<pdfrwt beam="1">  1        1 0.27394620E+00 0.24195559E+04</pdfrwt>
<pdfrwt beam="2">  1       -2 0.12645014E+00 0.24195559E+04</pdfrwt>
<totfact> 0.15371238E+00</totfact>
</mgrwt>
</event>
<event>
12    5  0.5297412E-008  0.1513356E+04  0.7818608E-02  0.8875620E-01
         -2   -1    0    0    0  501 -0.00000000000E+00  0.00000000000E+00  0.74721219829E+03  0.74721219829E+03  0.00000000000E+00 0.  1.
          1   -1    0    0  501    0  0.00000000000E+00 -0.00000000000E+00 -0.76626328882E+03  0.76626328882E+03  0.00000000000E+00 0. -1.
        -24    2    1    2    0    0 -0.28748904027E+03 -0.33305651876E+03  0.18961166147E+03  0.48580288137E+03  0.80469027723E+02 0.  0.
        254    2    1    2    0    0  0.28748904027E+03  0.33305651876E+03 -0.20866275200E+03  0.10276726057E+04  0.90498300953E+03 0.  0.
         23    2    4    4    0    0  0.42873345717E+03 -0.14268655315E+03  0.44594173412E+02  0.46313970266E+03  0.91312179505E+02 0.  0.
         23    2    4    4    0    0 -0.14124441691E+03  0.47574307191E+03 -0.25325692542E+03  0.56453290307E+03  0.90977319184E+02 0.  0.
          1    1    3    3  502    0 -0.23043484797E+02 -0.71262604201E+02  0.25611658463E+02  0.79153761745E+02  0.00000000000E+00 0. -1.
         -2    1    3    3    0  502 -0.26444555547E+03 -0.26179391456E+03  0.16400000301E+03  0.40664911963E+03  0.00000000000E+00 0.  1.
         13    1    5    5    0    0  0.31337362898E+03 -0.10445369489E+03 -0.86984324756E+01  0.33043799485E+03  0.00000000000E+00 0.  1.
        -13    1    5    5    0    0  0.11535982820E+03 -0.38232858258E+02  0.53292605888E+02  0.13270170781E+03  0.00000000000E+00 0. -1.
          3    1    6    6  503    0 -0.14505064294E+03  0.40247699074E+03 -0.23812673860E+03  0.48962410145E+03  0.00000000000E+00 0. -1.
         -3    1    6    6    0  503  0.38062260359E+01  0.73266081170E+02 -0.15130186819E+02  0.74908801618E+02  0.00000000000E+00 0.  1.
<mgrwt>
<rscale>  0 0.15133556E+04</rscale>
<asrwt>0</asrwt>
<pdfrwt beam="1">  1        1 0.11788666E+00 0.15133556E+04</pdfrwt>
<pdfrwt beam="2">  1       -2 0.11495572E+00 0.15133556E+04</pdfrwt>
<totfact> 0.11828102E+01</totfact>
</mgrwt>
</event>
<event>
12    5  0.5297412E-008  0.2161741E+04  0.7818608E-02  0.8534523E-01
          1   -1    0    0  501    0  0.00000000000E+00  0.00000000000E+00  0.19283916575E+04  0.19283916575E+04  0.00000000000E+00 0. -1.
         -2   -1    0    0    0  501 -0.00000000000E+00 -0.00000000000E+00 -0.60583173473E+03  0.60583173473E+03  0.00000000000E+00 0.  1.
        -24    2    1    2    0    0 -0.12366665341E+03 -0.26502069088E+03 -0.39484555033E+03  0.49775387465E+03  0.79539319566E+02 0.  0.
        254    2    1    2    0    0  0.12366665341E+03  0.26502069088E+03  0.17174054731E+04  0.20364695176E+04  0.10546075712E+04 0.  0.
         23    2    4    4    0    0  0.53422585025E+03  0.19361560700E+03  0.56092045098E+03  0.80356094664E+03  0.90521711726E+02 0.  0.
         23    2    4    4    0    0 -0.41055919684E+03  0.71405083880E+02  0.11564850221E+04  0.12329085710E+04  0.94595971337E+02 0.  0.
          3    1    3    3  502    0 -0.12764637186E+02 -0.17390224506E+02 -0.39693501460E+01  0.21934256574E+02  0.00000000000E+00 0. -1.
         -4    1    3    3    0  502 -0.11090201622E+03 -0.24763046637E+03 -0.39087620018E+03  0.47581961808E+03  0.00000000000E+00 0.  1.
         13    1    5    5    0    0  0.42580891312E+03  0.19122236272E+03  0.46282906054E+03  0.65733550169E+03  0.00000000000E+00 0.  1.
        -13    1    5    5    0    0  0.10841693713E+03  0.23932442825E+01  0.98091390438E+02  0.14622544496E+03  0.00000000000E+00 0. -1.
          4    1    6    6  503    0 -0.16839974763E+03  0.75999910177E+02  0.52584865395E+03  0.55736098555E+03  0.00000000000E+00 0. -1.
         -4    1    6    6    0  503 -0.24215944922E+03 -0.45948262965E+01  0.63063636820E+03  0.67554758542E+03  0.00000000000E+00 0.  1.
<mgrwt>
<rscale>  0 0.21617408E+04</rscale>
<asrwt>0</asrwt>
<pdfrwt beam="1">  1        1 0.29667564E+00 0.21617408E+04</pdfrwt>
<pdfrwt beam="2">  1       -2 0.93204883E-01 0.21617408E+04</pdfrwt>
<totfact> 0.26092917E+00</totfact>
</mgrwt>
</event>
<event>
12    5  0.5297412E-008  0.2205978E+04  0.7818608E-02  0.8515944E-01
          1   -1    0    0  501    0  0.00000000000E+00  0.00000000000E+00  0.18974167548E+04  0.18974167548E+04  0.00000000000E+00 0. -1.
         -2   -1    0    0    0  501 -0.00000000000E+00 -0.00000000000E+00 -0.64117931684E+03  0.64117931684E+03  0.00000000000E+00 0.  1.
        -24    2    1    2    0    0  0.15037186082E+03  0.81469575727E+03  0.97558895952E+03  0.12823505488E+04  0.79424420648E+02 0.  0.
        254    2    1    2    0    0 -0.15037186082E+03 -0.81469575727E+03  0.28064847842E+03  0.12562455228E+04  0.90169194948E+03 0.  0.
         23    2    4    4    0    0  0.24519017824E+03  0.70117547021E+01  0.21270796713E+03  0.33711649226E+03  0.90749445494E+02 0.  0.
         23    2    4    4    0    0 -0.39556203906E+03 -0.82170751197E+03  0.67940511284E+02  0.91912903058E+03  0.92248034147E+02 0.  0.
          1    1    3    3  502    0  0.71786892167E+02  0.55640811633E+03  0.62511040435E+03  0.83994426449E+03  0.00000000000E+00 0. -1.
         -4    1    3    3    0  502  0.78584968649E+02  0.25828764094E+03  0.35047855517E+03  0.44240628430E+03  0.00000000000E+00 0.  1.
         13    1    5    5    0    0  0.64393816056E+02 -0.11952582449E+02  0.11080889945E+03  0.12871689855E+03  0.00000000000E+00 0.  1.
        -13    1    5    5    0    0  0.18079636219E+03  0.18964337151E+02  0.10189906768E+03  0.20839959371E+03  0.00000000000E+00 0. -1.
          3    1    6    6  503    0 -0.29965515168E+03 -0.56978373266E+03  0.12346006744E+02  0.64389373022E+03  0.00000000000E+00 0. -1.
         -3    1    6    6    0  503 -0.95906887380E+02 -0.25192377931E+03  0.55594504540E+02  0.27523530036E+03  0.00000000000E+00 0.  1.
<mgrwt>
<rscale>  0 0.22059777E+04</rscale>
<asrwt>0</asrwt>
<pdfrwt beam="1">  1        1 0.29191027E+00 0.22059777E+04</pdfrwt>
<pdfrwt beam="2">  1       -2 0.98642972E-01 0.22059777E+04</pdfrwt>
<totfact> 0.23886452E+00</totfact>
</mgrwt>
</event>
<event>
12    5  0.5297412E-008  0.2721712E+04  0.7818608E-02  0.8327994E-01
          1   -1    0    0  501    0  0.00000000000E+00  0.00000000000E+00  0.23786430499E+04  0.23786430499E+04  0.00000000000E+00 0. -1.
         -2   -1    0    0    0  501 -0.00000000000E+00 -0.00000000000E+00 -0.77856519821E+03  0.77856519821E+03  0.00000000000E+00 0.  1.
        -24    2    1    2    0    0  0.95934604442E+03 -0.30920073463E+03  0.14924432296E+04  0.18027151860E+04  0.80282756466E+02 0.  0.
        254    2    1    2    0    0 -0.95934604442E+03  0.30920073463E+03  0.10763462214E+03  0.13544930622E+04  0.89839652510E+03 0.  0.
         23    2    4    4    0    0 -0.10435454339E+04  0.45166056770E+02  0.15133021822E+03  0.10593700720E+04  0.91307553419E+02 0.  0.
         23    2    4    4    0    0  0.84199389457E+02  0.26403467786E+03 -0.43695596083E+02  0.29512299013E+03  0.91566510753E+02 0.  0.
          1    1    3    3  502    0  0.75511292586E+03 -0.22004003912E+03  0.11172417575E+04  0.13663243738E+04  0.00000000000E+00 0. -1.
         -2    1    3    3    0  502  0.20423311856E+03 -0.89160695508E+02  0.37520147202E+03  0.43639081217E+03  0.00000000000E+00 0.  1.
         13    1    5    5    0    0 -0.10219921680E+04  0.51181747240E+02  0.13605931345E+03  0.10322788865E+04  0.00000000000E+00 0. -1.
        -13    1    5    5    0    0 -0.21553265878E+02 -0.60156904695E+01  0.15270904765E+02  0.27091185544E+02  0.00000000000E+00 0.  1.
          2    1    6    6  503    0  0.87915263756E+02  0.26960740971E+03 -0.37590149322E+02  0.28605990334E+03  0.00000000000E+00 0. -1.
         -2    1    6    6    0  503 -0.37158742997E+01 -0.55727318515E+01 -0.61054467610E+01  0.90630867949E+01  0.00000000000E+00 0.  1.
<mgrwt>
<rscale>  0 0.27217117E+04</rscale>
<asrwt>0</asrwt>
<pdfrwt beam="1">  1        1 0.36594508E+00 0.27217117E+04</pdfrwt>
<pdfrwt beam="2">  1       -2 0.11977926E+00 0.27217117E+04</pdfrwt>
<totfact> 0.67171091E-01</totfact>
</mgrwt>
</event>
<event>
12    5  0.5297412E-008  0.1078705E+04  0.7818608E-02  0.9226199E-01
          1   -1    0    0  501    0  0.00000000000E+00  0.00000000000E+00  0.51546516396E+03  0.51546516396E+03  0.00000000000E+00 0. -1.
         -2   -1    0    0    0  501 -0.00000000000E+00 -0.00000000000E+00 -0.56434699619E+03  0.56434699619E+03  0.00000000000E+00 0.  1.
        -24    2    1    2    0    0 -0.10131479095E+03 -0.51775151083E+02  0.86030744343E+02  0.16510125079E+03  0.83137121106E+02 0.  0.
        254    2    1    2    0    0  0.10131479095E+03  0.51775151083E+02 -0.13491257657E+03  0.91471090937E+03  0.89752397810E+03 0.  0.
         23    2    4    4    0    0 -0.88127791325E+02  0.44089673336E+03 -0.10298937988E+03  0.46971750133E+03  0.88720243430E+02 0.  0.
         23    2    4    4    0    0  0.18944258227E+03 -0.38912158228E+03 -0.31923196694E+02  0.44499340804E+03  0.98467989410E+02 0.  0.
          1    1    3    3  502    0 -0.62750668534E+02 -0.54585321805E+02  0.94115922393E+02  0.12559860909E+03  0.00000000000E+00 0. -1.
         -2    1    3    3    0  502 -0.38564122414E+02  0.28101707218E+01 -0.80851780498E+01  0.39502641699E+02  0.00000000000E+00 0.  1.
         13    1    5    5    0    0 -0.55203451837E+02  0.96096232607E+02 -0.11171790042E+02  0.11138543849E+03  0.00000000000E+00 0. -1.
        -13    1    5    5    0    0 -0.32924339487E+02  0.34480050075E+03 -0.91817589837E+02  0.35833206283E+03  0.00000000000E+00 0.  1.
          4    1    6    6  503    0  0.74602705359E+02 -0.20097722765E+03  0.28940430285E+02  0.21632142331E+03  0.00000000000E+00 0.  1.
         -4    1    6    6    0  503  0.11483987691E+03 -0.18814435463E+03 -0.60863626979E+02  0.22867198473E+03  0.00000000000E+00 0. -1.
<mgrwt>
<rscale>  0 0.10787052E+04</rscale>
<asrwt>0</asrwt>
<pdfrwt beam="1">  1        1 0.79302333E-01 0.10787052E+04</pdfrwt>
<pdfrwt beam="2">  1       -2 0.86822615E-01 0.10787052E+04</pdfrwt>
<totfact> 0.42583409E+01</totfact>
</mgrwt>
</event>
<event>
12    5  0.5297412E-008  0.1365995E+04  0.7818608E-02  0.8978808E-01
         -2   -1    0    0    0  501 -0.00000000000E+00  0.00000000000E+00  0.57794961645E+03  0.57794961645E+03  0.00000000000E+00 0.  1.
          1   -1    0    0  501    0  0.00000000000E+00 -0.00000000000E+00 -0.80713831709E+03  0.80713831709E+03  0.00000000000E+00 0. -1.
        -24    2    1    2    0    0  0.29634130247E+03  0.23349085913E+03 -0.12364658497E+02  0.38562719381E+03  0.78862532169E+02 0.  0.
        254    2    1    2    0    0 -0.29634130247E+03 -0.23349085913E+03 -0.21682404214E+03  0.99946073973E+03  0.89976272214E+03 0.  0.
         23    2    4    4    0    0 -0.28448351206E+03 -0.74724861931E+02  0.31304891865E+03  0.43867638488E+03  0.89009390244E+02 0.  0.
         23    2    4    4    0    0 -0.11857790410E+02 -0.15876599720E+03 -0.52987296079E+03  0.56078435485E+03  0.91468513784E+02 0.  0.
          3    1    3    3  502    0  0.74618766709E+02  0.50862473728E+02  0.30237633721E+02  0.95232694344E+02  0.00000000000E+00 0. -1.
         -4    1    3    3    0  502  0.22172253576E+03  0.18262838540E+03 -0.42602292218E+02  0.29039449947E+03  0.00000000000E+00 0.  1.
         13    1    5    5    0    0 -0.20650006769E+03 -0.51974116834E+02  0.16342909342E+03  0.26842625682E+03  0.00000000000E+00 0.  1.
        -13    1    5    5    0    0 -0.77983444374E+02 -0.22750745097E+02  0.14961982523E+03  0.17025012805E+03  0.00000000000E+00 0. -1.
          3    1    6    6  503    0  0.80959746722E+01 -0.50999353595E+02 -0.64210707950E+02  0.82398385229E+02  0.00000000000E+00 0. -1.
         -3    1    6    6    0  503 -0.19953765082E+02 -0.10776664360E+03 -0.46566225284E+03  0.47838596962E+03  0.00000000000E+00 0.  1.
<mgrwt>
<rscale>  0 0.13659946E+04</rscale>
<asrwt>0</asrwt>
<pdfrwt beam="1">  1        1 0.12417513E+00 0.13659946E+04</pdfrwt>
<pdfrwt beam="2">  1       -2 0.88915326E-01 0.13659946E+04</pdfrwt>
<totfact> 0.20289795E+01</totfact>
</mgrwt>
</event>
<event>
12    5  0.5297412E-008  0.1652415E+04  0.7818608E-02  0.8788979E-01
          1   -1    0    0  501    0  0.00000000000E+00  0.00000000000E+00  0.95451292913E+03  0.95451292913E+03  0.00000000000E+00 0. -1.
         -2   -1    0    0    0  501 -0.00000000000E+00 -0.00000000000E+00 -0.71514910926E+03  0.71514910926E+03  0.00000000000E+00 0.  1.
        -24    2    1    2    0    0 -0.33849545001E+03  0.27209269996E+03 -0.26734074467E+03  0.51636239705E+03  0.80903920037E+02 0.  0.
        254    2    1    2    0    0  0.33849545001E+03 -0.27209269996E+03  0.50670456453E+03  0.11532996413E+04  0.94060456088E+03 0.  0.
         23    2    4    4    0    0  0.50107113177E+03 -0.29808412740E+03 -0.22873879365E+02  0.59133988968E+03  0.96089669922E+02 0.  0.
         23    2    4    4    0    0 -0.16257568176E+03  0.25991427441E+02  0.52957844390E+03  0.56195975167E+03  0.90769089728E+02 0.  0.
          1    1    3    3  502    0 -0.80292682070E+01  0.32013101101E+02 -0.15164026508E+02  0.36321556822E+02  0.00000000000E+00 0. -1.
         -2    1    3    3    0  502 -0.33046618180E+03  0.24007959886E+03 -0.25217671816E+03  0.48004084023E+03  0.00000000000E+00 0.  1.
         13    1    5    5    0    0  0.26948500710E+03 -0.11287187270E+03  0.14076702642E+02  0.29250706360E+03  0.00000000000E+00 0. -1.
        -13    1    5    5    0    0  0.23158612467E+03 -0.18521225470E+03 -0.36950582007E+02  0.29883282608E+03  0.00000000000E+00 0.  1.
          4    1    6    6  503    0 -0.21428806170E+02  0.20673077494E+02  0.21594191801E+03  0.21798504953E+03  0.00000000000E+00 0. -1.
         -4    1    6    6    0  503 -0.14114687559E+03  0.53183499477E+01  0.31363652589E+03  0.34397470214E+03  0.00000000000E+00 0.  1.
<mgrwt>
<rscale>  0 0.16524153E+04</rscale>
<asrwt>0</asrwt>
<pdfrwt beam="1">  1        1 0.14684814E+00 0.16524153E+04</pdfrwt>
<pdfrwt beam="2">  1       -2 0.11002294E+00 0.16524153E+04</pdfrwt>
<totfact> 0.90391266E+00</totfact>
</mgrwt>
</event>
<event>
12    5  0.5297412E-008  0.3028054E+04  0.7818608E-02  0.8235765E-01
         -2   -1    0    0    0  501 -0.00000000000E+00  0.00000000000E+00  0.12928476536E+04  0.12928476536E+04  0.00000000000E+00 0.  1.
          1   -1    0    0  501    0  0.00000000000E+00 -0.00000000000E+00 -0.17730459670E+04  0.17730459670E+04  0.00000000000E+00 0. -1.
        -24    2    1    2    0    0 -0.19206239260E+03 -0.41776024235E+03  0.10900807786E+04  0.11862641807E+04  0.86804491067E+02 0.  0.
        254    2    1    2    0    0  0.19206239260E+03  0.41776024235E+03 -0.15702790920E+04  0.18796294400E+04  0.92510476268E+03 0.  0.
         23    2    4    4    0    0  0.46624575520E+03 -0.52566925104E+02 -0.66454969110E+03  0.81884096745E+03  0.93412269952E+02 0.  0.
         23    2    4    4    0    0 -0.27418336259E+03  0.47032716745E+03 -0.90572940095E+03  0.10607884725E+04  0.92424428168E+02 0.  0.
          1    1    3    3  502    0 -0.16519798036E+02 -0.29221537260E+02  0.35997344725E+02  0.49220024322E+02  0.00000000000E+00 0. -1.
         -2    1    3    3    0  502 -0.17554259457E+03 -0.38853870509E+03  0.10540834339E+04  0.11370441564E+04  0.00000000000E+00 0.  1.
         13    1    5    5    0    0  0.37271628423E+03 -0.72262824205E+02 -0.56613261360E+03  0.68164908896E+03  0.00000000000E+00 0. -1.
        -13    1    5    5    0    0  0.93529470969E+02  0.19695899100E+02 -0.98417077495E+02  0.13719187849E+03  0.00000000000E+00 0.  1.
          4    1    6    6  503    0 -0.26062954070E+03  0.45071222248E+03 -0.89317530131E+03  0.10338430170E+04  0.00000000000E+00 0. -1.
         -4    1    6    6    0  503 -0.13553821891E+02  0.19614944972E+02 -0.12554099637E+02  0.26945455495E+02  0.00000000000E+00 0.  1.
<mgrwt>
<rscale>  0 0.30280544E+04</rscale>
<asrwt>0</asrwt>
<pdfrwt beam="1">  1        1 0.27277630E+00 0.30280544E+04</pdfrwt>
<pdfrwt beam="2">  1       -2 0.19889964E+00 0.30280544E+04</pdfrwt>
<totfact> 0.42882264E-01</totfact>
</mgrwt>
</event>
<event>
12    5  0.5297412E-008  0.1380431E+04  0.7818608E-02  0.8968106E-01
         -2   -1    0    0    0  501 -0.00000000000E+00  0.00000000000E+00  0.16220727576E+03  0.16220727576E+03  0.00000000000E+00 0.  1.
          1   -1    0    0  501    0  0.00000000000E+00 -0.00000000000E+00 -0.29369685734E+04  0.29369685734E+04  0.00000000000E+00 0. -1.
        -24    2    1    2    0    0  0.36010563400E+03 -0.10410938515E+02 -0.86850514422E+03  0.94369839907E+03  0.80504829590E+02 0.  0.
        254    2    1    2    0    0 -0.36010563400E+03  0.10410938515E+02 -0.19062561535E+04  0.21554774501E+04  0.93940729195E+03 0.  0.
         23    2    4    4    0    0 -0.57577175314E+03  0.19483234853E+03 -0.79385001015E+03  0.10039117718E+04  0.90378377451E+02 0.  0.
         23    2    4    4    0    0  0.21566611914E+03 -0.18442141001E+03 -0.11124061433E+04  0.11515656784E+04  0.90182883814E+02 0.  0.
          1    1    3    3  502    0  0.21665920305E+03 -0.42222372908E+02 -0.56201681421E+03  0.60381026697E+03  0.00000000000E+00 0. -1.
         -2    1    3    3    0  502  0.14344643095E+03  0.31811434394E+02 -0.30648833000E+03  0.33988813210E+03  0.00000000000E+00 0.  1.
         13    1    5    5    0    0 -0.20935147521E+03  0.77501794944E+02 -0.22323835136E+03  0.31570544802E+03  0.00000000000E+00 0.  1.
        -13    1    5    5    0    0 -0.36642027793E+03  0.11733055359E+03 -0.57061165879E+03  0.68820632374E+03  0.00000000000E+00 0. -1.
          4    1    6    6  503    0  0.11520585267E+03 -0.57908234727E+02 -0.37114404397E+03  0.39290412764E+03  0.00000000000E+00 0. -1.
         -4    1    6    6    0  503  0.10046026647E+03 -0.12651317529E+03 -0.74126209933E+03  0.75866155074E+03  0.00000000000E+00 0.  1.
<mgrwt>
<rscale>  0 0.13804313E+04</rscale>
<asrwt>0</asrwt>
<pdfrwt beam="1">  1        1 0.45184129E+00 0.13804313E+04</pdfrwt>
<pdfrwt beam="2">  1       -2 0.24954967E-01 0.13804313E+04</pdfrwt>
<totfact> 0.82615079E+00</totfact>
</mgrwt>
</event>
<event>
12    5  0.5297412E-008  0.1130934E+04  0.7818608E-02  0.9175555E-01
          1   -1    0    0  501    0  0.00000000000E+00  0.00000000000E+00  0.62048204397E+03  0.62048204397E+03  0.00000000000E+00 0. -1.
         -2   -1    0    0    0  501 -0.00000000000E+00 -0.00000000000E+00 -0.51533014646E+03  0.51533014646E+03  0.00000000000E+00 0.  1.
        -24    2    1    2    0    0 -0.18561283172E+02  0.26451181203E+02 -0.14895734410E+03  0.17239964563E+03  0.80555330251E+02 0.  0.
        254    2    1    2    0    0  0.18561283172E+02 -0.26451181203E+02  0.25410924161E+03  0.96341254481E+03  0.92873464380E+03 0.  0.
         23    2    4    4    0    0 -0.35304599966E+03 -0.13917432625E+03  0.37946726233E+03  0.54496374177E+03  0.94758143207E+02 0.  0.
         23    2    4    4    0    0  0.37160728283E+03  0.11272314504E+03 -0.12535802072E+03  0.41844880304E+03  0.92662221666E+02 0.  0.
          3    1    3    3  502    0  0.28391611374E+02 -0.53974162621E+01 -0.37612039586E+02  0.47432912840E+02  0.00000000000E+00 0. -1.
         -4    1    3    3    0  502 -0.46952894546E+02  0.31848597465E+02 -0.11134530451E+03  0.12496673279E+03  0.00000000000E+00 0.  1.
         13    1    5    5    0    0 -0.31339921337E+03 -0.10026318022E+03  0.35565865346E+03  0.48452538636E+03  0.00000000000E+00 0. -1.
        -13    1    5    5    0    0 -0.39646786285E+02 -0.38911146027E+02  0.23808608868E+02  0.60438355405E+02  0.00000000000E+00 0.  1.
          1    1    6    6  503    0  0.24397976974E+03  0.27185200668E+02 -0.72545642428E+02  0.25598443979E+03  0.00000000000E+00 0. -1.
         -1    1    6    6    0  503  0.12762751309E+03  0.85537944375E+02 -0.52812378287E+02  0.16246436325E+03  0.00000000000E+00 0.  1.
<mgrwt>
<rscale>  0 0.11309343E+04</rscale>
<asrwt>0</asrwt>
<pdfrwt beam="1">  1        1 0.95458776E-01 0.11309343E+04</pdfrwt>
<pdfrwt beam="2">  1       -2 0.79281561E-01 0.11309343E+04</pdfrwt>
<totfact> 0.40064127E+01</totfact>
</mgrwt>
</event>
<event>
12    5  0.5297412E-008  0.2596283E+04  0.7818608E-02  0.8369465E-01
          1   -1    0    0  501    0  0.00000000000E+00  0.00000000000E+00  0.20802479825E+04  0.20802479825E+04  0.00000000000E+00 0. -1.
         -2   -1    0    0    0  501 -0.00000000000E+00 -0.00000000000E+00 -0.81008177719E+03  0.81008177719E+03  0.00000000000E+00 0.  1.
        -24    2    1    2    0    0  0.60828748463E+03  0.31409399433E+03  0.15738754662E+04  0.17180286695E+04  0.76614782526E+02 0.  0.
        254    2    1    2    0    0 -0.60828748463E+03 -0.31409399433E+03 -0.30370926094E+03  0.11723010901E+04  0.90187683722E+03 0.  0.
         23    2    4    4    0    0  0.21445203580E+03 -0.17629110025E+03 -0.88042943060E+02  0.30590589929E+03  0.93587561736E+02 0.  0.
         23    2    4    4    0    0 -0.82273952043E+03 -0.13780289408E+03 -0.21566631788E+03  0.86639519084E+03  0.90767339739E+02 0.  0.
          1    1    3    3  502    0  0.20604601689E+03  0.91640999360E+02  0.60457329019E+03  0.64526110765E+03  0.00000000000E+00 0. -1.
         -2    1    3    3    0  502  0.40224146774E+03  0.22245299497E+03  0.96930217604E+03  0.10727675619E+04  0.00000000000E+00 0.  1.
         13    1    5    5    0    0 -0.81790406731E+01 -0.11053954824E+02 -0.12413352054E+02  0.18525062288E+02  0.00000000000E+00 0.  1.
        -13    1    5    5    0    0  0.22263107647E+03 -0.16523714543E+03 -0.75629591006E+02  0.28738083700E+03  0.00000000000E+00 0. -1.
          4    1    6    6  503    0 -0.54186106625E+03 -0.89788369843E+02 -0.18606062184E+03  0.57990854579E+03  0.00000000000E+00 0. -1.
         -4    1    6    6    0  503 -0.28087845418E+03 -0.48014524239E+02 -0.29605696034E+02  0.28648664506E+03  0.00000000000E+00 0.  1.
<mgrwt>
<rscale>  0 0.25962827E+04</rscale>
<asrwt>0</asrwt>
<pdfrwt beam="1">  1        1 0.32003815E+00 0.25962827E+04</pdfrwt>
<pdfrwt beam="2">  1       -2 0.12462797E+00 0.25962827E+04</pdfrwt>
<totfact> 0.98320334E-01</totfact>
</mgrwt>
</event>
<event>
12    5  0.5297412E-008  0.1179516E+04  0.7818608E-02  0.9130977E-01
         -2   -1    0    0    0  501 -0.00000000000E+00  0.00000000000E+00  0.67670080902E+03  0.67670080902E+03  0.00000000000E+00 0.  1.
          1   -1    0    0  501    0  0.00000000000E+00 -0.00000000000E+00 -0.51398601621E+03  0.51398601621E+03  0.00000000000E+00 0. -1.
        -24    2    1    2    0    0 -0.35827373491E+02 -0.12906613340E+03 -0.16268595335E+03  0.22572920602E+03  0.80902951426E+02 0.  0.
        254    2    1    2    0    0  0.35827373491E+02  0.12906613340E+03  0.32540074616E+03  0.96495761921E+03  0.89850759250E+03 0.  0.
         23    2    4    4    0    0  0.20219828520E+03  0.15701944579E+03  0.58338368715E+03  0.64379704246E+03  0.92729998161E+02 0.  0.
         23    2    4    4    0    0 -0.16637091170E+03 -0.27953312387E+02 -0.25798294099E+03  0.32116057674E+03  0.90156809365E+02 0.  0.
          1    1    3    3  502    0 -0.26477396405E+02 -0.89601160943E+02 -0.15974933902E+03  0.18506558805E+03  0.00000000000E+00 0. -1.
         -2    1    3    3    0  502 -0.93499770864E+01 -0.39464972461E+02 -0.29366143340E+01  0.40663617972E+02  0.00000000000E+00 0.  1.
         13    1    5    5    0    0  0.11566884898E+03  0.14380982727E+03  0.40697211991E+03  0.44686335208E+03  0.00000000000E+00 0.  1.
        -13    1    5    5    0    0  0.86529436216E+02  0.13209618516E+02  0.17641156724E+03  0.19693369039E+03  0.00000000000E+00 0. -1.
          1    1    6    6  503    0 -0.52597437565E+02 -0.86031502141E+01 -0.20467026610E+02  0.57091188552E+02  0.00000000000E+00 0. -1.
         -1    1    6    6    0  503 -0.11377347414E+03 -0.19350162173E+02 -0.23751591438E+03  0.26406938819E+03  0.00000000000E+00 0.  1.
<mgrwt>
<rscale>  0 0.11795164E+04</rscale>
<asrwt>0</asrwt>
<pdfrwt beam="1">  1        1 0.79074772E-01 0.11795164E+04</pdfrwt>
<pdfrwt beam="2">  1       -2 0.10410782E+00 0.11795164E+04</pdfrwt>
<totfact> 0.27745531E+01</totfact>
</mgrwt>
</event>
<event>
12    5  0.5297412E-008  0.1232760E+04  0.7818608E-02  0.9084655E-01
          1   -1    0    0  501    0  0.00000000000E+00  0.00000000000E+00  0.15263934436E+04  0.15263934436E+04  0.00000000000E+00 0. -1.
         -2   -1    0    0    0  501 -0.00000000000E+00 -0.00000000000E+00 -0.24890335832E+03  0.24890335832E+03  0.00000000000E+00 0.  1.
        -24    2    1    2    0    0  0.19855767584E+03  0.13895469089E+03  0.83201721449E+02  0.26832871973E+03  0.79650603409E+02 0.  0.
        254    2    1    2    0    0 -0.19855767584E+03 -0.13895469089E+03  0.11942883638E+04  0.15069680822E+04  0.88650693626E+03 0.  0.
         23    2    4    4    0    0 -0.39917637365E+02  0.36005683380E+03  0.36394178604E+03  0.52098712650E+03  0.87975115878E+02 0.  0.
         23    2    4    4    0    0 -0.15864003848E+03 -0.49901152469E+03  0.83034657779E+03  0.98598095570E+03  0.92216279301E+02 0.  0.
          3    1    3    3  502    0  0.15160159273E+03  0.13404294743E+03  0.88405654169E+02  0.22083051049E+03  0.00000000000E+00 0. -1.
         -4    1    3    3    0  502  0.46956083111E+02  0.49117434550E+01 -0.52039327201E+01  0.47498209237E+02  0.00000000000E+00 0.  1.
         13    1    5    5    0    0  0.94010510009E+01  0.21886302481E+03  0.25368150516E+03  0.33517713146E+03  0.00000000000E+00 0. -1.
        -13    1    5    5    0    0 -0.49318688366E+02  0.14119380900E+03  0.11026028088E+03  0.18580999505E+03  0.00000000000E+00 0.  1.
          1    1    6    6  503    0 -0.15277328583E+03 -0.47875918004E+03  0.74917778642E+03  0.90211827661E+03  0.00000000000E+00 0. -1.
         -1    1    6    6    0  503 -0.58667526486E+01 -0.20252344650E+02  0.81168791375E+02  0.83862679088E+02  0.00000000000E+00 0.  1.
<mgrwt>
<rscale>  0 0.12327602E+04</rscale>
<asrwt>0</asrwt>
<pdfrwt beam="1">  1        1 0.23482975E+00 0.12327602E+04</pdfrwt>
<pdfrwt beam="2">  1       -2 0.38292825E-01 0.12327602E+04</pdfrwt>
<totfact> 0.34994612E+01</totfact>
</mgrwt>
</event>
<event>
12    5  0.5297412E-008  0.1707556E+04  0.7818608E-02  0.8757066E-01
         -2   -1    0    0    0  501 -0.00000000000E+00  0.00000000000E+00  0.30138807517E+03  0.30138807517E+03  0.00000000000E+00 0.  1.
          1   -1    0    0  501    0  0.00000000000E+00 -0.00000000000E+00 -0.24186002971E+04  0.24186002971E+04  0.00000000000E+00 0. -1.
        -24    2    1    2    0    0 -0.26671380782E+03  0.26774181970E+03 -0.15004691315E+04  0.15495087294E+04  0.82144693919E+02 0.  0.
        254    2    1    2    0    0  0.26671380782E+03 -0.26774181970E+03 -0.61674309041E+03  0.11704796428E+04  0.92023291473E+03 0.  0.
         23    2    4    4    0    0 -0.96539751565E+02 -0.79113783622E+02  0.19988325832E+03  0.25295555949E+03  0.91947179020E+02 0.  0.
         23    2    4    4    0    0  0.36325355939E+03 -0.18862803608E+03 -0.81662634873E+03  0.91752408332E+03  0.86244800544E+02 0.  0.
          1    1    3    3  502    0 -0.27131253373E+03  0.26881391832E+03 -0.14854785440E+04  0.15337920062E+04  0.00000000000E+00 0. -1.
         -2    1    3    3    0  502  0.45987259111E+01 -0.10720986224E+01 -0.14990587508E+02  0.15716723237E+02  0.00000000000E+00 0.  1.
         13    1    5    5    0    0 -0.57618753907E+02 -0.84784853102E+02  0.18381704480E+03  0.21046875795E+03  0.00000000000E+00 0. -1.
        -13    1    5    5    0    0 -0.38920997658E+02  0.56710694801E+01  0.16066213521E+02  0.42486801535E+02  0.00000000000E+00 0.  1.
          2    1    6    6  503    0  0.34642582231E+03 -0.15263939717E+03 -0.73770731596E+03  0.82916929511E+03  0.00000000000E+00 0. -1.
         -2    1    6    6    0  503  0.16827737077E+02 -0.35988638905E+02 -0.78919032767E+02  0.88354788202E+02  0.00000000000E+00 0.  1.
<mgrwt>
<rscale>  0 0.17075565E+04</rscale>
<asrwt>0</asrwt>
<pdfrwt beam="1">  1        1 0.37209235E+00 0.17075565E+04</pdfrwt>
<pdfrwt beam="2">  1       -2 0.46367397E-01 0.17075565E+04</pdfrwt>
<totfact> 0.56876587E+00</totfact>
</mgrwt>
</event>
<event>
12    5  0.5297412E-008  0.1590160E+04  0.7818608E-02  0.8826616E-01
          1   -1    0    0  501    0  0.00000000000E+00  0.00000000000E+00  0.19569913129E+04  0.19569913129E+04  0.00000000000E+00 0. -1.
         -2   -1    0    0    0  501 -0.00000000000E+00 -0.00000000000E+00 -0.32302235446E+03  0.32302235446E+03  0.00000000000E+00 0.  1.
        -24    2    1    2    0    0  0.43436815237E+02 -0.35426218288E+03  0.11293378765E+04  0.11870979772E+04  0.80056960144E+02 0.  0.
        254    2    1    2    0    0 -0.43436815237E+02  0.35426218288E+03  0.50463108186E+03  0.10929156902E+04  0.90134550860E+03 0.  0.
         23    2    4    4    0    0 -0.39898211430E+03  0.80618260095E+02  0.66305055035E+01  0.41727860078E+03  0.91604779743E+02 0.  0.
         23    2    4    4    0    0  0.35554529906E+03  0.27364392279E+03  0.49800057636E+03  0.67563708938E+03  0.84778808245E+02 0.  0.
          3    1    3    3  502    0  0.30386992595E+02 -0.27587458352E+03  0.97174645481E+03  0.10106044368E+04  0.00000000000E+00 0. -1.
         -4    1    3    3    0  502  0.13049822643E+02 -0.78387599358E+02  0.15759142173E+03  0.17649354041E+03  0.00000000000E+00 0.  1.
         13    1    5    5    0    0 -0.52659163282E+02  0.30475296007E+02  0.27403511704E+02  0.66728431706E+02  0.00000000000E+00 0.  1.
        -13    1    5    5    0    0 -0.34632295102E+03  0.50142964088E+02 -0.20773006201E+02  0.35055016907E+03  0.00000000000E+00 0. -1.
          4    1    6    6  503    0  0.31939643608E+03  0.25558162612E+03  0.41184854347E+03  0.58047848690E+03  0.00000000000E+00 0. -1.
         -4    1    6    6    0  503  0.36148862984E+02  0.18062296663E+02  0.86152032881E+02  0.95158602476E+02  0.00000000000E+00 0.  1.
<mgrwt>
<rscale>  0 0.15901597E+04</rscale>
<asrwt>0</asrwt>
<pdfrwt beam="1">  1        1 0.30107558E+00 0.15901597E+04</pdfrwt>
<pdfrwt beam="2">  1       -2 0.49695748E-01 0.15901597E+04</pdfrwt>
<totfact> 0.10299517E+01</totfact>
</mgrwt>
</event>
<event>
12    5  0.5297412E-008  0.1223430E+04  0.7818608E-02  0.9092592E-01
         -4   -1    0    0    0  501 -0.00000000000E+00  0.00000000000E+00  0.90915876780E+03  0.90915876780E+03  0.00000000000E+00 0.  1.
          3   -1    0    0  501    0  0.00000000000E+00 -0.00000000000E+00 -0.41158387077E+03  0.41158387077E+03  0.00000000000E+00 0. -1.
        -24    2    1    2    0    0 -0.40416339313E+02  0.15618428186E+03  0.35402544035E+03  0.39758563118E+03  0.81934799218E+02 0.  0.
        254    2    1    2    0    0  0.40416339313E+02 -0.15618428186E+03  0.14354945668E+03  0.92315700740E+03  0.89754409552E+03 0.  0.
         23    2    4    4    0    0  0.42880404126E+02  0.15427991788E+03  0.44440906640E+03  0.48149279578E+03  0.93246297353E+02 0.  0.
         23    2    4    4    0    0 -0.24640648131E+01 -0.31046419974E+03 -0.30085960972E+03  0.44166421162E+03  0.90314340649E+02 0.  0.
          3    1    3    3  502    0 -0.49552348475E+02  0.38183898379E+02  0.12598379855E+03  0.14066045227E+03  0.00000000000E+00 0. -1.
         -4    1    3    3    0  502  0.91360091619E+01  0.11800038348E+03  0.22804164180E+03  0.25692517891E+03  0.00000000000E+00 0.  1.
         13    1    5    5    0    0  0.24123663958E+02  0.10841557397E+02  0.16246314515E+03  0.16460183493E+03  0.00000000000E+00 0. -1.
        -13    1    5    5    0    0  0.18756740168E+02  0.14343836048E+03  0.28194592125E+03  0.31689096085E+03  0.00000000000E+00 0.  1.
          2    1    6    6  503    0  0.23155566960E+02 -0.62925241642E+02 -0.28862775909E+02  0.72998809238E+02  0.00000000000E+00 0. -1.
         -2    1    6    6    0  503 -0.25619631774E+02 -0.24753895810E+03 -0.27199683381E+03  0.36866540238E+03  0.00000000000E+00 0.  1.
<mgrwt>
<rscale>  0 0.12234297E+04</rscale>
<asrwt>0</asrwt>
<pdfrwt beam="1">  1        3 0.63320596E-01 0.12234297E+04</pdfrwt>
<pdfrwt beam="2">  1       -4 0.13987058E+00 0.12234297E+04</pdfrwt>
<totfact> 0.19543922E+00</totfact>
</mgrwt>
</event>
<event>
12    5  0.5297412E-008  0.1658700E+04  0.7818608E-02  0.8785276E-01
          1   -1    0    0  501    0  0.00000000000E+00  0.00000000000E+00  0.18956825373E+04  0.18956825373E+04  0.00000000000E+00 0. -1.
         -2   -1    0    0    0  501 -0.00000000000E+00 -0.00000000000E+00 -0.36283562631E+03  0.36283562631E+03  0.00000000000E+00 0.  1.
        -24    2    1    2    0    0 -0.35497246140E+03  0.14240810162E+03  0.11328941603E+04  0.11983993775E+04  0.80164667258E+02 0.  0.
        254    2    1    2    0    0  0.35497246140E+03 -0.14240810162E+03  0.39995275070E+03  0.10601187861E+04  0.90421464379E+03 0.  0.
         23    2    4    4    0    0  0.26075571033E+01  0.13882582986E+03 -0.22775945799E+03  0.28207688825E+03  0.91725622308E+02 0.  0.
         23    2    4    4    0    0  0.35236490430E+03 -0.28123393149E+03  0.62771220870E+03  0.77804189783E+03  0.89850029670E+02 0.  0.
          3    1    3    3  502    0 -0.26966302134E+03  0.99168726263E+02  0.94267944549E+03  0.98549333752E+03  0.00000000000E+00 0. -1.
         -4    1    3    3    0  502 -0.85309440059E+02  0.43239375360E+02  0.19021471480E+03  0.21290604001E+03  0.00000000000E+00 0.  1.
         13    1    5    5    0    0  0.34815295463E+02  0.15313672117E+02 -0.41669746661E+02  0.56417915051E+02  0.00000000000E+00 0. -1.
        -13    1    5    5    0    0 -0.32207738360E+02  0.12351215774E+03 -0.18608971133E+03  0.22565897320E+03  0.00000000000E+00 0.  1.
          2    1    6    6  503    0  0.12275969280E+01 -0.18854546445E+01  0.32857571850E+02  0.32934510188E+02  0.00000000000E+00 0. -1.
         -2    1    6    6    0  503  0.35113730737E+03 -0.27934847684E+03  0.59485463685E+03  0.74510738764E+03  0.00000000000E+00 0.  1.
<mgrwt>
<rscale>  0 0.16586997E+04</rscale>
<asrwt>0</asrwt>
<pdfrwt beam="1">  1        1 0.29164346E+00 0.16586997E+04</pdfrwt>
<pdfrwt beam="2">  1       -2 0.55820867E-01 0.16586997E+04</pdfrwt>
<totfact> 0.88655494E+00</totfact>
</mgrwt>
</event>
<event>
12    5  0.5297412E-008  0.1781699E+04  0.7818608E-02  0.8716093E-01
          1   -1    0    0  501    0  0.00000000000E+00  0.00000000000E+00  0.14023780076E+04  0.14023780076E+04  0.00000000000E+00 0. -1.
         -2   -1    0    0    0  501 -0.00000000000E+00 -0.00000000000E+00 -0.56590496335E+03  0.56590496335E+03  0.00000000000E+00 0.  1.
        -24    2    1    2    0    0  0.50413048319E+03 -0.42807519221E+03  0.34242139923E+03  0.74877176415E+03  0.77529516126E+02 0.  0.
        254    2    1    2    0    0 -0.50413048319E+03  0.42807519221E+03  0.49405164507E+03  0.12195112068E+04  0.89762165824E+03 0.  0.
         23    2    4    4    0    0 -0.15316502683E+03  0.15447457913E+03  0.68705347920E+03  0.72658476154E+03  0.92525733628E+02 0.  0.
         23    2    4    4    0    0 -0.35096545637E+03  0.27360061308E+03 -0.19300183414E+03  0.49292644529E+03  0.87708183475E+02 0.  0.
          3    1    3    3  502    0  0.40076114822E+03 -0.32678783360E+03  0.30059114180E+03  0.59812609092E+03  0.00000000000E+00 0. -1.
         -4    1    3    3    0  502  0.10336933498E+03 -0.10128735861E+03  0.41830257434E+02  0.15064567323E+03  0.00000000000E+00 0.  1.
         13    1    5    5    0    0  0.12804675206E+02  0.10049537166E+02  0.42030381282E+02  0.45072229311E+02  0.00000000000E+00 0.  1.
        -13    1    5    5    0    0 -0.16596970204E+03  0.14442504196E+03  0.64502309792E+03  0.68151253223E+03  0.00000000000E+00 0. -1.
          2    1    6    6  503    0 -0.32304947224E+03  0.24946580165E+03 -0.20130406359E+03  0.45510160813E+03  0.00000000000E+00 0. -1.
         -2    1    6    6    0  503 -0.27915984125E+02  0.24134811427E+02  0.83022294488E+01  0.37824837159E+02  0.00000000000E+00 0.  1.
<mgrwt>
<rscale>  0 0.17816988E+04</rscale>
<asrwt>0</asrwt>
<pdfrwt beam="1">  1        1 0.21575046E+00 0.17816988E+04</pdfrwt>
<pdfrwt beam="2">  1       -2 0.87062302E-01 0.17816988E+04</pdfrwt>
<totfact> 0.72393093E+00</totfact>
</mgrwt>
</event>
<event>
12    5  0.5297412E-008  0.1817250E+04  0.7818608E-02  0.8697179E-01
          1   -1    0    0  501    0  0.00000000000E+00  0.00000000000E+00  0.12359378693E+04  0.12359378693E+04  0.00000000000E+00 0. -1.
         -2   -1    0    0    0  501 -0.00000000000E+00 -0.00000000000E+00 -0.66799460575E+03  0.66799460575E+03  0.00000000000E+00 0.  1.
        -24    2    1    2    0    0  0.56780626098E+03  0.33150841704E+03  0.16667103297E+02  0.66398063442E+03  0.91053335916E+02 0.  0.
        254    2    1    2    0    0 -0.56780626098E+03 -0.33150841704E+03  0.55127616030E+03  0.12399518407E+04  0.89513874997E+03 0.  0.
         23    2    4    4    0    0 -0.71577090699E+03 -0.10323445573E+03  0.14719167940E+03  0.74357523629E+03  0.90848210804E+02 0.  0.
         23    2    4    4    0    0  0.14796464601E+03 -0.22827396131E+03  0.40408448090E+03  0.49637660438E+03  0.95409264698E+02 0.  0.
          3    1    3    3  502    0  0.39213622654E+03  0.24461426724E+03  0.51100328693E+02  0.46499269188E+03  0.00000000000E+00 0. -1.
         -4    1    3    3    0  502  0.17567003444E+03  0.86894149797E+02 -0.34433225396E+02  0.19898794255E+03  0.00000000000E+00 0.  1.
         13    1    5    5    0    0 -0.65046185944E+03 -0.10478998184E+03  0.10871246324E+03  0.66775741894E+03  0.00000000000E+00 0. -1.
        -13    1    5    5    0    0 -0.65309047543E+02  0.15555261078E+01  0.38479216154E+02  0.75817817353E+02  0.00000000000E+00 0.  1.
          1    1    6    6  503    0  0.75725323831E+01  0.90725488282E+01  0.24475392999E+02  0.27179022267E+02  0.00000000000E+00 0. -1.
         -1    1    6    6    0  503  0.14039211362E+03 -0.23734651014E+03  0.37960908790E+03  0.46919758211E+03  0.00000000000E+00 0.  1.
<mgrwt>
<rscale>  0 0.18172505E+04</rscale>
<asrwt>0</asrwt>
<pdfrwt beam="1">  1        1 0.19014429E+00 0.18172505E+04</pdfrwt>
<pdfrwt beam="2">  1       -2 0.10276840E+00 0.18172505E+04</pdfrwt>
<totfact> 0.64353563E+00</totfact>
</mgrwt>
</event>
<event>
12    5  0.5297412E-008  0.1190368E+04  0.7818608E-02  0.9121330E-01
         -2   -1    0    0    0  501 -0.00000000000E+00  0.00000000000E+00  0.16047924645E+04  0.16047924645E+04  0.00000000000E+00 0.  1.
          1   -1    0    0  501    0  0.00000000000E+00 -0.00000000000E+00 -0.22074120356E+03  0.22074120356E+03  0.00000000000E+00 0. -1.
        -24    2    1    2    0    0  0.73049058775E+02  0.15683406235E+03  0.55842120706E+03  0.58954885504E+03  0.76161144144E+02 0.  0.
        254    2    1    2    0    0 -0.73049058775E+02 -0.15683406235E+03  0.82563005387E+03  0.12359848130E+04  0.90336060576E+03 0.  0.
         23    2    4    4    0    0 -0.32506075511E+03 -0.17163210047E+03  0.11953737275E+02  0.37904217467E+03  0.91695179364E+02 0.  0.
         23    2    4    4    0    0  0.25201169633E+03  0.14798038120E+02  0.81367631660E+03  0.85694263834E+03  0.92480593635E+02 0.  0.
          1    1    3    3  502    0  0.38800532619E+02  0.22261300254E+02  0.20504955864E+03  0.20987226667E+03  0.00000000000E+00 0. -1.
         -2    1    3    3    0  502  0.34248526156E+02  0.13457276210E+03  0.35337164843E+03  0.37967658837E+03  0.00000000000E+00 0.  1.
         13    1    5    5    0    0 -0.13939141595E+03 -0.67713000948E+02  0.50124483063E+02  0.16287259174E+03  0.00000000000E+00 0. -1.
        -13    1    5    5    0    0 -0.18566933915E+03 -0.10391909953E+03 -0.38170745788E+02  0.21616958293E+03  0.00000000000E+00 0.  1.
          4    1    6    6  503    0  0.10640819421E+03  0.15712107544E+02  0.20987266742E+03  0.23583068216E+03  0.00000000000E+00 0. -1.
         -4    1    6    6    0  503  0.14560350212E+03 -0.91406942428E+00  0.60380364918E+03  0.62111195618E+03  0.00000000000E+00 0.  1.
<mgrwt>
<rscale>  0 0.11903677E+04</rscale>
<asrwt>0</asrwt>
<pdfrwt beam="1">  1        1 0.33960186E-01 0.11903677E+04</pdfrwt>
<pdfrwt beam="2">  1       -2 0.24689114E+00 0.11903677E+04</pdfrwt>
<totfact> 0.76049887E+00</totfact>
</mgrwt>
</event>
<event>
12    5  0.5297412E-008  0.1410156E+04  0.7818608E-02  0.8946500E-01
          1   -1    0    0  501    0  0.00000000000E+00  0.00000000000E+00  0.73399280141E+03  0.73399280141E+03  0.00000000000E+00 0. -1.
         -2   -1    0    0    0  501 -0.00000000000E+00 -0.00000000000E+00 -0.67730258961E+03  0.67730258961E+03  0.00000000000E+00 0.  1.
        -24    2    1    2    0    0 -0.15589667821E+03  0.11797655687E+03  0.37767730087E+03  0.43258794524E+03  0.79182981309E+02 0.  0.
        254    2    1    2    0    0  0.15589667821E+03 -0.11797655687E+03 -0.32098708906E+03  0.97870744578E+03  0.90366659273E+03 0.  0.
         23    2    4    4    0    0  0.31308481339E+02  0.37789500582E+03 -0.52887378341E+02  0.39396056954E+03  0.92860105157E+02 0.  0.
         23    2    4    4    0    0  0.12458819687E+03 -0.49587156270E+03 -0.26809971072E+03  0.58474687624E+03  0.92954983152E+02 0.  0.
          1    1    3    3  502    0 -0.14371767871E+03  0.12371990605E+03  0.37281233439E+03  0.41827075322E+03  0.00000000000E+00 0. -1.
         -2    1    3    3    0  502 -0.12178999500E+02 -0.57433491729E+01  0.48649664767E+01  0.14317192021E+02  0.00000000000E+00 0.  1.
         13    1    5    5    0    0  0.54976438475E+02  0.12865140308E+03 -0.23725645886E+02  0.14190313095E+03  0.00000000000E+00 0. -1.
        -13    1    5    5    0    0 -0.23667957136E+02  0.24924360275E+03 -0.29161732455E+02  0.25205743858E+03  0.00000000000E+00 0.  1.
          4    1    6    6  503    0  0.75696210597E+02 -0.13527561018E+03 -0.94673387809E+02  0.18163825965E+03  0.00000000000E+00 0. -1.
         -4    1    6    6    0  503  0.48891986275E+02 -0.36059595251E+03 -0.17342632291E+03  0.40310861659E+03  0.00000000000E+00 0.  1.
<mgrwt>
<rscale>  0 0.14101563E+04</rscale>
<asrwt>0</asrwt>
<pdfrwt beam="1">  1        1 0.11292197E+00 0.14101563E+04</pdfrwt>
<pdfrwt beam="2">  1       -2 0.10420040E+00 0.14101563E+04</pdfrwt>
<totfact> 0.16181215E+01</totfact>
</mgrwt>
</event>
<event>
12    5  0.5297412E-008  0.2062759E+04  0.7818608E-02  0.8577828E-01
         -2   -1    0    0    0  501 -0.00000000000E+00  0.00000000000E+00  0.46819851695E+03  0.46819851695E+03  0.00000000000E+00 0.  1.
          1   -1    0    0  501    0  0.00000000000E+00 -0.00000000000E+00 -0.22719937833E+04  0.22719937833E+04  0.00000000000E+00 0. -1.
        -24    2    1    2    0    0 -0.69239994547E+03  0.23353330367E+03 -0.12246992847E+04  0.14285891917E+04  0.83804846062E+02 0.  0.
        254    2    1    2    0    0  0.69239994547E+03 -0.23353330367E+03 -0.57909598162E+03  0.13116031086E+04  0.92249394038E+03 0.  0.
         23    2    4    4    0    0  0.63757000339E+03 -0.16344929171E+03 -0.81012422970E+03  0.10478186837E+04  0.91714481340E+02 0.  0.
         23    2    4    4    0    0  0.54829942077E+02 -0.70084011958E+02  0.23102824808E+03  0.26378442490E+03  0.91049877160E+02 0.  0.
          1    1    3    3  502    0 -0.69111061760E+03  0.22898329287E+03 -0.12011852090E+04  0.14046042647E+04  0.00000000000E+00 0. -1.
         -2    1    3    3    0  502 -0.12893278718E+01  0.45500107992E+01 -0.23514075723E+02  0.23984926969E+02  0.00000000000E+00 0.  1.
         13    1    5    5    0    0  0.43863193412E+03 -0.12465130286E+03 -0.49391671216E+03  0.67222737187E+03  0.00000000000E+00 0.  1.
        -13    1    5    5    0    0  0.19893806927E+03 -0.38797988851E+02 -0.31620751754E+03  0.37559131179E+03  0.00000000000E+00 0. -1.
          2    1    6    6  503    0  0.61660341510E+02 -0.11470815540E+02  0.80117307339E+02  0.10174654913E+03  0.00000000000E+00 0. -1.
         -2    1    6    6    0  503 -0.68303994331E+01 -0.58613196417E+02  0.15091094074E+03  0.16203787577E+03  0.00000000000E+00 0.  1.
<mgrwt>
<rscale>  0 0.20627594E+04</rscale>
<asrwt>0</asrwt>
<pdfrwt beam="1">  1        1 0.34953751E+00 0.20627594E+04</pdfrwt>
<pdfrwt beam="2">  1       -2 0.72030540E-01 0.20627594E+04</pdfrwt>
<totfact> 0.27528303E+00</totfact>
</mgrwt>
</event>
<event>
12    5  0.5297412E-008  0.2036920E+04  0.7818608E-02  0.8589552E-01
          1   -1    0    0  501    0  0.00000000000E+00  0.00000000000E+00  0.94637232940E+03  0.94637232940E+03  0.00000000000E+00 0. -1.
         -2   -1    0    0    0  501 -0.00000000000E+00 -0.00000000000E+00 -0.10960382597E+04  0.10960382597E+04  0.00000000000E+00 0.  1.
        -24    2    1    2    0    0  0.41152446766E+02  0.34482284332E+01  0.75808630103E+03  0.76362901642E+03  0.82030608682E+02 0.  0.
        254    2    1    2    0    0 -0.41152446766E+02 -0.34482284332E+01 -0.90775223128E+03  0.12787815726E+04  0.89975706886E+03 0.  0.
         23    2    4    4    0    0 -0.35477426952E+03  0.19695341554E+03 -0.76284602544E+03  0.86890689456E+03  0.91704430996E+02 0.  0.
         23    2    4    4    0    0  0.31362182276E+03 -0.20040164397E+03 -0.14490620584E+03  0.40987467808E+03  0.92086788533E+02 0.  0.
          1    1    3    3  502    0  0.59622271969E+02  0.37576384743E+01  0.70287929078E+03  0.70541351885E+03  0.00000000000E+00 0. -1.
         -2    1    3    3    0  502 -0.18469825203E+02 -0.30941004106E+00  0.55207010247E+02  0.58215497576E+02  0.00000000000E+00 0.  1.
         13    1    5    5    0    0 -0.15950435486E+03  0.39197456290E+02 -0.27686093047E+03  0.32191622298E+03  0.00000000000E+00 0.  1.
        -13    1    5    5    0    0 -0.19526991466E+03  0.15775595925E+03 -0.48598509498E+03  0.54699067158E+03  0.00000000000E+00 0. -1.
          3    1    6    6  503    0  0.17353975190E+03 -0.16193551890E+03 -0.77146098968E+02  0.24958100560E+03  0.00000000000E+00 0. -1.
         -3    1    6    6    0  503  0.14008207085E+03 -0.38466125079E+02 -0.67760106872E+02  0.16029367248E+03  0.00000000000E+00 0.  1.
<mgrwt>
<rscale>  0 0.20369195E+04</rscale>
<asrwt>0</asrwt>
<pdfrwt beam="1">  1        1 0.14559574E+00 0.20369195E+04</pdfrwt>
<pdfrwt beam="2">  1       -2 0.16862127E+00 0.20369195E+04</pdfrwt>
<totfact> 0.29480597E+00</totfact>
</mgrwt>
</event>
<event>
12    5  0.7540782E-008  0.2008879E+04  0.7818608E-02  0.8602481E-01
         -2   -1    0    0    0  501 -0.00000000000E+00  0.00000000000E+00  0.42720162396E+03  0.42720162396E+03  0.00000000000E+00 0.  1.
          1   -1    0    0  501    0  0.00000000000E+00 -0.00000000000E+00 -0.23616445292E+04  0.23616445292E+04  0.00000000000E+00 0. -1.
        -24    2    1    2    0    0 -0.27221880731E+03  0.40333427024E+03 -0.16834995350E+04  0.17541855242E+04  0.78832456955E+02 0.  0.
        254    2    1    2    0    0  0.27221880731E+03 -0.40333427024E+03 -0.25094337018E+03  0.10346606289E+04  0.87793418286E+03 0.  0.
         23    2    4    4    0    0  0.48219436724E+03 -0.52321774208E+03 -0.73462862980E+02  0.72118299602E+03  0.91868972345E+02 0.  0.
         23    2    4    4    0    0 -0.20997555993E+03  0.11988347183E+03 -0.17748050720E+03  0.31347763292E+03  0.91143366823E+02 0.  0.
          1    1    3    3  502    0 -0.25973208548E+03  0.39118607204E+03 -0.15502848080E+04  0.16198364995E+04  0.00000000000E+00 0. -1.
         -2    1    3    3    0  502 -0.12486721829E+02  0.12148198205E+02 -0.13321472705E+03  0.13434902472E+03  0.00000000000E+00 0.  1.
         13    1    5    5    0    0  0.10730202095E+02 -0.20082033698E+02  0.13087291786E+02  0.26262188042E+02  0.00000000000E+00 0.  1.
        -13    1    5    5    0    0  0.47146416515E+03 -0.50313570838E+03 -0.86550154766E+02  0.69492080797E+03  0.00000000000E+00 0. -1.
          4    1    6    6  503    0 -0.14890518836E+01  0.32161212884E+02 -0.23090038504E+02  0.39619575563E+02  0.00000000000E+00 0.  1.
         -4    1    6    6    0  503 -0.20848650805E+03  0.87722258949E+02 -0.15439046870E+03  0.27385805736E+03  0.00000000000E+00 0. -1.
<mgrwt>
<rscale>  0 0.20088787E+04</rscale>
<asrwt>0</asrwt>
<pdfrwt beam="1">  1        1 0.36332993E+00 0.20088787E+04</pdfrwt>
<pdfrwt beam="2">  1       -2 0.65723326E-01 0.20088787E+04</pdfrwt>
<totfact> 0.29312628E+00</totfact>
</mgrwt>
</event>
<event>
12    5  0.5297412E-008  0.2076229E+04  0.7818608E-02  0.8571787E-01
         -2   -1    0    0    0  501 -0.00000000000E+00  0.00000000000E+00  0.73664706030E+03  0.73664706030E+03  0.00000000000E+00 0.  1.
          1   -1    0    0  501    0  0.00000000000E+00 -0.00000000000E+00 -0.14629555716E+04  0.14629555716E+04  0.00000000000E+00 0. -1.
        -24    2    1    2    0    0 -0.43996377743E+03 -0.45044696573E+03  0.29626118610E+03  0.70054131414E+03  0.80726997025E+02 0.  0.
        254    2    1    2    0    0  0.43996377743E+03  0.45044696573E+03 -0.10225696974E+04  0.14990613178E+04  0.89725439761E+03 0.  0.
         23    2    4    4    0    0  0.17747311693E+02 -0.18777818760E+03  0.14825560906E+02  0.20668983730E+03  0.83218247862E+02 0.  0.
         23    2    4    4    0    0  0.42221646573E+03  0.63822515333E+03 -0.10373952584E+04  0.12923714805E+04  0.91853314023E+02 0.  0.
          1    1    3    3  502    0 -0.40263626955E+02 -0.79485338152E+02  0.50303594056E+02  0.10232072230E+03  0.00000000000E+00 0. -1.
         -4    1    3    3    0  502 -0.39970015047E+03 -0.37096162757E+03  0.24595759205E+03  0.59822059184E+03  0.00000000000E+00 0.  1.
         13    1    5    5    0    0 -0.27360141182E+00 -0.14855794653E+03 -0.21715502746E+02  0.15013694214E+03  0.00000000000E+00 0.  1.
        -13    1    5    5    0    0  0.18020913105E+02 -0.39220241071E+02  0.36541063652E+02  0.56552895166E+02  0.00000000000E+00 0. -1.
          3    1    6    6  503    0  0.33704938388E+03  0.47171096668E+03 -0.83788234144E+03  0.10189015366E+04  0.00000000000E+00 0. -1.
         -3    1    6    6    0  503  0.85167081853E+02  0.16651418665E+03 -0.19951291692E+03  0.27346994387E+03  0.00000000000E+00 0.  1.
<mgrwt>
<rscale>  0 0.20762292E+04</rscale>
<asrwt>0</asrwt>
<pdfrwt beam="1">  1        1 0.22507009E+00 0.20762292E+04</pdfrwt>
<pdfrwt beam="2">  1       -2 0.11333032E+00 0.20762292E+04</pdfrwt>
<totfact> 0.34312164E+00</totfact>
</mgrwt>
</event>
<event>
12    5  0.5297412E-008  0.3600533E+04  0.7818608E-02  0.8090370E-01
          1   -1    0    0  501    0  0.00000000000E+00  0.00000000000E+00  0.21601630267E+04  0.21601630267E+04  0.00000000000E+00 0. -1.
         -2   -1    0    0    0  501 -0.00000000000E+00 -0.00000000000E+00 -0.15003313362E+04  0.15003313362E+04  0.00000000000E+00 0.  1.
        -24    2    1    2    0    0 -0.13104484806E+04  0.57891752679E+03  0.11877337331E+04  0.18626523856E+04  0.79635205343E+02 0.  0.
        254    2    1    2    0    0  0.13104484806E+04 -0.57891752679E+03 -0.52790204258E+03  0.17978419772E+04  0.94928103597E+03 0.  0.
         23    2    4    4    0    0  0.51509185127E+03  0.11442623316E+03  0.12776923458E+03  0.55211737154E+03  0.10047704497E+03 0.  0.
         23    2    4    4    0    0  0.79535662934E+03 -0.69334375995E+03 -0.65567127716E+03  0.12457246057E+04  0.92775169957E+02 0.  0.
          3    1    3    3  502    0 -0.12370929641E+04  0.52569719586E+03  0.11087256897E+04  0.17424205000E+04  0.00000000000E+00 0. -1.
         -4    1    3    3    0  502 -0.73355516477E+02  0.53220330926E+02  0.79008043319E+02  0.12023188567E+03  0.00000000000E+00 0.  1.
         13    1    5    5    0    0  0.15617627312E+03 -0.45738710702E+01  0.12186149378E+02  0.15671774251E+03  0.00000000000E+00 0.  1.
        -13    1    5    5    0    0  0.35891557816E+03  0.11900010423E+03  0.11558308520E+03  0.39539962903E+03  0.00000000000E+00 0. -1.
          3    1    6    6  503    0  0.56716619681E+03 -0.43754208642E+03 -0.43564453100E+03  0.83839533013E+03  0.00000000000E+00 0. -1.
         -3    1    6    6    0  503  0.22819043253E+03 -0.25580167354E+03 -0.22002674615E+03  0.40732927553E+03  0.00000000000E+00 0.  1.
<mgrwt>
<rscale>  0 0.36005334E+04</rscale>
<asrwt>0</asrwt>
<pdfrwt beam="1">  1        1 0.33233277E+00 0.36005334E+04</pdfrwt>
<pdfrwt beam="2">  1       -2 0.23082021E+00 0.36005334E+04</pdfrwt>
<totfact> 0.13942351E-01</totfact>
</mgrwt>
</event>
<event>
12    5  0.5297412E-008  0.1584857E+04  0.7818608E-02  0.8829906E-01
         -2   -1    0    0    0  501 -0.00000000000E+00  0.00000000000E+00  0.29766591957E+03  0.29766591957E+03  0.00000000000E+00 0.  1.
          1   -1    0    0  501    0  0.00000000000E+00 -0.00000000000E+00 -0.21095549155E+04  0.21095549155E+04  0.00000000000E+00 0. -1.
        -24    2    1    2    0    0 -0.34957489132E+03  0.32437401309E+03 -0.24433371582E+03  0.54039381856E+03  0.70038628184E+02 0.  0.
        254    2    1    2    0    0  0.34957489132E+03 -0.32437401309E+03 -0.15675552801E+04  0.18668270165E+04  0.89464654943E+03 0.  0.
         23    2    4    4    0    0  0.51443110410E+03 -0.86419891401E+02 -0.14392682123E+04  0.15337095474E+04  0.93081847744E+02 0.  0.
         23    2    4    4    0    0 -0.16485621278E+03 -0.23795412169E+03 -0.12828706780E+03  0.33311746910E+03  0.10348884739E+03 0.  0.
          1    1    3    3  502    0 -0.15257155055E+03  0.16132361842E+03 -0.14934809428E+03  0.26759716210E+03  0.00000000000E+00 0. -1.
         -2    1    3    3    0  502 -0.19700334077E+03  0.16305039467E+03 -0.94985621548E+02  0.27279665646E+03  0.00000000000E+00 0.  1.
         13    1    5    5    0    0  0.35504660609E+02  0.36065408120E+01 -0.49825298969E+02  0.61287425129E+02  0.00000000000E+00 0.  1.
        -13    1    5    5    0    0  0.47892644349E+03 -0.90026432213E+02 -0.13894429134E+04  0.14724221223E+04  0.00000000000E+00 0. -1.
          2    1    6    6  503    0 -0.13093378369E+03 -0.23862316168E+03 -0.10393577495E+03  0.29135427630E+03  0.00000000000E+00 0. -1.
         -2    1    6    6    0  503 -0.33922429093E+02  0.66903999079E+00 -0.24351292844E+02  0.41763192804E+02  0.00000000000E+00 0.  1.
<mgrwt>
<rscale>  0 0.15848566E+04</rscale>
<asrwt>0</asrwt>
<pdfrwt beam="1">  1        1 0.32454690E+00 0.15848566E+04</pdfrwt>
<pdfrwt beam="2">  1       -2 0.45794759E-01 0.15848566E+04</pdfrwt>
<totfact> 0.95820409E+00</totfact>
</mgrwt>
</event>
<event>
12    5  0.5297412E-008  0.1462404E+04  0.7818608E-02  0.8909846E-01
         -2   -1    0    0    0  501 -0.00000000000E+00  0.00000000000E+00  0.57846769443E+03  0.57846769443E+03  0.00000000000E+00 0.  1.
          1   -1    0    0  501    0  0.00000000000E+00 -0.00000000000E+00 -0.92426299792E+03  0.92426299792E+03  0.00000000000E+00 0. -1.
        -24    2    1    2    0    0 -0.31966046524E+03 -0.21658926613E+03 -0.53991999450E+02  0.39710888067E+03  0.75409574083E+02 0.  0.
        254    2    1    2    0    0  0.31966046524E+03  0.21658926613E+03 -0.29180330404E+03  0.11056218117E+04  0.99406071192E+03 0.  0.
         23    2    4    4    0    0  0.22897324594E+03 -0.11737055388E+03 -0.58310670816E+03  0.64419049088E+03  0.93612825899E+02 0.  0.
         23    2    4    4    0    0  0.90687219303E+02  0.33395982001E+03  0.29130340412E+03  0.46143132080E+03  0.91147448899E+02 0.  0.
          3    1    3    3  502    0 -0.77789308291E+02 -0.60614791957E+02 -0.46946062761E+02  0.10922116231E+03  0.00000000000E+00 0. -1.
         -4    1    3    3    0  502 -0.24187115695E+03 -0.15597447417E+03 -0.70459366888E+01  0.28788771836E+03  0.00000000000E+00 0.  1.
         13    1    5    5    0    0  0.23503700551E+02 -0.51501215877E+02 -0.14963575137E+03  0.15998642837E+03  0.00000000000E+00 0. -1.
        -13    1    5    5    0    0  0.20546954539E+03 -0.65869338001E+02 -0.43347095679E+03  0.48420406251E+03  0.00000000000E+00 0.  1.
          3    1    6    6  503    0  0.57361086915E+02  0.17294807385E+03  0.95416929336E+02  0.20568354563E+03  0.00000000000E+00 0. -1.
         -3    1    6    6    0  503  0.33326132388E+02  0.16101174616E+03  0.19588647478E+03  0.25574777517E+03  0.00000000000E+00 0.  1.
<mgrwt>
<rscale>  0 0.14624039E+04</rscale>
<asrwt>0</asrwt>
<pdfrwt beam="1">  1        1 0.14219431E+00 0.14624039E+04</pdfrwt>
<pdfrwt beam="2">  1       -2 0.88995030E-01 0.14624039E+04</pdfrwt>
<totfact> 0.16035636E+01</totfact>
</mgrwt>
</event>
<event>
12    5  0.5297412E-008  0.1342741E+04  0.7818608E-02  0.8996341E-01
          1   -1    0    0  501    0  0.00000000000E+00  0.00000000000E+00  0.30080482384E+03  0.30080482384E+03  0.00000000000E+00 0. -1.
         -2   -1    0    0    0  501 -0.00000000000E+00 -0.00000000000E+00 -0.14984421484E+04  0.14984421484E+04  0.00000000000E+00 0.  1.
        -24    2    1    2    0    0 -0.90350345726E+02  0.29048908504E+03 -0.77816479229E+02  0.32457940829E+03  0.82154089034E+02 0.  0.
        254    2    1    2    0    0  0.90350345726E+02 -0.29048908504E+03 -0.11198208453E+04  0.14746675640E+04  0.90999923355E+03 0.  0.
         23    2    4    4    0    0 -0.31471058490E+03  0.13471010904E+03 -0.53467838200E+03  0.64082655998E+03  0.87109942482E+02 0.  0.
         23    2    4    4    0    0  0.40506093062E+03 -0.42519919408E+03 -0.58514246335E+03  0.83384100399E+03  0.89612529015E+02 0.  0.
          1    1    3    3  502    0 -0.25330092465E+01  0.98558222673E+02  0.28260874767E+01  0.98631263617E+02  0.00000000000E+00 0. -1.
         -4    1    3    3    0  502 -0.87817336480E+02  0.19193086236E+03 -0.80642566706E+02  0.22594814467E+03  0.00000000000E+00 0.  1.
         13    1    5    5    0    0 -0.31339258358E+03  0.14190074324E+03 -0.51074237290E+03  0.61579907750E+03  0.00000000000E+00 0.  1.
        -13    1    5    5    0    0 -0.13180013132E+01 -0.71906342023E+01 -0.23936009102E+02  0.25027482482E+02  0.00000000000E+00 0. -1.
          3    1    6    6  503    0  0.39258449207E+01 -0.20944937783E+02 -0.40822440399E+02  0.46049693997E+02  0.00000000000E+00 0. -1.
         -3    1    6    6    0  503  0.40113508570E+03 -0.40425425630E+03 -0.54432002295E+03  0.78779130999E+03  0.00000000000E+00 0.  1.
<mgrwt>
<rscale>  0 0.13427414E+04</rscale>
<asrwt>0</asrwt>
<pdfrwt beam="1">  1        1 0.46277667E-01 0.13427414E+04</pdfrwt>
<pdfrwt beam="2">  1       -2 0.23052955E+00 0.13427414E+04</pdfrwt>
<totfact> 0.63399445E+00</totfact>
</mgrwt>
</event>
<event>
12    5  0.5297412E-008  0.1963337E+04  0.7818608E-02  0.8623956E-01
         -2   -1    0    0    0  501 -0.00000000000E+00  0.00000000000E+00  0.54022331843E+03  0.54022331843E+03  0.00000000000E+00 0.  1.
          1   -1    0    0  501    0  0.00000000000E+00 -0.00000000000E+00 -0.17838425368E+04  0.17838425368E+04  0.00000000000E+00 0. -1.
        -24    2    1    2    0    0 -0.41462863548E+03 -0.62553482270E+03 -0.31573146623E+03  0.81821055237E+03  0.81064353889E+02 0.  0.
        254    2    1    2    0    0  0.41462863548E+03  0.62553482270E+03 -0.92788775211E+03  0.15058553028E+04  0.91837562727E+03 0.  0.
         23    2    4    4    0    0  0.69652596758E+03  0.50131863691E+03 -0.69902238841E+03  0.11106854898E+04  0.92310121818E+02 0.  0.
         23    2    4    4    0    0 -0.28189733210E+03  0.12421618579E+03 -0.22886536370E+03  0.39516981300E+03  0.94255290268E+02 0.  0.
          1    1    3    3  502    0 -0.17357742621E+03 -0.22686305382E+03 -0.83183881448E+02  0.29751558986E+03  0.00000000000E+00 0. -1.
         -2    1    3    3    0  502 -0.24105120926E+03 -0.39867176889E+03 -0.23254758478E+03  0.52069496251E+03  0.00000000000E+00 0.  1.
         13    1    5    5    0    0  0.67822334030E+03  0.46814617372E+03 -0.67921836878E+03  0.10679350784E+04  0.00000000000E+00 0. -1.
        -13    1    5    5    0    0  0.18302627279E+02  0.33172463193E+02 -0.19804019635E+02  0.42750411382E+02  0.00000000000E+00 0.  1.
          2    1    6    6  503    0 -0.27700422513E+03  0.11064879426E+03 -0.23476134207E+03  0.37958844047E+03  0.00000000000E+00 0. -1.
         -2    1    6    6    0  503 -0.48931069735E+01  0.13567391536E+02  0.58959783658E+01  0.15581372528E+02  0.00000000000E+00 0.  1.
<mgrwt>
<rscale>  0 0.19633373E+04</rscale>
<asrwt>0</asrwt>
<pdfrwt beam="1">  1        1 0.27443731E+00 0.19633373E+04</pdfrwt>
<pdfrwt beam="2">  1       -2 0.83111280E-01 0.19633373E+04</pdfrwt>
<totfact> 0.43290473E+00</totfact>
</mgrwt>
</event>
<event>
12    5  0.5297412E-008  0.1657564E+04  0.7818608E-02  0.8785944E-01
         -2   -1    0    0    0  501 -0.00000000000E+00  0.00000000000E+00  0.42326405346E+03  0.42326405346E+03  0.00000000000E+00 0.  1.
          1   -1    0    0  501    0  0.00000000000E+00 -0.00000000000E+00 -0.16228163918E+04  0.16228163918E+04  0.00000000000E+00 0. -1.
        -24    2    1    2    0    0 -0.24583638584E+03 -0.37789284267E+03 -0.89817184926E+03  0.10082647917E+04  0.81527236079E+02 0.  0.
        254    2    1    2    0    0  0.24583638584E+03  0.37789284267E+03 -0.30138048907E+03  0.10378156536E+04  0.88486869220E+03 0.  0.
         23    2    4    4    0    0 -0.26243575066E+03  0.35312395428E+03 -0.20645475804E+02  0.44954774581E+03  0.89988275799E+02 0.  0.
         23    2    4    4    0    0  0.50827213650E+03  0.24768888392E+02 -0.28073501326E+03  0.58826790775E+03  0.91065476680E+02 0.  0.
          1    1    3    3  502    0 -0.23531488795E+03 -0.35796288520E+03 -0.88199508686E+03  0.98052325669E+03  0.00000000000E+00 0. -1.
         -2    1    3    3    0  502 -0.10521497884E+02 -0.19929957470E+02 -0.16176762407E+02  0.27741535006E+02  0.00000000000E+00 0.  1.
         13    1    5    5    0    0 -0.18630925669E+03  0.29480502617E+03  0.99610143299E+01  0.34888445708E+03  0.00000000000E+00 0.  1.
        -13    1    5    5    0    0 -0.76126493969E+02  0.58318928103E+02 -0.30606490134E+02  0.10066328873E+03  0.00000000000E+00 0. -1.
          4    1    6    6  503    0  0.40775489215E+02  0.23935050539E+02 -0.42468623859E+02  0.63554002057E+02  0.00000000000E+00 0. -1.
         -4    1    6    6    0  503  0.46749664728E+03  0.83383785356E+00 -0.23826638940E+03  0.52471390569E+03  0.00000000000E+00 0.  1.
<mgrwt>
<rscale>  0 0.16575643E+04</rscale>
<asrwt>0</asrwt>
<pdfrwt beam="1">  1        1 0.24966406E+00 0.16575643E+04</pdfrwt>
<pdfrwt beam="2">  1       -2 0.65117547E-01 0.16575643E+04</pdfrwt>
<totfact> 0.98103348E+00</totfact>
</mgrwt>
</event>
<event>
12    5  0.5297412E-008  0.2663264E+04  0.7818608E-02  0.8347024E-01
          1   -1    0    0  501    0  0.00000000000E+00  0.00000000000E+00  0.16301378971E+04  0.16301378971E+04  0.00000000000E+00 0. -1.
         -2   -1    0    0    0  501 -0.00000000000E+00 -0.00000000000E+00 -0.10877875841E+04  0.10877875841E+04  0.00000000000E+00 0.  1.
        -24    2    1    2    0    0  0.32415024418E+03  0.10668606863E+04  0.63150705678E+03  0.12839008642E+04  0.79593727960E+02 0.  0.
        254    2    1    2    0    0 -0.32415024418E+03 -0.10668606863E+04 -0.89156743757E+02  0.14340246170E+04  0.89733637640E+03 0.  0.
         23    2    4    4    0    0  0.23563654779E+02 -0.39264614847E+03  0.36485956557E+03  0.54434796722E+03  0.92010668365E+02 0.  0.
         23    2    4    4    0    0 -0.34771389896E+03 -0.67421453780E+03 -0.45401630933E+03  0.88967664975E+03  0.99616933594E+02 0.  0.
          1    1    3    3  502    0  0.24883621800E+03  0.77803966830E+03  0.49996471367E+03  0.95772120357E+03  0.00000000000E+00 0. -1.
         -2    1    3    3    0  502  0.75314026184E+02  0.28882101796E+03  0.13154234311E+03  0.32617966060E+03  0.00000000000E+00 0.  1.
         13    1    5    5    0    0 -0.11611632673E+02 -0.29890938409E+03  0.30734144939E+03  0.42888275371E+03  0.00000000000E+00 0.  1.
        -13    1    5    5    0    0  0.35175287452E+02 -0.93736764370E+02  0.57518116181E+02  0.11546521351E+03  0.00000000000E+00 0. -1.
          4    1    6    6  503    0 -0.50357962451E+02 -0.12340793555E+03 -0.39855044906E+02  0.13911817834E+03  0.00000000000E+00 0. -1.
         -4    1    6    6    0  503 -0.29735593651E+03 -0.55080660225E+03 -0.41416126442E+03  0.75055847141E+03  0.00000000000E+00 0.  1.
<mgrwt>
<rscale>  0 0.26632640E+04</rscale>
<asrwt>0</asrwt>
<pdfrwt beam="1">  1        1 0.25079045E+00 0.26632640E+04</pdfrwt>
<pdfrwt beam="2">  1       -2 0.16735194E+00 0.26632640E+04</pdfrwt>
<totfact> 0.91144626E-01</totfact>
</mgrwt>
</event>
<event>
12    5  0.5297412E-008  0.1747738E+04  0.7818608E-02  0.8734596E-01
          1   -1    0    0  501    0  0.00000000000E+00  0.00000000000E+00  0.93040945353E+03  0.93040945353E+03  0.00000000000E+00 0. -1.
         -2   -1    0    0    0  501 -0.00000000000E+00 -0.00000000000E+00 -0.82076474716E+03  0.82076474716E+03  0.00000000000E+00 0.  1.
        -24    2    1    2    0    0 -0.22692918121E+03 -0.57203120865E+03  0.20126826317E+03  0.65247420330E+03  0.80604685056E+02 0.  0.
        254    2    1    2    0    0  0.22692918121E+03  0.57203120865E+03 -0.91623556799E+02  0.10986999974E+04  0.90555521706E+03 0.  0.
         23    2    4    4    0    0  0.35266207117E+03  0.49314020458E+03  0.29047548767E+03  0.67814685327E+03  0.89159115389E+02 0.  0.
         23    2    4    4    0    0 -0.12573288996E+03  0.78891004072E+02 -0.38209904447E+03  0.42055314411E+03  0.93982536147E+02 0.  0.
          3    1    3    3  502    0 -0.54138528305E+02 -0.15079261439E+03  0.16329262504E+02  0.16104669390E+03  0.00000000000E+00 0. -1.
         -4    1    3    3    0  502 -0.17279065290E+03 -0.42123859426E+03  0.18493900067E+03  0.49142750940E+03  0.00000000000E+00 0.  1.
         13    1    5    5    0    0  0.91106031047E+02  0.14489111362E+03  0.12625150393E+03  0.21268094871E+03  0.00000000000E+00 0.  1.
        -13    1    5    5    0    0  0.26155604012E+03  0.34824909096E+03  0.16422398374E+03  0.46546590457E+03  0.00000000000E+00 0. -1.
          2    1    6    6  503    0 -0.12717136821E+03  0.43061870158E+02 -0.33816111763E+03  0.36384038125E+03  0.00000000000E+00 0. -1.
         -2    1    6    6    0  503  0.14384782456E+01  0.35829133914E+02 -0.43937926833E+02  0.56712762859E+02  0.00000000000E+00 0.  1.
<mgrwt>
<rscale>  0 0.17477383E+04</rscale>
<asrwt>0</asrwt>
<pdfrwt beam="1">  1        1 0.14313992E+00 0.17477383E+04</pdfrwt>
<pdfrwt beam="2">  1       -2 0.12627150E+00 0.17477383E+04</pdfrwt>
<totfact> 0.66729314E+00</totfact>
</mgrwt>
</event>
<event>
12    5  0.5297412E-008  0.1789052E+04  0.7818608E-02  0.8712143E-01
          1   -1    0    0  501    0  0.00000000000E+00  0.00000000000E+00  0.18618339862E+04  0.18618339862E+04  0.00000000000E+00 0. -1.
         -2   -1    0    0    0  501 -0.00000000000E+00 -0.00000000000E+00 -0.42977857374E+03  0.42977857374E+03  0.00000000000E+00 0.  1.
        -24    2    1    2    0    0  0.32658290064E+03 -0.21405824752E+03 -0.15507735300E+03  0.42755048528E+03  0.79202952734E+02 0.  0.
        254    2    1    2    0    0 -0.32658290064E+03  0.21405824752E+03  0.15871327655E+04  0.18640620747E+04  0.89624755435E+03 0.  0.
         23    2    4    4    0    0 -0.32512810299E+03  0.33661277491E+03  0.16362308241E+04  0.17042940333E+04  0.91380516447E+02 0.  0.
         23    2    4    4    0    0 -0.14547976528E+01 -0.12255452739E+03 -0.49098058605E+02  0.15976804134E+03  0.89963765236E+02 0.  0.
          1    1    3    3  502    0  0.11358870856E+03 -0.11027783592E+03 -0.88818999433E+02  0.18152798811E+03  0.00000000000E+00 0. -1.
         -2    1    3    3    0  502  0.21299419209E+03 -0.10378041160E+03 -0.66258353572E+02  0.24602249717E+03  0.00000000000E+00 0.  1.
         13    1    5    5    0    0 -0.14361048245E+03  0.20779912848E+03  0.94023501309E+03  0.97357399735E+03  0.00000000000E+00 0.  1.
        -13    1    5    5    0    0 -0.18151762054E+03  0.12881364643E+03  0.69599581101E+03  0.73072003600E+03  0.00000000000E+00 0. -1.
          4    1    6    6  503    0 -0.37178698458E+02 -0.43668782041E+02  0.51490659444E+01  0.57582384668E+02  0.00000000000E+00 0. -1.
         -4    1    6    6    0  503  0.35723900805E+02 -0.78885745349E+02 -0.54247124550E+02  0.10218565667E+03  0.00000000000E+00 0.  1.
<mgrwt>
<rscale>  0 0.17890515E+04</rscale>
<asrwt>0</asrwt>
<pdfrwt beam="1">  1        1 0.28643599E+00 0.17890515E+04</pdfrwt>
<pdfrwt beam="2">  1       -2 0.66119782E-01 0.17890515E+04</pdfrwt>
<totfact> 0.64531302E+00</totfact>
</mgrwt>
</event>
<event>
12    5  0.5297412E-008  0.1681764E+04  0.7818608E-02  0.8771834E-01
         -2   -1    0    0    0  501 -0.00000000000E+00  0.00000000000E+00  0.87744593527E+03  0.87744593527E+03  0.00000000000E+00 0.  1.
          1   -1    0    0  501    0  0.00000000000E+00 -0.00000000000E+00 -0.80584144112E+03  0.80584144112E+03  0.00000000000E+00 0. -1.
        -24    2    1    2    0    0  0.29016886011E+03 -0.30592990277E+03 -0.39144170270E+03  0.58071033191E+03  0.78783311658E+02 0.  0.
        254    2    1    2    0    0 -0.29016886011E+03  0.30592990277E+03  0.46304619684E+03  0.11025770445E+04  0.90745428854E+03 0.  0.
         23    2    4    4    0    0  0.17716153773E+03  0.22173572100E+03 -0.13876435959E+03  0.32902658502E+03  0.91923912782E+02 0.  0.
         23    2    4    4    0    0 -0.46733039784E+03  0.84194181773E+02  0.60181055643E+03  0.77355045945E+03  0.10352780541E+03 0.  0.
          1    1    3    3  502    0  0.24824580231E+03 -0.29017761988E+03 -0.33018115483E+03  0.50482534054E+03  0.00000000000E+00 0. -1.
         -2    1    3    3    0  502  0.41923057795E+02 -0.15752282892E+02 -0.61260547866E+02  0.75884991375E+02  0.00000000000E+00 0.  1.
         13    1    5    5    0    0  0.15821954654E+03  0.21333719288E+03 -0.15043161420E+03  0.30524720035E+03  0.00000000000E+00 0.  1.
        -13    1    5    5    0    0  0.18941991196E+02  0.83985281194E+01  0.11667254614E+02  0.23779384670E+02  0.00000000000E+00 0. -1.
          3    1    6    6  503    0 -0.14002443014E+03 -0.20529510276E+02  0.19659502676E+03  0.24223522942E+03  0.00000000000E+00 0. -1.
         -3    1    6    6    0  503 -0.32730596770E+03  0.10472369205E+03  0.40521552967E+03  0.53131523003E+03  0.00000000000E+00 0.  1.
<mgrwt>
<rscale>  0 0.16817637E+04</rscale>
<asrwt>0</asrwt>
<pdfrwt beam="1">  1        1 0.12397561E+00 0.16817637E+04</pdfrwt>
<pdfrwt beam="2">  1       -2 0.13499168E+00 0.16817637E+04</pdfrwt>
<totfact> 0.71966948E+00</totfact>
</mgrwt>
</event>
<event>
12    5  0.5297412E-008  0.2179306E+04  0.7818608E-02  0.8527091E-01
         -4   -1    0    0    0  501 -0.00000000000E+00  0.00000000000E+00  0.15387811408E+04  0.15387811408E+04  0.00000000000E+00 0.  1.
          3   -1    0    0  501    0  0.00000000000E+00 -0.00000000000E+00 -0.77161308234E+03  0.77161308234E+03  0.00000000000E+00 0. -1.
        -24    2    1    2    0    0 -0.43005252232E+03  0.15139384029E+03 -0.51720144884E+03  0.69402141279E+03  0.79392165163E+02 0.  0.
        254    2    1    2    0    0  0.43005252232E+03 -0.15139384029E+03  0.12843695073E+04  0.16163728104E+04  0.86901712522E+03 0.  0.
         23    2    4    4    0    0  0.52456129446E+03 -0.19514855701E+02  0.13227412150E+04  0.14256416909E+04  0.85232199360E+02 0.  0.
         23    2    4    4    0    0 -0.94508772137E+02 -0.13187898459E+03 -0.38371707687E+02  0.19073111943E+03  0.92639070498E+02 0.  0.
          1    1    3    3  502    0 -0.20599311774E+03  0.11257465397E+03 -0.24447746317E+03  0.33893280643E+03  0.00000000000E+00 0. -1.
         -2    1    3    3    0  502 -0.22405940458E+03  0.38819186323E+02 -0.27272398567E+03  0.35508860636E+03  0.00000000000E+00 0.  1.
         13    1    5    5    0    0  0.25078212060E+03  0.23605400189E+01  0.52230474891E+03  0.57939580158E+03  0.00000000000E+00 0. -1.
        -13    1    5    5    0    0  0.27377917386E+03 -0.21875395719E+02  0.80043646610E+03  0.84624588935E+03  0.00000000000E+00 0.  1.
          3    1    6    6  503    0 -0.36336474626E+02 -0.14488951032E+02  0.23720728112E+02  0.45748683395E+02  0.00000000000E+00 0. -1.
         -3    1    6    6    0  503 -0.58172297511E+02 -0.11739003356E+03 -0.62092435799E+02  0.14498243604E+03  0.00000000000E+00 0.  1.
<mgrwt>
<rscale>  0 0.21793060E+04</rscale>
<asrwt>0</asrwt>
<pdfrwt beam="1">  1        3 0.11870971E+00 0.21793060E+04</pdfrwt>
<pdfrwt beam="2">  1       -4 0.23673556E+00 0.21793060E+04</pdfrwt>
<totfact> 0.92888193E-02</totfact>
</mgrwt>
</event>
<event>
12    5  0.5297412E-008  0.1739155E+04  0.7818608E-02  0.8739343E-01
          1   -1    0    0  501    0  0.00000000000E+00  0.00000000000E+00  0.18923319717E+04  0.18923319717E+04  0.00000000000E+00 0. -1.
         -2   -1    0    0    0  501 -0.00000000000E+00 -0.00000000000E+00 -0.39959409540E+03  0.39959409540E+03  0.00000000000E+00 0.  1.
        -24    2    1    2    0    0 -0.33379984082E+03 -0.49849631514E+03  0.32875450391E+03  0.68864844755E+03  0.78969934370E+02 0.  0.
        254    2    1    2    0    0  0.33379984082E+03  0.49849631514E+03  0.11639833724E+04  0.16032776195E+04  0.92505184947E+03 0.  0.
         23    2    4    4    0    0  0.84156594881E+02  0.69939743723E+03  0.10140351878E+04  0.12382635919E+04  0.93756349827E+02 0.  0.
         23    2    4    4    0    0  0.24964324594E+03 -0.20090112209E+03  0.14994818451E+03  0.36501402764E+03  0.89820772839E+02 0.  0.
          1    1    3    3  502    0 -0.21955878043E+02 -0.39340594105E+02  0.50798774917E+02  0.67898884072E+02  0.00000000000E+00 0. -1.
         -2    1    3    3    0  502 -0.31184396278E+03 -0.45915572103E+03  0.27795572899E+03  0.62074956348E+03  0.00000000000E+00 0.  1.
         13    1    5    5    0    0  0.80362779839E+02  0.68277895904E+03  0.10081090079E+04  0.12202168066E+04  0.00000000000E+00 0. -1.
        -13    1    5    5    0    0  0.37938150416E+01  0.16618478193E+02  0.59261799154E+01  0.18046785265E+02  0.00000000000E+00 0.  1.
          1    1    6    6  503    0  0.25692909337E+03 -0.19082521983E+03  0.14724466196E+03  0.35228938960E+03  0.00000000000E+00 0. -1.
         -1    1    6    6    0  503 -0.72858474322E+01 -0.10075902260E+02  0.27035225484E+01  0.12724638043E+02  0.00000000000E+00 0.  1.
<mgrwt>
<rscale>  0 0.17391546E+04</rscale>
<asrwt>0</asrwt>
<pdfrwt beam="1">  1        1 0.29112799E+00 0.17391546E+04</pdfrwt>
<pdfrwt beam="2">  1       -2 0.61476016E-01 0.17391546E+04</pdfrwt>
<totfact> 0.72230982E+00</totfact>
</mgrwt>
</event>
<event>
12    5  0.5297412E-008  0.1379231E+04  0.7818608E-02  0.8968991E-01
          1   -1    0    0  501    0  0.00000000000E+00  0.00000000000E+00  0.74228821176E+03  0.74228821176E+03  0.00000000000E+00 0. -1.
         -2   -1    0    0    0  501 -0.00000000000E+00 -0.00000000000E+00 -0.64068006224E+03  0.64068006224E+03  0.00000000000E+00 0.  1.
        -24    2    1    2    0    0 -0.37943641480E+02  0.38122119689E+03  0.10864837583E+03  0.40297606681E+03  0.61773133021E+02 0.  0.
        254    2    1    2    0    0  0.37943641480E+02 -0.38122119689E+03 -0.70402263096E+01  0.97999220719E+03  0.90197884702E+03 0.  0.
         23    2    4    4    0    0 -0.32651456506E+03 -0.48529462301E+03 -0.18509233792E+02  0.59225116585E+03  0.91083584665E+02 0.  0.
         23    2    4    4    0    0  0.36445820654E+03  0.10407342612E+03  0.11469007482E+02  0.38774104133E+03  0.80935249782E+02 0.  0.
          3    1    3    3  502    0 -0.38856792690E+01  0.17475536985E+03  0.20813912098E+02  0.17603339664E+03  0.00000000000E+00 0. -1.
         -4    1    3    3    0  502 -0.34057962211E+02  0.20646582704E+03  0.87834463736E+02  0.22694267017E+03  0.00000000000E+00 0.  1.
         13    1    5    5    0    0 -0.24203304741E+03 -0.30885070889E+03 -0.44509159600E+02  0.39490482614E+03  0.00000000000E+00 0. -1.
        -13    1    5    5    0    0 -0.84481517650E+02 -0.17644391412E+03  0.25999925808E+02  0.19734633971E+03  0.00000000000E+00 0.  1.
          3    1    6    6  503    0  0.33967053716E+03  0.86112722584E+02  0.30427860043E+02  0.35173474305E+03  0.00000000000E+00 0. -1.
         -3    1    6    6    0  503  0.24787669388E+02  0.17960703541E+02 -0.18958852561E+02  0.36006298279E+02  0.00000000000E+00 0.  1.
<mgrwt>
<rscale>  0 0.13792306E+04</rscale>
<asrwt>0</asrwt>
<pdfrwt beam="1">  1        1 0.11419819E+00 0.13792306E+04</pdfrwt>
<pdfrwt beam="2">  1       -2 0.98566164E-01 0.13792306E+04</pdfrwt>
<totfact> 0.18198283E+01</totfact>
</mgrwt>
</event>
<event>
12    5  0.5297412E-008  0.1186931E+04  0.7818608E-02  0.9124374E-01
         -2   -1    0    0    0  501 -0.00000000000E+00  0.00000000000E+00  0.25739151017E+03  0.25739151017E+03  0.00000000000E+00 0.  1.
          1   -1    0    0  501    0  0.00000000000E+00 -0.00000000000E+00 -0.13683480587E+04  0.13683480587E+04  0.00000000000E+00 0. -1.
        -24    2    1    2    0    0  0.10252216154E+03 -0.62125780820E+02  0.56599032015E+02  0.15342260738E+03  0.77231080409E+02 0.  0.
        254    2    1    2    0    0 -0.10252216154E+03  0.62125780820E+02 -0.11675555806E+04  0.14723169615E+04  0.88890989150E+03 0.  0.
         23    2    4    4    0    0  0.32578412550E+03 -0.19240043429E+03 -0.45440481284E+03  0.59762745886E+03  0.86727285825E+02 0.  0.
         23    2    4    4    0    0 -0.42830628704E+03  0.25452621511E+03 -0.71315076776E+03  0.87468950268E+03  0.90927657245E+02 0.  0.
          1    1    3    3  502    0  0.54845055551E+01  0.12950773508E+02 -0.64591105947E+01  0.15476512698E+02  0.00000000000E+00 0. -1.
         -2    1    3    3    0  502  0.97037655987E+02 -0.75076554328E+02  0.63058142610E+02  0.13794609468E+03  0.00000000000E+00 0.  1.
         13    1    5    5    0    0  0.30766292532E+03 -0.15755773940E+03 -0.38140387891E+03  0.51473278088E+03  0.00000000000E+00 0. -1.
        -13    1    5    5    0    0  0.18121200181E+02 -0.34842694893E+02 -0.73000933925E+02  0.82894677980E+02  0.00000000000E+00 0.  1.
          3    1    6    6  503    0 -0.41044448416E+03  0.24167536762E+03 -0.70581115710E+03  0.85149342181E+03  0.00000000000E+00 0. -1.
         -3    1    6    6    0  503 -0.17861802882E+02  0.12850847487E+02 -0.73396106545E+01  0.23196080873E+02  0.00000000000E+00 0.  1.
<mgrwt>
<rscale>  0 0.11869308E+04</rscale>
<asrwt>0</asrwt>
<pdfrwt beam="1">  1        1 0.21051509E+00 0.11869308E+04</pdfrwt>
<pdfrwt beam="2">  1       -2 0.39598693E-01 0.11869308E+04</pdfrwt>
<totfact> 0.42390257E+01</totfact>
</mgrwt>
</event>
<event>
12    5  0.5297412E-008  0.1966067E+04  0.7818608E-02  0.8622652E-01
          3   -1    0    0  501    0  0.00000000000E+00  0.00000000000E+00  0.64226636196E+03  0.64226636196E+03  0.00000000000E+00 0. -1.
         -4   -1    0    0    0  501 -0.00000000000E+00 -0.00000000000E+00 -0.15046014581E+04  0.15046014581E+04  0.00000000000E+00 0.  1.
        -24    2    1    2    0    0 -0.44248193447E+03 -0.52142886383E+03 -0.73247643091E+03  0.10052767089E+04  0.79882521665E+02 0.  0.
        254    2    1    2    0    0  0.44248193447E+03  0.52142886383E+03 -0.12985866520E+03  0.11415911111E+04  0.90481416307E+03 0.  0.
         23    2    4    4    0    0 -0.82605608230E+02 -0.15227120578E+03 -0.19975455396E+03  0.27984257796E+03  0.91650313640E+02 0.  0.
         23    2    4    4    0    0  0.52508754270E+03  0.67370006961E+03  0.69895888768E+02  0.86174853316E+03  0.90201928193E+02 0.  0.
          3    1    3    3  502    0 -0.25393553605E+02 -0.22475208175E+02 -0.15445942159E+02  0.37263181243E+02  0.00000000000E+00 0. -1.
         -4    1    3    3    0  502 -0.41708838086E+03 -0.49895365565E+03 -0.71703048875E+03  0.96801352766E+03  0.00000000000E+00 0.  1.
         13    1    5    5    0    0 -0.31758390612E+02  0.11719623467E+01 -0.51426611483E+02  0.60453827328E+02  0.00000000000E+00 0. -1.
        -13    1    5    5    0    0 -0.50847217619E+02 -0.15344316812E+03 -0.14832794248E+03  0.21938875063E+03  0.00000000000E+00 0.  1.
          3    1    6    6  503    0  0.22150522030E+02  0.55795710473E+02  0.20767284351E+02  0.63522334912E+02  0.00000000000E+00 0. -1.
         -3    1    6    6    0  503  0.50293702067E+03  0.61790435913E+03  0.49128604417E+02  0.79822619825E+03  0.00000000000E+00 0.  1.
<mgrwt>
<rscale>  0 0.19660670E+04</rscale>
<asrwt>0</asrwt>
<pdfrwt beam="1">  1        3 0.98810209E-01 0.19660670E+04</pdfrwt>
<pdfrwt beam="2">  1       -4 0.23147715E+00 0.19660670E+04</pdfrwt>
<totfact> 0.15794696E-01</totfact>
</mgrwt>
</event>
<event>
12    5  0.5297412E-008  0.1508025E+04  0.7818608E-02  0.8879134E-01
         -2   -1    0    0    0  501 -0.00000000000E+00  0.00000000000E+00  0.20130322476E+03  0.20130322476E+03  0.00000000000E+00 0.  1.
          1   -1    0    0  501    0  0.00000000000E+00 -0.00000000000E+00 -0.28242706486E+04  0.28242706486E+04  0.00000000000E+00 0. -1.
        -24    2    1    2    0    0  0.20139100688E+03  0.24975453029E+03 -0.12998826037E+03  0.35496487895E+03  0.78533142032E+02 0.  0.
        254    2    1    2    0    0 -0.20139100688E+03 -0.24975453029E+03 -0.24929791635E+04  0.26706089945E+04  0.90237000645E+03 0.  0.
         23    2    4    4    0    0  0.78736098528E+02 -0.82763140787E+02  0.85823641625E+01  0.14628517544E+03  0.90975737945E+02 0.  0.
         23    2    4    4    0    0 -0.28012710541E+03 -0.16699138950E+03 -0.25015615277E+04  0.25243238190E+04  0.89684709861E+02 0.  0.
          3    1    3    3  502    0  0.86958978269E+01  0.41866893229E+02 -0.37283642384E+02  0.56732048941E+02  0.00000000000E+00 0. -1.
         -4    1    3    3    0  502  0.19269510905E+03  0.20788763706E+03 -0.92704617990E+02  0.29823283000E+03  0.00000000000E+00 0.  1.
         13    1    5    5    0    0  0.70406484871E+02 -0.17478325824E+02 -0.18897524821E+02  0.74964534480E+02  0.00000000000E+00 0. -1.
        -13    1    5    5    0    0  0.83296136575E+01 -0.65284814963E+02  0.27479888983E+02  0.71320640960E+02  0.00000000000E+00 0.  1.
          3    1    6    6  503    0 -0.16323262535E+03 -0.12995031542E+03 -0.13158784805E+04  0.13323168354E+04  0.00000000000E+00 0. -1.
         -3    1    6    6    0  503 -0.11689448005E+03 -0.37041074089E+02 -0.11856830471E+04  0.11920069836E+04  0.00000000000E+00 0.  1.
<mgrwt>
<rscale>  0 0.15080249E+04</rscale>
<asrwt>0</asrwt>
<pdfrwt beam="1">  1        1 0.43450317E+00 0.15080249E+04</pdfrwt>
<pdfrwt beam="2">  1       -2 0.30969727E-01 0.15080249E+04</pdfrwt>
<totfact> 0.65984465E+00</totfact>
</mgrwt>
</event>
<event>
12    5  0.5297412E-008  0.1734314E+04  0.7818608E-02  0.8742032E-01
         -2   -1    0    0    0  501 -0.00000000000E+00  0.00000000000E+00  0.89018697720E+03  0.89018697720E+03  0.00000000000E+00 0.  1.
          1   -1    0    0  501    0  0.00000000000E+00 -0.00000000000E+00 -0.84472279906E+03  0.84472279906E+03  0.00000000000E+00 0. -1.
        -24    2    1    2    0    0  0.14577800168E+03 -0.14102028716E+03  0.59401191830E+03  0.63279343087E+03  0.80245996245E+02 0.  0.
        254    2    1    2    0    0 -0.14577800168E+03  0.14102028716E+03 -0.54854774016E+03  0.11021163454E+04  0.93414017597E+03 0.  0.
         23    2    4    4    0    0  0.10002238903E+03 -0.18488996812E+03 -0.63361081350E+03  0.67383012874E+03  0.91627511101E+02 0.  0.
         23    2    4    4    0    0 -0.24580039071E+03  0.32591025527E+03  0.85063073344E+02  0.42828621665E+03  0.97765179679E+02 0.  0.
          3    1    3    3  502    0  0.80670409048E+02 -0.28207075080E+02  0.28258879172E+03  0.29522835092E+03  0.00000000000E+00 0. -1.
         -4    1    3    3    0  502  0.65107592633E+02 -0.11281321208E+03  0.31142312657E+03  0.33756507995E+03  0.00000000000E+00 0.  1.
         13    1    5    5    0    0  0.52924932739E+02 -0.10036191083E+03 -0.20373602134E+03  0.23319933114E+03  0.00000000000E+00 0. -1.
        -13    1    5    5    0    0  0.47097456286E+02 -0.84528057285E+02 -0.42987479216E+03  0.44063079760E+03  0.00000000000E+00 0.  1.
          2    1    6    6  503    0 -0.19697067211E+03  0.31158761035E+03  0.69955379155E+02  0.37520399740E+03  0.00000000000E+00 0. -1.
         -2    1    6    6    0  503 -0.48829718597E+02  0.14322644923E+02  0.15107694190E+02  0.53082219241E+02  0.00000000000E+00 0.  1.
<mgrwt>
<rscale>  0 0.17343140E+04</rscale>
<asrwt>0</asrwt>
<pdfrwt beam="1">  1        1 0.12995735E+00 0.17343140E+04</pdfrwt>
<pdfrwt beam="2">  1       -2 0.13695184E+00 0.17343140E+04</pdfrwt>
<totfact> 0.63952879E+00</totfact>
</mgrwt>
</event>
<event>
12    5  0.5297412E-008  0.2121987E+04  0.7818608E-02  0.8551619E-01
         -2   -1    0    0    0  501 -0.00000000000E+00  0.00000000000E+00  0.16747239310E+04  0.16747239310E+04  0.00000000000E+00 0.  1.
          1   -1    0    0  501    0  0.00000000000E+00 -0.00000000000E+00 -0.67217457751E+03  0.67217457751E+03  0.00000000000E+00 0. -1.
        -24    2    1    2    0    0 -0.54057474922E+03  0.61561325134E+03  0.10155351385E+03  0.83250433075E+03  0.10746911100E+03 0.  0.
        254    2    1    2    0    0  0.54057474922E+03 -0.61561325134E+03  0.90099583968E+03  0.15143941778E+04  0.90021968870E+03 0.  0.
         23    2    4    4    0    0 -0.70629028886E+02 -0.65701497038E+02 -0.13387330216E+03  0.18958783330E+03  0.93361336059E+02 0.  0.
         23    2    4    4    0    0  0.61120377811E+03 -0.54991175430E+03  0.10348691418E+04  0.13248063445E+04  0.90469408227E+02 0.  0.
          1    1    3    3  502    0 -0.32799731725E+03  0.34585365493E+03  0.87387567928E+01  0.47673195469E+03  0.00000000000E+00 0. -1.
         -2    1    3    3    0  502 -0.21257743197E+03  0.26975959641E+03  0.92814757062E+02  0.35577237606E+03  0.00000000000E+00 0.  1.
         13    1    5    5    0    0 -0.30367056247E+01  0.21048824932E+02 -0.87297369775E+01  0.22988756377E+02  0.00000000000E+00 0. -1.
        -13    1    5    5    0    0 -0.67592323262E+02 -0.86750321970E+02 -0.12514356518E+03  0.16659907692E+03  0.00000000000E+00 0.  1.
          4    1    6    6  503    0  0.37231144574E+03 -0.32943956658E+03  0.69498765243E+03  0.85449053692E+03  0.00000000000E+00 0.  1.
         -4    1    6    6    0  503  0.23889233236E+03 -0.22047218773E+03  0.33988148940E+03  0.47031580758E+03  0.00000000000E+00 0. -1.
<mgrwt>
<rscale>  0 0.21219867E+04</rscale>
<asrwt>0</asrwt>
<pdfrwt beam="1">  1        1 0.10341147E+00 0.21219867E+04</pdfrwt>
<pdfrwt beam="2">  1       -2 0.25764983E+00 0.21219867E+04</pdfrwt>
<totfact> 0.13433489E+00</totfact>
</mgrwt>
</event>
<event>
12    5  0.5297412E-008  0.1548009E+04  0.7818608E-02  0.8853140E-01
          1   -1    0    0  501    0  0.00000000000E+00  0.00000000000E+00  0.41029284403E+03  0.41029284403E+03  0.00000000000E+00 0. -1.
         -2   -1    0    0    0  501 -0.00000000000E+00 -0.00000000000E+00 -0.14601358816E+04  0.14601358816E+04  0.00000000000E+00 0.  1.
        -24    2    1    2    0    0 -0.49348383286E+03 -0.64368180361E+02 -0.23242981595E+03  0.55496814716E+03  0.79350293539E+02 0.  0.
        254    2    1    2    0    0  0.49348383286E+03  0.64368180361E+02 -0.81741322165E+03  0.13154605785E+04  0.90255337943E+03 0.  0.
         23    2    4    4    0    0  0.58601209491E+02 -0.36779995904E+03 -0.46307205834E+03  0.60120707027E+03  0.91122436867E+02 0.  0.
         23    2    4    4    0    0  0.43488262337E+03  0.43216813940E+03 -0.35434116331E+03  0.71425350824E+03  0.93317828914E+02 0.  0.
          1    1    3    3  502    0 -0.17351154601E+03 -0.37519238898E+02 -0.44866165966E+02  0.18310358472E+03  0.00000000000E+00 0. -1.
         -2    1    3    3    0  502 -0.31997228684E+03 -0.26848941463E+02 -0.18756364999E+03  0.37186456244E+03  0.00000000000E+00 0.  1.
         13    1    5    5    0    0  0.76305377432E+02 -0.20106396408E+03 -0.24214852667E+03  0.32385974934E+03  0.00000000000E+00 0.  1.
        -13    1    5    5    0    0 -0.17704167941E+02 -0.16673599496E+03 -0.22092353167E+03  0.27734732092E+03  0.00000000000E+00 0. -1.
          4    1    6    6  503    0  0.15782690219E+03  0.20493784357E+03 -0.11323163396E+03  0.28236546125E+03  0.00000000000E+00 0.  1.
         -4    1    6    6    0  503  0.27705572118E+03  0.22723029583E+03 -0.24110952935E+03  0.43188804698E+03  0.00000000000E+00 0. -1.
<mgrwt>
<rscale>  0 0.15480094E+04</rscale>
<asrwt>0</asrwt>
<pdfrwt beam="1">  1        1 0.63121976E-01 0.15480094E+04</pdfrwt>
<pdfrwt beam="2">  1       -2 0.22463629E+00 0.15480094E+04</pdfrwt>
<totfact> 0.45112361E+00</totfact>
</mgrwt>
</event>
<event>
12    5  0.5297412E-008  0.1814172E+04  0.7818608E-02  0.8698799E-01
         -4   -1    0    0    0  501 -0.00000000000E+00  0.00000000000E+00  0.56966460686E+03  0.56966460686E+03  0.00000000000E+00 0.  1.
          3   -1    0    0  501    0  0.00000000000E+00 -0.00000000000E+00 -0.14443666873E+04  0.14443666873E+04  0.00000000000E+00 0. -1.
        -24    2    1    2    0    0 -0.46584458299E+03  0.35149960713E+03 -0.69813253269E+03  0.91347301700E+03  0.80503231406E+02 0.  0.
        254    2    1    2    0    0  0.46584458299E+03 -0.35149960713E+03 -0.17656954777E+03  0.11005582772E+04  0.91623608692E+03 0.  0.
         23    2    4    4    0    0  0.50484401637E+03 -0.55237646780E+03 -0.33666679857E+03  0.82568528111E+03  0.91784569208E+02 0.  0.
         23    2    4    4    0    0 -0.38999433377E+02  0.20087686067E+03  0.16009725080E+03  0.27487299607E+03  0.89730514877E+02 0.  0.
          1    1    3    3  502    0 -0.35673962581E+03  0.30421891381E+03 -0.53104194258E+03  0.70839103109E+03  0.00000000000E+00 0. -1.
         -2    1    3    3    0  502 -0.10910495718E+03  0.47280693320E+02 -0.16709059011E+03  0.20508198591E+03  0.00000000000E+00 0.  1.
         13    1    5    5    0    0  0.28100690688E+02 -0.26624992383E+02 -0.42308203217E+02  0.57345645832E+02  0.00000000000E+00 0.  1.
        -13    1    5    5    0    0  0.47674332568E+03 -0.52575147542E+03 -0.29435859535E+03  0.76833963528E+03  0.00000000000E+00 0. -1.
          1    1    6    6  503    0 -0.35923800614E+02  0.12967685048E+03  0.15222599303E+03  0.20317322155E+03  0.00000000000E+00 0. -1.
         -1    1    6    6    0  503 -0.30756327630E+01  0.71200010188E+02  0.78712577700E+01  0.71699774522E+02  0.00000000000E+00 0.  1.
<mgrwt>
<rscale>  0 0.18141715E+04</rscale>
<asrwt>0</asrwt>
<pdfrwt beam="1">  1        3 0.22221026E+00 0.18141715E+04</pdfrwt>
<pdfrwt beam="2">  1       -4 0.87640710E-01 0.18141715E+04</pdfrwt>
<totfact> 0.26170911E-01</totfact>
</mgrwt>
</event>
<event>
12    5  0.5297412E-008  0.2451365E+04  0.7818608E-02  0.8420520E-01
          1   -1    0    0  501    0  0.00000000000E+00  0.00000000000E+00  0.80138482219E+03  0.80138482219E+03  0.00000000000E+00 0. -1.
         -2   -1    0    0    0  501 -0.00000000000E+00 -0.00000000000E+00 -0.18746262154E+04  0.18746262154E+04  0.00000000000E+00 0.  1.
        -24    2    1    2    0    0 -0.91567284253E+03  0.52921600786E+03 -0.48466118628E+03  0.11661323435E+04  0.80261070800E+02 0.  0.
        254    2    1    2    0    0  0.91567284253E+03 -0.52921600786E+03 -0.58858020690E+03  0.15098786941E+04  0.90265202231E+03 0.  0.
         23    2    4    4    0    0  0.65756168097E+03 -0.15343082691E+03  0.89736444360E+02  0.68739411228E+03  0.92356121787E+02 0.  0.
         23    2    4    4    0    0  0.25811116156E+03 -0.37578518095E+03 -0.67831665126E+03  0.82248458180E+03  0.92366303329E+02 0.  0.
          1    1    3    3  502    0 -0.84874898651E+03  0.51309173764E+03 -0.45500513667E+03  0.10911771844E+04  0.00000000000E+00 0. -1.
         -2    1    3    3    0  502 -0.66923856018E+02  0.16124270217E+02 -0.29656049615E+02  0.74955159083E+02  0.00000000000E+00 0.  1.
         13    1    5    5    0    0  0.82732515629E+02 -0.49459788091E+02  0.25575426085E+02  0.99724832413E+02  0.00000000000E+00 0.  1.
        -13    1    5    5    0    0  0.57482916534E+03 -0.10397103882E+03  0.64161018275E+02  0.58766927987E+03  0.00000000000E+00 0. -1.
          3    1    6    6  503    0  0.68263823430E+02 -0.65309940508E+02 -0.20249656604E+03  0.22345065938E+03  0.00000000000E+00 0.  1.
         -3    1    6    6    0  503  0.18984733813E+03 -0.31047524044E+03 -0.47582008522E+03  0.59903392242E+03  0.00000000000E+00 0. -1.
<mgrwt>
<rscale>  0 0.24513645E+04</rscale>
<asrwt>0</asrwt>
<pdfrwt beam="1">  1        1 0.12328997E+00 0.24513645E+04</pdfrwt>
<pdfrwt beam="2">  1       -2 0.28840403E+00 0.24513645E+04</pdfrwt>
<totfact> 0.64539936E-01</totfact>
</mgrwt>
</event>
<event>
12    5  0.5297412E-008  0.3023708E+04  0.7818608E-02  0.8236993E-01
          1   -1    0    0  501    0  0.00000000000E+00  0.00000000000E+00  0.13342260542E+04  0.13342260542E+04  0.00000000000E+00 0. -1.
         -2   -1    0    0    0  501 -0.00000000000E+00 -0.00000000000E+00 -0.17131297021E+04  0.17131297021E+04  0.00000000000E+00 0.  1.
        -24    2    1    2    0    0 -0.43765132899E+03 -0.93760367199E+03 -0.10888560034E+04  0.15042117243E+04  0.80038640023E+02 0.  0.
        254    2    1    2    0    0  0.43765132899E+03  0.93760367199E+03  0.70995235550E+03  0.15431440320E+04  0.89812127516E+03 0.  0.
         23    2    4    4    0    0  0.19752654110E+03  0.10639075615E+04  0.56682407641E+03  0.12246578532E+04  0.87070602860E+02 0.  0.
         23    2    4    4    0    0  0.24012478789E+03 -0.12630388949E+03  0.14312827909E+03  0.31848617884E+03  0.85645522821E+02 0.  0.
          1    1    3    3  502    0 -0.37044171021E+02 -0.53499176690E+02 -0.93718393336E+02  0.11409456500E+03  0.00000000000E+00 0. -1.
         -2    1    3    3    0  502 -0.40060715797E+03 -0.88410449530E+03 -0.99513761005E+03  0.13901171593E+04  0.00000000000E+00 0.  1.
         13    1    5    5    0    0  0.15771728046E+03  0.95973280017E+03  0.48858897954E+03  0.10884305119E+04  0.00000000000E+00 0. -1.
        -13    1    5    5    0    0  0.39809260642E+02  0.10417476131E+03  0.78235096869E+02  0.13622734127E+03  0.00000000000E+00 0.  1.
          2    1    6    6  503    0  0.10485125782E+03 -0.74025162399E+02  0.11158187915E+03  0.17007065205E+03  0.00000000000E+00 0. -1.
         -2    1    6    6    0  503  0.13527353007E+03 -0.52278727089E+02  0.31546399939E+02  0.14841552679E+03  0.00000000000E+00 0.  1.
<mgrwt>
<rscale>  0 0.30237078E+04</rscale>
<asrwt>0</asrwt>
<pdfrwt beam="1">  1        1 0.20526555E+00 0.30237078E+04</pdfrwt>
<pdfrwt beam="2">  1       -2 0.26355841E+00 0.30237078E+04</pdfrwt>
<totfact> 0.33837530E-01</totfact>
</mgrwt>
</event>
<event>
12    5  0.5297412E-008  0.1698363E+04  0.7818608E-02  0.8762298E-01
          1   -1    0    0  501    0  0.00000000000E+00  0.00000000000E+00  0.17724058583E+04  0.17724058583E+04  0.00000000000E+00 0. -1.
         -2   -1    0    0    0  501 -0.00000000000E+00 -0.00000000000E+00 -0.40685338707E+03  0.40685338707E+03  0.00000000000E+00 0.  1.
        -24    2    1    2    0    0 -0.41461099487E+02 -0.58773388821E+03  0.65617423791E+03  0.88541174172E+03  0.78988453278E+02 0.  0.
        254    2    1    2    0    0  0.41461099487E+02  0.58773388821E+03  0.70937823336E+03  0.12938475037E+04  0.90756472978E+03 0.  0.
         23    2    4    4    0    0  0.47450376590E+02 -0.13903100213E+03 -0.10208895634E+03  0.20071965269E+03  0.91022338891E+02 0.  0.
         23    2    4    4    0    0 -0.59892771034E+01  0.72676489034E+03  0.81146718971E+03  0.10931278510E+04  0.90699621927E+02 0.  0.
          1    1    3    3  502    0 -0.32763987252E+02 -0.23808486189E+03  0.21541489880E+03  0.32274054432E+03  0.00000000000E+00 0. -1.
         -2    1    3    3    0  502 -0.86971122350E+01 -0.34964902631E+03  0.44075933911E+03  0.56267119740E+03  0.00000000000E+00 0.  1.
         13    1    5    5    0    0  0.24818456895E+02  0.64032805815E+01 -0.14751964184E+02  0.29573269216E+02  0.00000000000E+00 0.  1.
        -13    1    5    5    0    0  0.22631919695E+02 -0.14543428271E+03 -0.87336992159E+02  0.17114638347E+03  0.00000000000E+00 0. -1.
          3    1    6    6  503    0  0.33037591150E+02  0.54886749908E+03  0.62567049009E+03  0.83295292552E+03  0.00000000000E+00 0. -1.
         -3    1    6    6    0  503 -0.39026868253E+02  0.17789739126E+03  0.18579669962E+03  0.26017492549E+03  0.00000000000E+00 0.  1.
<mgrwt>
<rscale>  0 0.16983631E+04</rscale>
<asrwt>0</asrwt>
<pdfrwt beam="1">  1        1 0.27267782E+00 0.16983631E+04</pdfrwt>
<pdfrwt beam="2">  1       -2 0.62592830E-01 0.16983631E+04</pdfrwt>
<totfact> 0.84131661E+00</totfact>
</mgrwt>
</event>
<event>
12    5  0.5297412E-008  0.1243019E+04  0.7818608E-02  0.9076014E-01
          1   -1    0    0  501    0  0.00000000000E+00  0.00000000000E+00  0.10816179988E+04  0.10816179988E+04  0.00000000000E+00 0. -1.
         -2   -1    0    0    0  501 -0.00000000000E+00 -0.00000000000E+00 -0.35712585457E+03  0.35712585457E+03  0.00000000000E+00 0.  1.
        -24    2    1    2    0    0  0.44876827115E+02  0.18382608920E+03  0.43310930580E+03  0.47833149707E+03  0.73562148159E+02 0.  0.
        254    2    1    2    0    0 -0.44876827115E+02 -0.18382608920E+03  0.29138283843E+03  0.96041235630E+03  0.89536694987E+03 0.  0.
         23    2    4    4    0    0  0.25184453054E+03  0.18542442163E+03  0.34562982067E+03  0.47504898455E+03  0.91671593667E+02 0.  0.
         23    2    4    4    0    0 -0.29672135765E+03 -0.36925051083E+03 -0.54246982243E+02  0.48536337175E+03  0.90803985172E+02 0.  0.
          3    1    3    3  502    0  0.93146986936E+01  0.15782815459E+03  0.35594573779E+03  0.38947895739E+03  0.00000000000E+00 0. -1.
         -4    1    3    3    0  502  0.35562128422E+02  0.25997934610E+02  0.77163568004E+02  0.88852539688E+02  0.00000000000E+00 0.  1.
         13    1    5    5    0    0  0.61537612388E+01 -0.45159913522E+01 -0.29639349722E+01  0.81882761188E+01  0.00000000000E+00 0. -1.
        -13    1    5    5    0    0  0.24569076930E+03  0.18994041298E+03  0.34859375564E+03  0.46686070843E+03  0.00000000000E+00 0.  1.
          1    1    6    6  503    0 -0.19032377863E+03 -0.16493297198E+03 -0.33655556044E+02  0.25408408532E+03  0.00000000000E+00 0. -1.
         -1    1    6    6    0  503 -0.10639757903E+03 -0.20431753884E+03 -0.20591426199E+02  0.23127928644E+03  0.00000000000E+00 0.  1.
<mgrwt>
<rscale>  0 0.12430185E+04</rscale>
<asrwt>0</asrwt>
<pdfrwt beam="1">  1        1 0.16640277E+00 0.12430185E+04</pdfrwt>
<pdfrwt beam="2">  1       -2 0.54942440E-01 0.12430185E+04</pdfrwt>
<totfact> 0.35287062E+01</totfact>
</mgrwt>
</event>
<event>
12    5  0.5297412E-008  0.1285819E+04  0.7818608E-02  0.9040887E-01
          1   -1    0    0  501    0  0.00000000000E+00  0.00000000000E+00  0.69581586909E+03  0.69581586909E+03  0.00000000000E+00 0. -1.
         -2   -1    0    0    0  501 -0.00000000000E+00 -0.00000000000E+00 -0.59402596281E+03  0.59402596281E+03  0.00000000000E+00 0.  1.
        -24    2    1    2    0    0  0.69369007155E+02 -0.11694346590E+03 -0.26493777243E+03  0.30906594577E+03  0.82715791720E+02 0.  0.
        254    2    1    2    0    0 -0.69369007155E+02  0.11694346590E+03  0.36672767872E+03  0.98077588613E+03  0.89941331717E+03 0.  0.
         23    2    4    4    0    0  0.36647815494E+03  0.15684264389E+03  0.11925107309E+02  0.40910368485E+03  0.91201775116E+02 0.  0.
         23    2    4    4    0    0 -0.43584716210E+03 -0.39899177986E+02  0.35480257141E+03  0.57167220128E+03  0.96796425138E+02 0.  0.
          1    1    3    3  502    0 -0.92862403630E+01 -0.54461148633E+02 -0.12635875670E+03  0.13790861599E+03  0.00000000000E+00 0. -1.
         -2    1    3    3    0  502  0.78655247518E+02 -0.62482317267E+02 -0.13857901573E+03  0.17115732977E+03  0.00000000000E+00 0.  1.
         13    1    5    5    0    0  0.70676498458E+02 -0.40805235023E+01  0.14917550975E+02  0.72348817775E+02  0.00000000000E+00 0.  1.
        -13    1    5    5    0    0  0.29580165649E+03  0.16092316739E+03 -0.29924436664E+01  0.33675486708E+03  0.00000000000E+00 0. -1.
          2    1    6    6  503    0 -0.23047218831E+03 -0.23449987969E+02  0.24885730818E+03  0.33999601667E+03  0.00000000000E+00 0. -1.
         -2    1    6    6    0  503 -0.20537497379E+03 -0.16449190017E+02  0.10594526324E+03  0.23167618461E+03  0.00000000000E+00 0.  1.
<mgrwt>
<rscale>  0 0.12858191E+04</rscale>
<asrwt>0</asrwt>
<pdfrwt beam="1">  1        1 0.10704860E+00 0.12858191E+04</pdfrwt>
<pdfrwt beam="2">  1       -2 0.91388609E-01 0.12858191E+04</pdfrwt>
<totfact> 0.24157625E+01</totfact>
</mgrwt>
</event>
<event>
12    5  0.5297412E-008  0.1689831E+04  0.7818608E-02  0.8767185E-01
         -4   -1    0    0    0  501 -0.00000000000E+00  0.00000000000E+00  0.18218555262E+04  0.18218555262E+04  0.00000000000E+00 0.  1.
          1   -1    0    0  501    0  0.00000000000E+00 -0.00000000000E+00 -0.39184346874E+03  0.39184346874E+03  0.00000000000E+00 0. -1.
        -24    2    1    2    0    0 -0.54463479353E+03 -0.35669009540E+02  0.85068964350E+03  0.10139721323E+04  0.81038749514E+02 0.  0.
        254    2    1    2    0    0  0.54463479353E+03  0.35669009540E+02  0.57932241394E+03  0.11997268626E+04  0.89768076121E+03 0.  0.
         23    2    4    4    0    0  0.70113045513E+03  0.11790854972E+03  0.16194390479E+03  0.73486056514E+03  0.91147576425E+02 0.  0.
         23    2    4    4    0    0 -0.15649566160E+03 -0.82239540182E+02  0.41737850914E+03  0.46486629749E+03  0.10315823077E+03 0.  0.
          3    1    3    3  502    0 -0.30099862534E+03 -0.26681878600E+02  0.39694154965E+03  0.49887341976E+03  0.00000000000E+00 0. -1.
         -4    1    3    3    0  502 -0.24363616819E+03 -0.89871309402E+01  0.45374809384E+03  0.51509871252E+03  0.00000000000E+00 0.  1.
         13    1    5    5    0    0  0.60665432013E+03  0.69908958704E+02  0.13254600304E+03  0.62488812564E+03  0.00000000000E+00 0.  1.
        -13    1    5    5    0    0  0.94476134996E+02  0.47999591019E+02  0.29397901757E+02  0.10997243950E+03  0.00000000000E+00 0. -1.
          3    1    6    6  503    0 -0.93642573380E+02  0.28942565201E+01  0.24847693982E+03  0.26555243906E+03  0.00000000000E+00 0.  1.
         -3    1    6    6    0  503 -0.62853088223E+02 -0.85133796702E+02  0.16890156933E+03  0.19931385843E+03  0.00000000000E+00 0. -1.
<mgrwt>
<rscale>  0 0.16898310E+04</rscale>
<asrwt>0</asrwt>
<pdfrwt beam="1">  1        1 0.60283612E-01 0.16898310E+04</pdfrwt>
<pdfrwt beam="2">  1       -4 0.28028546E+00 0.16898310E+04</pdfrwt>
<totfact> 0.11462537E+00</totfact>
</mgrwt>
</event>
<event>
12    5  0.5297412E-008  0.3848091E+04  0.7818608E-02  0.8035913E-01
          1   -1    0    0  501    0  0.00000000000E+00  0.00000000000E+00  0.27577416712E+04  0.27577416712E+04  0.00000000000E+00 0. -1.
         -2   -1    0    0    0  501 -0.00000000000E+00 -0.00000000000E+00 -0.13423848772E+04  0.13423848772E+04  0.00000000000E+00 0.  1.
        -24    2    1    2    0    0 -0.12984298544E+04  0.67190430374E+03  0.18204581439E+04  0.23361990194E+04  0.79890702830E+02 0.  0.
        254    2    1    2    0    0  0.12984298544E+04 -0.67190430374E+03 -0.40510134995E+03  0.17639275290E+04  0.89997652387E+03 0.  0.
         23    2    4    4    0    0  0.13857281038E+04 -0.64379924696E+03 -0.49327916790E+03  0.16082508965E+04  0.91797389174E+02 0.  0.
         23    2    4    4    0    0 -0.87298249358E+02 -0.28105056773E+02  0.88177817951E+02  0.15567663247E+03  0.89716262516E+02 0.  0.
          1    1    3    3  502    0 -0.10553091060E+04  0.58030550057E+03  0.15014828570E+04  0.19248071470E+04  0.00000000000E+00 0. -1.
         -2    1    3    3    0  502 -0.24312074841E+03  0.91598803167E+02  0.31897528686E+03  0.41139187240E+03  0.00000000000E+00 0.  1.
         13    1    5    5    0    0  0.12549408614E+04 -0.59688105540E+03 -0.42343140299E+03  0.14527345638E+04  0.00000000000E+00 0. -1.
        -13    1    5    5    0    0  0.13078724238E+03 -0.46918191561E+02 -0.69847764906E+02  0.15551633268E+03  0.00000000000E+00 0.  1.
          3    1    6    6  503    0 -0.10418193944E+03 -0.30420155808E+02  0.86043568604E+02  0.13850183422E+03  0.00000000000E+00 0. -1.
         -3    1    6    6    0  503  0.16883690083E+02  0.23150990346E+01  0.21342493472E+01  0.17174798242E+02  0.00000000000E+00 0.  1.
<mgrwt>
<rscale>  0 0.38480908E+04</rscale>
<asrwt>0</asrwt>
<pdfrwt beam="1">  1        1 0.42426795E+00 0.38480908E+04</pdfrwt>
<pdfrwt beam="2">  1       -2 0.20652075E+00 0.38480908E+04</pdfrwt>
<totfact> 0.75117362E-02</totfact>
</mgrwt>
</event>
<event>
12    5  0.5297412E-008  0.1607563E+04  0.7818608E-02  0.8815915E-01
          1   -1    0    0  501    0  0.00000000000E+00  0.00000000000E+00  0.40697312861E+03  0.40697312861E+03  0.00000000000E+00 0. -1.
         -2   -1    0    0    0  501 -0.00000000000E+00 -0.00000000000E+00 -0.15874873424E+04  0.15874873424E+04  0.00000000000E+00 0.  1.
        -24    2    1    2    0    0 -0.13052454646E+03 -0.38000513303E+03 -0.87360266958E+03  0.96489654322E+03  0.80019725438E+02 0.  0.
        254    2    1    2    0    0  0.13052454646E+03  0.38000513303E+03 -0.30691154422E+03  0.10295639278E+04  0.89686488787E+03 0.  0.
         23    2    4    4    0    0  0.16630728667E+03 -0.72182089476E+02 -0.49153658027E+03  0.53160153356E+03  0.90131088433E+02 0.  0.
         23    2    4    4    0    0 -0.35782740217E+02  0.45218722250E+03  0.18462503605E+03  0.49796239424E+03  0.90146843794E+02 0.  0.
          3    1    3    3  502    0 -0.10354360994E+03 -0.26951139180E+03 -0.53847484555E+03  0.61099331319E+03  0.00000000000E+00 0. -1.
         -4    1    3    3    0  502 -0.26980936517E+02 -0.11049374122E+03 -0.33512782403E+03  0.35390323003E+03  0.00000000000E+00 0.  1.
         13    1    5    5    0    0  0.12561116328E+03 -0.49368111424E+02 -0.23622139585E+03  0.27205867497E+03  0.00000000000E+00 0. -1.
        -13    1    5    5    0    0  0.40696123389E+02 -0.22813978053E+02 -0.25531518442E+03  0.25954285860E+03  0.00000000000E+00 0.  1.
          4    1    6    6  503    0 -0.50881742232E+02  0.33722244290E+03  0.17009352126E+03  0.38110331101E+03  0.00000000000E+00 0. -1.
         -4    1    6    6    0  503  0.15099002015E+02  0.11496477960E+03  0.14531514792E+02  0.11685908323E+03  0.00000000000E+00 0.  1.
<mgrwt>
<rscale>  0 0.16075630E+04</rscale>
<asrwt>0</asrwt>
<pdfrwt beam="1">  1        1 0.62611250E-01 0.16075630E+04</pdfrwt>
<pdfrwt beam="2">  1       -2 0.24422882E+00 0.16075630E+04</pdfrwt>
<totfact> 0.34284001E+00</totfact>
</mgrwt>
</event>
<event>
12    5  0.5297412E-008  0.1117225E+04  0.7818608E-02  0.9188564E-01
          1   -1    0    0  501    0  0.00000000000E+00  0.00000000000E+00  0.41069201501E+03  0.41069201501E+03  0.00000000000E+00 0. -1.
         -2   -1    0    0    0  501 -0.00000000000E+00 -0.00000000000E+00 -0.75981050522E+03  0.75981050522E+03  0.00000000000E+00 0.  1.
        -24    2    1    2    0    0 -0.11643986460E+03 -0.64882407105E+02 -0.20219721315E+03  0.25510135700E+03  0.80156225677E+02 0.  0.
        254    2    1    2    0    0  0.11643986460E+03  0.64882407105E+02 -0.14692127706E+03  0.91540116323E+03  0.89364727895E+03 0.  0.
         23    2    4    4    0    0  0.25679750004E+02  0.18554512589E+03  0.33960823988E+03  0.39811492849E+03  0.89862652896E+02 0.  0.
         23    2    4    4    0    0  0.90760114600E+02 -0.12066271878E+03 -0.48652951694E+03  0.51728623474E+03  0.89873175600E+02 0.  0.
          3    1    3    3  502    0 -0.11608684987E+03 -0.72228307655E+02 -0.15230581019E+03  0.20467082097E+03  0.00000000000E+00 0. -1.
         -4    1    3    3    0  502 -0.35301473349E+00  0.73459005501E+01 -0.49891402964E+02  0.50430536028E+02  0.00000000000E+00 0.  1.
         13    1    5    5    0    0  0.18007206976E+02  0.16848752542E+03  0.33947041663E+03  0.37941068711E+03  0.00000000000E+00 0.  1.
        -13    1    5    5    0    0  0.76725430275E+01  0.17057600474E+02  0.13782325590E+00  0.18704241382E+02  0.00000000000E+00 0. -1.
          3    1    6    6  503    0  0.55134709853E+02 -0.84894297167E+02 -0.17899560302E+03  0.20563633877E+03  0.00000000000E+00 0. -1.
         -3    1    6    6    0  503  0.35625404747E+02 -0.35768421618E+02 -0.30753391392E+03  0.31164989597E+03  0.00000000000E+00 0.  1.
<mgrwt>
<rscale>  0 0.11172253E+04</rscale>
<asrwt>0</asrwt>
<pdfrwt beam="1">  1        1 0.63183388E-01 0.11172253E+04</pdfrwt>
<pdfrwt beam="2">  1       -2 0.11689392E+00 0.11172253E+04</pdfrwt>
<totfact> 0.28527878E+01</totfact>
</mgrwt>
</event>
<event>
12    5  0.5297412E-008  0.1546303E+04  0.7818608E-02  0.8854233E-01
          1   -1    0    0  501    0  0.00000000000E+00  0.00000000000E+00  0.15558724868E+04  0.15558724868E+04  0.00000000000E+00 0. -1.
         -2   -1    0    0    0  501 -0.00000000000E+00 -0.00000000000E+00 -0.38419787008E+03  0.38419787008E+03  0.00000000000E+00 0.  1.
        -24    2    1    2    0    0 -0.53272776706E+02  0.25625930115E+03  0.92843146479E+03  0.96778950775E+03  0.78260643560E+02 0.  0.
        254    2    1    2    0    0  0.53272776706E+02 -0.25625930115E+03  0.24324315194E+03  0.97228084914E+03  0.90424333035E+03 0.  0.
         23    2    4    4    0    0 -0.11416543455E+03 -0.10579182857E+02  0.52999597963E+03  0.55002218943E+03  0.92103229495E+02 0.  0.
         23    2    4    4    0    0  0.16743821126E+03 -0.24568011830E+03 -0.28675282769E+03  0.42225865971E+03  0.87640837490E+02 0.  0.
          3    1    3    3  502    0 -0.52366757387E+01  0.15546166393E+03  0.63654483524E+03  0.65527481181E+03  0.00000000000E+00 0. -1.
         -4    1    3    3    0  502 -0.48036100967E+02  0.10079763723E+03  0.29188662955E+03  0.31251469594E+03  0.00000000000E+00 0.  1.
         13    1    5    5    0    0 -0.12274205269E+03 -0.11194947453E+02  0.37391777067E+03  0.39370729936E+03  0.00000000000E+00 0.  1.
        -13    1    5    5    0    0  0.85766181387E+01  0.61576459646E+00  0.15607820896E+03  0.15631489007E+03  0.00000000000E+00 0. -1.
          1    1    6    6  503    0  0.13035035386E+02  0.12780923807E+01 -0.34681100048E+02  0.37071881099E+02  0.00000000000E+00 0. -1.
         -1    1    6    6    0  503  0.15440317587E+03 -0.24695821068E+03 -0.25207172764E+03  0.38518677861E+03  0.00000000000E+00 0.  1.
<mgrwt>
<rscale>  0 0.15463026E+04</rscale>
<asrwt>0</asrwt>
<pdfrwt beam="1">  1        1 0.23936499E+00 0.15463026E+04</pdfrwt>
<pdfrwt beam="2">  1       -2 0.59107366E-01 0.15463026E+04</pdfrwt>
<totfact> 0.13530103E+01</totfact>
</mgrwt>
</event>
<event>
12    5  0.5297412E-008  0.2036967E+04  0.7818608E-02  0.8589530E-01
         -2   -1    0    0    0  501 -0.00000000000E+00  0.00000000000E+00  0.15963306628E+04  0.15963306628E+04  0.00000000000E+00 0.  1.
          1   -1    0    0  501    0  0.00000000000E+00 -0.00000000000E+00 -0.64980830602E+03  0.64980830602E+03  0.00000000000E+00 0. -1.
        -24    2    1    2    0    0 -0.15484592549E+02 -0.41719293340E+03  0.11744843679E+04  0.12490623853E+04  0.80334275260E+02 0.  0.
        254    2    1    2    0    0  0.15484592549E+02  0.41719293340E+03 -0.22796201114E+03  0.99707658344E+03  0.87630207031E+03 0.  0.
         23    2    4    4    0    0 -0.38734277670E+03  0.13645494032E+03  0.52114397660E+02  0.42433289069E+03  0.93210054579E+02 0.  0.
         23    2    4    4    0    0  0.40282736925E+03  0.28073799308E+03 -0.28007640880E+03  0.57274369275E+03  0.92243333879E+02 0.  0.
          1    1    3    3  502    0  0.11181300230E+02 -0.58802983385E+02  0.25284981333E+03  0.25983810427E+03  0.00000000000E+00 0. -1.
         -2    1    3    3    0  502 -0.26665892779E+02 -0.35838995002E+03  0.92163455455E+03  0.98922428107E+03  0.00000000000E+00 0.  1.
         13    1    5    5    0    0 -0.70096774913E+02 -0.10378611496E+02  0.17881247424E+02  0.73082230667E+02  0.00000000000E+00 0.  1.
        -13    1    5    5    0    0 -0.31724600179E+03  0.14683355181E+03  0.34233150235E+02  0.35125066002E+03  0.00000000000E+00 0. -1.
          2    1    6    6  503    0  0.38003230275E+03  0.24109438696E+03 -0.27323213791E+03  0.52650437391E+03  0.00000000000E+00 0. -1.
         -2    1    6    6    0  503  0.22795066503E+02  0.39643606123E+02 -0.68442708855E+01  0.46239318845E+02  0.00000000000E+00 0.  1.
<mgrwt>
<rscale>  0 0.20369673E+04</rscale>
<asrwt>0</asrwt>
<pdfrwt beam="1">  1        1 0.99970509E-01 0.20369673E+04</pdfrwt>
<pdfrwt beam="2">  1       -2 0.24558933E+00 0.20369673E+04</pdfrwt>
<totfact> 0.16878639E+00</totfact>
</mgrwt>
</event>
<event>
12    5  0.5297412E-008  0.1568831E+04  0.7818608E-02  0.8839928E-01
         -2   -1    0    0    0  501 -0.00000000000E+00  0.00000000000E+00  0.14068887150E+04  0.14068887150E+04  0.00000000000E+00 0.  1.
          1   -1    0    0  501    0  0.00000000000E+00 -0.00000000000E+00 -0.43735355523E+03  0.43735355523E+03  0.00000000000E+00 0. -1.
        -24    2    1    2    0    0  0.18801764546E+02 -0.59680455730E+02  0.93716886282E+03  0.94266082021E+03  0.80054240184E+02 0.  0.
        254    2    1    2    0    0 -0.18801764546E+02  0.59680455730E+02  0.32366296995E+02  0.90158145007E+03  0.89882493890E+03 0.  0.
         23    2    4    4    0    0 -0.78897026179E+02 -0.17576139179E+03  0.39914741597E+03  0.45222392113E+03  0.89838786617E+02 0.  0.
         23    2    4    4    0    0  0.60095261633E+02  0.23544184752E+03 -0.36678111898E+03  0.44935752894E+03  0.91375574104E+02 0.  0.
          1    1    3    3  502    0 -0.16125232372E+02  0.10428451307E+02  0.31434089301E+03  0.31492693238E+03  0.00000000000E+00 0. -1.
         -2    1    3    3    0  502  0.34926996918E+02 -0.70108907037E+02  0.62282796981E+03  0.62773388783E+03  0.00000000000E+00 0.  1.
         13    1    5    5    0    0 -0.24439503513E+02 -0.77109855480E+01  0.11356486074E+03  0.11642047168E+03  0.00000000000E+00 0. -1.
        -13    1    5    5    0    0 -0.54457522666E+02 -0.16805040624E+03  0.28558255523E+03  0.33580344945E+03  0.00000000000E+00 0.  1.
          3    1    6    6  503    0  0.46736562575E+02  0.87713171683E+02 -0.21639412083E+03  0.23812669379E+03  0.00000000000E+00 0. -1.
         -3    1    6    6    0  503  0.13358699058E+02  0.14772867583E+03 -0.15038699815E+03  0.21123083515E+03  0.00000000000E+00 0.  1.
<mgrwt>
<rscale>  0 0.15688311E+04</rscale>
<asrwt>0</asrwt>
<pdfrwt beam="1">  1        1 0.67285163E-01 0.15688311E+04</pdfrwt>
<pdfrwt beam="2">  1       -2 0.21644442E+00 0.15688311E+04</pdfrwt>
<totfact> 0.46574404E+00</totfact>
</mgrwt>
</event>
<event>
12    5  0.5297412E-008  0.1958692E+04  0.7818608E-02  0.8626181E-01
         -2   -1    0    0    0  501 -0.00000000000E+00  0.00000000000E+00  0.66925209313E+03  0.66925209313E+03  0.00000000000E+00 0.  1.
          1   -1    0    0  501    0  0.00000000000E+00 -0.00000000000E+00 -0.14331199024E+04  0.14331199024E+04  0.00000000000E+00 0. -1.
        -24    2    1    2    0    0 -0.43132153889E+02  0.10714316203E+03  0.51585229522E+03  0.53463920176E+03  0.79971530637E+02 0.  0.
        254    2    1    2    0    0  0.43132153889E+02 -0.10714316203E+03 -0.12797201045E+04  0.15677327938E+04  0.89819960307E+03 0.  0.
         23    2    4    4    0    0  0.11964383869E+03  0.37522645673E+03 -0.49468968129E+03  0.63870800257E+03  0.90113760371E+02 0.  0.
         23    2    4    4    0    0 -0.76511684796E+02 -0.48236961876E+03 -0.78503042322E+03  0.92902479121E+03  0.90993462887E+02 0.  0.
          1    1    3    3  502    0 -0.23760663971E+02  0.95338634086E+00  0.38637729711E+02  0.45369067161E+02  0.00000000000E+00 0. -1.
         -2    1    3    3    0  502 -0.19371489919E+02  0.10618977569E+03  0.47721456551E+03  0.48927013460E+03  0.00000000000E+00 0.  1.
         13    1    5    5    0    0  0.12532625090E+03  0.36685457027E+03 -0.49480834706E+03  0.62858909091E+03  0.00000000000E+00 0.  1.
        -13    1    5    5    0    0 -0.56824122130E+01  0.83718864698E+01  0.11866577708E+00  0.10118911660E+02  0.00000000000E+00 0. -1.
          3    1    6    6  503    0 -0.32943712984E+01 -0.45890913596E+01  0.14980608766E+01  0.58443843259E+01  0.00000000000E+00 0. -1.
         -3    1    6    6    0  503 -0.73217313498E+02 -0.47778052740E+03 -0.78652848409E+03  0.92318040688E+03  0.00000000000E+00 0.  1.
<mgrwt>
<rscale>  0 0.19586919E+04</rscale>
<asrwt>0</asrwt>
<pdfrwt beam="1">  1        1 0.22047998E+00 0.19586919E+04</pdfrwt>
<pdfrwt beam="2">  1       -2 0.10296186E+00 0.19586919E+04</pdfrwt>
<totfact> 0.45842377E+00</totfact>
</mgrwt>
</event>
<event>
12    5  0.5297412E-008  0.1782311E+04  0.7818608E-02  0.8715763E-01
          1   -1    0    0  501    0  0.00000000000E+00  0.00000000000E+00  0.25825198936E+04  0.25825198936E+04  0.00000000000E+00 0. -1.
         -2   -1    0    0    0  501 -0.00000000000E+00 -0.00000000000E+00 -0.30751289866E+03  0.30751289866E+03  0.00000000000E+00 0.  1.
        -24    2    1    2    0    0 -0.35582895912E+03 -0.45553467526E+02  0.17526043560E+04  0.17906720874E+04  0.78709142983E+02 0.  0.
        254    2    1    2    0    0  0.35582895912E+03  0.45553467526E+02  0.52240263889E+03  0.10993607049E+04  0.89833182941E+03 0.  0.
         23    2    4    4    0    0 -0.22067273776E+03  0.24207514070E+03  0.27001946485E+03  0.43410072203E+03  0.90752931252E+02 0.  0.
         23    2    4    4    0    0  0.57650169688E+03 -0.19652167318E+03  0.25238317404E+03  0.66525998284E+03  0.88874088977E+02 0.  0.
          1    1    3    3  502    0 -0.17633161470E+03 -0.36869569937E+02  0.69833321114E+03  0.72119447953E+03  0.00000000000E+00 0. -1.
         -2    1    3    3    0  502 -0.17949734442E+03 -0.86838975890E+01  0.10542711449E+04  0.10694776079E+04  0.00000000000E+00 0.  1.
         13    1    5    5    0    0 -0.10253670162E+03  0.50124010717E+02  0.10052886070E+03  0.15209287775E+03  0.00000000000E+00 0. -1.
        -13    1    5    5    0    0 -0.11813603614E+03  0.19195112999E+03  0.16949060415E+03  0.28200784428E+03  0.00000000000E+00 0.  1.
          4    1    6    6  503    0  0.30736384646E+03 -0.64282275995E+02  0.15336030657E+03  0.34946262855E+03  0.00000000000E+00 0. -1.
         -4    1    6    6    0  503  0.26913785042E+03 -0.13223939718E+03  0.99022867466E+02  0.31579735429E+03  0.00000000000E+00 0.  1.
<mgrwt>
<rscale>  0 0.17823111E+04</rscale>
<asrwt>0</asrwt>
<pdfrwt beam="1">  1        1 0.39731074E+00 0.17823111E+04</pdfrwt>
<pdfrwt beam="2">  1       -2 0.47309678E-01 0.17823111E+04</pdfrwt>
<totfact> 0.41770906E+00</totfact>
</mgrwt>
</event>
<event>
12    5  0.5297412E-008  0.1556069E+04  0.7818608E-02  0.8848001E-01
          1   -1    0    0  501    0  0.00000000000E+00  0.00000000000E+00  0.13046411608E+04  0.13046411608E+04  0.00000000000E+00 0. -1.
         -2   -1    0    0    0  501 -0.00000000000E+00 -0.00000000000E+00 -0.46398783988E+03  0.46398783988E+03  0.00000000000E+00 0.  1.
        -24    2    1    2    0    0  0.16888182340E+03 -0.45539240396E+03  0.46405407245E+03  0.67661783070E+03  0.81007375061E+02 0.  0.
        254    2    1    2    0    0 -0.16888182340E+03  0.45539240396E+03  0.37659924844E+03  0.10920111699E+04  0.90263951248E+03 0.  0.
         23    2    4    4    0    0  0.76270646492E+01  0.52857876264E+03 -0.12132579616E+03  0.55029678052E+03  0.93021058940E+02 0.  0.
         23    2    4    4    0    0 -0.17650888805E+03 -0.73186358679E+02  0.49792504461E+03  0.54171438943E+03  0.94939449173E+02 0.  0.
          1    1    3    3  502    0  0.40494822094E+02 -0.10690744724E+03  0.16000345000E+03  0.19664723976E+03  0.00000000000E+00 0. -1.
         -2    1    3    3    0  502  0.12838700131E+03 -0.34848495672E+03  0.30405062244E+03  0.47997059095E+03  0.00000000000E+00 0.  1.
         13    1    5    5    0    0  0.31762428048E+02  0.63164772479E+02 -0.14584002112E+02  0.72189565973E+02  0.00000000000E+00 0. -1.
        -13    1    5    5    0    0 -0.24135363398E+02  0.46541399016E+03 -0.10674179405E+03  0.47810721454E+03  0.00000000000E+00 0.  1.
          1    1    6    6  503    0 -0.15601782183E+03 -0.28732344048E+02  0.31980282650E+03  0.35698873394E+03  0.00000000000E+00 0.  1.
         -1    1    6    6    0  503 -0.20491066217E+02 -0.44454014631E+02  0.17812221811E+03  0.18472565549E+03  0.00000000000E+00 0. -1.
<mgrwt>
<rscale>  0 0.15560689E+04</rscale>
<asrwt>0</asrwt>
<pdfrwt beam="1">  1        1 0.20071402E+00 0.15560689E+04</pdfrwt>
<pdfrwt beam="2">  1       -2 0.71382745E-01 0.15560689E+04</pdfrwt>
<totfact> 0.13504757E+01</totfact>
</mgrwt>
</event>
<event>
12    5  0.5297412E-008  0.2842800E+04  0.7818608E-02  0.8290103E-01
         -2   -1    0    0    0  501 -0.00000000000E+00  0.00000000000E+00  0.10714481733E+04  0.10714481733E+04  0.00000000000E+00 0.  1.
          1   -1    0    0  501    0  0.00000000000E+00 -0.00000000000E+00 -0.18856513119E+04  0.18856513119E+04  0.00000000000E+00 0. -1.
        -24    2    1    2    0    0 -0.88052753372E+02  0.23944567938E+03 -0.16619187092E+04  0.16832941173E+04  0.80110975717E+02 0.  0.
        254    2    1    2    0    0  0.88052753372E+02 -0.23944567938E+03  0.84771557065E+03  0.12738053679E+04  0.91589896050E+03 0.  0.
         23    2    4    4    0    0 -0.25367941624E+03 -0.67661677500E+02  0.83497106104E+03  0.88053775385E+03  0.96118231138E+02 0.  0.
         23    2    4    4    0    0  0.34173216961E+03 -0.17178400188E+03  0.12744509611E+02  0.39326761406E+03  0.90589042908E+02 0.  0.
          1    1    3    3  502    0 -0.10141556643E+03  0.18126063357E+03 -0.12881995100E+04  0.13048365844E+04  0.00000000000E+00 0. -1.
         -2    1    3    3    0  502  0.13362813055E+02  0.58185045819E+02 -0.37371919920E+03  0.37845753286E+03  0.00000000000E+00 0.  1.
         13    1    5    5    0    0 -0.23578288591E+03 -0.74084211300E+02  0.81970613869E+03  0.85615430470E+03  0.00000000000E+00 0.  1.
        -13    1    5    5    0    0 -0.17896530325E+02  0.64225338002E+01  0.15264922353E+02  0.24383449152E+02  0.00000000000E+00 0. -1.
          3    1    6    6  503    0  0.14823672586E+03 -0.27169406481E+02 -0.72177188277E+01  0.15087875599E+03  0.00000000000E+00 0. -1.
         -3    1    6    6    0  503  0.19349544374E+03 -0.14461459540E+03  0.19962228439E+02  0.24238885807E+03  0.00000000000E+00 0.  1.
<mgrwt>
<rscale>  0 0.28427998E+04</rscale>
<asrwt>0</asrwt>
<pdfrwt beam="1">  1        1 0.29010020E+00 0.28427998E+04</pdfrwt>
<pdfrwt beam="2">  1       -2 0.16483818E+00 0.28427998E+04</pdfrwt>
<totfact> 0.62709058E-01</totfact>
</mgrwt>
</event>
<event>
12    5  0.5297412E-008  0.1801702E+04  0.7818608E-02  0.8705395E-01
          1   -1    0    0  501    0  0.00000000000E+00  0.00000000000E+00  0.17384162566E+04  0.17384162566E+04  0.00000000000E+00 0. -1.
         -2   -1    0    0    0  501 -0.00000000000E+00 -0.00000000000E+00 -0.46682283327E+03  0.46682283327E+03  0.00000000000E+00 0.  1.
        -24    2    1    2    0    0  0.10732969766E+03 -0.85351029838E+02  0.12416388783E+04  0.12517585268E+04  0.80173829331E+02 0.  0.
        254    2    1    2    0    0 -0.10732969766E+03  0.85351029838E+02  0.29954545025E+02  0.95348056312E+03  0.94309249132E+03 0.  0.
         23    2    4    4    0    0 -0.44718861794E+03  0.12668446388E+03 -0.21656129241E+03  0.52089425377E+03  0.91681060390E+02 0.  0.
         23    2    4    4    0    0  0.33985892029E+03 -0.41333434044E+02  0.24651583744E+03  0.43258630934E+03  0.95646842362E+02 0.  0.
          3    1    3    3  502    0  0.82762263632E+02 -0.28219678604E+02  0.50636904897E+03  0.51386336345E+03  0.00000000000E+00 0. -1.
         -2    1    3    3    0  502  0.24567434026E+02 -0.57131351234E+02  0.73526982933E+03  0.73789516331E+03  0.00000000000E+00 0.  1.
         13    1    5    5    0    0 -0.30197624165E+03  0.54587591252E+02 -0.17605125937E+03  0.35378454116E+03  0.00000000000E+00 0.  1.
        -13    1    5    5    0    0 -0.14521237629E+03  0.72096872630E+02 -0.40510033047E+02  0.16710971261E+03  0.00000000000E+00 0. -1.
          4    1    6    6  503    0  0.33987385717E+03 -0.30101821481E+02  0.22620372484E+03  0.40937572421E+03  0.00000000000E+00 0.  1.
         -4    1    6    6    0  503 -0.14936881192E-01 -0.11231612563E+02  0.20312112598E+02  0.23210585129E+02  0.00000000000E+00 0. -1.
<mgrwt>
<rscale>  0 0.18017019E+04</rscale>
<asrwt>0</asrwt>
<pdfrwt beam="1">  1        1 0.26744865E+00 0.18017019E+04</pdfrwt>
<pdfrwt beam="2">  1       -2 0.71818898E-01 0.18017019E+04</pdfrwt>
<totfact> 0.65300711E+00</totfact>
</mgrwt>
</event>
<event>
12    5  0.5297412E-008  0.2747588E+04  0.7818608E-02  0.8319727E-01
         -2   -1    0    0    0  501 -0.00000000000E+00  0.00000000000E+00  0.17279224536E+04  0.17279224536E+04  0.00000000000E+00 0.  1.
          1   -1    0    0  501    0  0.00000000000E+00 -0.00000000000E+00 -0.10922426037E+04  0.10922426037E+04  0.00000000000E+00 0. -1.
        -24    2    1    2    0    0  0.91941305490E+03  0.32970579436E+03  0.10386728973E+04  0.14279712035E+04  0.78956278951E+02 0.  0.
        254    2    1    2    0    0 -0.91941305490E+03 -0.32970579436E+03 -0.40299304743E+03  0.13921938538E+04  0.90651754199E+03 0.  0.
         23    2    4    4    0    0 -0.48342573406E+02 -0.69615202005E+02  0.24029258695E+03  0.27481832581E+03  0.10296263452E+03 0.  0.
         23    2    4    4    0    0 -0.87107048150E+03 -0.26009059236E+03 -0.64328563437E+03  0.11173755280E+04  0.91108524248E+02 0.  0.
          3    1    3    3  502    0  0.12040407693E+03  0.15663416445E+02  0.12803480652E+03  0.17645224860E+03  0.00000000000E+00 0. -1.
         -4    1    3    3    0  502  0.79900897797E+03  0.31404237792E+03  0.91063809077E+03  0.12515189549E+04  0.00000000000E+00 0.  1.
         13    1    5    5    0    0 -0.97650831601E+01 -0.70481584839E+02  0.21999978276E+03  0.23122049015E+03  0.00000000000E+00 0.  1.
        -13    1    5    5    0    0 -0.38577490246E+02  0.86638283471E+00  0.20292804187E+02  0.43597835665E+02  0.00000000000E+00 0. -1.
          2    1    6    6  503    0 -0.12881192196E+03 -0.31642001519E+02 -0.57317825645E+02  0.14449588449E+03  0.00000000000E+00 0. -1.
         -2    1    6    6    0  503 -0.74225855954E+03 -0.22844859084E+03 -0.58596780873E+03  0.97287964350E+03  0.00000000000E+00 0.  1.
<mgrwt>
<rscale>  0 0.27475884E+04</rscale>
<asrwt>0</asrwt>
<pdfrwt beam="1">  1        1 0.16803732E+00 0.27475884E+04</pdfrwt>
<pdfrwt beam="2">  1       -2 0.26583422E+00 0.27475884E+04</pdfrwt>
<totfact> 0.50392614E-01</totfact>
</mgrwt>
</event>
<event>
12    5  0.5297412E-008  0.1646614E+04  0.7818608E-02  0.8792412E-01
         -2   -1    0    0    0  501 -0.00000000000E+00  0.00000000000E+00  0.12650767784E+04  0.12650767784E+04  0.00000000000E+00 0.  1.
          1   -1    0    0  501    0  0.00000000000E+00 -0.00000000000E+00 -0.53580473795E+03  0.53580473795E+03  0.00000000000E+00 0. -1.
        -24    2    1    2    0    0  0.50452519590E+03  0.46550593577E+02  0.53882042218E+03  0.74392289621E+03  0.79882395256E+02 0.  0.
        254    2    1    2    0    0 -0.50452519590E+03 -0.46550593577E+02  0.19045161829E+03  0.10569586202E+04  0.90784198777E+03 0.  0.
         23    2    4    4    0    0  0.76183786443E+02  0.30594608408E+03  0.17301918204E+03  0.37130507288E+03  0.92330082386E+02 0.  0.
         23    2    4    4    0    0 -0.58070898235E+03 -0.35249667766E+03  0.17432436249E+02  0.68565354728E+03  0.91323967964E+02 0.  0.
          1    1    3    3  502    0  0.90232420511E+02  0.15261251176E+02  0.14498613224E+03  0.17145195841E+03  0.00000000000E+00 0. -1.
         -2    1    3    3    0  502  0.41429277539E+03  0.31289342401E+02  0.39383428994E+03  0.57247093780E+03  0.00000000000E+00 0.  1.
         13    1    5    5    0    0  0.22635205237E+02  0.11592468007E+03  0.16284852565E+02  0.11923120560E+03  0.00000000000E+00 0. -1.
        -13    1    5    5    0    0  0.53548581206E+02  0.19002140401E+03  0.15673432947E+03  0.25207386728E+03  0.00000000000E+00 0.  1.
          3    1    6    6  503    0 -0.50344892387E+03 -0.32497310354E+03  0.40097497100E+02  0.60056319088E+03  0.00000000000E+00 0. -1.
         -3    1    6    6    0  503 -0.77260058480E+02 -0.27523574115E+02 -0.22665060851E+02  0.85090356397E+02  0.00000000000E+00 0.  1.
<mgrwt>
<rscale>  0 0.16466137E+04</rscale>
<asrwt>0</asrwt>
<pdfrwt beam="1">  1        1 0.82431498E-01 0.16466137E+04</pdfrwt>
<pdfrwt beam="2">  1       -2 0.19462720E+00 0.16466137E+04</pdfrwt>
<totfact> 0.48541495E+00</totfact>
</mgrwt>
</event>
<event>
12    5  0.5297412E-008  0.2018102E+04  0.7818608E-02  0.8598204E-01
         -2   -1    0    0    0  501 -0.00000000000E+00  0.00000000000E+00  0.40225761409E+03  0.40225761409E+03  0.00000000000E+00 0.  1.
          1   -1    0    0  501    0  0.00000000000E+00 -0.00000000000E+00 -0.25311732187E+04  0.25311732187E+04  0.00000000000E+00 0. -1.
        -24    2    1    2    0    0  0.50072160510E+03 -0.23838264604E+03 -0.70568513511E+01  0.56035486869E+03  0.79996049711E+02 0.  0.
        254    2    1    2    0    0 -0.50072160510E+03  0.23838264604E+03 -0.21218587532E+04  0.23730759641E+04  0.90645272953E+03 0.  0.
         23    2    4    4    0    0 -0.23168113571E+03  0.37802700673E+03 -0.34752886047E+03  0.57074775050E+03  0.91630340904E+02 0.  0.
         23    2    4    4    0    0 -0.26904046939E+03 -0.13964436069E+03 -0.17743298928E+04  0.18023282136E+04  0.90868583562E+02 0.  0.
          1    1    3    3  502    0  0.23779780552E+02 -0.22583165487E+02 -0.16643249551E+02  0.36776012320E+02  0.00000000000E+00 0. -1.
         -2    1    3    3    0  502  0.47694182455E+03 -0.21579948055E+03  0.95863982003E+01  0.52357885637E+03  0.00000000000E+00 0.  1.
         13    1    5    5    0    0 -0.17470557086E+02  0.38835188391E+02 -0.73415541690E+02  0.84871868036E+02  0.00000000000E+00 0.  1.
        -13    1    5    5    0    0 -0.21421057863E+03  0.33919181834E+03 -0.27411331878E+03  0.48587588246E+03  0.00000000000E+00 0. -1.
          4    1    6    6  503    0 -0.27340372505E+03 -0.13083196292E+03 -0.16498012210E+04  0.16774118959E+04  0.00000000000E+00 0. -1.
         -4    1    6    6    0  503  0.43632556650E+01 -0.88123977735E+01 -0.12452867173E+03  0.12491631774E+03  0.00000000000E+00 0.  1.
<mgrwt>
<rscale>  0 0.20181018E+04</rscale>
<asrwt>0</asrwt>
<pdfrwt beam="1">  1        1 0.38941126E+00 0.20181018E+04</pdfrwt>
<pdfrwt beam="2">  1       -2 0.61885787E-01 0.20181018E+04</pdfrwt>
<totfact> 0.25444983E+00</totfact>
</mgrwt>
</event>
<event>
12    5  0.5297412E-008  0.2061577E+04  0.7818608E-02  0.8578361E-01
          1   -1    0    0  501    0  0.00000000000E+00  0.00000000000E+00  0.12841804863E+04  0.12841804863E+04  0.00000000000E+00 0. -1.
         -2   -1    0    0    0  501 -0.00000000000E+00 -0.00000000000E+00 -0.82739517066E+03  0.82739517066E+03  0.00000000000E+00 0.  1.
        -24    2    1    2    0    0 -0.13172063311E+03  0.81218632705E+03 -0.16481110770E+02  0.82637877361E+03  0.75055282433E+02 0.  0.
        254    2    1    2    0    0  0.13172063311E+03 -0.81218632705E+03  0.47326642639E+03  0.12851968833E+04  0.86646001844E+03 0.  0.
         23    2    4    4    0    0  0.44935584817E+03 -0.31780704911E+03  0.39942375454E+03  0.68620693001E+03  0.91753018239E+02 0.  0.
         23    2    4    4    0    0 -0.31763521506E+03 -0.49437927795E+03  0.73842671849E+02  0.59898995333E+03  0.89628252755E+02 0.  0.
          3    1    3    3  502    0 -0.26645006862E+02  0.30523588270E+03  0.22271423428E+02  0.30720500774E+03  0.00000000000E+00 0. -1.
         -4    1    3    3    0  502 -0.10507562625E+03  0.50695044436E+03 -0.38752534198E+02  0.51917376587E+03  0.00000000000E+00 0.  1.
         13    1    5    5    0    0  0.11439897843E+01 -0.28016474021E+01 -0.45979711830E+01  0.55044781580E+01  0.00000000000E+00 0.  1.
        -13    1    5    5    0    0  0.44821185839E+03 -0.31500540171E+03  0.40402172573E+03  0.68070245185E+03  0.00000000000E+00 0. -1.
          4    1    6    6  503    0 -0.22311609321E+03 -0.26555268280E+03  0.42846928052E+02  0.34947800737E+03  0.00000000000E+00 0. -1.
         -4    1    6    6    0  503 -0.94519121845E+02 -0.22882659514E+03  0.30995743797E+02  0.24951194595E+03  0.00000000000E+00 0.  1.
<mgrwt>
<rscale>  0 0.20615768E+04</rscale>
<asrwt>0</asrwt>
<pdfrwt beam="1">  1        1 0.19756623E+00 0.20615768E+04</pdfrwt>
<pdfrwt beam="2">  1       -2 0.12729156E+00 0.20615768E+04</pdfrwt>
<totfact> 0.34433488E+00</totfact>
</mgrwt>
</event>
<event>
12    5  0.5297412E-008  0.2187035E+04  0.7818608E-02  0.8523844E-01
         -2   -1    0    0    0  501 -0.00000000000E+00  0.00000000000E+00  0.29153512671E+04  0.29153512671E+04  0.00000000000E+00 0.  1.
          1   -1    0    0  501    0  0.00000000000E+00 -0.00000000000E+00 -0.41016686718E+03  0.41016686718E+03  0.00000000000E+00 0. -1.
        -24    2    1    2    0    0  0.26935301902E+03 -0.69528176541E+03  0.18425915552E+04  0.19893414192E+04  0.79798876528E+02 0.  0.
        254    2    1    2    0    0 -0.26935301902E+03  0.69528176541E+03  0.66259284465E+03  0.13361767150E+04  0.88902820754E+03 0.  0.
         23    2    4    4    0    0  0.28197568182E+02  0.15237233702E+03 -0.20070619734E+03  0.26993034510E+03  0.92557990560E+02 0.  0.
         23    2    4    4    0    0 -0.29755058720E+03  0.54290942839E+03  0.86329904199E+03  0.10662463699E+04  0.91154188480E+02 0.  0.
          1    1    3    3  502    0  0.18100317688E+03 -0.40488188379E+03  0.11776932965E+04  0.12584327516E+04  0.00000000000E+00 0. -1.
         -2    1    3    3    0  502  0.88349842143E+02 -0.29039988162E+03  0.66489825878E+03  0.73090866760E+03  0.00000000000E+00 0.  1.
         13    1    5    5    0    0  0.35027686115E+02  0.87704415449E+01 -0.31702587906E+02  0.48051155235E+02  0.00000000000E+00 0. -1.
        -13    1    5    5    0    0 -0.68301179327E+01  0.14360189548E+03 -0.16900360943E+03  0.22187918987E+03  0.00000000000E+00 0.  1.
          2    1    6    6  503    0 -0.24682847195E+03  0.45821767041E+03  0.77650453548E+03  0.93479785069E+03  0.00000000000E+00 0. -1.
         -2    1    6    6    0  503 -0.50722115252E+02  0.84691757974E+02  0.86794506510E+02  0.13144851922E+03  0.00000000000E+00 0.  1.
<mgrwt>
<rscale>  0 0.21870350E+04</rscale>
<asrwt>0</asrwt>
<pdfrwt beam="1">  1        1 0.63102597E-01 0.21870350E+04</pdfrwt>
<pdfrwt beam="2">  1       -2 0.44851557E+00 0.21870350E+04</pdfrwt>
<totfact> 0.16463584E-01</totfact>
</mgrwt>
</event>
<event>
12    5  0.5297412E-008  0.1769993E+04  0.7818608E-02  0.8722422E-01
         -2   -1    0    0    0  501 -0.00000000000E+00  0.00000000000E+00  0.13661567611E+04  0.13661567611E+04  0.00000000000E+00 0.  1.
          1   -1    0    0  501    0  0.00000000000E+00 -0.00000000000E+00 -0.57330069954E+03  0.57330069954E+03  0.00000000000E+00 0. -1.
        -24    2    1    2    0    0  0.22646307330E+03  0.50425672143E+03 -0.91927729463E+02  0.56590211569E+03  0.78956522392E+02 0.  0.
        254    2    1    2    0    0 -0.22646307330E+03 -0.50425672143E+03  0.88478379098E+03  0.13735553449E+04  0.89344925098E+03 0.  0.
         23    2    4    4    0    0 -0.55041833422E+03 -0.27820504709E+03  0.39850822289E+03  0.74052023459E+03  0.95932388981E+02 0.  0.
         23    2    4    4    0    0  0.32395526092E+03 -0.22605167433E+03  0.48627556810E+03  0.63303511032E+03  0.90681598023E+02 0.  0.
          3    1    3    3  502    0  0.22988349477E+03  0.49081957615E+03 -0.97981076705E+02  0.55077270166E+03  0.00000000000E+00 0. -1.
         -4    1    3    3    0  502 -0.34204214679E+01  0.13437145271E+02  0.60533472418E+01  0.15129414030E+02  0.00000000000E+00 0.  1.
         13    1    5    5    0    0 -0.43758719683E+03 -0.20944649993E+03  0.26546141767E+03  0.55301008620E+03  0.00000000000E+00 0. -1.
        -13    1    5    5    0    0 -0.11283113739E+03 -0.68758547164E+02  0.13304680521E+03  0.18751014839E+03  0.00000000000E+00 0.  1.
          4    1    6    6  503    0  0.25403238733E+03 -0.13007299158E+03  0.32104180125E+03  0.42955706851E+03  0.00000000000E+00 0. -1.
         -4    1    6    6    0  503  0.69922873591E+02 -0.95978682754E+02  0.16523376684E+03  0.20347804181E+03  0.00000000000E+00 0.  1.
<mgrwt>
<rscale>  0 0.17699928E+04</rscale>
<asrwt>0</asrwt>
<pdfrwt beam="1">  1        1 0.88200108E-01 0.17699928E+04</pdfrwt>
<pdfrwt beam="2">  1       -2 0.21017796E+00 0.17699928E+04</pdfrwt>
<totfact> 0.34554742E+00</totfact>
</mgrwt>
</event>
<event>
12    5  0.5297412E-008  0.1169776E+04  0.7818608E-02  0.9139730E-01
         -2   -1    0    0    0  501 -0.00000000000E+00  0.00000000000E+00  0.33619640765E+03  0.33619640765E+03  0.00000000000E+00 0.  1.
          1   -1    0    0  501    0  0.00000000000E+00 -0.00000000000E+00 -0.10175426721E+04  0.10175426721E+04  0.00000000000E+00 0. -1.
        -24    2    1    2    0    0 -0.61678651556E+02 -0.23140119498E+03 -0.21176340578E+03  0.32954302558E+03  0.80025599569E+02 0.  0.
        254    2    1    2    0    0  0.61678651556E+02  0.23140119498E+03 -0.46958285868E+03  0.10241960542E+04  0.87813366131E+03 0.  0.
         23    2    4    4    0    0 -0.29358481663E+03 -0.10824280030E+03 -0.40486594435E+03  0.52015179555E+03  0.93450035548E+02 0.  0.
         23    2    4    4    0    0  0.35526346819E+03  0.33964399528E+03 -0.64716914332E+02  0.50404425862E+03  0.91116191168E+02 0.  0.
          1    1    3    3  502    0 -0.79806703443E+02 -0.15959935740E+03 -0.15020452170E+03  0.23324335604E+03  0.00000000000E+00 0. -1.
         -2    1    3    3    0  502  0.18128051887E+02 -0.71801837577E+02 -0.61558884074E+02  0.96299669538E+02  0.00000000000E+00 0.  1.
         13    1    5    5    0    0 -0.59503748563E+02  0.48242357025E+01 -0.38900982842E+02  0.71254865162E+02  0.00000000000E+00 0. -1.
        -13    1    5    5    0    0 -0.23408106807E+03 -0.11306703600E+03 -0.36596496151E+03  0.44889693039E+03  0.00000000000E+00 0.  1.
          3    1    6    6  503    0  0.29994897690E+01  0.10465613070E+02  0.11604345662E+02  0.15911845715E+02  0.00000000000E+00 0. -1.
         -3    1    6    6    0  503  0.35226397842E+03  0.32917838221E+03 -0.76321259995E+02  0.48813241291E+03  0.00000000000E+00 0.  1.
<mgrwt>
<rscale>  0 0.11697764E+04</rscale>
<asrwt>0</asrwt>
<pdfrwt beam="1">  1        1 0.15654503E+00 0.11697764E+04</pdfrwt>
<pdfrwt beam="2">  1       -2 0.51722525E-01 0.11697764E+04</pdfrwt>
<totfact> 0.45005324E+01</totfact>
</mgrwt>
</event>
<event>
12    5  0.5297412E-008  0.1261264E+04  0.7818608E-02  0.9060860E-01
          1   -1    0    0  501    0  0.00000000000E+00  0.00000000000E+00  0.16665363338E+04  0.16665363338E+04  0.00000000000E+00 0. -1.
         -2   -1    0    0    0  501 -0.00000000000E+00 -0.00000000000E+00 -0.23863672865E+03  0.23863672865E+03  0.00000000000E+00 0.  1.
        -24    2    1    2    0    0 -0.18032502325E+03  0.18829559146E+03  0.56538480922E+03  0.62766125842E+03  0.79538223817E+02 0.  0.
        254    2    1    2    0    0  0.18032502325E+03 -0.18829559146E+03  0.86251479592E+03  0.12775118040E+04  0.90561155717E+03 0.  0.
         23    2    4    4    0    0  0.50173049656E+03  0.10233900079E+02  0.67162625297E+03  0.84332466140E+03  0.90974924893E+02 0.  0.
         23    2    4    4    0    0 -0.32140547331E+03 -0.19852949154E+03  0.19088854295E+03  0.43418714263E+03  0.96770872191E+02 0.  0.
          3    1    3    3  502    0 -0.13053905632E+03  0.17115568285E+03  0.49485879038E+03  0.53964797361E+03  0.00000000000E+00 0. -1.
         -4    1    3    3    0  502 -0.49785966931E+02  0.17139908608E+02  0.70526018835E+02  0.88013284810E+02  0.00000000000E+00 0.  1.
         13    1    5    5    0    0  0.60177321302E+02 -0.27865309664E+02  0.10054413434E+03  0.12044462807E+03  0.00000000000E+00 0. -1.
        -13    1    5    5    0    0  0.44155317526E+03  0.38099209743E+02  0.57108211863E+03  0.72288003333E+03  0.00000000000E+00 0.  1.
          1    1    6    6  503    0 -0.90738899548E+02 -0.93120444288E+01  0.53266782384E+02  0.10562959892E+03  0.00000000000E+00 0. -1.
         -1    1    6    6    0  503 -0.23066657377E+03 -0.18921744711E+03  0.13762176057E+03  0.32855754371E+03  0.00000000000E+00 0.  1.
<mgrwt>
<rscale>  0 0.12612641E+04</rscale>
<asrwt>0</asrwt>
<pdfrwt beam="1">  1        1 0.25639020E+00 0.12612641E+04</pdfrwt>
<pdfrwt beam="2">  1       -2 0.36713344E-01 0.12612641E+04</pdfrwt>
<totfact> 0.30363959E+01</totfact>
</mgrwt>
</event>
<event>
12    5  0.5297412E-008  0.1656316E+04  0.7818608E-02  0.8786679E-01
         -2   -1    0    0    0  501 -0.00000000000E+00  0.00000000000E+00  0.74710251718E+03  0.74710251718E+03  0.00000000000E+00 0.  1.
          1   -1    0    0  501    0  0.00000000000E+00 -0.00000000000E+00 -0.91800774442E+03  0.91800774442E+03  0.00000000000E+00 0. -1.
        -24    2    1    2    0    0 -0.10090216543E+03  0.13308102388E+03  0.48643792281E+03  0.52044139825E+03  0.79659213863E+02 0.  0.
        254    2    1    2    0    0  0.10090216543E+03 -0.13308102388E+03 -0.65734315005E+03  0.11446688634E+04  0.92210356463E+03 0.  0.
         23    2    4    4    0    0  0.15427218528E+03  0.36421405375E+03 -0.16882978004E+03  0.43962033410E+03  0.91163366697E+02 0.  0.
         23    2    4    4    0    0 -0.53370019851E+02 -0.49729507763E+03 -0.48851337001E+03  0.70504852925E+03  0.91089860400E+02 0.  0.
          1    1    3    3  502    0  0.43786317901E+01  0.49961750635E+02  0.15402375189E+03  0.16198353339E+03  0.00000000000E+00 0. -1.
         -2    1    3    3    0  502 -0.10528079722E+03  0.83119273243E+02  0.33241417092E+03  0.35845786485E+03  0.00000000000E+00 0.  1.
         13    1    5    5    0    0  0.10044021984E+02  0.16761358208E+02  0.11244738226E+02  0.22544836313E+02  0.00000000000E+00 0.  1.
        -13    1    5    5    0    0  0.14422816330E+03  0.34745269554E+03 -0.18007451827E+03  0.41707549779E+03  0.00000000000E+00 0. -1.
          4    1    6    6  503    0 -0.65076845592E+02 -0.23470124979E+03 -0.26597864798E+03  0.36064430353E+03  0.00000000000E+00 0.  1.
         -4    1    6    6    0  503  0.11706825741E+02 -0.26259382784E+03 -0.22253472203E+03  0.34440422572E+03  0.00000000000E+00 0. -1.
<mgrwt>
<rscale>  0 0.16563163E+04</rscale>
<asrwt>0</asrwt>
<pdfrwt beam="1">  1        1 0.14123196E+00 0.16563163E+04</pdfrwt>
<pdfrwt beam="2">  1       -2 0.11493885E+00 0.16563163E+04</pdfrwt>
<totfact> 0.86924922E+00</totfact>
</mgrwt>
</event>
<event>
12    5  0.5297412E-008  0.2721809E+04  0.7818608E-02  0.8327963E-01
          1   -1    0    0  501    0  0.00000000000E+00  0.00000000000E+00  0.10018346148E+04  0.10018346148E+04  0.00000000000E+00 0. -1.
         -2   -1    0    0    0  501 -0.00000000000E+00 -0.00000000000E+00 -0.18486695269E+04  0.18486695269E+04  0.00000000000E+00 0.  1.
        -24    2    1    2    0    0 -0.91656700058E+03 -0.76627272546E+03 -0.58754587320E+03  0.13339361204E+04  0.83105137463E+02 0.  0.
        254    2    1    2    0    0  0.91656700058E+03  0.76627272546E+03 -0.25928903889E+03  0.15165680212E+04  0.89748470795E+03 0.  0.
         23    2    4    4    0    0  0.44464217908E+03  0.82570599887E+03 -0.38290651254E+03  0.10170345406E+04  0.90800855833E+02 0.  0.
         23    2    4    4    0    0  0.47192482151E+03 -0.59433273414E+02  0.12361747365E+03  0.49953348064E+03  0.89482218070E+02 0.  0.
          1    1    3    3  502    0 -0.53314657180E+02 -0.66474944647E+02 -0.56951097185E+02  0.10249291881E+03  0.00000000000E+00 0. -1.
         -2    1    3    3    0  502 -0.86325234340E+03 -0.69979778081E+03 -0.53059477601E+03  0.12314432016E+04  0.00000000000E+00 0.  1.
         13    1    5    5    0    0 -0.58352049392E+00 -0.14336398399E+01 -0.37303921749E+01  0.40387677745E+01  0.00000000000E+00 0. -1.
        -13    1    5    5    0    0  0.44522569957E+03  0.82713963871E+03 -0.37917612037E+03  0.10129957728E+04  0.00000000000E+00 0.  1.
          1    1    6    6  503    0  0.21388646590E+03 -0.45304930620E+02  0.14799246847E+02  0.21913232245E+03  0.00000000000E+00 0. -1.
         -1    1    6    6    0  503  0.25803835560E+03 -0.14128342793E+02  0.10881822680E+03  0.28040115819E+03  0.00000000000E+00 0.  1.
<mgrwt>
<rscale>  0 0.27218090E+04</rscale>
<asrwt>0</asrwt>
<pdfrwt beam="1">  1        1 0.15412840E+00 0.27218090E+04</pdfrwt>
<pdfrwt beam="2">  1       -2 0.28441069E+00 0.27218090E+04</pdfrwt>
<totfact> 0.45640435E-01</totfact>
</mgrwt>
</event>
<event>
12    5  0.5297412E-008  0.1506585E+04  0.7818608E-02  0.8880086E-01
          1   -1    0    0  501    0  0.00000000000E+00  0.00000000000E+00  0.19625198458E+04  0.19625198458E+04  0.00000000000E+00 0. -1.
         -2   -1    0    0    0  501 -0.00000000000E+00 -0.00000000000E+00 -0.28914331965E+03  0.28914331965E+03  0.00000000000E+00 0.  1.
        -24    2    1    2    0    0  0.43007346048E+03  0.15576481189E+03  0.30755853841E+03  0.55681534233E+03  0.78900018192E+02 0.  0.
        254    2    1    2    0    0 -0.43007346048E+03 -0.15576481189E+03  0.13658179878E+04  0.16948478232E+04  0.89321022717E+03 0.  0.
         23    2    4    4    0    0 -0.48904337800E+03 -0.46126901356E+03  0.87824500028E+03  0.11097747896E+04  0.91396250823E+02 0.  0.
         23    2    4    4    0    0  0.58969917522E+02  0.30550420167E+03  0.48757298750E+03  0.58507303357E+03  0.88163303361E+02 0.  0.
          1    1    3    3  502    0  0.17476384975E+03  0.10116390950E+03  0.15367572148E+03  0.25375729967E+03  0.00000000000E+00 0. -1.
         -2    1    3    3    0  502  0.25530961073E+03  0.54600902394E+02  0.15388281694E+03  0.30305804266E+03  0.00000000000E+00 0.  1.
         13    1    5    5    0    0 -0.45864144818E+03 -0.43840260455E+03  0.78687686539E+03  0.10108036520E+04  0.00000000000E+00 0.  1.
        -13    1    5    5    0    0 -0.30401929818E+02 -0.22866409010E+02  0.91368134895E+02  0.98971137570E+02  0.00000000000E+00 0. -1.
          3    1    6    6  503    0 -0.69848355566E+01  0.14400594148E+02  0.35138975074E+01  0.16386351493E+02  0.00000000000E+00 0. -1.
         -3    1    6    6    0  503  0.65954753079E+02  0.29110360752E+03  0.48405909000E+03  0.56868668208E+03  0.00000000000E+00 0.  1.
<mgrwt>
<rscale>  0 0.15065849E+04</rscale>
<asrwt>0</asrwt>
<pdfrwt beam="1">  1        1 0.30192612E+00 0.15065849E+04</pdfrwt>
<pdfrwt beam="2">  1       -2 0.44483589E-01 0.15065849E+04</pdfrwt>
<totfact> 0.12859940E+01</totfact>
</mgrwt>
</event>
<event>
12    5  0.5297412E-008  0.1594473E+04  0.7818608E-02  0.8823950E-01
          1   -1    0    0  501    0  0.00000000000E+00  0.00000000000E+00  0.47888615430E+03  0.47888615430E+03  0.00000000000E+00 0. -1.
         -2   -1    0    0    0  501 -0.00000000000E+00 -0.00000000000E+00 -0.13272180369E+04  0.13272180369E+04  0.00000000000E+00 0.  1.
        -24    2    1    2    0    0 -0.53711289643E+02  0.52978272909E+03 -0.36430213059E+03  0.65294597585E+03  0.10033823974E+03 0.  0.
        254    2    1    2    0    0  0.53711289643E+02 -0.52978272909E+03 -0.48402975197E+03  0.11531582153E+04  0.90107404028E+03 0.  0.
         23    2    4    4    0    0 -0.31563550484E+03  0.11734953582E+02 -0.34552873756E+03  0.47670681753E+03  0.89976665559E+02 0.  0.
         23    2    4    4    0    0  0.36934679448E+03 -0.54151768267E+03 -0.13850101440E+03  0.67645139778E+03  0.93517417220E+02 0.  0.
          1    1    3    3  502    0 -0.55883258554E+02  0.14895380109E+03 -0.82677924937E+02  0.17929253391E+03  0.00000000000E+00 0. -1.
         -2    1    3    3    0  502  0.21719689111E+01  0.38082892800E+03 -0.28162420565E+03  0.47365344194E+03  0.00000000000E+00 0.  1.
         13    1    5    5    0    0 -0.13721125172E+03  0.25479891208E+02 -0.94975706457E+02  0.16880917413E+03  0.00000000000E+00 0.  1.
        -13    1    5    5    0    0 -0.17842425312E+03 -0.13744937626E+02 -0.25055303111E+03  0.30789764339E+03  0.00000000000E+00 0. -1.
          3    1    6    6  503    0  0.25314889924E+03 -0.43137218901E+03 -0.83048373261E+02  0.50701416444E+03  0.00000000000E+00 0. -1.
         -3    1    6    6    0  503  0.11619789524E+03 -0.11014549366E+03 -0.55452641143E+02  0.16943723334E+03  0.00000000000E+00 0.  1.
<mgrwt>
<rscale>  0 0.15944734E+04</rscale>
<asrwt>0</asrwt>
<pdfrwt beam="1">  1        1 0.73674794E-01 0.15944734E+04</pdfrwt>
<pdfrwt beam="2">  1       -2 0.20418739E+00 0.15944734E+04</pdfrwt>
<totfact> 0.49271054E+00</totfact>
</mgrwt>
</event>
<event>
12    5  0.5297412E-008  0.2518286E+04  0.7818608E-02  0.8396500E-01
          1   -1    0    0  501    0  0.00000000000E+00  0.00000000000E+00  0.10483050959E+04  0.10483050959E+04  0.00000000000E+00 0. -1.
         -2   -1    0    0    0  501 -0.00000000000E+00 -0.00000000000E+00 -0.15123857067E+04  0.15123857067E+04  0.00000000000E+00 0.  1.
        -24    2    1    2    0    0  0.51811666321E+03  0.96605222242E+03 -0.16238081506E+03  0.11111027735E+04  0.80498888926E+02 0.  0.
        254    2    1    2    0    0 -0.51811666321E+03 -0.96605222242E+03 -0.30169979576E+03  0.14495880291E+04  0.89921127343E+03 0.  0.
         23    2    4    4    0    0  0.10905015330E+03 -0.32641673727E+03 -0.40927086978E+03  0.54278610220E+03  0.93135844778E+02 0.  0.
         23    2    4    4    0    0 -0.62716681651E+03 -0.63963548515E+03  0.10757107402E+03  0.90680192692E+03  0.90809851364E+02 0.  0.
          1    1    3    3  502    0  0.50111508529E+03  0.95194060340E+03 -0.15125082554E+03  0.10863627632E+04  0.00000000000E+00 0. -1.
         -2    1    3    3    0  502  0.17001577921E+02  0.14111619018E+02 -0.11129989518E+02  0.24740010302E+02  0.00000000000E+00 0.  1.
         13    1    5    5    0    0 -0.33582763222E+00 -0.13757508819E+03 -0.17522877227E+03  0.22278271993E+03  0.00000000000E+00 0.  1.
        -13    1    5    5    0    0  0.10938598093E+03 -0.18884164908E+03 -0.23404209752E+03  0.32000338227E+03  0.00000000000E+00 0. -1.
          2    1    6    6  503    0 -0.18732056002E+03 -0.14319076390E+03  0.64293653513E+01  0.23586844599E+03  0.00000000000E+00 0. -1.
         -2    1    6    6    0  503 -0.43984625648E+03 -0.49644472125E+03  0.10114170867E+03  0.67093348093E+03  0.00000000000E+00 0.  1.
<mgrwt>
<rscale>  0 0.25182864E+04</rscale>
<asrwt>0</asrwt>
<pdfrwt beam="1">  1        1 0.16127771E+00 0.25182864E+04</pdfrwt>
<pdfrwt beam="2">  1       -2 0.23267472E+00 0.25182864E+04</pdfrwt>
<totfact> 0.88841197E-01</totfact>
</mgrwt>
</event>
<event>
12    5  0.5297412E-008  0.2634098E+04  0.7818608E-02  0.8356710E-01
          1   -1    0    0  501    0  0.00000000000E+00  0.00000000000E+00  0.27855790246E+04  0.27855790246E+04  0.00000000000E+00 0. -1.
         -2   -1    0    0    0  501 -0.00000000000E+00 -0.00000000000E+00 -0.62271363966E+03  0.62271363966E+03  0.00000000000E+00 0.  1.
        -24    2    1    2    0    0 -0.79143772101E+03 -0.33477568657E+03 -0.55368445430E+02  0.86477960580E+03  0.79559256613E+02 0.  0.
        254    2    1    2    0    0  0.79143772101E+03  0.33477568657E+03  0.22182338303E+04  0.25435130584E+04  0.90024936863E+03 0.  0.
         23    2    4    4    0    0  0.86576081742E+02 -0.27498771532E+03  0.61288073822E+03  0.68501046452E+03  0.10248353869E+03 0.  0.
         23    2    4    4    0    0  0.70486163927E+03  0.60976340190E+03  0.16053530921E+04  0.18585025939E+04  0.90730393848E+02 0.  0.
          3    1    3    3  502    0 -0.14159511447E+03 -0.91927533212E+02 -0.21930943523E+02  0.17023752256E+03  0.00000000000E+00 0. -1.
         -4    1    3    3    0  502 -0.64984260653E+03 -0.24284815336E+03 -0.33437501907E+02  0.69454208324E+03  0.00000000000E+00 0.  1.
         13    1    5    5    0    0  0.66819274489E+02 -0.25600177697E+03  0.59780246848E+03  0.65373505075E+03  0.00000000000E+00 0. -1.
        -13    1    5    5    0    0  0.19756807252E+02 -0.18985938351E+02  0.15078269745E+02  0.31275413768E+02  0.00000000000E+00 0.  1.
          3    1    6    6  503    0  0.66119210244E+03  0.54748621698E+03  0.15045781837E+04  0.17322446897E+04  0.00000000000E+00 0. -1.
         -3    1    6    6    0  503  0.43669536829E+02  0.62277184919E+02  0.10077490840E+03  0.12625790420E+03  0.00000000000E+00 0.  1.
<mgrwt>
<rscale>  0 0.26340980E+04</rscale>
<asrwt>0</asrwt>
<pdfrwt beam="1">  1        1 0.42855061E+00 0.26340980E+04</pdfrwt>
<pdfrwt beam="2">  1       -2 0.95802100E-01 0.26340980E+04</pdfrwt>
<totfact> 0.60205143E-01</totfact>
</mgrwt>
</event>
<event>
12    5  0.5297412E-008  0.1679609E+04  0.7818608E-02  0.8773080E-01
         -2   -1    0    0    0  501 -0.00000000000E+00  0.00000000000E+00  0.39301090501E+03  0.39301090501E+03  0.00000000000E+00 0.  1.
          1   -1    0    0  501    0  0.00000000000E+00 -0.00000000000E+00 -0.17945354250E+04  0.17945354250E+04  0.00000000000E+00 0. -1.
        -24    2    1    2    0    0  0.17877744674E+02 -0.19924200072E+03  0.23121198177E+03  0.31674018666E+03  0.82754919621E+02 0.  0.
        254    2    1    2    0    0 -0.17877744674E+02  0.19924200072E+03 -0.16327365017E+04  0.18708061433E+04  0.89110614025E+03 0.  0.
         23    2    4    4    0    0  0.18157886244E+03  0.38552816528E+03 -0.14855993736E+04  0.15479800361E+04  0.87371871458E+02 0.  0.
         23    2    4    4    0    0 -0.19945660711E+03 -0.18628616456E+03 -0.14713712815E+03  0.32282610720E+03  0.89899320273E+02 0.  0.
          3    1    3    3  502    0 -0.18346142050E+02 -0.26694946647E+02  0.10075483369E+02  0.33922212041E+02  0.00000000000E+00 0. -1.
         -4    1    3    3    0  502  0.36223886725E+02 -0.17254705408E+03  0.22113649840E+03  0.28281797462E+03  0.00000000000E+00 0.  1.
         13    1    5    5    0    0  0.99993023723E+02  0.20202313040E+03 -0.62952129181E+03  0.66866210215E+03  0.00000000000E+00 0. -1.
        -13    1    5    5    0    0  0.81585838715E+02  0.18350503488E+03 -0.85607808178E+03  0.87931793398E+03  0.00000000000E+00 0.  1.
          3    1    6    6  503    0 -0.33608329340E+02  0.27725360719E+01 -0.54290829100E+01  0.34156722596E+02  0.00000000000E+00 0. -1.
         -3    1    6    6    0  503 -0.16584827777E+03 -0.18905870063E+03 -0.14170804524E+03  0.28866938461E+03  0.00000000000E+00 0.  1.
<mgrwt>
<rscale>  0 0.16796095E+04</rscale>
<asrwt>0</asrwt>
<pdfrwt beam="1">  1        1 0.27608237E+00 0.16796095E+04</pdfrwt>
<pdfrwt beam="2">  1       -2 0.60463217E-01 0.16796095E+04</pdfrwt>
<totfact> 0.87617539E+00</totfact>
</mgrwt>
</event>
<event>
12    5  0.5297412E-008  0.1008864E+04  0.7818608E-02  0.9298876E-01
          1   -1    0    0  501    0  0.00000000000E+00  0.00000000000E+00  0.22992118614E+04  0.22992118614E+04  0.00000000000E+00 0. -1.
         -2   -1    0    0    0  501 -0.00000000000E+00 -0.00000000000E+00 -0.11066899852E+03  0.11066899852E+03  0.00000000000E+00 0.  1.
        -24    2    1    2    0    0 -0.42609933511E+00  0.56823353325E+02  0.16452078128E+03  0.19427666897E+03  0.86297517852E+02 0.  0.
        254    2    1    2    0    0  0.42609933511E+00 -0.56823353325E+02  0.20240220816E+04  0.22156041909E+04  0.89944842493E+03 0.  0.
         23    2    4    4    0    0  0.37070837916E+03  0.18096599830E+03  0.71246201998E+03  0.82847830690E+03  0.92740391215E+02 0.  0.
         23    2    4    4    0    0 -0.37028227983E+03 -0.23778935163E+03  0.13115600616E+04  0.13871258840E+04  0.10136903116E+03 0.  0.
          3    1    3    3  502    0  0.13813172056E+02  0.54362458443E+02  0.16985245747E+03  0.17887408398E+03  0.00000000000E+00 0. -1.
         -4    1    3    3    0  502 -0.14239271391E+02  0.24608948820E+01 -0.53316761878E+01  0.15402584989E+02  0.00000000000E+00 0.  1.
         13    1    5    5    0    0  0.32218646031E+03  0.12233975550E+03  0.54963043569E+03  0.64874089344E+03  0.00000000000E+00 0. -1.
        -13    1    5    5    0    0  0.48521918850E+02  0.58626242804E+02  0.16283158429E+03  0.17973741346E+03  0.00000000000E+00 0.  1.
          4    1    6    6  503    0 -0.10067811807E+03 -0.17534770308E+02  0.34295607812E+03  0.35785810477E+03  0.00000000000E+00 0. -1.
         -4    1    6    6    0  503 -0.26960416175E+03 -0.22025458132E+03  0.96860398348E+03  0.10292677793E+04  0.00000000000E+00 0.  1.
<mgrwt>
<rscale>  0 0.10088637E+04</rscale>
<asrwt>0</asrwt>
<pdfrwt beam="1">  1        1 0.35372487E+00 0.10088637E+04</pdfrwt>
<pdfrwt beam="2">  1       -2 0.17026001E-01 0.10088637E+04</pdfrwt>
<totfact> 0.46778280E+01</totfact>
</mgrwt>
</event>
<event>
12    5  0.5297412E-008  0.3531306E+04  0.7818608E-02  0.8106411E-01
         -2   -1    0    0    0  501 -0.00000000000E+00  0.00000000000E+00  0.23480151504E+04  0.23480151504E+04  0.00000000000E+00 0.  1.
          1   -1    0    0  501    0  0.00000000000E+00 -0.00000000000E+00 -0.13277303556E+04  0.13277303556E+04  0.00000000000E+00 0. -1.
        -24    2    1    2    0    0  0.72677055132E+03  0.14613156476E+04  0.37631820757E+03  0.16768269161E+04  0.80586953414E+02 0.  0.
        254    2    1    2    0    0 -0.72677055132E+03 -0.14613156476E+04  0.64396658718E+03  0.19989185899E+04  0.95778061552E+03 0.  0.
         23    2    4    4    0    0 -0.12603246599E+03 -0.11638137007E+04  0.20364229617E+03  0.11914200110E+04  0.87549673289E+02 0.  0.
         23    2    4    4    0    0 -0.60073808534E+03 -0.29750194683E+03  0.44032429101E+03  0.80749857890E+03  0.93673999178E+02 0.  0.
          3    1    3    3  502    0  0.96954428892E+02  0.19563139152E+03  0.22490166019E+02  0.21949398670E+03  0.00000000000E+00 0. -1.
         -4    1    3    3    0  502  0.62981612243E+03  0.12656842560E+04  0.35382804155E+03  0.14573329294E+04  0.00000000000E+00 0.  1.
         13    1    5    5    0    0 -0.65195871777E+02 -0.30111016333E+03  0.74707423509E+02  0.31701582182E+03  0.00000000000E+00 0. -1.
        -13    1    5    5    0    0 -0.60836594211E+02 -0.86270353739E+03  0.12893487266E+03  0.87440418916E+03  0.00000000000E+00 0.  1.
          3    1    6    6  503    0 -0.23086197018E+03 -0.11171838201E+03  0.22371548178E+03  0.34033345845E+03  0.00000000000E+00 0. -1.
         -3    1    6    6    0  503 -0.36987611516E+03 -0.18578356482E+03  0.21660880923E+03  0.46716512044E+03  0.00000000000E+00 0.  1.
<mgrwt>
<rscale>  0 0.35313063E+04</rscale>
<asrwt>0</asrwt>
<pdfrwt beam="1">  1        1 0.20426621E+00 0.35313063E+04</pdfrwt>
<pdfrwt beam="2">  1       -2 0.36123310E+00 0.35313063E+04</pdfrwt>
<totfact> 0.81504356E-02</totfact>
</mgrwt>
</event>
<event>
12    5  0.5297412E-008  0.1432498E+04  0.7818608E-02  0.8930625E-01
         -2   -1    0    0    0  501 -0.00000000000E+00  0.00000000000E+00  0.17142015441E+03  0.17142015441E+03  0.00000000000E+00 0.  1.
          1   -1    0    0  501    0  0.00000000000E+00 -0.00000000000E+00 -0.29927205663E+04  0.29927205663E+04  0.00000000000E+00 0. -1.
        -24    2    1    2    0    0  0.20698204909E+03 -0.56211906136E+02 -0.43150235585E+02  0.23386150101E+03  0.82631179278E+02 0.  0.
        254    2    1    2    0    0 -0.20698204909E+03  0.56211906136E+02 -0.27781501763E+04  0.29302792197E+04  0.90687185215E+03 0.  0.
         23    2    4    4    0    0 -0.39717950905E+03 -0.29634722459E+03 -0.18044209823E+04  0.18734242211E+04  0.90609000632E+02 0.  0.
         23    2    4    4    0    0  0.19019745996E+03  0.35255913073E+03 -0.97372919403E+03  0.10568549986E+04  0.91219133479E+02 0.  0.
          1    1    3    3  502    0  0.12020575365E+03 -0.70737464856E+02 -0.99746462038E+01  0.13983098982E+03  0.00000000000E+00 0. -1.
         -2    1    3    3    0  502  0.86776295435E+02  0.14525558719E+02 -0.33175589382E+02  0.94030511199E+02  0.00000000000E+00 0.  1.
         13    1    5    5    0    0 -0.68525245201E+02 -0.95657231469E+02 -0.47463305045E+03  0.48900158255E+03  0.00000000000E+00 0.  1.
        -13    1    5    5    0    0 -0.32865426385E+03 -0.20068999312E+03 -0.13297879318E+04  0.13844226385E+04  0.00000000000E+00 0. -1.
          1    1    6    6  503    0  0.11884565936E+03  0.22505052450E+03 -0.72513079260E+03  0.76849638627E+03  0.00000000000E+00 0. -1.
         -1    1    6    6    0  503  0.71351800604E+02  0.12750860622E+03 -0.24859840143E+03  0.28835861233E+03  0.00000000000E+00 0.  1.
<mgrwt>
<rscale>  0 0.14324980E+04</rscale>
<asrwt>0</asrwt>
<pdfrwt beam="1">  1        1 0.46041853E+00 0.14324980E+04</pdfrwt>
<pdfrwt beam="2">  1       -2 0.26372333E-01 0.14324980E+04</pdfrwt>
<totfact> 0.67745574E+00</totfact>
</mgrwt>
</event>
<event>
12    5  0.5297412E-008  0.2782013E+04  0.7818608E-02  0.8308874E-01
         -2   -1    0    0    0  501 -0.00000000000E+00  0.00000000000E+00  0.69153497660E+03  0.69153497660E+03  0.00000000000E+00 0.  1.
          1   -1    0    0  501    0  0.00000000000E+00 -0.00000000000E+00 -0.27979772972E+04  0.27979772972E+04  0.00000000000E+00 0. -1.
        -24    2    1    2    0    0 -0.37265009592E+03  0.67860483491E+02 -0.24448809264E+04  0.24753022569E+04  0.78774230895E+02 0.  0.
        254    2    1    2    0    0  0.37265009592E+03 -0.67860483491E+02  0.33843860585E+03  0.10142100169E+04  0.87784288409E+03 0.  0.
         23    2    4    4    0    0  0.41074653249E+03  0.32387628182E+03  0.29719373900E+03  0.60803822609E+03  0.88191870417E+02 0.  0.
         23    2    4    4    0    0 -0.38096436577E+02 -0.39173676532E+03  0.41244866851E+02  0.40617179076E+03  0.91462302552E+02 0.  0.
          1    1    3    3  502    0 -0.36606125347E+03  0.78477471126E+02 -0.23688253583E+04  0.23982270812E+04  0.00000000000E+00 0. -1.
         -2    1    3    3    0  502 -0.65888424511E+01 -0.10616987635E+02 -0.76055568071E+02  0.77075175679E+02  0.00000000000E+00 0.  1.
         13    1    5    5    0    0  0.17758608361E+03  0.11763681724E+03  0.75995078702E+02  0.22616474051E+03  0.00000000000E+00 0. -1.
        -13    1    5    5    0    0  0.23316044888E+03  0.20623946459E+03  0.22119866030E+03  0.38187348558E+03  0.00000000000E+00 0.  1.
          2    1    6    6  503    0 -0.19936269387E+02 -0.12845503913E+02 -0.43608163200E+01  0.24113865863E+02  0.00000000000E+00 0. -1.
         -2    1    6    6    0  503 -0.18160167190E+02 -0.37889126140E+03  0.45605683171E+02  0.38205792490E+03  0.00000000000E+00 0.  1.
<mgrwt>
<rscale>  0 0.27820131E+04</rscale>
<asrwt>0</asrwt>
<pdfrwt beam="1">  1        1 0.43045806E+00 0.27820131E+04</pdfrwt>
<pdfrwt beam="2">  1       -2 0.10638999E+00 0.27820131E+04</pdfrwt>
<totfact> 0.45400391E-01</totfact>
</mgrwt>
</event>
<event>
12    5  0.5297412E-008  0.1285539E+04  0.7818608E-02  0.9041112E-01
         -2   -1    0    0    0  501 -0.00000000000E+00  0.00000000000E+00  0.47509385216E+03  0.47509385216E+03  0.00000000000E+00 0.  1.
          1   -1    0    0  501    0  0.00000000000E+00 -0.00000000000E+00 -0.86962332637E+03  0.86962332637E+03  0.00000000000E+00 0. -1.
        -24    2    1    2    0    0  0.43421291617E+02  0.88805929418E+01 -0.43225416642E+03  0.44166906011E+03  0.79143039973E+02 0.  0.
        254    2    1    2    0    0 -0.43421291617E+02 -0.88805929418E+01  0.37724692198E+02  0.90304811842E+03  0.90117061553E+03 0.  0.
         23    2    4    4    0    0 -0.30504679380E+03  0.32482594538E+03 -0.56734120865E+02  0.45863539179E+03  0.92532269653E+02 0.  0.
         23    2    4    4    0    0  0.26162550219E+03 -0.33370653832E+03  0.94458813063E+02  0.44441272663E+03  0.93660275018E+02 0.  0.
          3    1    3    3  502    0  0.16133587628E+01  0.34112677292E+02 -0.96123251734E+02  0.10200959368E+03  0.00000000000E+00 0. -1.
         -4    1    3    3    0  502  0.41807932854E+02 -0.25232084351E+02 -0.33613091468E+03  0.33965946643E+03  0.00000000000E+00 0.  1.
         13    1    5    5    0    0  0.51375597266E+01  0.14147937364E+02  0.36443088712E+01  0.15486756883E+02  0.00000000000E+00 0. -1.
        -13    1    5    5    0    0 -0.31018435353E+03  0.31067800801E+03 -0.60378429736E+02  0.44314863490E+03  0.00000000000E+00 0.  1.
          4    1    6    6  503    0  0.53464257985E+02 -0.26236933012E+02  0.32898097274E+02  0.68037403978E+02  0.00000000000E+00 0. -1.
         -4    1    6    6    0  503  0.20816124420E+03 -0.30746960531E+03  0.61560715789E+02  0.37637532266E+03  0.00000000000E+00 0.  1.
<mgrwt>
<rscale>  0 0.12855391E+04</rscale>
<asrwt>0</asrwt>
<pdfrwt beam="1">  1        1 0.13378820E+00 0.12855391E+04</pdfrwt>
<pdfrwt beam="2">  1       -2 0.73091362E-01 0.12855391E+04</pdfrwt>
<totfact> 0.28101421E+01</totfact>
</mgrwt>
</event>
<event>
12    5  0.5297412E-008  0.1971459E+04  0.7818608E-02  0.8620082E-01
          1   -1    0    0  501    0  0.00000000000E+00  0.00000000000E+00  0.17760413082E+04  0.17760413082E+04  0.00000000000E+00 0. -1.
         -2   -1    0    0    0  501 -0.00000000000E+00 -0.00000000000E+00 -0.54709436912E+03  0.54709436912E+03  0.00000000000E+00 0.  1.
        -24    2    1    2    0    0  0.22812102783E+03 -0.68411301934E+03  0.82442870270E+03  0.10980865125E+04  0.77855484578E+02 0.  0.
        254    2    1    2    0    0 -0.22812102783E+03  0.68411301934E+03  0.40451823640E+03  0.12250491649E+04  0.90391405907E+03 0.  0.
         23    2    4    4    0    0  0.12933169365E+03 -0.10527123907E+03 -0.10224492080E+03  0.21674155728E+03  0.93349654875E+02 0.  0.
         23    2    4    4    0    0 -0.35745272147E+03  0.78938425841E+03  0.50676315720E+03  0.10083076076E+04  0.94738474295E+02 0.  0.
          1    1    3    3  502    0  0.21451343636E+03 -0.57299946110E+03  0.66966563396E+03  0.90708128528E+03  0.00000000000E+00 0. -1.
         -2    1    3    3    0  502  0.13607591470E+02 -0.11111355825E+03  0.15476306874E+03  0.19100522720E+03  0.00000000000E+00 0.  1.
         13    1    5    5    0    0  0.90799152060E+02 -0.26445616965E+02 -0.85348134126E+02  0.12738979814E+03  0.00000000000E+00 0.  1.
        -13    1    5    5    0    0  0.38532541587E+02 -0.78825622102E+02 -0.16896786673E+02  0.89351759137E+02  0.00000000000E+00 0. -1.
          2    1    6    6  503    0 -0.64562267134E+01  0.70220526132E+02  0.28663147472E+02  0.76119519025E+02  0.00000000000E+00 0. -1.
         -2    1    6    6    0  503 -0.35099649476E+03  0.71916373228E+03  0.47810000972E+03  0.93218808856E+03  0.00000000000E+00 0.  1.
<mgrwt>
<rscale>  0 0.19714585E+04</rscale>
<asrwt>0</asrwt>
<pdfrwt beam="1">  1        1 0.27323712E+00 0.19714585E+04</pdfrwt>
<pdfrwt beam="2">  1       -2 0.84168365E-01 0.19714585E+04</pdfrwt>
<totfact> 0.42553172E+00</totfact>
</mgrwt>
</event>
<event>
12    5  0.5297412E-008  0.1841042E+04  0.7818608E-02  0.8684773E-01
         -2   -1    0    0    0  501 -0.00000000000E+00  0.00000000000E+00  0.31767699256E+03  0.31767699256E+03  0.00000000000E+00 0.  1.
          1   -1    0    0  501    0  0.00000000000E+00 -0.00000000000E+00 -0.26673599308E+04  0.26673599308E+04  0.00000000000E+00 0. -1.
        -24    2    1    2    0    0  0.45591641047E+03 -0.16686194119E+03 -0.17273184949E+04  0.17960009237E+04  0.79293470401E+02 0.  0.
        254    2    1    2    0    0 -0.45591641047E+03  0.16686194119E+03 -0.62236444335E+03  0.11890359996E+04  0.88925048628E+03 0.  0.
         23    2    4    4    0    0  0.25468159315E+03  0.92653597519E+02 -0.11433389994E+03  0.30765307260E+03  0.90170778974E+02 0.  0.
         23    2    4    4    0    0 -0.71059800362E+03  0.74208343670E+02 -0.50803054341E+03  0.88138292704E+03  0.91018844337E+02 0.  0.
          3    1    3    3  502    0  0.43230962277E+03 -0.17502872450E+03 -0.16564823013E+04  0.17208893860E+04  0.00000000000E+00 0. -1.
         -4    1    3    3    0  502  0.23606787695E+02  0.81667833098E+01 -0.70836193521E+02  0.75111537645E+02  0.00000000000E+00 0.  1.
         13    1    5    5    0    0  0.20865163156E+03  0.68605004781E+02 -0.50517996430E+02  0.22537572628E+03  0.00000000000E+00 0. -1.
        -13    1    5    5    0    0  0.46029961597E+02  0.24048592738E+02 -0.63815903506E+02  0.82277346320E+02  0.00000000000E+00 0.  1.
          2    1    6    6  503    0 -0.67484709447E+03  0.50605613437E+02 -0.46845558474E+03  0.82306145815E+03  0.00000000000E+00 0. -1.
         -2    1    6    6    0  503 -0.35750909152E+02  0.23602730233E+02 -0.39574958667E+02  0.58321468887E+02  0.00000000000E+00 0.  1.
<mgrwt>
<rscale>  0 0.18410420E+04</rscale>
<asrwt>0</asrwt>
<pdfrwt beam="1">  1        1 0.41036308E+00 0.18410420E+04</pdfrwt>
<pdfrwt beam="2">  1       -2 0.48873382E-01 0.18410420E+04</pdfrwt>
<totfact> 0.33929650E+00</totfact>
</mgrwt>
</event>
<event>
12    5  0.5297412E-008  0.1827838E+04  0.7818608E-02  0.8691634E-01
         -2   -1    0    0    0  501 -0.00000000000E+00  0.00000000000E+00  0.14269238830E+04  0.14269238830E+04  0.00000000000E+00 0.  1.
          1   -1    0    0  501    0  0.00000000000E+00 -0.00000000000E+00 -0.58534857059E+03  0.58534857059E+03  0.00000000000E+00 0. -1.
        -24    2    1    2    0    0  0.31573488109E+03 -0.34637830153E+03  0.85677339256E+03  0.97986212569E+03  0.80016849855E+02 0.  0.
        254    2    1    2    0    0 -0.31573488109E+03  0.34637830153E+03 -0.15198080135E+02  0.10324103279E+04  0.91976826463E+03 0.  0.
         23    2    4    4    0    0  0.16218622197E+03  0.37876017876E+03  0.23665815714E+03  0.48384127475E+03  0.91277884531E+02 0.  0.
         23    2    4    4    0    0 -0.47792110306E+03 -0.32381877221E+02 -0.25185623727E+03  0.54856905316E+03  0.89662004791E+02 0.  0.
          1    1    3    3  502    0  0.14233165087E+03 -0.15326423765E+03  0.30175148540E+03  0.36715416969E+03  0.00000000000E+00 0. -1.
         -2    1    3    3    0  502  0.17340323023E+03 -0.19311406389E+03  0.55502190716E+03  0.61270795600E+03  0.00000000000E+00 0.  1.
         13    1    5    5    0    0  0.36486086242E+02  0.29863592896E+02  0.49788035397E+02  0.68570526749E+02  0.00000000000E+00 0. -1.
        -13    1    5    5    0    0  0.12570013572E+03  0.34889658586E+03  0.18687012174E+03  0.41527074800E+03  0.00000000000E+00 0.  1.
          4    1    6    6  503    0 -0.17255874657E+03  0.21774007460E+02 -0.12148127694E+03  0.21215166525E+03  0.00000000000E+00 0. -1.
         -4    1    6    6    0  503 -0.30536235649E+03 -0.54155884681E+02 -0.13037496033E+03  0.33641738791E+03  0.00000000000E+00 0.  1.
<mgrwt>
<rscale>  0 0.18278379E+04</rscale>
<asrwt>0</asrwt>
<pdfrwt beam="1">  1        1 0.90053626E-01 0.18278379E+04</pdfrwt>
<pdfrwt beam="2">  1       -2 0.21952675E+00 0.18278379E+04</pdfrwt>
<totfact> 0.29090012E+00</totfact>
</mgrwt>
</event>
<event>
12    5  0.5297412E-008  0.1037272E+04  0.7818608E-02  0.9268584E-01
          1   -1    0    0  501    0  0.00000000000E+00  0.00000000000E+00  0.63470527765E+03  0.63470527765E+03  0.00000000000E+00 0. -1.
         -4   -1    0    0    0  501 -0.00000000000E+00 -0.00000000000E+00 -0.42379284454E+03  0.42379284454E+03  0.00000000000E+00 0.  1.
        -24    2    1    2    0    0 -0.37348023106E+02 -0.45012966114E+02 -0.43400573381E+02  0.12850721077E+03  0.10587469717E+03 0.  0.
        254    2    1    2    0    0  0.37348023106E+02  0.45012966114E+02  0.25431300649E+03  0.92999091143E+03  0.89262923329E+03 0.  0.
         23    2    4    4    0    0  0.25296035269E+03 -0.30500340039E+03 -0.50934063907E+02  0.40964839326E+03  0.90562204877E+02 0.  0.
         23    2    4    4    0    0 -0.21561232959E+03  0.35001636650E+03  0.30524707040E+03  0.52034251817E+03  0.92630603688E+02 0.  0.
          3    1    3    3  502    0 -0.85261827823E+00  0.32353020308E+02  0.47855160069E+00  0.32367790975E+02  0.00000000000E+00 0. -1.
         -4    1    3    3    0  502 -0.36495404828E+02 -0.77365986422E+02 -0.43879124982E+02  0.96139419791E+02  0.00000000000E+00 0.  1.
         13    1    5    5    0    0  0.87350168984E+02 -0.83052593466E+02  0.23701391140E+02  0.12283949383E+03  0.00000000000E+00 0. -1.
        -13    1    5    5    0    0  0.16561018371E+03 -0.22195080692E+03 -0.74635455047E+02  0.28680889943E+03  0.00000000000E+00 0.  1.
          3    1    6    6  503    0 -0.22305970787E+02  0.53706495376E+01  0.36273791784E+01  0.23228389719E+02  0.00000000000E+00 0. -1.
         -3    1    6    6    0  503 -0.19330635880E+03  0.34464571696E+03  0.30161969122E+03  0.49711412845E+03  0.00000000000E+00 0.  1.
<mgrwt>
<rscale>  0 0.10372725E+04</rscale>
<asrwt>0</asrwt>
<pdfrwt beam="1">  1        1 0.97646965E-01 0.10372725E+04</pdfrwt>
<pdfrwt beam="2">  1       -4 0.65198899E-01 0.10372725E+04</pdfrwt>
<totfact> 0.33375731E+01</totfact>
</mgrwt>
</event>
<event>
12    5  0.5297412E-008  0.2023924E+04  0.7818608E-02  0.8595517E-01
          1   -1    0    0  501    0  0.00000000000E+00  0.00000000000E+00  0.62524933659E+03  0.62524933659E+03  0.00000000000E+00 0. -1.
         -2   -1    0    0    0  501 -0.00000000000E+00 -0.00000000000E+00 -0.16378532628E+04  0.16378532628E+04  0.00000000000E+00 0.  1.
        -24    2    1    2    0    0 -0.55609361449E+03 -0.48190557383E+03 -0.78520353485E+03  0.10791886360E+04  0.81427456445E+02 0.  0.
        254    2    1    2    0    0  0.55609361449E+03  0.48190557383E+03 -0.22740039141E+03  0.11839139635E+04  0.89914862216E+03 0.  0.
         23    2    4    4    0    0  0.65897239732E+03  0.12083103786E+03 -0.37086625165E+03  0.77184704233E+03  0.96753914564E+02 0.  0.
         23    2    4    4    0    0 -0.10287878283E+03  0.36107453597E+03  0.14346586025E+03  0.41206692115E+03  0.90872602957E+02 0.  0.
          1    1    3    3  502    0 -0.97648112515E+02 -0.50840196955E+02 -0.13735169765E+03  0.17602661262E+03  0.00000000000E+00 0. -1.
         -2    1    3    3    0  502 -0.45844550198E+03 -0.43106537688E+03 -0.64785183720E+03  0.90316202333E+03  0.00000000000E+00 0.  1.
         13    1    5    5    0    0  0.49763133500E+03  0.93487351354E+02 -0.23084651766E+03  0.55647726382E+03  0.00000000000E+00 0.  1.
        -13    1    5    5    0    0  0.16134106232E+03  0.27343686510E+02 -0.14001973399E+03  0.21536977850E+03  0.00000000000E+00 0. -1.
          1    1    6    6  503    0 -0.25413897402E+02  0.14037197772E+03  0.10565418389E+02  0.14304470062E+03  0.00000000000E+00 0. -1.
         -1    1    6    6    0  503 -0.77464885430E+02  0.22070255825E+03  0.13290044186E+03  0.26902222053E+03  0.00000000000E+00 0.  1.
<mgrwt>
<rscale>  0 0.20239236E+04</rscale>
<asrwt>0</asrwt>
<pdfrwt beam="1">  1        1 0.96192207E-01 0.20239236E+04</pdfrwt>
<pdfrwt beam="2">  1       -2 0.25197742E+00 0.20239236E+04</pdfrwt>
<totfact> 0.16336776E+00</totfact>
</mgrwt>
</event>
<event>
12    5  0.5297412E-008  0.1574461E+04  0.7818608E-02  0.8836393E-01
         -2   -1    0    0    0  501 -0.00000000000E+00  0.00000000000E+00  0.60249622236E+03  0.60249622236E+03  0.00000000000E+00 0.  1.
          1   -1    0    0  501    0  0.00000000000E+00 -0.00000000000E+00 -0.10286068413E+04  0.10286068413E+04  0.00000000000E+00 0. -1.
        -24    2    1    2    0    0  0.78005791618E+02 -0.90142635751E+02 -0.66964011558E+03  0.68471440367E+03  0.78773928982E+02 0.  0.
        254    2    1    2    0    0 -0.78005791618E+02  0.90142635751E+02  0.24352949661E+03  0.94638866003E+03  0.90671620797E+03 0.  0.
         23    2    4    4    0    0  0.23825470413E+02 -0.25431084046E+03 -0.22283928851E+03  0.35059222787E+03  0.89531587302E+02 0.  0.
         23    2    4    4    0    0 -0.10183126203E+03  0.34445347621E+03  0.46636878512E+03  0.59579643216E+03  0.91955106639E+02 0.  0.
          1    1    3    3  502    0  0.61343201852E+02 -0.10231161258E+03 -0.51108354170E+03  0.52482096098E+03  0.00000000000E+00 0. -1.
         -2    1    3    3    0  502  0.16662589766E+02  0.12168976830E+02 -0.15855657388E+03  0.15989344269E+03  0.00000000000E+00 0.  1.
         13    1    5    5    0    0 -0.15657522362E+02 -0.69615655571E+01 -0.29728435086E+02  0.34313281017E+02  0.00000000000E+00 0. -1.
        -13    1    5    5    0    0  0.39482992775E+02 -0.24734927490E+03 -0.19311085342E+03  0.31627894685E+03  0.00000000000E+00 0.  1.
          3    1    6    6  503    0 -0.75810540981E+02  0.10508269421E+03  0.14982430126E+03  0.19808314414E+03  0.00000000000E+00 0. -1.
         -3    1    6    6    0  503 -0.26020721050E+02  0.23937078200E+03  0.31654448386E+03  0.39771328802E+03  0.00000000000E+00 0.  1.
<mgrwt>
<rscale>  0 0.15744608E+04</rscale>
<asrwt>0</asrwt>
<pdfrwt beam="1">  1        1 0.15824721E+00 0.15744608E+04</pdfrwt>
<pdfrwt beam="2">  1       -2 0.92691727E-01 0.15744608E+04</pdfrwt>
<totfact> 0.11961267E+01</totfact>
</mgrwt>
</event>
<event>
12    5  0.5297412E-008  0.1102919E+04  0.7818608E-02  0.9202352E-01
         -2   -1    0    0    0  501 -0.00000000000E+00  0.00000000000E+00  0.11982656069E+04  0.11982656069E+04  0.00000000000E+00 0.  1.
          1   -1    0    0  501    0  0.00000000000E+00 -0.00000000000E+00 -0.25378971841E+03  0.25378971841E+03  0.00000000000E+00 0. -1.
        -24    2    1    2    0    0 -0.41180723003E+02  0.47067350297E+02 -0.44816372676E+02  0.10889239737E+03  0.77057507971E+02 0.  0.
        254    2    1    2    0    0  0.41180723003E+02 -0.47067350297E+02  0.98929226114E+03  0.13431629279E+04  0.90635328960E+03 0.  0.
         23    2    4    4    0    0 -0.15381796719E+03  0.20194216470E+03 -0.32236355453E+02  0.26911699620E+03  0.83331687365E+02 0.  0.
         23    2    4    4    0    0  0.19499869019E+03 -0.24900951500E+03  0.10215286166E+04  0.10740459317E+04  0.10011853562E+03 0.  0.
          3    1    3    3  502    0 -0.46630620824E+02 -0.42437649376E+01 -0.28312185118E+02  0.54717494144E+02  0.00000000000E+00 0. -1.
         -4    1    3    3    0  502  0.54498978203E+01  0.51311115234E+02 -0.16504187558E+02  0.54174903228E+02  0.00000000000E+00 0.  1.
         13    1    5    5    0    0 -0.77276709816E+02  0.39888957170E+02  0.31407584893E+00  0.86965035662E+02  0.00000000000E+00 0. -1.
        -13    1    5    5    0    0 -0.76541257369E+02  0.16205320753E+03 -0.32550431302E+02  0.18215196054E+03  0.00000000000E+00 0.  1.
          2    1    6    6  503    0  0.20342202783E+03 -0.22031465611E+03  0.95792181542E+03  0.10037595696E+04  0.00000000000E+00 0.  1.
         -2    1    6    6    0  503 -0.84233376464E+01 -0.28694858884E+02  0.63606801168E+02  0.70286362107E+02  0.00000000000E+00 0. -1.
<mgrwt>
<rscale>  0 0.11029188E+04</rscale>
<asrwt>0</asrwt>
<pdfrwt beam="1">  1        1 0.39044573E-01 0.11029188E+04</pdfrwt>
<pdfrwt beam="2">  1       -2 0.18434855E+00 0.11029188E+04</pdfrwt>
<totfact> 0.16026083E+01</totfact>
</mgrwt>
</event>
<event>
12    5  0.5297412E-008  0.1463223E+04  0.7818608E-02  0.8909284E-01
          1   -1    0    0  501    0  0.00000000000E+00  0.00000000000E+00  0.93754326095E+03  0.93754326095E+03  0.00000000000E+00 0. -1.
         -2   -1    0    0    0  501 -0.00000000000E+00 -0.00000000000E+00 -0.57091302557E+03  0.57091302557E+03  0.00000000000E+00 0.  1.
        -24    2    1    2    0    0 -0.38372416969E+03  0.18504908347E+03 -0.34798135251E+02  0.43483597312E+03  0.79900010045E+02 0.  0.
        254    2    1    2    0    0  0.38372416969E+03 -0.18504908347E+03  0.40142837064E+03  0.10736203134E+04  0.90001579924E+03 0.  0.
         23    2    4    4    0    0  0.43744920859E+03  0.87214929633E+02 -0.12237794603E+03  0.47193041413E+03  0.93668031137E+02 0.  0.
         23    2    4    4    0    0 -0.53725038903E+02 -0.27226401310E+03  0.52380631667E+03  0.60168989926E+03  0.10316784799E+03 0.  0.
          3    1    3    3  502    0 -0.76591107904E+02  0.58858140910E+02  0.19040270908E+02  0.98453087700E+02  0.00000000000E+00 0. -1.
         -4    1    3    3    0  502 -0.30713306179E+03  0.12619094256E+03 -0.53838406158E+02  0.33638288542E+03  0.00000000000E+00 0.  1.
         13    1    5    5    0    0  0.42180700030E+03  0.10201448781E+03 -0.12007765425E+03  0.45027407684E+03  0.00000000000E+00 0. -1.
        -13    1    5    5    0    0  0.15642208294E+02 -0.14799558178E+02 -0.23002917869E+01  0.21656337292E+02  0.00000000000E+00 0.  1.
          3    1    6    6  503    0 -0.61593735570E+02 -0.27683556760E+03  0.51891547280E+03  0.59135859482E+03  0.00000000000E+00 0. -1.
         -3    1    6    6    0  503  0.78686966671E+01  0.45715545048E+01  0.48908438690E+01  0.10331304447E+02  0.00000000000E+00 0.  1.
<mgrwt>
<rscale>  0 0.14632234E+04</rscale>
<asrwt>0</asrwt>
<pdfrwt beam="1">  1        1 0.14423743E+00 0.14632234E+04</pdfrwt>
<pdfrwt beam="2">  1       -2 0.87832773E-01 0.14632234E+04</pdfrwt>
<totfact> 0.16124033E+01</totfact>
</mgrwt>
</event>
<event>
12    5  0.5297412E-008  0.1378510E+04  0.7818608E-02  0.8969523E-01
         -2   -1    0    0    0  501 -0.00000000000E+00  0.00000000000E+00  0.50824257830E+03  0.50824257830E+03  0.00000000000E+00 0.  1.
          1   -1    0    0  501    0  0.00000000000E+00 -0.00000000000E+00 -0.93473584907E+03  0.93473584907E+03  0.00000000000E+00 0. -1.
        -24    2    1    2    0    0 -0.13683598541E+02 -0.21437772776E+03  0.23209317717E+03  0.32576872887E+03  0.78185489648E+02 0.  0.
        254    2    1    2    0    0  0.13683598541E+02  0.21437772776E+03 -0.65858644793E+03  0.11172096985E+04  0.87651374775E+03 0.  0.
         23    2    4    4    0    0 -0.35486408749E+03  0.25786162608E+03 -0.13447240204E+03  0.46691970843E+03  0.86660535514E+02 0.  0.
         23    2    4    4    0    0  0.36854768603E+03 -0.43483898322E+02 -0.52411404589E+03  0.65028999007E+03  0.10229023315E+03 0.  0.
          3    1    3    3  502    0 -0.18094594566E+02 -0.23033065865E+02  0.66468524430E+01  0.30035264658E+02  0.00000000000E+00 0. -1.
         -4    1    3    3    0  502  0.44109960252E+01 -0.19134466190E+03  0.22544632472E+03  0.29573346421E+03  0.00000000000E+00 0.  1.
         13    1    5    5    0    0 -0.11684819980E+02 -0.41328455569E+01 -0.13944098208E+02  0.18656186780E+02  0.00000000000E+00 0. -1.
        -13    1    5    5    0    0 -0.34317926751E+03  0.26199447164E+03 -0.12052830383E+03  0.44826352165E+03  0.00000000000E+00 0.  1.
          3    1    6    6  503    0  0.34025202706E+03 -0.11214554575E+02 -0.44503666849E+03  0.56031673583E+03  0.00000000000E+00 0.  1.
         -3    1    6    6    0  503  0.28295658973E+02 -0.32269343746E+02 -0.79077377398E+02  0.89973254240E+02  0.00000000000E+00 0. -1.
<mgrwt>
<rscale>  0 0.13785101E+04</rscale>
<asrwt>0</asrwt>
<pdfrwt beam="1">  1        1 0.14380551E+00 0.13785101E+04</pdfrwt>
<pdfrwt beam="2">  1       -2 0.78191166E-01 0.13785101E+04</pdfrwt>
<totfact> 0.21240807E+01</totfact>
</mgrwt>
</event>
<event>
12    5  0.5297412E-008  0.1382524E+04  0.7818608E-02  0.8966566E-01
          1   -1    0    0  501    0  0.00000000000E+00  0.00000000000E+00  0.12806716162E+04  0.12806716162E+04  0.00000000000E+00 0. -1.
         -2   -1    0    0    0  501 -0.00000000000E+00 -0.00000000000E+00 -0.37311943515E+03  0.37311943515E+03  0.00000000000E+00 0.  1.
        -24    2    1    2    0    0 -0.37479718463E+03  0.48466049317E+01  0.37347461096E+03  0.53532425051E+03  0.81193281553E+02 0.  0.
        254    2    1    2    0    0  0.37479718463E+03 -0.48466049317E+01  0.53407757006E+03  0.11184668008E+04  0.90842320231E+03 0.  0.
         23    2    4    4    0    0  0.35932411021E+03 -0.38089904832E+03  0.50088948386E+03  0.73037284852E+03  0.91412918351E+02 0.  0.
         23    2    4    4    0    0  0.15473074426E+02  0.37605244339E+03  0.33188086204E+02  0.38809395229E+03  0.88660084179E+02 0.  0.
          1    1    3    3  502    0 -0.10725916515E+03  0.10401757331E+02  0.16050455822E+03  0.19332469649E+03  0.00000000000E+00 0. -1.
         -2    1    3    3    0  502 -0.26753801948E+03 -0.55551523988E+01  0.21297005274E+03  0.34199955402E+03  0.00000000000E+00 0.  1.
         13    1    5    5    0    0  0.24477318538E+03 -0.25995583452E+03  0.28022252046E+03  0.45388942393E+03  0.00000000000E+00 0.  1.
        -13    1    5    5    0    0  0.11455092482E+03 -0.12094321380E+03  0.22066696340E+03  0.27648342460E+03  0.00000000000E+00 0. -1.
          4    1    6    6  503    0  0.78352414040E+01  0.25085322467E+02 -0.20015997828E+02  0.33034899428E+02  0.00000000000E+00 0. -1.
         -4    1    6    6    0  503  0.76378330221E+01  0.35096712092E+03  0.53204084032E+02  0.35505905286E+03  0.00000000000E+00 0.  1.
<mgrwt>
<rscale>  0 0.13825245E+04</rscale>
<asrwt>0</asrwt>
<pdfrwt beam="1">  1        1 0.19702640E+00 0.13825245E+04</pdfrwt>
<pdfrwt beam="2">  1       -2 0.57402991E-01 0.13825245E+04</pdfrwt>
<totfact> 0.22739433E+01</totfact>
</mgrwt>
</event>
<event>
12    5  0.5297412E-008  0.1328188E+04  0.7818608E-02  0.9007506E-01
          1   -1    0    0  501    0  0.00000000000E+00  0.00000000000E+00  0.29081318570E+03  0.29081318570E+03  0.00000000000E+00 0. -1.
         -2   -1    0    0    0  501 -0.00000000000E+00 -0.00000000000E+00 -0.15165095883E+04  0.15165095883E+04  0.00000000000E+00 0.  1.
        -24    2    1    2    0    0 -0.30256007550E+03  0.17003197461E+03 -0.22778294071E+03  0.42258706682E+03  0.79001830926E+02 0.  0.
        254    2    1    2    0    0  0.30256007550E+03 -0.17003197461E+03 -0.99791346187E+03  0.13847357072E+04  0.89510235706E+03 0.  0.
         23    2    4    4    0    0  0.43287756758E+03 -0.45105880697E+03 -0.72553090912E+03  0.96215740884E+03  0.92275367482E+02 0.  0.
         23    2    4    4    0    0 -0.13031749208E+03  0.28102683236E+03 -0.27238255275E+03  0.42257829831E+03  0.91768371002E+02 0.  0.
          1    1    3    3  502    0 -0.23108887123E+03  0.11941730764E+03 -0.12827823889E+03  0.29003080240E+03  0.00000000000E+00 0. -1.
         -2    1    3    3    0  502 -0.71471204274E+02  0.50614666976E+02 -0.99504701820E+02  0.13255626442E+03  0.00000000000E+00 0.  1.
         13    1    5    5    0    0  0.42370783980E+03 -0.41852664840E+03 -0.66402733065E+03  0.89197824232E+03  0.00000000000E+00 0.  1.
        -13    1    5    5    0    0  0.91697277823E+01 -0.32532158567E+02 -0.61503578473E+02  0.70179166521E+02  0.00000000000E+00 0. -1.
          3    1    6    6  503    0 -0.58333727238E+02  0.88871414479E+02 -0.14936362191E+03  0.18333151283E+03  0.00000000000E+00 0. -1.
         -3    1    6    6    0  503 -0.71983764842E+02  0.19215541788E+03 -0.12301893084E+03  0.23924678548E+03  0.00000000000E+00 0.  1.
<mgrwt>
<rscale>  0 0.13281882E+04</rscale>
<asrwt>0</asrwt>
<pdfrwt beam="1">  1        1 0.44740489E-01 0.13281882E+04</pdfrwt>
<pdfrwt beam="2">  1       -2 0.23330917E+00 0.13281882E+04</pdfrwt>
<totfact> 0.63737339E+00</totfact>
</mgrwt>
</event>
<event>
12    5  0.5297412E-008  0.2014509E+04  0.7818608E-02  0.8599867E-01
          1   -1    0    0  501    0  0.00000000000E+00  0.00000000000E+00  0.99635289086E+03  0.99635289086E+03  0.00000000000E+00 0. -1.
         -2   -1    0    0    0  501 -0.00000000000E+00 -0.00000000000E+00 -0.10182755885E+04  0.10182755885E+04  0.00000000000E+00 0.  1.
        -24    2    1    2    0    0 -0.24972735923E+02  0.15515903879E+03  0.74900952956E+03  0.77026026292E+03  0.87107017016E+02 0.  0.
        254    2    1    2    0    0  0.24972735923E+02 -0.15515903879E+03 -0.77093222720E+03  0.12443682165E+04  0.96406316926E+03 0.  0.
         23    2    4    4    0    0 -0.31883744548E+03  0.79511361243E+02  0.24473074594E+02  0.34197484571E+03  0.91479454057E+02 0.  0.
         23    2    4    4    0    0  0.34381018140E+03 -0.23467040003E+03 -0.79540530180E+03  0.90239337074E+03  0.91479855418E+02 0.  0.
          1    1    3    3  502    0  0.67925355606E+00  0.62535258199E+02  0.49034939918E+03  0.49432140676E+03  0.00000000000E+00 0. -1.
         -2    1    3    3    0  502 -0.25651989480E+02  0.92623780587E+02  0.25866013038E+03  0.27593885617E+03  0.00000000000E+00 0.  1.
         13    1    5    5    0    0  0.58506513598E+01 -0.12962617104E+01  0.29800150125E+01  0.66926007823E+01  0.00000000000E+00 0.  1.
        -13    1    5    5    0    0 -0.32468809684E+03  0.80807622954E+02  0.21493059581E+02  0.33528224493E+03  0.00000000000E+00 0. -1.
          2    1    6    6  503    0  0.29571031301E+03 -0.15916142680E+03 -0.60387195190E+03  0.69096908997E+03  0.00000000000E+00 0. -1.
         -2    1    6    6    0  503  0.48099868387E+02 -0.75508973226E+02 -0.19153334989E+03  0.21142428077E+03  0.00000000000E+00 0.  1.
<mgrwt>
<rscale>  0 0.20145092E+04</rscale>
<asrwt>0</asrwt>
<pdfrwt beam="1">  1        1 0.15328506E+00 0.20145092E+04</pdfrwt>
<pdfrwt beam="2">  1       -2 0.15665778E+00 0.20145092E+04</pdfrwt>
<totfact> 0.32995436E+00</totfact>
</mgrwt>
</event>
<event>
12    5  0.5297412E-008  0.1400095E+04  0.7818608E-02  0.8953750E-01
          1   -1    0    0  501    0  0.00000000000E+00  0.00000000000E+00  0.43711675485E+03  0.43711675485E+03  0.00000000000E+00 0. -1.
         -4   -1    0    0    0  501 -0.00000000000E+00 -0.00000000000E+00 -0.11211334110E+04  0.11211334110E+04  0.00000000000E+00 0.  1.
        -24    2    1    2    0    0 -0.39358215683E+03 -0.26143905279E+03 -0.15323726299E+03  0.50278871963E+03  0.77830233936E+02 0.  0.
        254    2    1    2    0    0  0.39358215683E+03  0.26143905279E+03 -0.53077939319E+03  0.10554614463E+04  0.78039400805E+03 0.  0.
         23    2    4    4    0    0  0.21298029780E+02  0.36826819521E+03  0.14818558446E+02  0.38005230788E+03  0.90250193207E+02 0.  0.
         23    2    4    4    0    0  0.37228412705E+03 -0.10682914242E+03 -0.54559795164E+03  0.67540913838E+03  0.92154448857E+02 0.  0.
          3    1    3    3  502    0 -0.50756156255E+02 -0.47859241910E+02  0.27137166104E+01  0.69814459045E+02  0.00000000000E+00 0. -1.
         -4    1    3    3    0  502 -0.34282600058E+03 -0.21357981088E+03 -0.15595097960E+03  0.43297426058E+03  0.00000000000E+00 0.  1.
         13    1    5    5    0    0 -0.13762114477E+02  0.12036066158E+02  0.12399336210E+02  0.22090862859E+02  0.00000000000E+00 0.  1.
        -13    1    5    5    0    0  0.35060144256E+02  0.35623212906E+03  0.24192222362E+01  0.35796144502E+03  0.00000000000E+00 0. -1.
          4    1    6    6  503    0  0.29270557810E+03 -0.10953364342E+03 -0.47724148604E+03  0.57046788734E+03  0.00000000000E+00 0. -1.
         -4    1    6    6    0  503  0.79578548957E+02  0.27045010028E+01 -0.68356465603E+02  0.10494125104E+03  0.00000000000E+00 0.  1.
<mgrwt>
<rscale>  0 0.14000946E+04</rscale>
<asrwt>0</asrwt>
<pdfrwt beam="1">  1        1 0.67248732E-01 0.14000946E+04</pdfrwt>
<pdfrwt beam="2">  1       -4 0.17248206E+00 0.14000946E+04</pdfrwt>
<totfact> 0.50358001E+00</totfact>
</mgrwt>
</event>
<event>
12    5  0.5297412E-008  0.1317853E+04  0.7818608E-02  0.9015526E-01
         -2   -1    0    0    0  501 -0.00000000000E+00  0.00000000000E+00  0.82762867668E+03  0.82762867668E+03  0.00000000000E+00 0.  1.
          1   -1    0    0  501    0  0.00000000000E+00 -0.00000000000E+00 -0.52461254077E+03  0.52461254077E+03  0.00000000000E+00 0. -1.
        -24    2    1    2    0    0 -0.54480317488E+01  0.30513147101E+03 -0.72179301967E+02  0.32356116964E+03  0.79668583593E+02 0.  0.
        254    2    1    2    0    0  0.54480317488E+01 -0.30513147101E+03  0.37519543789E+03  0.10286800478E+04  0.90789654064E+03 0.  0.
         23    2    4    4    0    0 -0.32730169932E+03  0.11689058033E+03 -0.12506550252E+02  0.35978901753E+03  0.92205819693E+02 0.  0.
         23    2    4    4    0    0  0.33274973107E+03 -0.42202205134E+03  0.38770198814E+03  0.66889103028E+03  0.90980126631E+02 0.  0.
          1    1    3    3  502    0 -0.24045350635E+01  0.46073947428E+02 -0.42611612966E+02  0.62803980606E+02  0.00000000000E+00 0. -1.
         -2    1    3    3    0  502 -0.30434966852E+01  0.25905752358E+03 -0.29567689001E+02  0.26075718903E+03  0.00000000000E+00 0.  1.
         13    1    5    5    0    0 -0.23933945443E+02 -0.15386116531E+02 -0.39574652575E+01  0.28726779451E+02  0.00000000000E+00 0.  1.
        -13    1    5    5    0    0 -0.30336775388E+03  0.13227669686E+03 -0.85490849947E+01  0.33106223808E+03  0.00000000000E+00 0. -1.
          2    1    6    6  503    0  0.30182625595E+03 -0.36941414383E+03  0.37444432018E+03  0.60644410077E+03  0.00000000000E+00 0. -1.
         -2    1    6    6    0  503  0.30923475124E+02 -0.52607907512E+02  0.13257667961E+02  0.62446929519E+02  0.00000000000E+00 0.  1.
<mgrwt>
<rscale>  0 0.13178534E+04</rscale>
<asrwt>0</asrwt>
<pdfrwt beam="1">  1        1 0.80709622E-01 0.13178534E+04</pdfrwt>
<pdfrwt beam="2">  1       -2 0.12732749E+00 0.13178534E+04</pdfrwt>
<totfact> 0.16277928E+01</totfact>
</mgrwt>
</event>
<event>
12    5  0.5297412E-008  0.1166808E+04  0.7818608E-02  0.9142416E-01
          1   -1    0    0  501    0  0.00000000000E+00  0.00000000000E+00  0.20590762402E+04  0.20590762402E+04  0.00000000000E+00 0. -1.
         -2   -1    0    0    0  501 -0.00000000000E+00 -0.00000000000E+00 -0.16529759089E+03  0.16529759089E+03  0.00000000000E+00 0.  1.
        -24    2    1    2    0    0 -0.96725943294E+02 -0.25580114391E+02  0.34057180612E+01  0.12770374251E+03  0.79286799514E+02 0.  0.
        254    2    1    2    0    0  0.96725943294E+02  0.25580114391E+02  0.18903729313E+04  0.20966700886E+04  0.90139080912E+03 0.  0.
         23    2    4    4    0    0  0.17486055410E+03  0.13378621670E+03  0.42816675939E+02  0.24209701334E+03  0.91119322706E+02 0.  0.
         23    2    4    4    0    0 -0.78134610803E+02 -0.10820610231E+03  0.18475562553E+04  0.18545730753E+04  0.90352625167E+02 0.  0.
          1    1    3    3  502    0 -0.24245656715E+02 -0.46304487890E+02  0.19631768957E+01  0.52304985727E+02  0.00000000000E+00 0. -1.
         -2    1    3    3    0  502 -0.72480286578E+02  0.20724373500E+02  0.14425411655E+01  0.75398756783E+02  0.00000000000E+00 0.  1.
         13    1    5    5    0    0  0.32980738884E+02  0.53523812137E+02 -0.22095640720E+02  0.66638914621E+02  0.00000000000E+00 0. -1.
        -13    1    5    5    0    0  0.14187981521E+03  0.80262404565E+02  0.64912316660E+02  0.17545809872E+03  0.00000000000E+00 0.  1.
          4    1    6    6  503    0  0.17302801400E+02 -0.39803607675E+02  0.44593704132E+03  0.44804414843E+03  0.00000000000E+00 0. -1.
         -4    1    6    6    0  503 -0.95437412203E+02 -0.68402494636E+02  0.14016192140E+04  0.14065289268E+04  0.00000000000E+00 0.  1.
<mgrwt>
<rscale>  0 0.11668082E+04</rscale>
<asrwt>0</asrwt>
<pdfrwt beam="1">  1        1 0.31678094E+00 0.11668082E+04</pdfrwt>
<pdfrwt beam="2">  1       -2 0.25430400E-01 0.11668082E+04</pdfrwt>
<totfact> 0.32994834E+01</totfact>
</mgrwt>
</event>
<event>
12    5  0.5297412E-008  0.2301309E+04  0.7818608E-02  0.8477405E-01
          3   -1    0    0  501    0  0.00000000000E+00  0.00000000000E+00  0.14175064218E+04  0.14175064218E+04  0.00000000000E+00 0. -1.
         -4   -1    0    0    0  501 -0.00000000000E+00 -0.00000000000E+00 -0.93403853813E+03  0.93403853813E+03  0.00000000000E+00 0.  1.
        -24    2    1    2    0    0 -0.81026229753E+03  0.58020214063E+03  0.27207620421E+03  0.10357839426E+04  0.75255564758E+02 0.  0.
        254    2    1    2    0    0  0.81026229753E+03 -0.58020214063E+03  0.21139167950E+03  0.13157610174E+04  0.83269508101E+03 0.  0.
         23    2    4    4    0    0  0.55807438493E+03  0.93913306836E+02  0.81109442201E+02  0.57882247398E+03  0.90498543929E+02 0.  0.
         23    2    4    4    0    0  0.25218791260E+03 -0.67411544746E+03  0.13028223729E+03  0.73693854341E+03  0.89858642538E+02 0.  0.
          3    1    3    3  502    0 -0.97978042704E+02  0.45022605294E+02  0.41101631213E+02  0.11539530289E+03  0.00000000000E+00 0. -1.
         -4    1    3    3    0  502 -0.71228425483E+03  0.53517953533E+03  0.23097457299E+03  0.92038863970E+03  0.00000000000E+00 0.  1.
         13    1    5    5    0    0  0.55493357811E+03  0.99865164457E+02  0.86180766561E+02  0.57039587281E+03  0.00000000000E+00 0.  1.
        -13    1    5    5    0    0  0.31408068219E+01 -0.59518576214E+01 -0.50713243602E+01  0.84266011775E+01  0.00000000000E+00 0. -1.
          1    1    6    6  503    0  0.48504941120E+02 -0.54562794175E+02  0.17652126281E+02  0.75109422735E+02  0.00000000000E+00 0. -1.
         -1    1    6    6    0  503  0.20368297148E+03 -0.61955265329E+03  0.11263011101E+03  0.66182912067E+03  0.00000000000E+00 0.  1.
<mgrwt>
<rscale>  0 0.23013089E+04</rscale>
<asrwt>0</asrwt>
<pdfrwt beam="1">  1        3 0.21807791E+00 0.23013089E+04</pdfrwt>
<pdfrwt beam="2">  1       -4 0.14369824E+00 0.23013089E+04</pdfrwt>
<totfact> 0.78780669E-02</totfact>
</mgrwt>
</event>
<event>
12    5  0.5297412E-008  0.1533817E+04  0.7818608E-02  0.8862271E-01
         -2   -1    0    0    0  501 -0.00000000000E+00  0.00000000000E+00  0.36004604287E+03  0.36004604287E+03  0.00000000000E+00 0.  1.
          1   -1    0    0  501    0  0.00000000000E+00 -0.00000000000E+00 -0.16335377549E+04  0.16335377549E+04  0.00000000000E+00 0. -1.
        -24    2    1    2    0    0 -0.31426226439E+03  0.32976313506E+03 -0.67676688482E+03  0.81959914241E+03  0.78897666641E+02 0.  0.
        254    2    1    2    0    0  0.31426226439E+03 -0.32976313506E+03 -0.59672482717E+03  0.11739846553E+04  0.90258238156E+03 0.  0.
         23    2    4    4    0    0 -0.28421811497E+03 -0.35403774379E+02 -0.33671301122E+03  0.45215644452E+03  0.95060161369E+02 0.  0.
         23    2    4    4    0    0  0.59848037936E+03 -0.29435936068E+03 -0.26001181595E+03  0.72182821079E+03  0.92755720905E+02 0.  0.
          1    1    3    3  502    0 -0.31434615314E+03  0.33365870311E+03 -0.67112381388E+03  0.81274153807E+03  0.00000000000E+00 0. -1.
         -2    1    3    3    0  502  0.83888747543E-01 -0.38955680481E+01 -0.56430709318E+01  0.68576043397E+01  0.00000000000E+00 0.  1.
         13    1    5    5    0    0 -0.18312423386E+02  0.16142522421E+02 -0.68792220450E+01  0.25362365353E+02  0.00000000000E+00 0. -1.
        -13    1    5    5    0    0 -0.26590569159E+03 -0.51546296801E+02 -0.32983378918E+03  0.42679407917E+03  0.00000000000E+00 0.  1.
          1    1    6    6  503    0  0.53252558542E+02 -0.15591166959E+02  0.25626670727E+01  0.55547157812E+02  0.00000000000E+00 0. -1.
         -1    1    6    6    0  503  0.54522782082E+03 -0.27876819372E+03 -0.26257448302E+03  0.66628105298E+03  0.00000000000E+00 0.  1.
<mgrwt>
<rscale>  0 0.15338172E+04</rscale>
<asrwt>0</asrwt>
<pdfrwt beam="1">  1        1 0.25131350E+00 0.15338172E+04</pdfrwt>
<pdfrwt beam="2">  1       -2 0.55391699E-01 0.15338172E+04</pdfrwt>
<totfact> 0.13725595E+01</totfact>
</mgrwt>
</event>
<event>
12    5  0.5297412E-008  0.1201315E+04  0.7818608E-02  0.9111707E-01
          1   -1    0    0  501    0  0.00000000000E+00  0.00000000000E+00  0.15960795976E+04  0.15960795976E+04  0.00000000000E+00 0. -1.
         -2   -1    0    0    0  501 -0.00000000000E+00 -0.00000000000E+00 -0.22604717660E+03  0.22604717660E+03  0.00000000000E+00 0.  1.
        -24    2    1    2    0    0  0.20473218963E+03 -0.24507644432E+03  0.15960448662E+03  0.36580102016E+03  0.79743721829E+02 0.  0.
        254    2    1    2    0    0 -0.20473218963E+03  0.24507644432E+03  0.12104279344E+04  0.14563257541E+04  0.74415803735E+03 0.  0.
         23    2    4    4    0    0 -0.60002237680E+02  0.47705195914E+03  0.94207232788E+03  0.10614201105E+04  0.89070420244E+02 0.  0.
         23    2    4    4    0    0 -0.14472995195E+03 -0.23197551482E+03  0.26835560653E+03  0.39490564358E+03  0.95793200726E+02 0.  0.
          3    1    3    3  502    0  0.94082885002E+02 -0.78057092817E+02  0.96517104196E+02  0.15575638154E+03  0.00000000000E+00 0. -1.
         -4    1    3    3    0  502  0.11064930463E+03 -0.16701935150E+03  0.63087382426E+02  0.21004463862E+03  0.00000000000E+00 0.  1.
         13    1    5    5    0    0 -0.28139190844E+02  0.61274257036E+02  0.86842934261E+02  0.10994564051E+03  0.00000000000E+00 0.  1.
        -13    1    5    5    0    0 -0.31863046836E+02  0.41577770211E+03  0.85522939362E+03  0.95147446999E+03  0.00000000000E+00 0. -1.
          3    1    6    6  503    0 -0.14992635792E+03 -0.18472555568E+03  0.19558425341E+03  0.30798481116E+03  0.00000000000E+00 0. -1.
         -3    1    6    6    0  503  0.51964059723E+01 -0.47249959141E+02  0.72771353120E+02  0.86920832421E+02  0.00000000000E+00 0.  1.
<mgrwt>
<rscale>  0 0.12013148E+04</rscale>
<asrwt>0</asrwt>
<pdfrwt beam="1">  1        1 0.24555070E+00 0.12013148E+04</pdfrwt>
<pdfrwt beam="2">  1       -2 0.34776490E-01 0.12013148E+04</pdfrwt>
<totfact> 0.37820888E+01</totfact>
</mgrwt>
</event>
<event>
12    5  0.5297412E-008  0.1733714E+04  0.7818608E-02  0.8742366E-01
          1   -1    0    0  501    0  0.00000000000E+00  0.00000000000E+00  0.18525767491E+04  0.18525767491E+04  0.00000000000E+00 0. -1.
         -2   -1    0    0    0  501 -0.00000000000E+00 -0.00000000000E+00 -0.40561933365E+03  0.40561933365E+03  0.00000000000E+00 0.  1.
        -24    2    1    2    0    0  0.16107854960E+03 -0.41017970393E+02 -0.26109638898E+03  0.31952857101E+03  0.79362524660E+02 0.  0.
        254    2    1    2    0    0 -0.16107854960E+03  0.41017970393E+02  0.17080538045E+04  0.19386675118E+04  0.90186204555E+03 0.  0.
         23    2    4    4    0    0  0.55095725042E+02  0.25280155269E+03  0.15672696173E+04  0.15911846360E+04  0.92684025043E+02 0.  0.
         23    2    4    4    0    0 -0.21617427464E+03 -0.21178358230E+03  0.14078418714E+03  0.34748287577E+03  0.96646566706E+02 0.  0.
          3    1    3    3  502    0  0.58709317584E+02 -0.37596072297E+02 -0.16481758766E+03  0.17895554148E+03  0.00000000000E+00 0. -1.
         -4    1    3    3    0  502  0.10236923201E+03 -0.34218980962E+01 -0.96278801319E+02  0.14057302954E+03  0.00000000000E+00 0.  1.
         13    1    5    5    0    0 -0.25329570728E+02  0.84715246574E+02  0.52225216014E+03  0.52968441446E+03  0.00000000000E+00 0. -1.
        -13    1    5    5    0    0  0.80425295770E+02  0.16808630612E+03  0.10450174572E+04  0.10615002215E+04  0.00000000000E+00 0.  1.
          3    1    6    6  503    0 -0.70673300130E+02 -0.38116264786E+02  0.79006614293E+02  0.11264816951E+03  0.00000000000E+00 0. -1.
         -3    1    6    6    0  503 -0.14550097451E+03 -0.17366731751E+03  0.61777572847E+02  0.23483470625E+03  0.00000000000E+00 0.  1.
<mgrwt>
<rscale>  0 0.17337139E+04</rscale>
<asrwt>0</asrwt>
<pdfrwt beam="1">  1        1 0.28501180E+00 0.17337139E+04</pdfrwt>
<pdfrwt beam="2">  1       -2 0.62402976E-01 0.17337139E+04</pdfrwt>
<totfact> 0.74479642E+00</totfact>
</mgrwt>
</event>
<event>
12    5  0.5297412E-008  0.2161308E+04  0.7818608E-02  0.8534707E-01
         -2   -1    0    0    0  501 -0.00000000000E+00  0.00000000000E+00  0.48428681947E+03  0.48428681947E+03  0.00000000000E+00 0.  1.
          1   -1    0    0  501    0  0.00000000000E+00 -0.00000000000E+00 -0.24114072159E+04  0.24114072159E+04  0.00000000000E+00 0. -1.
        -24    2    1    2    0    0 -0.29921491650E+03 -0.64877733131E+03 -0.85279558429E+02  0.72500778837E+03  0.89006169618E+02 0.  0.
        254    2    1    2    0    0  0.29921491650E+03  0.64877733131E+03 -0.18418408380E+04  0.21706862470E+04  0.89947735854E+03 0.  0.
         23    2    4    4    0    0  0.52671986858E+03  0.71649506850E+03 -0.14311095768E+04  0.16878084545E+04  0.99114858421E+02 0.  0.
         23    2    4    4    0    0 -0.22750495208E+03 -0.67717737189E+02 -0.41073126120E+03  0.48287779249E+03  0.90147647814E+02 0.  0.
          1    1    3    3  502    0 -0.11015752740E+02 -0.95503448821E+02 -0.10722015548E+02  0.96732709889E+02  0.00000000000E+00 0. -1.
         -2    1    3    3    0  502 -0.28819916376E+03 -0.55327388249E+03 -0.74557542880E+02  0.62827507848E+03  0.00000000000E+00 0.  1.
         13    1    5    5    0    0  0.40352476359E+03  0.47628755010E+03 -0.97096442315E+03  0.11543197028E+04  0.00000000000E+00 0.  1.
        -13    1    5    5    0    0  0.12319510499E+03  0.24020751840E+03 -0.46014515369E+03  0.53348875176E+03  0.00000000000E+00 0. -1.
          1    1    6    6  503    0 -0.16152113529E+03 -0.88567185312E+02 -0.28467690485E+03  0.33907840334E+03  0.00000000000E+00 0. -1.
         -1    1    6    6    0  503 -0.65983816788E+02  0.20849448122E+02 -0.12605435635E+03  0.14379938915E+03  0.00000000000E+00 0.  1.
<mgrwt>
<rscale>  0 0.21613077E+04</rscale>
<asrwt>0</asrwt>
<pdfrwt beam="1">  1        1 0.37098572E+00 0.21613077E+04</pdfrwt>
<pdfrwt beam="2">  1       -2 0.74505666E-01 0.21613077E+04</pdfrwt>
<totfact> 0.20321525E+00</totfact>
</mgrwt>
</event>
<event>
12    5  0.5297412E-008  0.2080003E+04  0.7818608E-02  0.8570104E-01
          1   -1    0    0  501    0  0.00000000000E+00  0.00000000000E+00  0.99315548749E+03  0.99315548749E+03  0.00000000000E+00 0. -1.
         -2   -1    0    0    0  501 -0.00000000000E+00 -0.00000000000E+00 -0.10890576938E+04  0.10890576938E+04  0.00000000000E+00 0.  1.
        -24    2    1    2    0    0  0.17130997157E+03 -0.11971296625E+03 -0.85760057341E+03  0.88659870017E+03  0.83067508544E+02 0.  0.
        254    2    1    2    0    0 -0.17130997157E+03  0.11971296625E+03  0.76169836713E+03  0.11956144811E+04  0.89756965428E+03 0.  0.
         23    2    4    4    0    0  0.17297360546E+03  0.36077628055E+03  0.12751969574E+03  0.42966670638E+03  0.90955005221E+02 0.  0.
         23    2    4    4    0    0 -0.34428357703E+03 -0.24106331430E+03  0.63417867139E+03  0.76594777472E+03  0.88604195396E+02 0.  0.
          3    1    3    3  502    0  0.49533904549E+02 -0.19716603559E+02 -0.10592627085E+03  0.11858636942E+03  0.00000000000E+00 0. -1.
         -4    1    3    3    0  502  0.12177606702E+03 -0.99996362693E+02 -0.75167430256E+03  0.76801233075E+03  0.00000000000E+00 0.  1.
         13    1    5    5    0    0  0.57882040352E+02  0.17678439555E+03  0.18893168805E+02  0.18697594747E+03  0.00000000000E+00 0. -1.
        -13    1    5    5    0    0  0.11509156511E+03  0.18399188500E+03  0.10862652693E+03  0.24269075891E+03  0.00000000000E+00 0.  1.
          3    1    6    6  503    0 -0.13508847979E+03 -0.76837460537E+02  0.30881952116E+03  0.34572010263E+03  0.00000000000E+00 0. -1.
         -3    1    6    6    0  503 -0.20919509724E+03 -0.16422585376E+03  0.32535915023E+03  0.42022767209E+03  0.00000000000E+00 0.  1.
<mgrwt>
<rscale>  0 0.20800035E+04</rscale>
<asrwt>0</asrwt>
<pdfrwt beam="1">  1        1 0.15279315E+00 0.20800035E+04</pdfrwt>
<pdfrwt beam="2">  1       -2 0.16754734E+00 0.20800035E+04</pdfrwt>
<totfact> 0.27453482E+00</totfact>
</mgrwt>
</event>
<event>
12    5  0.5297412E-008  0.1371243E+04  0.7818608E-02  0.8974901E-01
         -2   -1    0    0    0  501 -0.00000000000E+00  0.00000000000E+00  0.53967826530E+03  0.53967826530E+03  0.00000000000E+00 0.  1.
          1   -1    0    0  501    0  0.00000000000E+00 -0.00000000000E+00 -0.87103188273E+03  0.87103188273E+03  0.00000000000E+00 0. -1.
        -24    2    1    2    0    0 -0.10782279766E+03  0.33093902580E+03 -0.25283611222E+03  0.43743990948E+03  0.79253897531E+02 0.  0.
        254    2    1    2    0    0  0.10782279766E+03 -0.33093902580E+03 -0.78517505203E+02  0.97327023855E+03  0.90550735178E+03 0.  0.
         23    2    4    4    0    0  0.22576907907E+02 -0.15434967117E+03 -0.48135539329E+03  0.51466295635E+03  0.94028752138E+02 0.  0.
         23    2    4    4    0    0  0.85245889753E+02 -0.17658935463E+03  0.40283788809E+03  0.45860728220E+03  0.97936782238E+02 0.  0.
          3    1    3    3  502    0 -0.92088050655E-01 -0.33027449464E+01  0.17050414136E+01  0.37180331645E+01  0.00000000000E+00 0. -1.
         -4    1    3    3    0  502 -0.10773070961E+03  0.33424177075E+03 -0.25454115363E+03  0.43372187632E+03  0.00000000000E+00 0.  1.
         13    1    5    5    0    0  0.41259501622E+02 -0.19244357957E+02 -0.10974561597E+03  0.11881410696E+03  0.00000000000E+00 0.  1.
        -13    1    5    5    0    0 -0.18682593716E+02 -0.13510531321E+03 -0.37160977732E+03  0.39584884939E+03  0.00000000000E+00 0. -1.
          2    1    6    6  503    0  0.45606269487E+02 -0.19235848754E+02  0.15201866260E+03  0.15987377356E+03  0.00000000000E+00 0. -1.
         -2    1    6    6    0  503  0.39639620266E+02 -0.15735350588E+03  0.25081922548E+03  0.29873350863E+03  0.00000000000E+00 0.  1.
<mgrwt>
<rscale>  0 0.13712432E+04</rscale>
<asrwt>0</asrwt>
<pdfrwt beam="1">  1        1 0.13400490E+00 0.13712432E+04</pdfrwt>
<pdfrwt beam="2">  1       -2 0.83027426E-01 0.13712432E+04</pdfrwt>
<totfact> 0.20932371E+01</totfact>
</mgrwt>
</event>
<event>
12    5  0.5297412E-008  0.1297332E+04  0.7818608E-02  0.9031683E-01
         -2   -1    0    0    0  501 -0.00000000000E+00  0.00000000000E+00  0.54523231860E+03  0.54523231860E+03  0.00000000000E+00 0.  1.
          1   -1    0    0  501    0  0.00000000000E+00 -0.00000000000E+00 -0.77172215313E+03  0.77172215313E+03  0.00000000000E+00 0. -1.
        -24    2    1    2    0    0 -0.29586839996E+03  0.15605772155E+03 -0.70404447384E+02  0.35235645189E+03  0.85476081003E+02 0.  0.
        254    2    1    2    0    0  0.29586839996E+03 -0.15605772155E+03 -0.15608538714E+03  0.96459801985E+03  0.89117594742E+03 0.  0.
         23    2    4    4    0    0  0.34967057307E+03  0.19662901326E+03  0.19517538997E+03  0.45559223867E+03  0.92403336301E+02 0.  0.
         23    2    4    4    0    0 -0.53802173110E+02 -0.35268673481E+03 -0.35126077712E+03  0.50900578118E+03  0.91761348017E+02 0.  0.
          3    1    3    3  502    0 -0.29682874011E+03  0.15321427443E+03 -0.78998788615E+02  0.34325314776E+03  0.00000000000E+00 0. -1.
         -4    1    3    3    0  502  0.96034015563E+00  0.28434471276E+01  0.85943412311E+01  0.91033041242E+01  0.00000000000E+00 0.  1.
         13    1    5    5    0    0  0.13878945658E+03  0.54221469458E+02  0.11682159572E+03  0.18934034497E+03  0.00000000000E+00 0.  1.
        -13    1    5    5    0    0  0.21088111649E+03  0.14240754380E+03  0.78353794252E+02  0.26625189370E+03  0.00000000000E+00 0. -1.
          4    1    6    6  503    0  0.19804255438E+02 -0.56963284711E+02 -0.34619690119E+02  0.69538099503E+02  0.00000000000E+00 0.  1.
         -4    1    6    6    0  503 -0.73606428548E+02 -0.29572345010E+03 -0.31664108700E+03  0.43946768167E+03  0.00000000000E+00 0. -1.
<mgrwt>
<rscale>  0 0.12973324E+04</rscale>
<asrwt>0</asrwt>
<pdfrwt beam="1">  1        1 0.11872649E+00 0.12973324E+04</pdfrwt>
<pdfrwt beam="2">  1       -2 0.83881895E-01 0.12973324E+04</pdfrwt>
<totfact> 0.25036713E+01</totfact>
</mgrwt>
</event>
<event>
12    5  0.5297412E-008  0.1821536E+04  0.7818608E-02  0.8694930E-01
         -2   -1    0    0    0  501 -0.00000000000E+00  0.00000000000E+00  0.10885364461E+04  0.10885364461E+04  0.00000000000E+00 0.  1.
          1   -1    0    0  501    0  0.00000000000E+00 -0.00000000000E+00 -0.76203082979E+03  0.76203082979E+03  0.00000000000E+00 0. -1.
        -24    2    1    2    0    0 -0.65710229965E+03  0.19169240124E+03  0.12871645477E+03  0.70112052845E+03  0.80452848247E+02 0.  0.
        254    2    1    2    0    0  0.65710229965E+03 -0.19169240124E+03  0.19778916153E+03  0.11494467474E+04  0.90198551201E+03 0.  0.
         23    2    4    4    0    0  0.63190014419E+03  0.13608085106E+03 -0.14289399158E+03  0.66777290927E+03  0.87670834808E+02 0.  0.
         23    2    4    4    0    0  0.25202155462E+02 -0.32777325230E+03  0.34068315311E+03  0.48167383817E+03  0.88736813090E+02 0.  0.
          3    1    3    3  502    0 -0.54624368760E+03  0.18150967653E+03  0.86571078923E+02  0.58208459920E+03  0.00000000000E+00 0. -1.
         -4    1    3    3    0  502 -0.11085861205E+03  0.10182724707E+02  0.42145375849E+02  0.11903592925E+03  0.00000000000E+00 0.  1.
         13    1    5    5    0    0  0.62452085540E+03  0.14446043523E+03 -0.13869655287E+03  0.65584437938E+03  0.00000000000E+00 0. -1.
        -13    1    5    5    0    0  0.73792887821E+01 -0.83795841646E+01 -0.41974387092E+01  0.11928529893E+02  0.00000000000E+00 0.  1.
          1    1    6    6  503    0  0.17563458741E+02 -0.33071957817E+03  0.33760203345E+03  0.47292604861E+03  0.00000000000E+00 0. -1.
         -1    1    6    6    0  503  0.76386967210E+01  0.29463258688E+01  0.30811196627E+01  0.87477895548E+01  0.00000000000E+00 0.  1.
<mgrwt>
<rscale>  0 0.18215360E+04</rscale>
<asrwt>0</asrwt>
<pdfrwt beam="1">  1        1 0.11723551E+00 0.18215360E+04</pdfrwt>
<pdfrwt beam="2">  1       -2 0.16746715E+00 0.18215360E+04</pdfrwt>
<totfact> 0.43772668E+00</totfact>
</mgrwt>
</event>
<event>
12    5  0.5297412E-008  0.2021770E+04  0.7818608E-02  0.8596509E-01
          1   -1    0    0  501    0  0.00000000000E+00  0.00000000000E+00  0.10441053831E+04  0.10441053831E+04  0.00000000000E+00 0. -1.
         -2   -1    0    0    0  501 -0.00000000000E+00 -0.00000000000E+00 -0.97872202958E+03  0.97872202958E+03  0.00000000000E+00 0.  1.
        -24    2    1    2    0    0  0.33892931870E+03 -0.84363471367E+02 -0.70019607091E+03  0.78644198907E+03  0.78906185336E+02 0.  0.
        254    2    1    2    0    0 -0.33892931870E+03  0.84363471367E+02  0.76557942444E+03  0.12363854236E+04  0.90584037349E+03 0.  0.
         23    2    4    4    0    0 -0.53161812551E+03  0.33430747230E+03  0.42520614719E+03  0.76385872704E+03  0.91107463223E+02 0.  0.
         23    2    4    4    0    0  0.19268880681E+03 -0.24994400093E+03  0.34037327726E+03  0.47252669659E+03  0.88467684747E+02 0.  0.
          1    1    3    3  502    0  0.76588314411E+02 -0.97371598494E+01 -0.93492506419E+02  0.12124945749E+03  0.00000000000E+00 0. -1.
         -2    1    3    3    0  502  0.26234100429E+03 -0.74626311518E+02 -0.60670356449E+03  0.66519253158E+03  0.00000000000E+00 0.  1.
         13    1    5    5    0    0 -0.42725007173E+03  0.30080785872E+03  0.32501630733E+03  0.61535647530E+03  0.00000000000E+00 0.  1.
        -13    1    5    5    0    0 -0.10436805378E+03  0.33499613578E+02  0.10018983986E+03  0.14850225174E+03  0.00000000000E+00 0. -1.
          1    1    6    6  503    0  0.19099497545E+02 -0.77142778226E+02  0.56050122850E+02  0.97249243238E+02  0.00000000000E+00 0. -1.
         -1    1    6    6    0  503  0.17358930926E+03 -0.17280122271E+03  0.28432315441E+03  0.37527745335E+03  0.00000000000E+00 0.  1.
<mgrwt>
<rscale>  0 0.20217705E+04</rscale>
<asrwt>0</asrwt>
<pdfrwt beam="1">  1        1 0.16063160E+00 0.20217705E+04</pdfrwt>
<pdfrwt beam="2">  1       -2 0.15057262E+00 0.20217705E+04</pdfrwt>
<totfact> 0.33670611E+00</totfact>
</mgrwt>
</event>
<event>
12    5  0.5297412E-008  0.1887333E+04  0.7818608E-02  0.8661187E-01
         -2   -1    0    0    0  501 -0.00000000000E+00  0.00000000000E+00  0.59948807523E+03  0.59948807523E+03  0.00000000000E+00 0.  1.
          1   -1    0    0  501    0  0.00000000000E+00 -0.00000000000E+00 -0.14854455671E+04  0.14854455671E+04  0.00000000000E+00 0. -1.
        -24    2    1    2    0    0 -0.39638545948E+03 -0.59082801652E+03 -0.17857651550E+03  0.73905139241E+03  0.90045605948E+02 0.  0.
        254    2    1    2    0    0  0.39638545948E+03  0.59082801652E+03 -0.70738097635E+03  0.13458822499E+04  0.89711315188E+03 0.  0.
         23    2    4    4    0    0 -0.23931566495E+03  0.39900056256E+03 -0.28855288730E+03  0.55508425585E+03  0.91555043055E+02 0.  0.
         23    2    4    4    0    0  0.63570112442E+03  0.19182745396E+03 -0.41882808905E+03  0.79079799404E+03  0.95030560962E+02 0.  0.
          3    1    3    3  502    0 -0.14302216496E+03 -0.18016355842E+03 -0.18991475281E+02  0.23081361222E+03  0.00000000000E+00 0. -1.
         -4    1    3    3    0  502 -0.25336329451E+03 -0.41066445809E+03 -0.15958504022E+03  0.50823778019E+03  0.00000000000E+00 0.  1.
         13    1    5    5    0    0 -0.19739025269E+03  0.31861319288E+03 -0.27156170606E+03  0.46284234760E+03  0.00000000000E+00 0.  1.
        -13    1    5    5    0    0 -0.41925412259E+02  0.80387369684E+02 -0.16991181239E+02  0.92241908250E+02  0.00000000000E+00 0. -1.
          1    1    6    6  503    0  0.19443769149E+03  0.10094319139E+03 -0.15923599580E+03  0.27083509026E+03  0.00000000000E+00 0. -1.
         -1    1    6    6    0  503  0.44126343293E+03  0.90884262571E+02 -0.25959209325E+03  0.51996290378E+03  0.00000000000E+00 0.  1.
<mgrwt>
<rscale>  0 0.18873335E+04</rscale>
<asrwt>0</asrwt>
<pdfrwt beam="1">  1        1 0.22853009E+00 0.18873335E+04</pdfrwt>
<pdfrwt beam="2">  1       -2 0.92228935E-01 0.18873335E+04</pdfrwt>
<totfact> 0.54961480E+00</totfact>
</mgrwt>
</event>
<event>
12    5  0.5297412E-008  0.1836578E+04  0.7818608E-02  0.8687086E-01
         -2   -1    0    0    0  501 -0.00000000000E+00  0.00000000000E+00  0.82317394203E+03  0.82317394203E+03  0.00000000000E+00 0.  1.
          1   -1    0    0  501    0  0.00000000000E+00 -0.00000000000E+00 -0.10243937605E+04  0.10243937605E+04  0.00000000000E+00 0. -1.
        -24    2    1    2    0    0 -0.70794019592E+02 -0.11665358132E+03 -0.75907708800E+03  0.77576744768E+03  0.83649603172E+02 0.  0.
        254    2    1    2    0    0  0.70794019592E+02  0.11665358132E+03  0.55785726955E+03  0.10718002548E+04  0.90494817631E+03 0.  0.
         23    2    4    4    0    0  0.91093695792E+01  0.36721077967E+03  0.67503868535E+03  0.77415424336E+03  0.93331819217E+02 0.  0.
         23    2    4    4    0    0  0.61684650013E+02 -0.25055719835E+03 -0.11718141580E+03  0.29764601146E+03  0.90982186372E+02 0.  0.
          3    1    3    3  502    0 -0.19907509110E+02 -0.10475914391E+03 -0.46367662455E+03  0.47578020062E+03  0.00000000000E+00 0. -1.
         -4    1    3    3    0  502 -0.50886510483E+02 -0.11894437407E+02 -0.29540046345E+03  0.29998724706E+03  0.00000000000E+00 0.  1.
         13    1    5    5    0    0 -0.21487900609E+02  0.32690029319E+03  0.56673095696E+03  0.65460637725E+03  0.00000000000E+00 0.  1.
        -13    1    5    5    0    0  0.30597270188E+02  0.40310486483E+02  0.10830772839E+03  0.11954786611E+03  0.00000000000E+00 0. -1.
          1    1    6    6  503    0  0.74465212740E+02 -0.11287831513E+03 -0.53722024009E+02  0.14550820527E+03  0.00000000000E+00 0. -1.
         -1    1    6    6    0  503 -0.12780562727E+02 -0.13767888322E+03 -0.63459391789E+02  0.15213780619E+03  0.00000000000E+00 0.  1.
<mgrwt>
<rscale>  0 0.18365775E+04</rscale>
<asrwt>0</asrwt>
<pdfrwt beam="1">  1        1 0.15759904E+00 0.18365775E+04</pdfrwt>
<pdfrwt beam="2">  1       -2 0.12664215E+00 0.18365775E+04</pdfrwt>
<totfact> 0.55417951E+00</totfact>
</mgrwt>
</event>
<event>
12    5  0.5297412E-008  0.1493914E+04  0.7818608E-02  0.8888510E-01
         -2   -1    0    0    0  501 -0.00000000000E+00  0.00000000000E+00  0.74531186138E+03  0.74531186138E+03  0.00000000000E+00 0.  1.
          1   -1    0    0  501    0  0.00000000000E+00 -0.00000000000E+00 -0.74860552486E+03  0.74860552486E+03  0.00000000000E+00 0. -1.
        -24    2    1    2    0    0 -0.27875581021E+03 -0.36593745052E+03  0.10094538193E+03  0.47789768656E+03  0.81124652668E+02 0.  0.
        254    2    1    2    0    0  0.27875581021E+03  0.36593745052E+03 -0.10423904540E+03  0.10160196997E+04  0.89989734533E+03 0.  0.
         23    2    4    4    0    0  0.53586016294E+03  0.46919738129E+03 -0.10383979232E+03  0.72456358477E+03  0.83170842623E+02 0.  0.
         23    2    4    4    0    0 -0.25710435273E+03 -0.10325993077E+03 -0.39925308441E+00  0.29145611491E+03  0.90450240567E+02 0.  0.
          1    1    3    3  502    0 -0.40762385397E+02 -0.76577859492E+02 -0.95726102912E+01  0.87277577277E+02  0.00000000000E+00 0. -1.
         -2    1    3    3    0  502 -0.23799342481E+03 -0.28935959103E+03  0.11051799222E+03  0.39062010929E+03  0.00000000000E+00 0.  1.
         13    1    5    5    0    0  0.97127238597E+02  0.89905161276E+02  0.12890243456E+02  0.13297667795E+03  0.00000000000E+00 0. -1.
        -13    1    5    5    0    0  0.43873292434E+03  0.37929222002E+03 -0.11673003577E+03  0.59158690682E+03  0.00000000000E+00 0.  1.
          3    1    6    6  503    0 -0.80471906118E+02 -0.78001243176E+02  0.11326266343E+02  0.11264193678E+03  0.00000000000E+00 0. -1.
         -3    1    6    6    0  503 -0.17663244661E+03 -0.25258687595E+02 -0.11725519427E+02  0.17881417813E+03  0.00000000000E+00 0.  1.
<mgrwt>
<rscale>  0 0.14939138E+04</rscale>
<asrwt>0</asrwt>
<pdfrwt beam="1">  1        1 0.11517008E+00 0.14939138E+04</pdfrwt>
<pdfrwt beam="2">  1       -2 0.11466336E+00 0.14939138E+04</pdfrwt>
<totfact> 0.12364004E+01</totfact>
</mgrwt>
</event>
<event>
12    5  0.5297412E-008  0.1684878E+04  0.7818608E-02  0.8770036E-01
          1   -1    0    0  501    0  0.00000000000E+00  0.00000000000E+00  0.17841014630E+04  0.17841014630E+04  0.00000000000E+00 0. -1.
         -2   -1    0    0    0  501 -0.00000000000E+00 -0.00000000000E+00 -0.39779316201E+03  0.39779316201E+03  0.00000000000E+00 0.  1.
        -24    2    1    2    0    0 -0.42997278781E+03 -0.22244889838E+03  0.95995435255E+03  0.10779578968E+04  0.78235271084E+02 0.  0.
        254    2    1    2    0    0  0.42997278781E+03  0.22244889838E+03  0.42635394847E+03  0.11039367283E+04  0.89584513168E+03 0.  0.
         23    2    4    4    0    0  0.49821789623E+03 -0.49821742472E+02  0.57936398089E+03  0.77118075945E+03  0.91399470702E+02 0.  0.
         23    2    4    4    0    0 -0.68245108417E+02  0.27227064085E+03 -0.15301003242E+03  0.33275596880E+03  0.92335085753E+02 0.  0.
          1    1    3    3  502    0 -0.21441825473E+03 -0.14999971369E+03  0.47420686925E+03  0.54161541421E+03  0.00000000000E+00 0. -1.
         -2    1    3    3    0  502 -0.21555453308E+03 -0.72449184689E+02  0.48574748330E+03  0.53634248259E+03  0.00000000000E+00 0.  1.
         13    1    5    5    0    0  0.23548646701E+03 -0.33074637963E+02  0.20776521057E+03  0.31577553823E+03  0.00000000000E+00 0.  1.
        -13    1    5    5    0    0  0.26273142922E+03 -0.16747104509E+02  0.37159877032E+03  0.45540522122E+03  0.00000000000E+00 0. -1.
          2    1    6    6  503    0 -0.72345323273E+02  0.19297954618E+03 -0.14696773660E+03  0.25312934766E+03  0.00000000000E+00 0.  1.
         -2    1    6    6    0  503  0.41002148562E+01  0.79291094673E+02 -0.60422958118E+01  0.79626621145E+02  0.00000000000E+00 0. -1.
<mgrwt>
<rscale>  0 0.16848779E+04</rscale>
<asrwt>0</asrwt>
<pdfrwt beam="1">  1        1 0.27447714E+00 0.16848779E+04</pdfrwt>
<pdfrwt beam="2">  1       -2 0.61198949E-01 0.16848779E+04</pdfrwt>
<totfact> 0.86763692E+00</totfact>
</mgrwt>
</event>
<event>
12    5  0.5297412E-008  0.1832807E+04  0.7818608E-02  0.8689045E-01
         -2   -1    0    0    0  501 -0.00000000000E+00  0.00000000000E+00  0.11903134595E+04  0.11903134595E+04  0.00000000000E+00 0.  1.
          1   -1    0    0  501    0  0.00000000000E+00 -0.00000000000E+00 -0.70552484168E+03  0.70552484168E+03  0.00000000000E+00 0. -1.
        -24    2    1    2    0    0  0.29030566957E+03 -0.77401171177E+02  0.83746516037E+03  0.89342974008E+03  0.81243353764E+02 0.  0.
        254    2    1    2    0    0 -0.29030566957E+03  0.77401171177E+02 -0.35267654256E+03  0.10024085611E+04  0.88891723833E+03 0.  0.
         23    2    4    4    0    0  0.12540297476E+03 -0.13790728961E+02  0.22818316899E+03  0.27654850266E+03  0.92170632134E+02 0.  0.
         23    2    4    4    0    0 -0.41570864433E+03  0.91191900138E+02 -0.58085971155E+03  0.72586005844E+03  0.91351958487E+02 0.  0.
          1    1    3    3  502    0  0.78442779468E+02 -0.24452489309E+02  0.13739115852E+03  0.16008599040E+03  0.00000000000E+00 0. -1.
         -2    1    3    3    0  502  0.21186289010E+03 -0.52948681868E+02  0.70007400185E+03  0.73334374967E+03  0.00000000000E+00 0.  1.
         13    1    5    5    0    0 -0.81179509133E+01 -0.63686505864E+01 -0.18372133021E+01  0.10480276239E+02  0.00000000000E+00 0.  1.
        -13    1    5    5    0    0  0.13352092567E+03 -0.74220783748E+01  0.23002038229E+03  0.26606822642E+03  0.00000000000E+00 0. -1.
          1    1    6    6  503    0 -0.32479695998E+03  0.92424977203E+02 -0.50471380348E+03  0.60726556386E+03  0.00000000000E+00 0. -1.
         -1    1    6    6    0  503 -0.90911684346E+02 -0.12330770649E+01 -0.76145908067E+02  0.11859449458E+03  0.00000000000E+00 0.  1.
<mgrwt>
<rscale>  0 0.18328074E+04</rscale>
<asrwt>0</asrwt>
<pdfrwt beam="1">  1        1 0.10854228E+00 0.18328074E+04</pdfrwt>
<pdfrwt beam="2">  1       -2 0.18312515E+00 0.18328074E+04</pdfrwt>
<totfact> 0.38256396E+00</totfact>
</mgrwt>
</event>
<event>
12    5  0.5297412E-008  0.1395684E+04  0.7818608E-02  0.8956949E-01
          1   -1    0    0  501    0  0.00000000000E+00  0.00000000000E+00  0.22113496810E+04  0.22113496810E+04  0.00000000000E+00 0. -1.
         -2   -1    0    0    0  501 -0.00000000000E+00 -0.00000000000E+00 -0.22021992390E+03  0.22021992390E+03  0.00000000000E+00 0.  1.
        -24    2    1    2    0    0  0.22461339788E+03  0.19045882697E+03  0.84271894515E+02  0.31783078247E+03  0.84787444864E+02 0.  0.
        254    2    1    2    0    0 -0.22461339788E+03 -0.19045882697E+03  0.19068578626E+04  0.21137388225E+04  0.86316809374E+03 0.  0.
         23    2    4    4    0    0 -0.43395568445E+03 -0.22673571523E+03  0.17813930837E+04  0.18497011751E+04  0.91139991099E+02 0.  0.
         23    2    4    4    0    0  0.20934228657E+03  0.36276888260E+02  0.12546477892E+03  0.26403764733E+03  0.93990759592E+02 0.  0.
          1    1    3    3  502    0  0.20708138668E+03  0.15827590527E+03  0.98338139069E+02  0.27857557770E+03  0.00000000000E+00 0. -1.
         -2    1    3    3    0  502  0.17532011202E+02  0.32182921699E+02 -0.14066244553E+02  0.39255204772E+02  0.00000000000E+00 0.  1.
         13    1    5    5    0    0 -0.42759762765E+03 -0.22977045347E+03  0.17750292722E+04  0.18402073551E+04  0.00000000000E+00 0. -1.
        -13    1    5    5    0    0 -0.63580567967E+01  0.30347382421E+01  0.63638114781E+01  0.94938200402E+01  0.00000000000E+00 0.  1.
          1    1    6    6  503    0  0.94947060528E+02  0.62477916981E+02  0.75723529106E+02  0.13657410909E+03  0.00000000000E+00 0. -1.
         -1    1    6    6    0  503  0.11439522604E+03 -0.26201028721E+02  0.49741249810E+02  0.12746353824E+03  0.00000000000E+00 0.  1.
<mgrwt>
<rscale>  0 0.13956837E+04</rscale>
<asrwt>0</asrwt>
<pdfrwt beam="1">  1        1 0.34020763E+00 0.13956837E+04</pdfrwt>
<pdfrwt beam="2">  1       -2 0.33879990E-01 0.13956837E+04</pdfrwt>
<totfact> 0.14966767E+01</totfact>
</mgrwt>
</event>
<event>
12    5  0.5297412E-008  0.1681980E+04  0.7818608E-02  0.8771709E-01
          1   -1    0    0  501    0  0.00000000000E+00  0.00000000000E+00  0.17632195088E+04  0.17632195088E+04  0.00000000000E+00 0. -1.
         -2   -1    0    0    0  501 -0.00000000000E+00 -0.00000000000E+00 -0.40112099142E+03  0.40112099142E+03  0.00000000000E+00 0.  1.
        -24    2    1    2    0    0 -0.45647688208E+03  0.18523210902E+03  0.93464701387E+03  0.10596531347E+04  0.81348923589E+02 0.  0.
        254    2    1    2    0    0  0.45647688208E+03 -0.18523210902E+03  0.42745150353E+03  0.11046873655E+04  0.89159256923E+03 0.  0.
         23    2    4    4    0    0  0.12441334095E+03 -0.46845008664E+03  0.72672619011E+01  0.49256435277E+03  0.87422339492E+02 0.  0.
         23    2    4    4    0    0  0.33206354112E+03  0.28321797762E+03  0.42018424162E+03  0.61212301271E+03  0.87528095973E+02 0.  0.
          1    1    3    3  502    0 -0.18821558892E+03  0.37552014865E+02  0.39556647767E+03  0.43966817032E+03  0.00000000000E+00 0. -1.
         -2    1    3    3    0  502 -0.26826129315E+03  0.14768009415E+03  0.53908053620E+03  0.61998496443E+03  0.00000000000E+00 0.  1.
         13    1    5    5    0    0  0.24390490797E+02 -0.10982490823E+03  0.38593279066E+02  0.11893631783E+03  0.00000000000E+00 0.  1.
        -13    1    5    5    0    0  0.10002285016E+03 -0.35862517841E+03 -0.31326017165E+02  0.37362803495E+03  0.00000000000E+00 0. -1.
          4    1    6    6  503    0  0.95300193728E+02  0.11304415276E+03  0.18933105858E+03  0.24022355659E+03  0.00000000000E+00 0. -1.
         -4    1    6    6    0  503  0.23676334740E+03  0.17017382487E+03  0.23085318304E+03  0.37189945612E+03  0.00000000000E+00 0.  1.
<mgrwt>
<rscale>  0 0.16819802E+04</rscale>
<asrwt>0</asrwt>
<pdfrwt beam="1">  1        1 0.27126453E+00 0.16819802E+04</pdfrwt>
<pdfrwt beam="2">  1       -2 0.61710923E-01 0.16819802E+04</pdfrwt>
<totfact> 0.88093320E+00</totfact>
</mgrwt>
</event>
<event>
12    5  0.5297412E-008  0.1760608E+04  0.7818608E-02  0.8727533E-01
          1   -1    0    0  501    0  0.00000000000E+00  0.00000000000E+00  0.15624999083E+04  0.15624999083E+04  0.00000000000E+00 0. -1.
         -2   -1    0    0    0  501 -0.00000000000E+00 -0.00000000000E+00 -0.49595861620E+03  0.49595861620E+03  0.00000000000E+00 0.  1.
        -24    2    1    2    0    0  0.20605009965E+02 -0.58342521022E+03  0.10599034775E+03  0.59938035135E+03  0.84931203968E+02 0.  0.
        254    2    1    2    0    0 -0.20605009965E+02  0.58342521022E+03  0.96055094438E+03  0.14590781732E+04  0.93029106003E+03 0.  0.
         23    2    4    4    0    0  0.41464860889E+03  0.97811835826E+02  0.44241906308E+03  0.62087767608E+03  0.90850631229E+02 0.  0.
         23    2    4    4    0    0 -0.43525361886E+03  0.48561337440E+03  0.51813188130E+03  0.83820049710E+03  0.94092320669E+02 0.  0.
          1    1    3    3  502    0 -0.85620533029E+01 -0.39047166914E+01  0.40270693445E+01  0.10235861308E+02  0.00000000000E+00 0. -1.
         -2    1    3    3    0  502  0.29167063267E+02 -0.57952049353E+03  0.10196327841E+03  0.58914449004E+03  0.00000000000E+00 0.  1.
         13    1    5    5    0    0  0.18671756672E+03  0.40017536226E+02  0.26342902708E+03  0.32536088461E+03  0.00000000000E+00 0.  1.
        -13    1    5    5    0    0  0.22793104218E+03  0.57794299600E+02  0.17899003600E+03  0.29551679147E+03  0.00000000000E+00 0. -1.
          3    1    6    6  503    0 -0.35069713549E+01  0.13375494372E+01  0.19700814738E+02  0.20055173595E+02  0.00000000000E+00 0. -1.
         -3    1    6    6    0  503 -0.43174664750E+03  0.48427582496E+03  0.49843106656E+03  0.81814532351E+03  0.00000000000E+00 0.  1.
<mgrwt>
<rscale>  0 0.17606082E+04</rscale>
<asrwt>0</asrwt>
<pdfrwt beam="1">  1        1 0.24038460E+00 0.17606082E+04</pdfrwt>
<pdfrwt beam="2">  1       -2 0.76301326E-01 0.17606082E+04</pdfrwt>
<totfact> 0.75621688E+00</totfact>
</mgrwt>
</event>
<event>
12    5  0.5297412E-008  0.2033269E+04  0.7818608E-02  0.8591222E-01
          1   -1    0    0  501    0  0.00000000000E+00  0.00000000000E+00  0.11205600641E+04  0.11205600641E+04  0.00000000000E+00 0. -1.
         -2   -1    0    0    0  501 -0.00000000000E+00 -0.00000000000E+00 -0.92234786243E+03  0.92234786243E+03  0.00000000000E+00 0.  1.
        -24    2    1    2    0    0  0.90615281978E+02  0.80298128555E+03 -0.40550035133E+02  0.81311813638E+03  0.80788143261E+02 0.  0.
        254    2    1    2    0    0 -0.90615281978E+02 -0.80298128555E+03  0.23876223677E+03  0.12297897901E+04  0.89575970432E+03 0.  0.
         23    2    4    4    0    0 -0.24129313170E+03 -0.50130556226E+03  0.53102648833E+03  0.77433677712E+03  0.89881427073E+02 0.  0.
         23    2    4    4    0    0  0.15067784973E+03 -0.30167572329E+03 -0.29226425156E+03  0.45545301299E+03  0.91142733588E+02 0.  0.
          3    1    3    3  502    0  0.10135319377E+03  0.61348984252E+03 -0.43196374524E+02  0.62330424637E+03  0.00000000000E+00 0. -1.
         -4    1    3    3    0  502 -0.10737911796E+02  0.18949144303E+03  0.26463393908E+01  0.18981389001E+03  0.00000000000E+00 0.  1.
         13    1    5    5    0    0 -0.14858139294E+02 -0.10080843563E+03  0.11970085000E+03  0.15719859570E+03  0.00000000000E+00 0. -1.
        -13    1    5    5    0    0 -0.22643499241E+03 -0.40049712663E+03  0.41132563833E+03  0.61713818142E+03  0.00000000000E+00 0.  1.
          3    1    6    6  503    0  0.40185052961E+02 -0.16006681719E+03 -0.10306177449E+03  0.19457120498E+03  0.00000000000E+00 0. -1.
         -3    1    6    6    0  503  0.11049279676E+03 -0.14160890610E+03 -0.18920247707E+03  0.26088180801E+03  0.00000000000E+00 0.  1.
<mgrwt>
<rscale>  0 0.20332695E+04</rscale>
<asrwt>0</asrwt>
<pdfrwt beam="1">  1        1 0.17239386E+00 0.20332695E+04</pdfrwt>
<pdfrwt beam="2">  1       -2 0.14189967E+00 0.20332695E+04</pdfrwt>
<totfact> 0.34418278E+00</totfact>
</mgrwt>
</event>
<event>
12    5  0.5297412E-008  0.1380717E+04  0.7818608E-02  0.8967896E-01
         -2   -1    0    0    0  501 -0.00000000000E+00  0.00000000000E+00  0.33497855878E+03  0.33497855878E+03  0.00000000000E+00 0.  1.
          1   -1    0    0  501    0  0.00000000000E+00 -0.00000000000E+00 -0.14227614901E+04  0.14227614901E+04  0.00000000000E+00 0. -1.
        -24    2    1    2    0    0 -0.17950738945E+03 -0.33976367954E+03 -0.19614351202E+03  0.43883878894E+03  0.80280412144E+02 0.  0.
        254    2    1    2    0    0  0.17950738945E+03  0.33976367954E+03 -0.89163941925E+03  0.13189012599E+04  0.89264630094E+03 0.  0.
         23    2    4    4    0    0  0.19966930441E+02  0.50880028110E+03 -0.93197686509E+03  0.10659615944E+04  0.91743333802E+02 0.  0.
         23    2    4    4    0    0  0.15954045900E+03 -0.16903660157E+03  0.40337445838E+02  0.25293966550E+03  0.91240528915E+02 0.  0.
          1    1    3    3  502    0 -0.75761621662E+02 -0.82054841056E+02 -0.81731672200E+02  0.13839395398E+03  0.00000000000E+00 0. -1.
         -2    1    3    3    0  502 -0.10374576778E+03 -0.25770883848E+03 -0.11441183982E+03  0.30044483496E+03  0.00000000000E+00 0.  1.
         13    1    5    5    0    0  0.38180881954E+02  0.46477534169E+03 -0.87647347867E+03  0.99281400917E+03  0.00000000000E+00 0.  1.
        -13    1    5    5    0    0 -0.18213951513E+02  0.44024939414E+02 -0.55503386418E+02  0.73147585224E+02  0.00000000000E+00 0. -1.
          1    1    6    6  503    0  0.16176484738E+03 -0.12609377535E+03  0.22310755461E+02  0.20631353770E+03  0.00000000000E+00 0. -1.
         -1    1    6    6    0  503 -0.22243883766E+01 -0.42942826218E+02  0.18026690376E+02  0.46626127795E+02  0.00000000000E+00 0.  1.
<mgrwt>
<rscale>  0 0.13807166E+04</rscale>
<asrwt>0</asrwt>
<pdfrwt beam="1">  1        1 0.21888638E+00 0.13807166E+04</pdfrwt>
<pdfrwt beam="2">  1       -2 0.51535163E-01 0.13807166E+04</pdfrwt>
<totfact> 0.22565613E+01</totfact>
</mgrwt>
</event>
<event>
12    5  0.5297412E-008  0.2307881E+04  0.7818608E-02  0.8474820E-01
          1   -1    0    0  501    0  0.00000000000E+00  0.00000000000E+00  0.14821701109E+04  0.14821701109E+04  0.00000000000E+00 0. -1.
         -2   -1    0    0    0  501 -0.00000000000E+00 -0.00000000000E+00 -0.89839822981E+03  0.89839822981E+03  0.00000000000E+00 0.  1.
        -24    2    1    2    0    0  0.70963480179E+03  0.23682558626E+03  0.88495328708E+03  0.11615268218E+04  0.79588486838E+02 0.  0.
        254    2    1    2    0    0 -0.70963480179E+03 -0.23682558626E+03 -0.30118140601E+03  0.12190415189E+04  0.91415757680E+03 0.  0.
         23    2    4    4    0    0 -0.61535373600E+03  0.77212391030E+02 -0.51964944256E+03  0.81422971451E+03  0.91172973546E+02 0.  0.
         23    2    4    4    0    0 -0.94281065795E+02 -0.31403797729E+03  0.21846803654E+03  0.40481180438E+03  0.92927624654E+02 0.  0.
          3    1    3    3  502    0  0.68345904436E+03  0.23018539143E+03  0.87197216572E+03  0.11315639785E+04  0.00000000000E+00 0. -1.
         -4    1    3    3    0  502  0.26175757435E+02  0.66401948312E+01  0.12981121358E+02  0.29962843263E+02  0.00000000000E+00 0.  1.
         13    1    5    5    0    0 -0.23516439387E+03 -0.11985986192E+02 -0.17496407960E+03  0.29335709495E+03  0.00000000000E+00 0. -1.
        -13    1    5    5    0    0 -0.38018934213E+03  0.89198377222E+02 -0.34468536296E+03  0.52087261956E+03  0.00000000000E+00 0.  1.
          3    1    6    6  503    0 -0.56740298751E+02 -0.54973779235E+02  0.52759628093E+02  0.95000822429E+02  0.00000000000E+00 0. -1.
         -3    1    6    6    0  503 -0.37540767044E+02 -0.25906419806E+03  0.16570840845E+03  0.30981098195E+03  0.00000000000E+00 0.  1.
<mgrwt>
<rscale>  0 0.23078813E+04</rscale>
<asrwt>0</asrwt>
<pdfrwt beam="1">  1        1 0.22802617E+00 0.23078813E+04</pdfrwt>
<pdfrwt beam="2">  1       -2 0.13821511E+00 0.23078813E+04</pdfrwt>
<totfact> 0.19821030E+00</totfact>
</mgrwt>
</event>
<event>
12    5  0.5297412E-008  0.1867265E+04  0.7818608E-02  0.8671324E-01
         -2   -1    0    0    0  501 -0.00000000000E+00  0.00000000000E+00  0.14844279117E+04  0.14844279117E+04  0.00000000000E+00 0.  1.
          1   -1    0    0  501    0  0.00000000000E+00 -0.00000000000E+00 -0.58720929401E+03  0.58720929401E+03  0.00000000000E+00 0. -1.
        -24    2    1    2    0    0 -0.26401551680E+03 -0.63737238345E+03  0.54152171154E+03  0.88073073732E+03  0.80579893830E+02 0.  0.
        254    2    1    2    0    0  0.26401551680E+03  0.63737238345E+03  0.35569690614E+03  0.11909064684E+04  0.90321103796E+03 0.  0.
         23    2    4    4    0    0 -0.27135535206E+03  0.49877288656E+03  0.20652963100E+03  0.61099240113E+03  0.90824590805E+02 0.  0.
         23    2    4    4    0    0  0.53537086886E+03  0.13859949689E+03  0.14916727514E+03  0.57991406725E+03  0.90651319130E+02 0.  0.
          3    1    3    3  502    0 -0.11385004771E+02 -0.31757754274E+02  0.71702271148E+01  0.34490367453E+02  0.00000000000E+00 0. -1.
         -4    1    3    3    0  502 -0.25263051203E+03 -0.60561462918E+03  0.53435148443E+03  0.84624036987E+03  0.00000000000E+00 0.  1.
         13    1    5    5    0    0 -0.27354379117E+03  0.49900347992E+03  0.19853369363E+03  0.60269918381E+03  0.00000000000E+00 0.  1.
        -13    1    5    5    0    0  0.21884391123E+01 -0.23059335348E+00  0.79959373753E+01  0.82932173222E+01  0.00000000000E+00 0. -1.
          1    1    6    6  503    0  0.84614155551E+02 -0.47300114703E+01  0.28114519946E+01  0.84792880541E+02  0.00000000000E+00 0. -1.
         -1    1    6    6    0  503  0.45075671331E+03  0.14332950836E+03  0.14635582315E+03  0.49512118671E+03  0.00000000000E+00 0.  1.
<mgrwt>
<rscale>  0 0.18672652E+04</rscale>
<asrwt>0</asrwt>
<pdfrwt beam="1">  1        1 0.90339892E-01 0.18672652E+04</pdfrwt>
<pdfrwt beam="2">  1       -2 0.22837352E+00 0.18672652E+04</pdfrwt>
<totfact> 0.25388047E+00</totfact>
</mgrwt>
</event>
<event>
12    5  0.5297412E-008  0.2074135E+04  0.7818608E-02  0.8572723E-01
         -2   -1    0    0    0  501 -0.00000000000E+00  0.00000000000E+00  0.64022975366E+03  0.64022975366E+03  0.00000000000E+00 0.  1.
          1   -1    0    0  501    0  0.00000000000E+00 -0.00000000000E+00 -0.16798800230E+04  0.16798800230E+04  0.00000000000E+00 0. -1.
        -24    2    1    2    0    0 -0.10862177212E+02  0.82182755284E+03 -0.63913848302E+03  0.10442376687E+04  0.80098656252E+02 0.  0.
        254    2    1    2    0    0  0.10862177212E+02 -0.82182755284E+03 -0.40051178636E+03  0.12758721080E+04  0.88989967494E+03 0.  0.
         23    2    4    4    0    0  0.75397158461E+02  0.85395395015E+02  0.14934344838E+03  0.20947162516E+03  0.92724275018E+02 0.  0.
         23    2    4    4    0    0 -0.64534981249E+02 -0.90722294786E+03 -0.54985523474E+03  0.10664004828E+04  0.87469821695E+02 0.  0.
          3    1    3    3  502    0 -0.29323739681E+02  0.39168613514E+03 -0.26466375468E+03  0.47362940493E+03  0.00000000000E+00 0. -1.
         -4    1    3    3    0  502  0.18461562468E+02  0.43014141770E+03 -0.37447472834E+03  0.57060826376E+03  0.00000000000E+00 0.  1.
         13    1    5    5    0    0  0.34178015019E+02  0.91631292684E+02  0.13209065865E+03  0.16435441160E+03  0.00000000000E+00 0.  1.
        -13    1    5    5    0    0  0.41219143442E+02 -0.62358976690E+01  0.17252789736E+02  0.45117213561E+02  0.00000000000E+00 0. -1.
          4    1    6    6  503    0 -0.80336371382E+01 -0.10861878891E+03 -0.10111182590E+03  0.14861420513E+03  0.00000000000E+00 0. -1.
         -4    1    6    6    0  503 -0.56501344111E+02 -0.79860415895E+03 -0.44874340884E+03  0.91778627771E+03  0.00000000000E+00 0.  1.
<mgrwt>
<rscale>  0 0.20741352E+04</rscale>
<asrwt>0</asrwt>
<pdfrwt beam="1">  1        1 0.25844308E+00 0.20741352E+04</pdfrwt>
<pdfrwt beam="2">  1       -2 0.98496886E-01 0.20741352E+04</pdfrwt>
<totfact> 0.34083024E+00</totfact>
</mgrwt>
</event>
<event>
12    5  0.5297412E-008  0.1259168E+04  0.7818608E-02  0.9062587E-01
          1   -1    0    0  501    0  0.00000000000E+00  0.00000000000E+00  0.66492788939E+03  0.66492788939E+03  0.00000000000E+00 0. -1.
         -2   -1    0    0    0  501 -0.00000000000E+00 -0.00000000000E+00 -0.59611854923E+03  0.59611854923E+03  0.00000000000E+00 0.  1.
        -24    2    1    2    0    0 -0.31894150463E+02  0.28940539968E+03  0.47715864750E+02  0.30566096699E+03  0.79869273142E+02 0.  0.
        254    2    1    2    0    0  0.31894150463E+02 -0.28940539968E+03  0.21093475406E+02  0.95538547163E+03  0.90969431267E+03 0.  0.
         23    2    4    4    0    0  0.10670805102E+03 -0.34206158429E+03  0.40601328315E+03  0.54854595592E+03  0.87539385816E+02 0.  0.
         23    2    4    4    0    0 -0.74813900552E+02  0.52656184612E+02 -0.38491980774E+03  0.40683951571E+03  0.94791031510E+02 0.  0.
          1    1    3    3  502    0 -0.35567520934E+02  0.18339301354E+03  0.65789360424E+02  0.19805626954E+03  0.00000000000E+00 0. -1.
         -4    1    3    3    0  502  0.36733704707E+01  0.10601238614E+03 -0.18073495674E+02  0.10760469744E+03  0.00000000000E+00 0.  1.
         13    1    5    5    0    0  0.58819084531E+02 -0.27852533445E+03  0.35046634221E+03  0.45151157644E+03  0.00000000000E+00 0. -1.
        -13    1    5    5    0    0  0.47888966484E+02 -0.63536249840E+02  0.55546940940E+02  0.97034379487E+02  0.00000000000E+00 0.  1.
          4    1    6    6  503    0 -0.30843045607E+02  0.73957526903E+02 -0.19703649178E+03  0.21270728323E+03  0.00000000000E+00 0. -1.
         -4    1    6    6    0  503 -0.43970854945E+02 -0.21301342291E+02 -0.18788331596E+03  0.19413223247E+03  0.00000000000E+00 0.  1.
<mgrwt>
<rscale>  0 0.12591677E+04</rscale>
<asrwt>0</asrwt>
<pdfrwt beam="1">  1        1 0.10229660E+00 0.12591677E+04</pdfrwt>
<pdfrwt beam="2">  1       -2 0.91710546E-01 0.12591677E+04</pdfrwt>
<totfact> 0.25706637E+01</totfact>
</mgrwt>
</event>
<event>
12    5  0.5297412E-008  0.1367801E+04  0.7818608E-02  0.8977461E-01
          1   -1    0    0  501    0  0.00000000000E+00  0.00000000000E+00  0.12869030528E+04  0.12869030528E+04  0.00000000000E+00 0. -1.
         -2   -1    0    0    0  501 -0.00000000000E+00 -0.00000000000E+00 -0.36344620325E+03  0.36344620325E+03  0.00000000000E+00 0.  1.
        -24    2    1    2    0    0  0.18848622270E+03 -0.32941318886E+03  0.34765397451E+03  0.52101354652E+03  0.80942723694E+02 0.  0.
        254    2    1    2    0    0 -0.18848622270E+03  0.32941318886E+03  0.57580287507E+03  0.11293357096E+04  0.89432102111E+03 0.  0.
         23    2    4    4    0    0  0.40318494692E+02 -0.14301243938E+03 -0.14932443061E+03  0.22941251001E+03  0.90852492211E+02 0.  0.
         23    2    4    4    0    0 -0.22880471739E+03  0.47242562825E+03  0.72512730569E+03  0.89992319955E+03  0.92274496488E+02 0.  0.
          3    1    3    3  502    0 -0.59352440756E+01 -0.30895594045E+02  0.34558134630E+02  0.46733601645E+02  0.00000000000E+00 0. -1.
         -4    1    3    3    0  502  0.19442146678E+03 -0.29851759482E+03  0.31309583988E+03  0.47427994487E+03  0.00000000000E+00 0.  1.
         13    1    5    5    0    0 -0.74890703939E+01  0.76603450715E+01 -0.28506861977E+02  0.30453378167E+02  0.00000000000E+00 0. -1.
        -13    1    5    5    0    0  0.47807565085E+02 -0.15067278445E+03 -0.12081756864E+03  0.19895913185E+03  0.00000000000E+00 0.  1.
          1    1    6    6  503    0 -0.70357486551E+02  0.76985032763E+02  0.10894436651E+03  0.15081692934E+03  0.00000000000E+00 0. -1.
         -1    1    6    6    0  503 -0.15844723084E+03  0.39544059548E+03  0.61618293918E+03  0.74910627020E+03  0.00000000000E+00 0.  1.
<mgrwt>
<rscale>  0 0.13678012E+04</rscale>
<asrwt>0</asrwt>
<pdfrwt beam="1">  1        1 0.19798508E+00 0.13678012E+04</pdfrwt>
<pdfrwt beam="2">  1       -2 0.55914801E-01 0.13678012E+04</pdfrwt>
<totfact> 0.23805884E+01</totfact>
</mgrwt>
</event>
<event>
12    5  0.5297412E-008  0.2219794E+04  0.7818608E-02  0.8510234E-01
         -2   -1    0    0    0  501 -0.00000000000E+00  0.00000000000E+00  0.19221985589E+04  0.19221985589E+04  0.00000000000E+00 0.  1.
          1   -1    0    0  501    0  0.00000000000E+00 -0.00000000000E+00 -0.64086591958E+03  0.64086591958E+03  0.00000000000E+00 0. -1.
        -24    2    1    2    0    0 -0.17896831889E+03  0.27715898464E+02  0.15855124624E+04  0.15977936892E+04  0.79354110062E+02 0.  0.
        254    2    1    2    0    0  0.17896831889E+03 -0.27715898464E+02 -0.30417982304E+03  0.96527078927E+03  0.89801141511E+03 0.  0.
         23    2    4    4    0    0  0.41716713635E+03  0.18094874272E+03  0.67160199305E+02  0.46874424487E+03  0.91868425380E+02 0.  0.
         23    2    4    4    0    0 -0.23819881746E+03 -0.20866464118E+03 -0.37134002234E+03  0.49652654440E+03  0.91463588263E+02 0.  0.
          1    1    3    3  502    0 -0.75967943712E+02  0.21007373062E+02  0.39321890645E+03  0.40104057972E+03  0.00000000000E+00 0. -1.
         -2    1    3    3    0  502 -0.10300037518E+03  0.67085254017E+01  0.11922935559E+04  0.11967531095E+04  0.00000000000E+00 0.  1.
         13    1    5    5    0    0  0.60911534598E+02  0.62091413531E+02 -0.13298752150E+01  0.86990385960E+02  0.00000000000E+00 0.  1.
        -13    1    5    5    0    0  0.35625560175E+03  0.11885732919E+03  0.68490074520E+02  0.38175385891E+03  0.00000000000E+00 0. -1.
          3    1    6    6  503    0 -0.13089453675E+03 -0.65134377623E+02 -0.20663294239E+03  0.25312652919E+03  0.00000000000E+00 0. -1.
         -3    1    6    6    0  503 -0.10730428072E+03 -0.14353026356E+03 -0.16470707996E+03  0.24340001521E+03  0.00000000000E+00 0.  1.
<mgrwt>
<rscale>  0 0.22197942E+04</rscale>
<asrwt>0</asrwt>
<pdfrwt beam="1">  1        1 0.98594758E-01 0.22197942E+04</pdfrwt>
<pdfrwt beam="2">  1       -2 0.29572285E+00 0.22197942E+04</pdfrwt>
<totfact> 0.83758323E-01</totfact>
</mgrwt>
</event>
<event>
12    5  0.5297412E-008  0.1265446E+04  0.7818608E-02  0.9057425E-01
          1   -1    0    0  501    0  0.00000000000E+00  0.00000000000E+00  0.51379536798E+03  0.51379536798E+03  0.00000000000E+00 0. -1.
         -2   -1    0    0    0  501 -0.00000000000E+00 -0.00000000000E+00 -0.77917806342E+03  0.77917806342E+03  0.00000000000E+00 0.  1.
        -24    2    1    2    0    0 -0.82478364221E+02  0.29222973206E+03 -0.10700748865E+03  0.33143981558E+03  0.78745487867E+02 0.  0.
        254    2    1    2    0    0  0.82478364221E+02 -0.29222973206E+03 -0.15837520679E+03  0.96153361582E+03  0.89847831992E+03 0.  0.
         23    2    4    4    0    0  0.15830024295E+03  0.29444389452E+03 -0.99259406372E+02  0.36045843796E+03  0.91223252553E+02 0.  0.
         23    2    4    4    0    0 -0.75821878729E+02 -0.58667362658E+03 -0.59115800419E+02  0.60107517786E+03  0.88666736474E+02 0.  0.
          1    1    3    3  502    0 -0.26713508432E+02  0.18193733231E+03 -0.31375205608E+02  0.18654545812E+03  0.00000000000E+00 0. -1.
         -2    1    3    3    0  502 -0.55764855789E+02  0.11029239976E+03 -0.75632283040E+02  0.14489435746E+03  0.00000000000E+00 0.  1.
         13    1    5    5    0    0  0.14971079895E+03  0.25404507737E+03 -0.55074322646E+02  0.29997567513E+03  0.00000000000E+00 0.  1.
        -13    1    5    5    0    0  0.85894440033E+01  0.40398817151E+02 -0.44185083726E+02  0.60482762829E+02  0.00000000000E+00 0. -1.
          2    1    6    6  503    0  0.14249226337E+02 -0.69685627751E+02  0.97786216790E+01  0.71796577970E+02  0.00000000000E+00 0. -1.
         -2    1    6    6    0  503 -0.90071105067E+02 -0.51698799883E+03 -0.68894422098E+02  0.52927859989E+03  0.00000000000E+00 0.  1.
<mgrwt>
<rscale>  0 0.12654455E+04</rscale>
<asrwt>0</asrwt>
<pdfrwt beam="1">  1        1 0.79045442E-01 0.12654455E+04</pdfrwt>
<pdfrwt beam="2">  1       -2 0.11987355E+00 0.12654455E+04</pdfrwt>
<totfact> 0.19569015E+01</totfact>
</mgrwt>
</event>
<event>
12    5  0.5297412E-008  0.1896661E+04  0.7818608E-02  0.8656520E-01
         -2   -1    0    0    0  501 -0.00000000000E+00  0.00000000000E+00  0.13106472131E+04  0.13106472131E+04  0.00000000000E+00 0.  1.
          1   -1    0    0  501    0  0.00000000000E+00 -0.00000000000E+00 -0.68617328995E+03  0.68617328995E+03  0.00000000000E+00 0. -1.
        -24    2    1    2    0    0  0.10119466210E+03  0.43505367310E+03 -0.36363495905E+03  0.58152310007E+03  0.80166541332E+02 0.  0.
        254    2    1    2    0    0 -0.10119466210E+03 -0.43505367310E+03  0.98810888216E+03  0.14152974029E+04  0.90950289590E+03 0.  0.
         23    2    4    4    0    0 -0.17089350130E+03 -0.57796656411E+03  0.10564047004E+04  0.12198271861E+04  0.93474782786E+02 0.  0.
         23    2    4    4    0    0  0.69698839200E+02  0.14291289101E+03 -0.68295818224E+02  0.19547021681E+03  0.90896998140E+02 0.  0.
          3    1    3    3  502    0  0.27865709071E+02  0.25661099897E+03 -0.23948474630E+03  0.35210601563E+03  0.00000000000E+00 0. -1.
         -2    1    3    3    0  502  0.73328953028E+02  0.17844267413E+03 -0.12415021275E+03  0.22941708443E+03  0.00000000000E+00 0.  1.
         13    1    5    5    0    0 -0.17977306878E+03 -0.57081589656E+03  0.10344252977E+04  0.11950668770E+04  0.00000000000E+00 0.  1.
        -13    1    5    5    0    0  0.88795674800E+01 -0.71506675514E+01  0.21979402708E+02  0.24760309135E+02  0.00000000000E+00 0. -1.
          1    1    6    6  503    0  0.60746112465E+02  0.30675753351E+02 -0.41583193446E+02  0.79751200621E+02  0.00000000000E+00 0. -1.
         -1    1    6    6    0  503  0.89527267349E+01  0.11223713765E+03 -0.26712624778E+02  0.11571901619E+03  0.00000000000E+00 0.  1.
<mgrwt>
<rscale>  0 0.18966614E+04</rscale>
<asrwt>0</asrwt>
<pdfrwt beam="1">  1        1 0.10556512E+00 0.18966614E+04</pdfrwt>
<pdfrwt beam="2">  1       -2 0.20163803E+00 0.18966614E+04</pdfrwt>
<totfact> 0.29844802E+00</totfact>
</mgrwt>
</event>
<event>
12    5  0.5297412E-008  0.1577286E+04  0.7818608E-02  0.8834625E-01
          1   -1    0    0  501    0  0.00000000000E+00  0.00000000000E+00  0.21101999449E+04  0.21101999449E+04  0.00000000000E+00 0. -1.
         -2   -1    0    0    0  501 -0.00000000000E+00 -0.00000000000E+00 -0.29473887087E+03  0.29473887087E+03  0.00000000000E+00 0.  1.
        -24    2    1    2    0    0  0.24307911011E+03 -0.47683765275E+03  0.73144430622E+03  0.90995143472E+03  0.80865565047E+02 0.  0.
        254    2    1    2    0    0 -0.24307911011E+03  0.47683765275E+03  0.10840167678E+04  0.14949873810E+04  0.87945057607E+03 0.  0.
         23    2    4    4    0    0 -0.25987813754E+03 -0.52199936697E+02 -0.51461045670E+01  0.28034086101E+03  0.91120997566E+02 0.  0.
         23    2    4    4    0    0  0.16799027429E+02  0.52903758944E+03  0.10891628724E+04  0.12146465200E+04  0.94485066090E+02 0.  0.
          3    1    3    3  502    0  0.11826359399E+03 -0.26607983077E+03  0.45918156999E+03  0.54372094702E+03  0.00000000000E+00 0. -1.
         -4    1    3    3    0  502  0.12481551612E+03 -0.21075782197E+03  0.27226273622E+03  0.36623048770E+03  0.00000000000E+00 0.  1.
         13    1    5    5    0    0 -0.10393929509E+03 -0.64651535707E+02 -0.16408682863E+02  0.12350078140E+03  0.00000000000E+00 0. -1.
        -13    1    5    5    0    0 -0.15593884244E+03  0.12451599010E+02  0.11262578296E+02  0.15684007960E+03  0.00000000000E+00 0.  1.
          3    1    6    6  503    0 -0.21140058139E+01  0.50078369429E+03  0.10460053560E+04  0.11597051273E+04  0.00000000000E+00 0. -1.
         -3    1    6    6    0  503  0.18913033243E+02  0.28253895152E+02  0.43157516420E+02  0.54941392786E+02  0.00000000000E+00 0.  1.
<mgrwt>
<rscale>  0 0.15772862E+04</rscale>
<asrwt>0</asrwt>
<pdfrwt beam="1">  1        1 0.32464614E+00 0.15772862E+04</pdfrwt>
<pdfrwt beam="2">  1       -2 0.45344443E-01 0.15772862E+04</pdfrwt>
<totfact> 0.97703559E+00</totfact>
</mgrwt>
</event>
<event>
12    5  0.5297412E-008  0.1709907E+04  0.7818608E-02  0.8755734E-01
          1   -1    0    0  501    0  0.00000000000E+00  0.00000000000E+00  0.13583044092E+04  0.13583044092E+04  0.00000000000E+00 0. -1.
         -2   -1    0    0    0  501 -0.00000000000E+00 -0.00000000000E+00 -0.53813077093E+03  0.53813077093E+03  0.00000000000E+00 0.  1.
        -24    2    1    2    0    0 -0.51068531545E+03  0.46598905068E+02  0.67378350688E+03  0.85042210892E+03  0.79136589736E+02 0.  0.
        254    2    1    2    0    0  0.51068531545E+03 -0.46598905068E+02  0.14639013143E+03  0.10460130713E+04  0.89985683600E+03 0.  0.
         23    2    4    4    0    0  0.68255665967E+03  0.19839740610E+03  0.15655725451E+03  0.73349737495E+03  0.90901599072E+02 0.  0.
         23    2    4    4    0    0 -0.17187134422E+03 -0.24499631117E+03 -0.10167123074E+02  0.31251569630E+03  0.89441257774E+02 0.  0.
          3    1    3    3  502    0 -0.40763927589E+03  0.58838123355E+02  0.57387105362E+03  0.70637078804E+03  0.00000000000E+00 0. -1.
         -4    1    3    3    0  502 -0.10304603956E+03 -0.12239218287E+02  0.99912453257E+02  0.14405132088E+03  0.00000000000E+00 0.  1.
         13    1    5    5    0    0  0.39821330205E+03  0.14200129548E+03  0.13044715122E+03  0.44244170363E+03  0.00000000000E+00 0. -1.
        -13    1    5    5    0    0  0.28434335762E+03  0.56396110622E+02  0.26110103287E+02  0.29105567133E+03  0.00000000000E+00 0.  1.
          4    1    6    6  503    0 -0.11846679676E+03 -0.19958836872E+03 -0.41418618809E+02  0.23576556332E+03  0.00000000000E+00 0. -1.
         -4    1    6    6    0  503 -0.53404547465E+02 -0.45407942447E+02  0.31251495735E+02  0.76750132983E+02  0.00000000000E+00 0.  1.
<mgrwt>
<rscale>  0 0.17099069E+04</rscale>
<asrwt>0</asrwt>
<pdfrwt beam="1">  1        1 0.20896991E+00 0.17099069E+04</pdfrwt>
<pdfrwt beam="2">  1       -2 0.82789350E-01 0.17099069E+04</pdfrwt>
<totfact> 0.87736641E+00</totfact>
</mgrwt>
</event>
<event>
12    5  0.5297412E-008  0.1270846E+04  0.7818608E-02  0.9053010E-01
          1   -1    0    0  501    0  0.00000000000E+00  0.00000000000E+00  0.78596767999E+03  0.78596767999E+03  0.00000000000E+00 0. -1.
         -2   -1    0    0    0  501 -0.00000000000E+00 -0.00000000000E+00 -0.51371365820E+03  0.51371365820E+03  0.00000000000E+00 0.  1.
        -24    2    1    2    0    0  0.53716512332E+02  0.29567658606E+03  0.56453841110E+02  0.31583635049E+03  0.79091446265E+02 0.  0.
        254    2    1    2    0    0 -0.53716512332E+02 -0.29567658606E+03  0.21580018068E+03  0.98384498770E+03  0.91163102986E+03 0.  0.
         23    2    4    4    0    0 -0.46976980098E+03 -0.14238713506E+03  0.45055250411E+02  0.50100704422E+03  0.89556242823E+02 0.  0.
         23    2    4    4    0    0  0.41605328865E+03 -0.15328945100E+03  0.17074493027E+03  0.48283794348E+03  0.85910730808E+02 0.  0.
          1    1    3    3  502    0 -0.84375782152E+01  0.27252389162E+00 -0.11423112479E+01  0.85189125126E+01  0.00000000000E+00 0. -1.
         -2    1    3    3    0  502  0.62154090547E+02  0.29540406217E+03  0.57596152358E+02  0.30731743798E+03  0.00000000000E+00 0.  1.
         13    1    5    5    0    0 -0.20012525110E+03 -0.55218864537E+02 -0.24969016938E+02  0.20909971529E+03  0.00000000000E+00 0. -1.
        -13    1    5    5    0    0 -0.26964454988E+03 -0.87168270527E+02  0.70024267349E+02  0.29190732894E+03  0.00000000000E+00 0.  1.
          4    1    6    6  503    0  0.25481309215E+03 -0.67905349727E+02  0.63657709648E+02  0.27128057883E+03  0.00000000000E+00 0.  1.
         -4    1    6    6    0  503  0.16124019649E+03 -0.85384101270E+02  0.10708722062E+03  0.21155736464E+03  0.00000000000E+00 0. -1.
<mgrwt>
<rscale>  0 0.12708459E+04</rscale>
<asrwt>0</asrwt>
<pdfrwt beam="1">  1        1 0.12091811E+00 0.12708459E+04</pdfrwt>
<pdfrwt beam="2">  1       -2 0.79032870E-01 0.12708459E+04</pdfrwt>
<totfact> 0.27878678E+01</totfact>
</mgrwt>
</event>
<event>
12    5  0.5297412E-008  0.1326911E+04  0.7818608E-02  0.9008492E-01
         -2   -1    0    0    0  501 -0.00000000000E+00  0.00000000000E+00  0.45789069019E+03  0.45789069019E+03  0.00000000000E+00 0.  1.
          1   -1    0    0  501    0  0.00000000000E+00 -0.00000000000E+00 -0.96130699283E+03  0.96130699283E+03  0.00000000000E+00 0. -1.
        -24    2    1    2    0    0 -0.14359237127E+03 -0.11014877524E+02 -0.48404651588E+03  0.51130936538E+03  0.79975877449E+02 0.  0.
        254    2    1    2    0    0  0.14359237127E+03  0.11014877524E+02 -0.19369786755E+02  0.90788831764E+03  0.89618408380E+03 0.  0.
         23    2    4    4    0    0 -0.31323805824E+03  0.14553818339E+03 -0.17564984512E+03  0.39816478860E+03  0.91558106314E+02 0.  0.
         23    2    4    4    0    0  0.45683042951E+03 -0.13452330586E+03  0.15628005837E+03  0.50972352904E+03  0.92758063113E+02 0.  0.
          1    1    3    3  502    0 -0.73656734466E+02 -0.16429685401E+02 -0.36841754125E+03  0.37606745910E+03  0.00000000000E+00 0. -1.
         -2    1    3    3    0  502 -0.69935636800E+02  0.54148078770E+01 -0.11562897463E+03  0.13524190628E+03  0.00000000000E+00 0.  1.
         13    1    5    5    0    0 -0.27778118817E+02  0.43978524508E+02 -0.10412204894E+02  0.53048548648E+02  0.00000000000E+00 0.  1.
        -13    1    5    5    0    0 -0.28545993943E+03  0.10155965888E+03 -0.16523764023E+03  0.34511623995E+03  0.00000000000E+00 0. -1.
          2    1    6    6  503    0  0.40258359510E+03 -0.88343989942E+02  0.11736630436E+03  0.42854761812E+03  0.00000000000E+00 0. -1.
         -2    1    6    6    0  503  0.54246834409E+02 -0.46179315920E+02  0.38913754014E+02  0.81175910920E+02  0.00000000000E+00 0.  1.
<mgrwt>
<rscale>  0 0.13269115E+04</rscale>
<asrwt>0</asrwt>
<pdfrwt beam="1">  1        1 0.14789338E+00 0.13269115E+04</pdfrwt>
<pdfrwt beam="2">  1       -2 0.70444722E-01 0.13269115E+04</pdfrwt>
<totfact> 0.25583574E+01</totfact>
</mgrwt>
</event>
<event>
12    5  0.5297412E-008  0.2044638E+04  0.7818608E-02  0.8586031E-01
          1   -1    0    0  501    0  0.00000000000E+00  0.00000000000E+00  0.99436312438E+03  0.99436312438E+03  0.00000000000E+00 0. -1.
         -2   -1    0    0    0  501 -0.00000000000E+00 -0.00000000000E+00 -0.10510606170E+04  0.10510606170E+04  0.00000000000E+00 0.  1.
        -24    2    1    2    0    0 -0.81981157641E+03  0.36842723765E+02 -0.23940722715E+01  0.82515533904E+03  0.86181174640E+02 0.  0.
        254    2    1    2    0    0  0.81981157641E+03 -0.36842723765E+02 -0.54303420338E+02  0.12202684023E+04  0.90147529369E+03 0.  0.
         23    2    4    4    0    0  0.98292906630E+03 -0.10385011033E+03 -0.14459347221E+03  0.10027591501E+04  0.87659832373E+02 0.  0.
         23    2    4    4    0    0 -0.16311748989E+03  0.67007386565E+02  0.90290051867E+02  0.21750925217E+03  0.89781267265E+02 0.  0.
          3    1    3    3  502    0 -0.50906708119E+03 -0.67028083077E+01  0.28167322168E+02  0.50988981048E+03  0.00000000000E+00 0. -1.
         -4    1    3    3    0  502 -0.31074449522E+03  0.43545532073E+02 -0.30561394440E+02  0.31526552857E+03  0.00000000000E+00 0.  1.
         13    1    5    5    0    0  0.90102977969E+03 -0.11813950550E+03 -0.14033403439E+03  0.91951359307E+03  0.00000000000E+00 0. -1.
        -13    1    5    5    0    0  0.81899286612E+02  0.14289395172E+02 -0.42594378198E+01  0.83245557074E+02  0.00000000000E+00 0.  1.
          1    1    6    6  503    0 -0.82914470798E-01  0.21454574504E+02  0.31898634382E+02  0.38442535262E+02  0.00000000000E+00 0. -1.
         -1    1    6    6    0  503 -0.16303457542E+03  0.45552812062E+02  0.58391417485E+02  0.17906671691E+03  0.00000000000E+00 0.  1.
<mgrwt>
<rscale>  0 0.20446378E+04</rscale>
<asrwt>0</asrwt>
<pdfrwt beam="1">  1        1 0.15297894E+00 0.20446378E+04</pdfrwt>
<pdfrwt beam="2">  1       -2 0.16170163E+00 0.20446378E+04</pdfrwt>
<totfact> 0.30300157E+00</totfact>
</mgrwt>
</event>
<event>
12    5  0.5297412E-008  0.2309545E+04  0.7818608E-02  0.8474167E-01
          1   -1    0    0  501    0  0.00000000000E+00  0.00000000000E+00  0.15614951179E+04  0.15614951179E+04  0.00000000000E+00 0. -1.
         -2   -1    0    0    0  501 -0.00000000000E+00 -0.00000000000E+00 -0.85398889843E+03  0.85398889843E+03  0.00000000000E+00 0.  1.
        -24    2    1    2    0    0 -0.29131888457E+03 -0.90967091300E+03  0.50395878759E+03  0.10826129250E+04  0.75554107885E+02 0.  0.
        254    2    1    2    0    0  0.29131888457E+03  0.90967091300E+03  0.20354743189E+03  0.13328710914E+04  0.90705343102E+03 0.  0.
         23    2    4    4    0    0  0.13252784611E+03  0.14395983159E+03 -0.32102986517E+03  0.38692726367E+03  0.91457476088E+02 0.  0.
         23    2    4    4    0    0  0.15879103847E+03  0.76571108141E+03  0.52457729706E+03  0.94594382771E+03  0.90001836033E+02 0.  0.
          3    1    3    3  502    0 -0.29562385389E+03 -0.89986035306E+03  0.49544441431E+03  0.10689281013E+04  0.00000000000E+00 0. -1.
         -4    1    3    3    0  502  0.43049693118E+01 -0.98105599421E+01  0.85143732818E+01  0.13684823694E+02  0.00000000000E+00 0.  1.
         13    1    5    5    0    0  0.14530840112E+03  0.14158445647E+03 -0.30451636148E+03  0.36591106045E+03  0.00000000000E+00 0.  1.
        -13    1    5    5    0    0 -0.12780555017E+02  0.23753751192E+01 -0.16513503694E+02  0.21016203219E+02  0.00000000000E+00 0. -1.
          3    1    6    6  503    0  0.27393769767E+02  0.13325525169E+03  0.52297707904E+02  0.14574783352E+03  0.00000000000E+00 0. -1.
         -3    1    6    6    0  503  0.13139726870E+03  0.63245582972E+03  0.47227958916E+03  0.80019599419E+03  0.00000000000E+00 0.  1.
<mgrwt>
<rscale>  0 0.23095450E+04</rscale>
<asrwt>0</asrwt>
<pdfrwt beam="1">  1        1 0.24023002E+00 0.23095450E+04</pdfrwt>
<pdfrwt beam="2">  1       -2 0.13138291E+00 0.23095450E+04</pdfrwt>
<totfact> 0.19887353E+00</totfact>
</mgrwt>
</event>
<event>
12    5  0.5297412E-008  0.1151257E+04  0.7818608E-02  0.9156625E-01
         -2   -1    0    0    0  501 -0.00000000000E+00  0.00000000000E+00  0.26883079300E+03  0.26883079300E+03  0.00000000000E+00 0.  1.
          1   -1    0    0  501    0  0.00000000000E+00 -0.00000000000E+00 -0.12325521475E+04  0.12325521475E+04  0.00000000000E+00 0. -1.
        -24    2    1    2    0    0 -0.13799716675E+03  0.16342202995E+03 -0.25736589156E+03  0.34409771860E+03  0.80100311502E+02 0.  0.
        254    2    1    2    0    0  0.13799716675E+03 -0.16342202995E+03 -0.70635546295E+03  0.11572852219E+04  0.89141520455E+03 0.  0.
         23    2    4    4    0    0  0.83474289982E+02 -0.91346805087E+02  0.19422564896E+03  0.24742004361E+03  0.90448213785E+02 0.  0.
         23    2    4    4    0    0  0.54522876768E+02 -0.72075224862E+02 -0.90058111191E+03  0.90986517830E+03  0.92955480844E+02 0.  0.
          1    1    3    3  502    0 -0.51470725138E+02  0.10205485129E+03 -0.17831493137E+03  0.21180331198E+03  0.00000000000E+00 0. -1.
         -2    1    3    3    0  502 -0.86526441612E+02  0.61367178663E+02 -0.79050960191E+02  0.13229440662E+03  0.00000000000E+00 0.  1.
         13    1    5    5    0    0  0.17561766826E+02 -0.40086325539E+02  0.14279872132E+03  0.14935462484E+03  0.00000000000E+00 0. -1.
        -13    1    5    5    0    0  0.65912523156E+02 -0.51260479548E+02  0.51426927643E+02  0.98065418773E+02  0.00000000000E+00 0.  1.
          1    1    6    6  503    0  0.77009264105E+02 -0.33329462887E+02 -0.53312569563E+03  0.53968906529E+03  0.00000000000E+00 0. -1.
         -1    1    6    6    0  503 -0.22486387337E+02 -0.38745761974E+02 -0.36745541628E+03  0.37017611301E+03  0.00000000000E+00 0.  1.
<mgrwt>
<rscale>  0 0.11512567E+04</rscale>
<asrwt>0</asrwt>
<pdfrwt beam="1">  1        1 0.18962341E+00 0.11512567E+04</pdfrwt>
<pdfrwt beam="2">  1       -2 0.41358584E-01 0.11512567E+04</pdfrwt>
<totfact> 0.48789951E+01</totfact>
</mgrwt>
</event>
<event>
12    5  0.5297412E-008  0.1480204E+04  0.7818608E-02  0.8897725E-01
          1   -1    0    0  501    0  0.00000000000E+00  0.00000000000E+00  0.12808460846E+04  0.12808460846E+04  0.00000000000E+00 0. -1.
         -2   -1    0    0    0  501 -0.00000000000E+00 -0.00000000000E+00 -0.42764765447E+03  0.42764765447E+03  0.00000000000E+00 0.  1.
        -24    2    1    2    0    0  0.32764868829E+03  0.32484220766E+03  0.22489513815E+03  0.51939394267E+03  0.79474031660E+02 0.  0.
        254    2    1    2    0    0 -0.32764868829E+03 -0.32484220766E+03  0.62830329194E+03  0.11890997963E+04  0.89795165582E+03 0.  0.
         23    2    4    4    0    0 -0.10178121785E+02  0.27951122365E+03  0.68642868187E+02  0.30168863595E+03  0.89855836735E+02 0.  0.
         23    2    4    4    0    0 -0.31747056651E+03 -0.60435343131E+03  0.55966042375E+03  0.88741116040E+03  0.90819310416E+02 0.  0.
          3    1    3    3  502    0  0.13693255313E+03  0.11780807544E+03  0.12919390554E+03  0.22208181370E+03  0.00000000000E+00 0. -1.
         -4    1    3    3    0  502  0.19071613516E+03  0.20703413222E+03  0.95701232604E+02  0.29731212898E+03  0.00000000000E+00 0.  1.
         13    1    5    5    0    0  0.20864985334E+01  0.21981902407E+03  0.89398638763E+02  0.23731176420E+03  0.00000000000E+00 0.  1.
        -13    1    5    5    0    0 -0.12264620318E+02  0.59692199588E+02 -0.20755770575E+02  0.64376871743E+02  0.00000000000E+00 0. -1.
          4    1    6    6  503    0 -0.10772829535E+03 -0.13638454382E+03  0.11265392897E+03  0.20711599919E+03  0.00000000000E+00 0.  1.
         -4    1    6    6    0  503 -0.20974227116E+03 -0.46796888750E+03  0.44700649479E+03  0.68029516121E+03  0.00000000000E+00 0. -1.
<mgrwt>
<rscale>  0 0.14802038E+04</rscale>
<asrwt>0</asrwt>
<pdfrwt beam="1">  1        1 0.19705324E+00 0.14802038E+04</pdfrwt>
<pdfrwt beam="2">  1       -2 0.65791947E-01 0.14802038E+04</pdfrwt>
<totfact> 0.16876459E+01</totfact>
</mgrwt>
</event>
<event>
12    5  0.5297412E-008  0.1377898E+04  0.7818608E-02  0.8969974E-01
          1   -1    0    0  501    0  0.00000000000E+00  0.00000000000E+00  0.51090907417E+03  0.51090907417E+03  0.00000000000E+00 0. -1.
         -2   -1    0    0    0  501 -0.00000000000E+00 -0.00000000000E+00 -0.92903228552E+03  0.92903228552E+03  0.00000000000E+00 0.  1.
        -24    2    1    2    0    0 -0.70592014286E+02  0.47753446959E+02 -0.44756906099E+03  0.46829706179E+03  0.10826102508E+03 0.  0.
        254    2    1    2    0    0  0.70592014286E+02 -0.47753446959E+02  0.29445849629E+02  0.97164429790E+03  0.96745126979E+03 0.  0.
         23    2    4    4    0    0 -0.41932362390E+03 -0.15920442608E+03 -0.27139923403E+02  0.45855937831E+03  0.91442753382E+02 0.  0.
         23    2    4    4    0    0  0.48991563819E+03  0.11145097912E+03  0.56585773032E+02  0.51308491960E+03  0.87267013928E+02 0.  0.
          1    1    3    3  502    0 -0.11867978021E+02 -0.34336019894E+02 -0.13723911175E+03  0.14196614018E+03  0.00000000000E+00 0. -1.
         -2    1    3    3    0  502 -0.58724036265E+02  0.82089466853E+02 -0.31032994924E+03  0.32633092161E+03  0.00000000000E+00 0.  1.
         13    1    5    5    0    0 -0.41515901592E+03 -0.15299764002E+03 -0.39395736672E+02  0.44420413147E+03  0.00000000000E+00 0.  1.
        -13    1    5    5    0    0 -0.41646079861E+01 -0.62067860619E+01  0.12255813269E+02  0.14355246838E+02  0.00000000000E+00 0. -1.
          1    1    6    6  503    0  0.32425342346E+02  0.21470456062E+02 -0.14374398280E+02  0.41460904907E+02  0.00000000000E+00 0. -1.
         -1    1    6    6    0  503  0.45749029584E+03  0.89980523057E+02  0.70960171313E+02  0.47162401469E+03  0.00000000000E+00 0.  1.
<mgrwt>
<rscale>  0 0.13778984E+04</rscale>
<asrwt>0</asrwt>
<pdfrwt beam="1">  1        1 0.78601396E-01 0.13778984E+04</pdfrwt>
<pdfrwt beam="2">  1       -2 0.14292804E+00 0.13778984E+04</pdfrwt>
<totfact> 0.12494260E+01</totfact>
</mgrwt>
</event>
<event>
12    5  0.5297412E-008  0.1461561E+04  0.7818608E-02  0.8910424E-01
         -2   -1    0    0    0  501 -0.00000000000E+00  0.00000000000E+00  0.15835676862E+03  0.15835676862E+03  0.00000000000E+00 0.  1.
          1   -1    0    0  501    0  0.00000000000E+00 -0.00000000000E+00 -0.33723864927E+04  0.33723864927E+04  0.00000000000E+00 0. -1.
        -24    2    1    2    0    0  0.91275396412E+02 -0.10460458787E+03 -0.20148339501E+04  0.20213273033E+04  0.83276063212E+02 0.  0.
        254    2    1    2    0    0 -0.91275396412E+02  0.10460458787E+03 -0.11991957740E+04  0.15094159580E+04  0.90608648167E+03 0.  0.
         23    2    4    4    0    0 -0.26777032927E+03 -0.15270375883E+03 -0.11329152857E+04  0.11777408363E+04  0.92504300787E+02 0.  0.
         23    2    4    4    0    0  0.17649493286E+03  0.25730834670E+03 -0.66280488223E+02  0.33167512171E+03  0.90869338278E+02 0.  0.
          3    1    3    3  502    0  0.84623358399E+02 -0.43851060895E+02 -0.14674749215E+04  0.14705667865E+04  0.00000000000E+00 0. -1.
         -4    1    3    3    0  502  0.66520380123E+01 -0.60753526975E+02 -0.54735902863E+03  0.55076051680E+03  0.00000000000E+00 0.  1.
         13    1    5    5    0    0 -0.27181342846E+03 -0.14371643494E+03 -0.10455617664E+04  0.10898331803E+04  0.00000000000E+00 0.  1.
        -13    1    5    5    0    0  0.40430991947E+01 -0.89873238885E+01 -0.87353519346E+02  0.87907656002E+02  0.00000000000E+00 0. -1.
          2    1    6    6  503    0 -0.87528688111E+01  0.32460332373E+02 -0.53810328139E+01  0.34047634342E+02  0.00000000000E+00 0. -1.
         -2    1    6    6    0  503  0.18524780167E+03  0.22484801432E+03 -0.60899455409E+02  0.29762748737E+03  0.00000000000E+00 0.  1.
<mgrwt>
<rscale>  0 0.14615611E+04</rscale>
<asrwt>0</asrwt>
<pdfrwt beam="1">  1        1 0.51882867E+00 0.14615611E+04</pdfrwt>
<pdfrwt beam="2">  1       -2 0.24362581E-01 0.14615611E+04</pdfrwt>
<totfact> 0.40704772E+00</totfact>
</mgrwt>
</event>
<event>
12    5  0.5297412E-008  0.1590920E+04  0.7818608E-02  0.8826146E-01
          1   -1    0    0  501    0  0.00000000000E+00  0.00000000000E+00  0.73001717180E+03  0.73001717180E+03  0.00000000000E+00 0. -1.
         -2   -1    0    0    0  501 -0.00000000000E+00 -0.00000000000E+00 -0.86676913217E+03  0.86676913217E+03  0.00000000000E+00 0.  1.
        -24    2    1    2    0    0 -0.11250132818E+03  0.50855480997E+03  0.85428132010E+02  0.53393250251E+03  0.80631308515E+02 0.  0.
        254    2    1    2    0    0  0.11250132818E+03 -0.50855480997E+03 -0.22218009238E+03  0.10628538014E+04  0.89944964629E+03 0.  0.
         23    2    4    4    0    0 -0.24266908202E+02 -0.62369524751E+03 -0.43720722885E+03  0.76746601243E+03  0.90935552275E+02 0.  0.
         23    2    4    4    0    0  0.13676823638E+03  0.11514043754E+03  0.21502713648E+03  0.29538778902E+03  0.95154640670E+02 0.  0.
          3    1    3    3  502    0 -0.98883903318E+01  0.19616439691E+01  0.30170554568E+01  0.10522876700E+02  0.00000000000E+00 0. -1.
         -4    1    3    3    0  502 -0.10261293785E+03  0.50659316600E+03  0.82411076553E+02  0.52340962581E+03  0.00000000000E+00 0.  1.
         13    1    5    5    0    0 -0.24477935148E+02 -0.13647367395E+03 -0.13845357708E+03  0.19594291515E+03  0.00000000000E+00 0.  1.
        -13    1    5    5    0    0  0.21102694624E+00 -0.48722157356E+03 -0.29875365177E+03  0.57152309728E+03  0.00000000000E+00 0. -1.
          2    1    6    6  503    0  0.91345536321E+02  0.88688128157E+02  0.79686899169E+02  0.15019851191E+03  0.00000000000E+00 0. -1.
         -2    1    6    6    0  503  0.45422700059E+02  0.26452309383E+02  0.13534023731E+03  0.14518927711E+03  0.00000000000E+00 0.  1.
<mgrwt>
<rscale>  0 0.15909197E+04</rscale>
<asrwt>0</asrwt>
<pdfrwt beam="1">  1        1 0.11231033E+00 0.15909197E+04</pdfrwt>
<pdfrwt beam="2">  1       -2 0.13334910E+00 0.15909197E+04</pdfrwt>
<totfact> 0.87415247E+00</totfact>
</mgrwt>
</event>
<event>
12    5  0.5297412E-008  0.3492336E+04  0.7818608E-02  0.8115609E-01
          1   -1    0    0  501    0  0.00000000000E+00  0.00000000000E+00  0.12981643501E+04  0.12981643501E+04  0.00000000000E+00 0. -1.
         -2   -1    0    0    0  501 -0.00000000000E+00 -0.00000000000E+00 -0.23487807192E+04  0.23487807192E+04  0.00000000000E+00 0.  1.
        -24    2    1    2    0    0  0.29723469758E+03  0.93262148940E+03 -0.18518281332E+04  0.20961309393E+04  0.79788293750E+02 0.  0.
        254    2    1    2    0    0 -0.29723469758E+03 -0.93262148940E+03  0.80121176408E+03  0.15508141300E+04  0.89719165563E+03 0.  0.
         23    2    4    4    0    0  0.60928414253E+02  0.13094281651E+03  0.46022155497E+01  0.17154536270E+03  0.92457223707E+02 0.  0.
         23    2    4    4    0    0 -0.35816311184E+03 -0.10635643059E+04  0.79660954853E+03  0.13792687673E+04  0.91354869263E+02 0.  0.
          3    1    3    3  502    0  0.95179497174E+02  0.24123398417E+03 -0.55770357257E+03  0.61504979202E+03  0.00000000000E+00 0. -1.
         -4    1    3    3    0  502  0.20205520041E+03  0.69138750523E+03 -0.12941245606E+04  0.14810811473E+04  0.00000000000E+00 0.  1.
         13    1    5    5    0    0  0.55796683593E+02  0.66113827000E+02  0.42382482192E+02  0.96335781604E+02  0.00000000000E+00 0.  1.
        -13    1    5    5    0    0  0.51317306598E+01  0.64828989509E+02 -0.37780266642E+02  0.75209581091E+02  0.00000000000E+00 0. -1.
          4    1    6    6  503    0 -0.31780928936E+03 -0.10098902247E+04  0.75330305700E+03  0.12993638851E+04  0.00000000000E+00 0. -1.
         -4    1    6    6    0  503 -0.40353822477E+02 -0.53674081237E+02  0.43306491532E+02  0.79904882166E+02  0.00000000000E+00 0.  1.
<mgrwt>
<rscale>  0 0.34923364E+04</rscale>
<asrwt>0</asrwt>
<pdfrwt beam="1">  1        1 0.19971760E+00 0.34923364E+04</pdfrwt>
<pdfrwt beam="2">  1       -2 0.36135087E+00 0.34923364E+04</pdfrwt>
<totfact> 0.85690649E-02</totfact>
</mgrwt>
</event>
<event>
12    5  0.5297412E-008  0.2961550E+04  0.7818608E-02  0.8254797E-01
         -2   -1    0    0    0  501 -0.00000000000E+00  0.00000000000E+00  0.92102197920E+03  0.92102197920E+03  0.00000000000E+00 0.  1.
          1   -1    0    0  501    0  0.00000000000E+00 -0.00000000000E+00 -0.23807186448E+04  0.23807186448E+04  0.00000000000E+00 0. -1.
        -24    2    1    2    0    0 -0.77771409268E+03 -0.10473366936E+04 -0.30786640896E+03  0.13426929134E+04  0.79304314051E+02 0.  0.
        254    2    1    2    0    0  0.77771409268E+03  0.10473366936E+04 -0.11518302566E+04  0.19590477105E+04  0.89966751207E+03 0.  0.
         23    2    4    4    0    0  0.16325899941E+03  0.80680527932E+03 -0.30756971564E+03  0.88400083422E+03  0.96281282130E+02 0.  0.
         23    2    4    4    0    0  0.61445509326E+03  0.24053141433E+03 -0.84426054096E+03  0.10750468763E+04  0.86830307627E+02 0.  0.
          1    1    3    3  502    0 -0.14576095066E+03 -0.18283602079E+03 -0.25336914754E+02  0.23519614045E+03  0.00000000000E+00 0. -1.
         -2    1    3    3    0  502 -0.63195314202E+03 -0.86450067286E+03 -0.28252949421E+03  0.11074967730E+04  0.00000000000E+00 0.  1.
         13    1    5    5    0    0  0.44602983832E+02  0.10575171294E+03 -0.69517581517E+02  0.13418474241E+03  0.00000000000E+00 0. -1.
        -13    1    5    5    0    0  0.11865601558E+03  0.70105356638E+03 -0.23805213412E+03  0.74981609180E+03  0.00000000000E+00 0.  1.
          1    1    6    6  503    0  0.10828840738E+03  0.90870717797E+01 -0.15020605124E+03  0.18539366730E+03  0.00000000000E+00 0. -1.
         -1    1    6    6    0  503  0.50616668588E+03  0.23144434255E+03 -0.69405448972E+03  0.88965320901E+03  0.00000000000E+00 0.  1.
<mgrwt>
<rscale>  0 0.29615497E+04</rscale>
<asrwt>0</asrwt>
<pdfrwt beam="1">  1        1 0.36626440E+00 0.29615497E+04</pdfrwt>
<pdfrwt beam="2">  1       -2 0.14169569E+00 0.29615497E+04</pdfrwt>
<totfact> 0.42811523E-01</totfact>
</mgrwt>
</event>
<event>
12    5  0.5297412E-008  0.1375923E+04  0.7818608E-02  0.8971434E-01
         -2   -1    0    0    0  501 -0.00000000000E+00  0.00000000000E+00  0.13640078933E+04  0.13640078933E+04  0.00000000000E+00 0.  1.
          1   -1    0    0  501    0  0.00000000000E+00 -0.00000000000E+00 -0.34698539901E+03  0.34698539901E+03  0.00000000000E+00 0. -1.
        -24    2    1    2    0    0 -0.18677956106E+02 -0.34325706499E+03  0.51586990832E+03  0.62464197988E+03  0.76691342498E+02 0.  0.
        254    2    1    2    0    0  0.18677956106E+02  0.34325706499E+03  0.50115258597E+03  0.10863513124E+04  0.90046153770E+03 0.  0.
         23    2    4    4    0    0  0.36149098248E+02  0.57445825210E+03  0.58528695356E+03  0.82601888909E+03  0.91855029366E+02 0.  0.
         23    2    4    4    0    0 -0.17471142142E+02 -0.23120118712E+03 -0.84134367586E+02  0.26033242334E+03  0.83277542582E+02 0.  0.
          1    1    3    3  502    0  0.30379529039E+01 -0.14241129486E+03  0.27951027255E+03  0.31371356127E+03  0.00000000000E+00 0. -1.
         -2    1    3    3    0  502 -0.21715909010E+02 -0.20084577013E+03  0.23635963577E+03  0.31092841862E+03  0.00000000000E+00 0.  1.
         13    1    5    5    0    0 -0.14061826060E+02  0.35981609516E+03  0.39844742402E+03  0.53705279722E+03  0.00000000000E+00 0. -1.
        -13    1    5    5    0    0  0.50210924308E+02  0.21464215694E+03  0.18683952953E+03  0.28896609187E+03  0.00000000000E+00 0.  1.
          1    1    6    6  503    0  0.10068720538E+02 -0.11286144916E+03 -0.80101331015E+02  0.13876350050E+03  0.00000000000E+00 0. -1.
         -1    1    6    6    0  503 -0.27539862680E+02 -0.11833973795E+03 -0.40330365703E+01  0.12156892284E+03  0.00000000000E+00 0.  1.
<mgrwt>
<rscale>  0 0.13759227E+04</rscale>
<asrwt>0</asrwt>
<pdfrwt beam="1">  1        1 0.53382370E-01 0.13759227E+04</pdfrwt>
<pdfrwt beam="2">  1       -2 0.20984736E+00 0.13759227E+04</pdfrwt>
<totfact> 0.70893142E+00</totfact>
</mgrwt>
</event>
<event>
12    5  0.5297412E-008  0.2065205E+04  0.7818608E-02  0.8576728E-01
          1   -1    0    0  501    0  0.00000000000E+00  0.00000000000E+00  0.20753523951E+04  0.20753523951E+04  0.00000000000E+00 0. -1.
         -2   -1    0    0    0  501 -0.00000000000E+00 -0.00000000000E+00 -0.51377685431E+03  0.51377685431E+03  0.00000000000E+00 0.  1.
        -24    2    1    2    0    0  0.17292151488E+03  0.61869595815E+03  0.13103473964E+04  0.14615641581E+04  0.80454645824E+02 0.  0.
        254    2    1    2    0    0 -0.17292151488E+03 -0.61869595815E+03  0.25122814439E+03  0.11275650913E+04  0.89196463813E+03 0.  0.
         23    2    4    4    0    0  0.27080928130E+03 -0.55501065675E+03  0.46015363858E+02  0.62568187256E+03  0.89363840542E+02 0.  0.
         23    2    4    4    0    0 -0.44373079617E+03 -0.63685301404E+02  0.20521278053E+03  0.50188321876E+03  0.93923601342E+02 0.  0.
          1    1    3    3  502    0  0.76100242354E+02  0.27126522874E+03  0.66605001856E+03  0.72318648939E+03  0.00000000000E+00 0. -1.
         -2    1    3    3    0  502  0.96821272522E+02  0.34743072942E+03  0.64429737782E+03  0.73837766869E+03  0.00000000000E+00 0.  1.
         13    1    5    5    0    0  0.32855138811E+02 -0.15581567833E+03  0.10169894746E+02  0.15956632639E+03  0.00000000000E+00 0. -1.
        -13    1    5    5    0    0  0.23795414248E+03 -0.39919497842E+03  0.35845469113E+02  0.46611554617E+03  0.00000000000E+00 0.  1.
          1    1    6    6  503    0 -0.45622179850E+02 -0.20880742930E+02  0.54438237027E+02  0.74033170742E+02  0.00000000000E+00 0. -1.
         -1    1    6    6    0  503 -0.39810861632E+03 -0.42804558474E+02  0.15077454350E+03  0.42785004801E+03  0.00000000000E+00 0.  1.
<mgrwt>
<rscale>  0 0.20652051E+04</rscale>
<asrwt>0</asrwt>
<pdfrwt beam="1">  1        1 0.31928498E+00 0.20652051E+04</pdfrwt>
<pdfrwt beam="2">  1       -2 0.79042594E-01 0.20652051E+04</pdfrwt>
<totfact> 0.30478142E+00</totfact>
</mgrwt>
</event>
<event>
12    5  0.5297412E-008  0.2134800E+04  0.7818608E-02  0.8546067E-01
          1   -1    0    0  501    0  0.00000000000E+00  0.00000000000E+00  0.16449783888E+04  0.16449783888E+04  0.00000000000E+00 0. -1.
         -2   -1    0    0    0  501 -0.00000000000E+00 -0.00000000000E+00 -0.69261887491E+03  0.69261887491E+03  0.00000000000E+00 0.  1.
        -24    2    1    2    0    0 -0.77021383055E+03 -0.11151711389E+03 -0.44871926704E+02  0.78345090690E+03  0.78207558874E+02 0.  0.
        254    2    1    2    0    0  0.77021383055E+03  0.11151711389E+03  0.99723144060E+03  0.15541463568E+04  0.90290361657E+03 0.  0.
         23    2    4    4    0    0  0.68117119738E+03  0.26643163058E+03  0.24627245427E+03  0.77697772303E+03  0.89801149383E+02 0.  0.
         23    2    4    4    0    0  0.89042633163E+02 -0.15491451669E+03  0.75095898633E+03  0.77716863378E+03  0.90136497507E+02 0.  0.
          3    1    3    3  502    0 -0.35722718733E+03 -0.37683482756E+02  0.15774319808E+02  0.35955547195E+03  0.00000000000E+00 0. -1.
         -4    1    3    3    0  502 -0.41298664321E+03 -0.73833631137E+02 -0.60646246512E+02  0.42389543496E+03  0.00000000000E+00 0.  1.
         13    1    5    5    0    0  0.30858588546E+03  0.12978083873E+03  0.66513350803E+02  0.34130974296E+03  0.00000000000E+00 0. -1.
        -13    1    5    5    0    0  0.37258531192E+03  0.13665079185E+03  0.17975910347E+03  0.43566798007E+03  0.00000000000E+00 0.  1.
          2    1    6    6  503    0  0.14404379103E+02  0.10389586582E+02  0.92329148997E+02  0.94021813433E+02  0.00000000000E+00 0. -1.
         -2    1    6    6    0  503  0.74638254059E+02 -0.16530410327E+03  0.65862983733E+03  0.68314682035E+03  0.00000000000E+00 0.  1.
<mgrwt>
<rscale>  0 0.21348003E+04</rscale>
<asrwt>0</asrwt>
<pdfrwt beam="1">  1        1 0.25307360E+00 0.21348003E+04</pdfrwt>
<pdfrwt beam="2">  1       -2 0.10655675E+00 0.21348003E+04</pdfrwt>
<totfact> 0.29687375E+00</totfact>
</mgrwt>
</event>
<event>
12    5  0.5297412E-008  0.1331183E+04  0.7818608E-02  0.9005196E-01
          1   -1    0    0  501    0  0.00000000000E+00  0.00000000000E+00  0.82921995097E+03  0.82921995097E+03  0.00000000000E+00 0. -1.
         -2   -1    0    0    0  501 -0.00000000000E+00 -0.00000000000E+00 -0.53425141903E+03  0.53425141903E+03  0.00000000000E+00 0.  1.
        -24    2    1    2    0    0 -0.59284069999E+02  0.22779225528E+03  0.40354680202E+03  0.47403983133E+03  0.80373053629E+02 0.  0.
        254    2    1    2    0    0  0.59284069999E+02 -0.22779225528E+03 -0.10857827008E+03  0.88943153867E+03  0.85082037395E+03 0.  0.
         23    2    4    4    0    0  0.37953301125E+03 -0.24573214333E+03  0.12904513201E+03  0.47989313464E+03  0.95995737830E+02 0.  0.
         23    2    4    4    0    0 -0.32024894126E+03  0.17939888054E+02 -0.23762340209E+03  0.40953840403E+03  0.91518299766E+02 0.  0.
          1    1    3    3  502    0 -0.17756314897E+01  0.11464402866E+03  0.13578465636E+03  0.17771853892E+03  0.00000000000E+00 0. -1.
         -2    1    3    3    0  502 -0.57508438509E+02  0.11314822662E+03  0.26776214566E+03  0.29632129241E+03  0.00000000000E+00 0.  1.
         13    1    5    5    0    0  0.73168208234E+02 -0.20811258555E+02 -0.65816193409E+01  0.76354521097E+02  0.00000000000E+00 0.  1.
        -13    1    5    5    0    0  0.30636480302E+03 -0.22492088477E+03  0.13562675135E+03  0.40353861354E+03  0.00000000000E+00 0. -1.
          2    1    6    6  503    0 -0.15721248530E+03  0.44220687941E+02 -0.15383242036E+03  0.22435607487E+03  0.00000000000E+00 0. -1.
         -2    1    6    6    0  503 -0.16303645595E+03 -0.26280799887E+02 -0.83790981730E+02  0.18518232915E+03  0.00000000000E+00 0.  1.
<mgrwt>
<rscale>  0 0.13311828E+04</rscale>
<asrwt>0</asrwt>
<pdfrwt beam="1">  1        1 0.12757230E+00 0.13311828E+04</pdfrwt>
<pdfrwt beam="2">  1       -2 0.82192526E-01 0.13311828E+04</pdfrwt>
<totfact> 0.23301719E+01</totfact>
</mgrwt>
</event>
<event>
12    5  0.5297412E-008  0.1939919E+04  0.7818608E-02  0.8635237E-01
          1   -1    0    0  501    0  0.00000000000E+00  0.00000000000E+00  0.11777781825E+04  0.11777781825E+04  0.00000000000E+00 0. -1.
         -2   -1    0    0    0  501 -0.00000000000E+00 -0.00000000000E+00 -0.79881058310E+03  0.79881058310E+03  0.00000000000E+00 0.  1.
        -24    2    1    2    0    0 -0.40855857690E+03 -0.64098752581E+03  0.16082289540E+03  0.78089629784E+03  0.78421331920E+02 0.  0.
        254    2    1    2    0    0  0.40855857690E+03  0.64098752581E+03  0.21814470404E+03  0.11956924678E+04  0.89683234033E+03 0.  0.
         23    2    4    4    0    0  0.12823759908E+03 -0.20606755779E+03  0.14238647727E+03  0.29577819121E+03  0.91115911300E+02 0.  0.
         23    2    4    4    0    0  0.28032097781E+03  0.84705508360E+03  0.75758226767E+02  0.89991427659E+03  0.89578072253E+02 0.  0.
          3    1    3    3  502    0 -0.11849905904E+03 -0.21762322177E+03  0.85886980902E+02  0.26225649112E+03  0.00000000000E+00 0. -1.
         -4    1    3    3    0  502 -0.29005951786E+03 -0.42336430404E+03  0.74935914503E+02  0.51863980672E+03  0.00000000000E+00 0.  1.
         13    1    5    5    0    0  0.10865181072E+02 -0.10463812265E+02  0.45507215131E+02  0.47942154267E+02  0.00000000000E+00 0.  1.
        -13    1    5    5    0    0  0.11737241801E+03 -0.19560374553E+03  0.96879262141E+02  0.24783603694E+03  0.00000000000E+00 0. -1.
          1    1    6    6  503    0  0.25596699369E+03  0.82465923833E+03  0.76186086197E+02  0.86682540397E+03  0.00000000000E+00 0. -1.
         -1    1    6    6    0  503  0.24353984121E+02  0.22395845267E+02 -0.42785943071E+00  0.33088872623E+02  0.00000000000E+00 0.  1.
<mgrwt>
<rscale>  0 0.19399193E+04</rscale>
<asrwt>0</asrwt>
<pdfrwt beam="1">  1        1 0.18119664E+00 0.19399193E+04</pdfrwt>
<pdfrwt beam="2">  1       -2 0.12289394E+00 0.19399193E+04</pdfrwt>
<totfact> 0.45402558E+00</totfact>
</mgrwt>
</event>
<event>
12    5  0.5297412E-008  0.2253756E+04  0.7818608E-02  0.8496381E-01
          1   -1    0    0  501    0  0.00000000000E+00  0.00000000000E+00  0.18907313282E+04  0.18907313282E+04  0.00000000000E+00 0. -1.
         -2   -1    0    0    0  501 -0.00000000000E+00 -0.00000000000E+00 -0.67162036226E+03  0.67162036226E+03  0.00000000000E+00 0.  1.
        -24    2    1    2    0    0 -0.27415292485E+03 -0.72328862737E+03 -0.10262703718E+03  0.78448020467E+03  0.81059349087E+02 0.  0.
        254    2    1    2    0    0  0.27415292485E+03  0.72328862737E+03  0.13217380031E+04  0.17778714858E+04  0.90306666775E+03 0.  0.
         23    2    4    4    0    0 -0.11241832812E+03  0.77437354402E+03  0.89558285731E+03  0.11926976821E+04  0.90370572703E+02 0.  0.
         23    2    4    4    0    0  0.38657125297E+03 -0.51084916647E+02  0.42615514581E+03  0.58517380368E+03  0.93665201047E+02 0.  0.
          3    1    3    3  502    0 -0.14580601547E+02 -0.17353374107E+02 -0.15155565266E+02  0.27265815464E+02  0.00000000000E+00 0. -1.
         -4    1    3    3    0  502 -0.25957232331E+03 -0.70593525326E+03 -0.87471471915E+02  0.75721438921E+03  0.00000000000E+00 0.  1.
         13    1    5    5    0    0 -0.55396395429E+02  0.52561229999E+03  0.54640128275E+03  0.76019169445E+03  0.00000000000E+00 0. -1.
        -13    1    5    5    0    0 -0.57021932691E+02  0.24876124403E+03  0.34918157456E+03  0.43250598765E+03  0.00000000000E+00 0.  1.
          3    1    6    6  503    0  0.25568260854E+03  0.92899542124E+01  0.25214853054E+03  0.35921968350E+03  0.00000000000E+00 0. -1.
         -3    1    6    6    0  503  0.13088864443E+03 -0.60374870859E+02  0.17400661526E+03  0.22595412018E+03  0.00000000000E+00 0.  1.
<mgrwt>
<rscale>  0 0.22537557E+04</rscale>
<asrwt>0</asrwt>
<pdfrwt beam="1">  1        1 0.29088174E+00 0.22537557E+04</pdfrwt>
<pdfrwt beam="2">  1       -2 0.10332621E+00 0.22537557E+04</pdfrwt>
<totfact> 0.21526761E+00</totfact>
</mgrwt>
</event>
<event>
12    5  0.5297412E-008  0.2111508E+04  0.7818608E-02  0.8556191E-01
         -2   -1    0    0    0  501 -0.00000000000E+00  0.00000000000E+00  0.33327494549E+03  0.33327494549E+03  0.00000000000E+00 0.  1.
          1   -1    0    0  501    0  0.00000000000E+00 -0.00000000000E+00 -0.33444342034E+04  0.33444342034E+04  0.00000000000E+00 0. -1.
        -24    2    1    2    0    0  0.58712910558E+03  0.60870404005E+03 -0.14410626741E+04  0.16727800106E+04  0.79310392483E+02 0.  0.
        254    2    1    2    0    0 -0.58712910558E+03 -0.60870404005E+03 -0.15700965838E+04  0.20049291382E+04  0.91613119797E+03 0.  0.
         23    2    4    4    0    0  0.40241469074E+02  0.85771595193E+02 -0.73757069363E+03  0.74939490276E+03  0.92768797582E+02 0.  0.
         23    2    4    4    0    0 -0.62737057466E+03 -0.69447563524E+03 -0.83252589018E+03  0.12555342355E+04  0.85887209579E+02 0.  0.
          3    1    3    3  502    0  0.28620249901E+03  0.29846157707E+03 -0.78277482610E+03  0.88528391593E+03  0.00000000000E+00 0. -1.
         -4    1    3    3    0  502  0.30092660657E+03  0.31024246298E+03 -0.65828784799E+03  0.78749609471E+03  0.00000000000E+00 0.  1.
         13    1    5    5    0    0  0.46464469488E+02  0.44374027461E+02 -0.64007677840E+03  0.64329331062E+03  0.00000000000E+00 0.  1.
        -13    1    5    5    0    0 -0.62230004146E+01  0.41397567732E+02 -0.97493915232E+02  0.10610159214E+03  0.00000000000E+00 0. -1.
          2    1    6    6  503    0 -0.96922847728E+02 -0.14366063260E+03 -0.18517849920E+03  0.25362076479E+03  0.00000000000E+00 0. -1.
         -2    1    6    6    0  503 -0.53044772693E+03 -0.55081500265E+03 -0.64734739098E+03  0.10019134707E+04  0.00000000000E+00 0.  1.
<mgrwt>
<rscale>  0 0.21115076E+04</rscale>
<asrwt>0</asrwt>
<pdfrwt beam="1">  1        1 0.51452833E+00 0.21115076E+04</pdfrwt>
<pdfrwt beam="2">  1       -2 0.51273069E-01 0.21115076E+04</pdfrwt>
<totfact> 0.96084221E-01</totfact>
</mgrwt>
</event>
<event>
12    5  0.5297412E-008  0.1365964E+04  0.7818608E-02  0.8978831E-01
         -4   -1    0    0    0  501 -0.00000000000E+00  0.00000000000E+00  0.80123025682E+03  0.80123025682E+03  0.00000000000E+00 0.  1.
          3   -1    0    0  501    0  0.00000000000E+00 -0.00000000000E+00 -0.58218549667E+03  0.58218549667E+03  0.00000000000E+00 0. -1.
        -24    2    1    2    0    0  0.41071193302E+03  0.64284990893E+02  0.17466471907E+03  0.45795400934E+03  0.79982864462E+02 0.  0.
        254    2    1    2    0    0 -0.41071193302E+03 -0.64284990893E+02  0.44380041085E+02  0.92546174414E+03  0.82564701892E+03 0.  0.
         23    2    4    4    0    0  0.13640620589E+03 -0.12481803055E+03  0.25594508418E+03  0.32885236362E+03  0.91922778405E+02 0.  0.
         23    2    4    4    0    0 -0.54711813891E+03  0.60533039658E+02 -0.21156504309E+03  0.59660938052E+03  0.90445998555E+02 0.  0.
          1    1    3    3  502    0  0.39257563839E+03  0.78301699110E+02  0.16749885161E+03  0.43393853623E+03  0.00000000000E+00 0. -1.
         -2    1    3    3    0  502  0.18136294633E+02 -0.14016708217E+02  0.71658674623E+01  0.24015473111E+02  0.00000000000E+00 0.  1.
         13    1    5    5    0    0  0.55289083919E+01 -0.60198778487E+02  0.78948722672E+02  0.99435217961E+02  0.00000000000E+00 0.  1.
        -13    1    5    5    0    0  0.13087729750E+03 -0.64619252063E+02  0.17699636151E+03  0.22941714566E+03  0.00000000000E+00 0. -1.
          3    1    6    6  503    0 -0.44034248460E+03  0.20533867846E+02 -0.14240268141E+03  0.46325119227E+03  0.00000000000E+00 0. -1.
         -3    1    6    6    0  503 -0.10677565431E+03  0.39999171812E+02 -0.69162361682E+02  0.13335818825E+03  0.00000000000E+00 0.  1.
<mgrwt>
<rscale>  0 0.13659643E+04</rscale>
<asrwt>0</asrwt>
<pdfrwt beam="1">  1        3 0.89566999E-01 0.13659643E+04</pdfrwt>
<pdfrwt beam="2">  1       -4 0.12326619E+00 0.13659643E+04</pdfrwt>
<totfact> 0.12463956E+00</totfact>
</mgrwt>
</event>
<event>
12    5  0.5297412E-008  0.2265842E+04  0.7818608E-02  0.8491512E-01
         -2   -1    0    0    0  501 -0.00000000000E+00  0.00000000000E+00  0.16903788470E+04  0.16903788470E+04  0.00000000000E+00 0.  1.
          1   -1    0    0  501    0  0.00000000000E+00 -0.00000000000E+00 -0.75930297042E+03  0.75930297042E+03  0.00000000000E+00 0. -1.
        -24    2    1    2    0    0 -0.75221305977E+03 -0.40671810371E+03 -0.52388415424E+02  0.86043387060E+03  0.79735791404E+02 0.  0.
        254    2    1    2    0    0  0.75221305977E+03  0.40671810371E+03  0.98346429202E+03  0.15892479468E+04  0.90953994945E+03 0.  0.
         23    2    4    4    0    0  0.81484641775E+03  0.25325060713E+02  0.48822374313E+03  0.95479194814E+03  0.93001062700E+02 0.  0.
         23    2    4    4    0    0 -0.62633357975E+02  0.38139304300E+03  0.49524054889E+03  0.63445599869E+03  0.88812286472E+02 0.  0.
          1    1    3    3  502    0 -0.43176428830E+03 -0.22950031742E+03 -0.69300861914E+02  0.49385565281E+03  0.00000000000E+00 0. -1.
         -2    1    3    3    0  502 -0.32044877147E+03 -0.17721778629E+03  0.16912446490E+02  0.36657821780E+03  0.00000000000E+00 0.  1.
         13    1    5    5    0    0  0.78151037677E+02 -0.14616360313E+02  0.74363756123E+02  0.10886317515E+03  0.00000000000E+00 0.  1.
        -13    1    5    5    0    0  0.73669538007E+03  0.39941421026E+02  0.41385998701E+03  0.84592877299E+03  0.00000000000E+00 0. -1.
          3    1    6    6  503    0 -0.75754189424E+02  0.32141156532E+03  0.45012986525E+03  0.55826605407E+03  0.00000000000E+00 0. -1.
         -3    1    6    6    0  503  0.13120831449E+02  0.59981477681E+02  0.45110683638E+02  0.76189944619E+02  0.00000000000E+00 0.  1.
<mgrwt>
<rscale>  0 0.22658417E+04</rscale>
<asrwt>0</asrwt>
<pdfrwt beam="1">  1        1 0.11681584E+00 0.22658417E+04</pdfrwt>
<pdfrwt beam="2">  1       -2 0.26005828E+00 0.22658417E+04</pdfrwt>
<totfact> 0.10639765E+00</totfact>
</mgrwt>
</event>
<event>
12    5  0.5297412E-008  0.1725273E+04  0.7818608E-02  0.8747080E-01
          1   -1    0    0  501    0  0.00000000000E+00  0.00000000000E+00  0.14616282423E+03  0.14616282423E+03  0.00000000000E+00 0. -1.
         -2   -1    0    0    0  501 -0.00000000000E+00 -0.00000000000E+00 -0.50911822578E+04  0.50911822578E+04  0.00000000000E+00 0.  1.
        -24    2    1    2    0    0 -0.61063162730E+03 -0.92275974340E+02 -0.19219296866E+04  0.20202408433E+04  0.78571654870E+02 0.  0.
        254    2    1    2    0    0  0.61063162730E+03  0.92275974340E+02 -0.30230897470E+04  0.32171042388E+04  0.91066032362E+03 0.  0.
         23    2    4    4    0    0 -0.53590985680E+02 -0.27341211416E+03 -0.12936997669E+04  0.13265967405E+04  0.92593990781E+02 0.  0.
         23    2    4    4    0    0  0.66422261299E+03  0.36568808850E+03 -0.17293899801E+04  0.18905074983E+04  0.91156130147E+02 0.  0.
          3    1    3    3  502    0 -0.55924796262E+03 -0.64952571246E+02 -0.17772678574E+04  0.18643117113E+04  0.00000000000E+00 0. -1.
         -4    1    3    3    0  502 -0.51383664688E+02 -0.27323403094E+02 -0.14466182921E+03  0.15592913193E+03  0.00000000000E+00 0.  1.
         13    1    5    5    0    0 -0.14148862268E+02 -0.54040203330E+02 -0.46873994157E+03  0.47205684690E+03  0.00000000000E+00 0. -1.
        -13    1    5    5    0    0 -0.39442123412E+02 -0.21937191083E+03 -0.82495982532E+03  0.85453989360E+03  0.00000000000E+00 0.  1.
          3    1    6    6  503    0  0.13865556481E+03  0.35947294127E+02 -0.32033495043E+03  0.35090177269E+03  0.00000000000E+00 0. -1.
         -3    1    6    6    0  503  0.52556704817E+03  0.32974079437E+03 -0.14090550297E+04  0.15396057256E+04  0.00000000000E+00 0.  1.
<mgrwt>
<rscale>  0 0.17252728E+04</rscale>
<asrwt>0</asrwt>
<pdfrwt beam="1">  1        1 0.22486589E-01 0.17252728E+04</pdfrwt>
<pdfrwt beam="2">  1       -2 0.78325878E+00 0.17252728E+04</pdfrwt>
<totfact> 0.18689108E-02</totfact>
</mgrwt>
</event>
<event>
12    5  0.5297412E-008  0.2237745E+04  0.7818608E-02  0.8502880E-01
          1   -1    0    0  501    0  0.00000000000E+00  0.00000000000E+00  0.26854792878E+04  0.26854792878E+04  0.00000000000E+00 0. -1.
         -2   -1    0    0    0  501 -0.00000000000E+00 -0.00000000000E+00 -0.46616475720E+03  0.46616475720E+03  0.00000000000E+00 0.  1.
        -24    2    1    2    0    0 -0.41602008562E+03  0.67376794535E+03  0.22682746062E+03  0.82764969736E+03  0.80730222460E+02 0.  0.
        254    2    1    2    0    0  0.41602008562E+03 -0.67376794535E+03  0.19924870700E+04  0.23239943476E+04  0.89660975235E+03 0.  0.
         23    2    4    4    0    0 -0.26121648930E+03 -0.13614086882E+03  0.36497255714E+03  0.47878004309E+03  0.96213157899E+02 0.  0.
         23    2    4    4    0    0  0.67723657492E+03 -0.53762707653E+03  0.16275145128E+04  0.18452143045E+04  0.91214518517E+02 0.  0.
          3    1    3    3  502    0 -0.50075370337E+02  0.44443536676E+02  0.31014449042E+02  0.73787984903E+02  0.00000000000E+00 0. -1.
         -4    1    3    3    0  502 -0.36594471528E+03  0.62932440868E+03  0.19581301157E+03  0.75386171245E+03  0.00000000000E+00 0.  1.
         13    1    5    5    0    0 -0.67196113590E+02 -0.70509238206E+02  0.71177392534E+02  0.12063619507E+03  0.00000000000E+00 0. -1.
        -13    1    5    5    0    0 -0.19402037571E+03 -0.65631630614E+02  0.29379516460E+03  0.35814384801E+03  0.00000000000E+00 0.  1.
          3    1    6    6  503    0  0.39688876729E+02 -0.80759562347E+01  0.67850827524E+02  0.79020015192E+02  0.00000000000E+00 0. -1.
         -3    1    6    6    0  503  0.63754769819E+03 -0.52955112030E+03  0.15596636853E+04  0.17661942893E+04  0.00000000000E+00 0.  1.
<mgrwt>
<rscale>  0 0.22377451E+04</rscale>
<asrwt>0</asrwt>
<pdfrwt beam="1">  1        1 0.41315065E+00 0.22377451E+04</pdfrwt>
<pdfrwt beam="2">  1       -2 0.71717657E-01 0.22377451E+04</pdfrwt>
<totfact> 0.14148252E+00</totfact>
</mgrwt>
</event>
<event>
12    5  0.5297412E-008  0.2145184E+04  0.7818608E-02  0.8541596E-01
          1   -1    0    0  501    0  0.00000000000E+00  0.00000000000E+00  0.13994168685E+04  0.13994168685E+04  0.00000000000E+00 0. -1.
         -2   -1    0    0    0  501 -0.00000000000E+00 -0.00000000000E+00 -0.82209518449E+03  0.82209518449E+03  0.00000000000E+00 0.  1.
        -24    2    1    2    0    0  0.60541967349E+03 -0.46257202995E+03  0.66131216303E+03  0.10120789865E+04  0.80400460815E+02 0.  0.
        254    2    1    2    0    0 -0.60541967349E+03  0.46257202995E+03 -0.83990478999E+02  0.12094330665E+04  0.93550418372E+03 0.  0.
         23    2    4    4    0    0  0.21084668717E+03  0.21581223239E+03  0.10279847264E+03  0.33194836460E+03  0.92687354297E+02 0.  0.
         23    2    4    4    0    0 -0.81626636066E+03  0.24675979756E+03 -0.18678895164E+03  0.87748470187E+03  0.88927612814E+02 0.  0.
          1    1    3    3  502    0  0.50836425245E+03 -0.36719018777E+03  0.57583931478E+03  0.85138344100E+03  0.00000000000E+00 0. -1.
         -2    1    3    3    0  502  0.97055421039E+02 -0.95381842178E+02  0.85472848251E+02  0.16069554555E+03  0.00000000000E+00 0.  1.
         13    1    5    5    0    0 -0.29588052107E+01  0.33924775709E+02  0.19028730846E+02  0.39009454403E+02  0.00000000000E+00 0.  1.
        -13    1    5    5    0    0  0.21380549238E+03  0.18188745668E+03  0.83769741797E+02  0.29293891020E+03  0.00000000000E+00 0. -1.
          4    1    6    6  503    0 -0.68511211150E+03  0.17472610523E+03 -0.14061465853E+03  0.72088854851E+03  0.00000000000E+00 0. -1.
         -4    1    6    6    0  503 -0.13115424915E+03  0.72033692331E+02 -0.46174293111E+02  0.15659615336E+03  0.00000000000E+00 0.  1.
<mgrwt>
<rscale>  0 0.21451843E+04</rscale>
<asrwt>0</asrwt>
<pdfrwt beam="1">  1        1 0.21529490E+00 0.21451843E+04</pdfrwt>
<pdfrwt beam="2">  1       -2 0.12647618E+00 0.21451843E+04</pdfrwt>
<totfact> 0.28784740E+00</totfact>
</mgrwt>
</event>
<event>
12    5  0.5297412E-008  0.1802264E+04  0.7818608E-02  0.8705097E-01
          1   -1    0    0  501    0  0.00000000000E+00  0.00000000000E+00  0.71789628608E+03  0.71789628608E+03  0.00000000000E+00 0. -1.
         -2   -1    0    0    0  501 -0.00000000000E+00 -0.00000000000E+00 -0.11311364383E+04  0.11311364383E+04  0.00000000000E+00 0.  1.
        -24    2    1    2    0    0  0.49490361890E+02  0.38437776677E+03  0.40728757005E+03  0.56842114660E+03  0.83808541833E+02 0.  0.
        254    2    1    2    0    0 -0.49490361890E+02 -0.38437776677E+03 -0.82052772227E+03  0.12806115778E+04  0.90360649988E+03 0.  0.
         23    2    4    4    0    0  0.32287409463E+03 -0.42871391271E+03 -0.26859367261E+03  0.60681041466E+03  0.89627107714E+02 0.  0.
         23    2    4    4    0    0 -0.37236445652E+03  0.44336145940E+02 -0.55193404966E+03  0.67380116312E+03  0.93572591795E+02 0.  0.
          3    1    3    3  502    0  0.26918168221E+02  0.36313037040E+03  0.36127513561E+03  0.51294052023E+03  0.00000000000E+00 0. -1.
         -4    1    3    3    0  502  0.22572193669E+02  0.21247396370E+02  0.46012434440E+02  0.55480626372E+02  0.00000000000E+00 0.  1.
         13    1    5    5    0    0  0.29174800697E+03 -0.32927158106E+03 -0.21668617989E+03  0.49039736360E+03  0.00000000000E+00 0. -1.
        -13    1    5    5    0    0  0.31126087654E+02 -0.99442331654E+02 -0.51907492720E+02  0.11641305106E+03  0.00000000000E+00 0.  1.
          1    1    6    6  503    0 -0.31094574563E+03  0.66590890750E+02 -0.48748723398E+03  0.58203557173E+03  0.00000000000E+00 0. -1.
         -1    1    6    6    0  503 -0.61418710882E+02 -0.22254744811E+02 -0.64446815679E+02  0.91765591395E+02  0.00000000000E+00 0.  1.
<mgrwt>
<rscale>  0 0.18022637E+04</rscale>
<asrwt>0</asrwt>
<pdfrwt beam="1">  1        1 0.11044558E+00 0.18022637E+04</pdfrwt>
<pdfrwt beam="2">  1       -2 0.17402099E+00 0.18022637E+04</pdfrwt>
<totfact> 0.43204842E+00</totfact>
</mgrwt>
</event>
<event>
12    5  0.5297412E-008  0.9970741E+03  0.7818608E-02  0.9311760E-01
         -2   -1    0    0    0  501 -0.00000000000E+00  0.00000000000E+00  0.64753925225E+03  0.64753925225E+03  0.00000000000E+00 0.  1.
          1   -1    0    0  501    0  0.00000000000E+00 -0.00000000000E+00 -0.38382105151E+03  0.38382105151E+03  0.00000000000E+00 0. -1.
        -24    2    1    2    0    0 -0.67524876897E+01 -0.38792341437E+02  0.21701647698E+02  0.91399662931E+02  0.79576975482E+02 0.  0.
        254    2    1    2    0    0  0.67524876897E+01  0.38792341437E+02  0.24201655304E+03  0.93996064083E+03  0.90741586525E+03 0.  0.
         23    2    4    4    0    0 -0.58843727901E+02  0.38056853632E+03 -0.13609713285E+03  0.41810822284E+03  0.89426289660E+02 0.  0.
         23    2    4    4    0    0  0.65596215591E+02 -0.34177619488E+03  0.37811368589E+03  0.52185241799E+03  0.90808346606E+02 0.  0.
          1    1    3    3  502    0 -0.13962270394E+02 -0.30945604467E+02 -0.25848636127E+02  0.42669982658E+02  0.00000000000E+00 0. -1.
         -2    1    3    3    0  502  0.72097827045E+01 -0.78467369694E+01  0.47550283824E+02  0.48729680273E+02  0.00000000000E+00 0.  1.
         13    1    5    5    0    0 -0.21301439478E+01  0.11427006495E+03 -0.13019157184E+01  0.11429733261E+03  0.00000000000E+00 0.  1.
        -13    1    5    5    0    0 -0.56713583953E+02  0.26629847137E+03 -0.13479521713E+03  0.30381089023E+03  0.00000000000E+00 0. -1.
          3    1    6    6  503    0  0.37695364237E+02 -0.64761318120E+02  0.12412231004E+03  0.14498729827E+03  0.00000000000E+00 0. -1.
         -3    1    6    6    0  503  0.27900851353E+02 -0.27701487676E+03  0.25399137585E+03  0.37686511972E+03  0.00000000000E+00 0.  1.
<mgrwt>
<rscale>  0 0.99707411E+03</rscale>
<asrwt>0</asrwt>
<pdfrwt beam="1">  1        1 0.59049393E-01 0.99707411E+03</pdfrwt>
<pdfrwt beam="2">  1       -2 0.99621423E-01 0.99707411E+03</pdfrwt>
<totfact> 0.46288809E+01</totfact>
</mgrwt>
</event>
<event>
12    5  0.5297412E-008  0.1135695E+04  0.7818608E-02  0.9171083E-01
          1   -1    0    0  501    0  0.00000000000E+00  0.00000000000E+00  0.58607974934E+03  0.58607974934E+03  0.00000000000E+00 0. -1.
         -2   -1    0    0    0  501 -0.00000000000E+00 -0.00000000000E+00 -0.55018258764E+03  0.55018258764E+03  0.00000000000E+00 0.  1.
        -24    2    1    2    0    0  0.82640027836E+02  0.18041020748E+03  0.50040712476E+02  0.21974143824E+03  0.80031303947E+02 0.  0.
        254    2    1    2    0    0 -0.82640027836E+02 -0.18041020748E+03 -0.14143550773E+02  0.91652089874E+03  0.89466938063E+03 0.  0.
         23    2    4    4    0    0 -0.10512805855E+03  0.26454280979E+03 -0.26268837672E+03  0.39800491936E+03  0.91476366685E+02 0.  0.
         23    2    4    4    0    0  0.22488030718E+02 -0.44495301727E+03  0.24854482595E+03  0.51851597938E+03  0.92711332983E+02 0.  0.
          3    1    3    3  502    0  0.87915718286E+02  0.12969158331E+03  0.60016050012E+02  0.16778261698E+03  0.00000000000E+00 0. -1.
         -4    1    3    3    0  502 -0.52756904499E+01  0.50718624170E+02 -0.99753375358E+01  0.51958821257E+02  0.00000000000E+00 0.  1.
         13    1    5    5    0    0 -0.35835327774E+02  0.74964022123E+02 -0.13699386262E+03  0.16022201386E+03  0.00000000000E+00 0. -1.
        -13    1    5    5    0    0 -0.69292730780E+02  0.18957878767E+03 -0.12569451410E+03  0.23778290550E+03  0.00000000000E+00 0.  1.
          2    1    6    6  503    0 -0.29629567953E+02 -0.82532754828E+02  0.63479003053E+02  0.10825502642E+03  0.00000000000E+00 0. -1.
         -2    1    6    6    0  503  0.52117598671E+02 -0.36242026245E+03  0.18506582289E+03  0.41026095296E+03  0.00000000000E+00 0.  1.
<mgrwt>
<rscale>  0 0.11356952E+04</rscale>
<asrwt>0</asrwt>
<pdfrwt beam="1">  1        1 0.90166115E-01 0.11356952E+04</pdfrwt>
<pdfrwt beam="2">  1       -2 0.84643475E-01 0.11356952E+04</pdfrwt>
<totfact> 0.37508981E+01</totfact>
</mgrwt>
</event>
<event>
12    5  0.5297412E-008  0.2337180E+04  0.7818608E-02  0.8463404E-01
         -2   -1    0    0    0  501 -0.00000000000E+00  0.00000000000E+00  0.11139311930E+04  0.11139311930E+04  0.00000000000E+00 0.  1.
          1   -1    0    0  501    0  0.00000000000E+00 -0.00000000000E+00 -0.12259306605E+04  0.12259306605E+04  0.00000000000E+00 0. -1.
        -24    2    1    2    0    0 -0.15713323760E+03  0.95924724531E+03 -0.24613034845E+03  0.10059834011E+04  0.81094529869E+02 0.  0.
        254    2    1    2    0    0  0.15713323760E+03 -0.95924724531E+03  0.13413088094E+03  0.13338784525E+04  0.90354551678E+03 0.  0.
         23    2    4    4    0    0  0.25888537532E+03  0.25625243128E+02  0.19531268103E+03  0.33763570338E+03  0.90402069581E+02 0.  0.
         23    2    4    4    0    0 -0.10175213771E+03 -0.98487248844E+03 -0.61181800093E+02  0.99624274915E+03  0.91810056976E+02 0.  0.
          3    1    3    3  502    0 -0.10431446715E+03  0.69987116429E+03 -0.21450876476E+03  0.73940189669E+03  0.00000000000E+00 0. -1.
         -4    1    3    3    0  502 -0.52818770456E+02  0.25937608101E+03 -0.31621583693E+02  0.26658150436E+03  0.00000000000E+00 0.  1.
         13    1    5    5    0    0  0.21015886198E+03  0.10300158347E+02  0.19451992695E+03  0.28654989533E+03  0.00000000000E+00 0. -1.
        -13    1    5    5    0    0  0.48726513334E+02  0.15325084781E+02  0.79275408638E+00  0.51085808051E+02  0.00000000000E+00 0.  1.
          4    1    6    6  503    0 -0.72537445219E+02 -0.91997837979E+03 -0.63716204328E+02  0.92503062378E+03  0.00000000000E+00 0. -1.
         -4    1    6    6    0  503 -0.29214692495E+02 -0.64894108647E+02  0.25344042347E+01  0.71212125369E+02  0.00000000000E+00 0.  1.
<mgrwt>
<rscale>  0 0.23371798E+04</rscale>
<asrwt>0</asrwt>
<pdfrwt beam="1">  1        1 0.18860472E+00 0.23371798E+04</pdfrwt>
<pdfrwt beam="2">  1       -2 0.17137403E+00 0.23371798E+04</pdfrwt>
<totfact> 0.16853484E+00</totfact>
</mgrwt>
</event>
<event>
12    5  0.5297412E-008  0.3832474E+04  0.7818608E-02  0.8039222E-01
          1   -1    0    0  501    0  0.00000000000E+00  0.00000000000E+00  0.25847083552E+04  0.25847083552E+04  0.00000000000E+00 0. -1.
         -2   -1    0    0    0  501 -0.00000000000E+00 -0.00000000000E+00 -0.14206496603E+04  0.14206496603E+04  0.00000000000E+00 0.  1.
        -24    2    1    2    0    0  0.83193137743E+03  0.15855191073E+04  0.82829571985E+03  0.19744828935E+04  0.80797528289E+02 0.  0.
        254    2    1    2    0    0 -0.83193137743E+03 -0.15855191073E+04  0.33576297513E+03  0.20308751221E+04  0.89762816882E+03 0.  0.
         23    2    4    4    0    0 -0.82418900828E+03 -0.13077422820E+04  0.57624376157E+03  0.16523518309E+04  0.93446791537E+02 0.  0.
         23    2    4    4    0    0 -0.77423691545E+01 -0.27777682529E+03 -0.24048078644E+03  0.37852329113E+03  0.90713639144E+02 0.  0.
          1    1    3    3  502    0  0.26860808366E+03  0.59474794606E+03  0.30765230972E+03  0.72147443865E+03  0.00000000000E+00 0. -1.
         -2    1    3    3    0  502  0.56332329377E+03  0.99077116127E+03  0.52064341013E+03  0.12530084548E+04  0.00000000000E+00 0.  1.
         13    1    5    5    0    0 -0.50593214599E+03 -0.78460493639E+03  0.30012306448E+03  0.98063555737E+03  0.00000000000E+00 0. -1.
        -13    1    5    5    0    0 -0.31825686229E+03 -0.52313734564E+03  0.27612069709E+03  0.67171627355E+03  0.00000000000E+00 0.  1.
          2    1    6    6  503    0  0.52505570895E+01 -0.11328548004E+02 -0.47920024523E+02  0.49520027261E+02  0.00000000000E+00 0. -1.
         -2    1    6    6    0  503 -0.12992926244E+02 -0.26644827729E+03 -0.19256076192E+03  0.32900326386E+03  0.00000000000E+00 0.  1.
<mgrwt>
<rscale>  0 0.38324744E+04</rscale>
<asrwt>0</asrwt>
<pdfrwt beam="1">  1        1 0.39764744E+00 0.38324744E+04</pdfrwt>
<pdfrwt beam="2">  1       -2 0.21856149E+00 0.38324744E+04</pdfrwt>
<totfact> 0.83348719E-02</totfact>
</mgrwt>
</event>
<event>
12    5  0.5297412E-008  0.1322987E+04  0.7818608E-02  0.9011532E-01
          1   -1    0    0  501    0  0.00000000000E+00  0.00000000000E+00  0.21610204040E+04  0.21610204040E+04  0.00000000000E+00 0. -1.
         -2   -1    0    0    0  501 -0.00000000000E+00 -0.00000000000E+00 -0.20248473195E+03  0.20248473195E+03  0.00000000000E+00 0.  1.
        -24    2    1    2    0    0 -0.98223290293E+02 -0.29131598181E+03  0.22915931636E+03  0.38981869005E+03  0.70226795609E+02 0.  0.
        254    2    1    2    0    0  0.98223290293E+02  0.29131598181E+03  0.17293763557E+04  0.19736864459E+04  0.90010154486E+03 0.  0.
         23    2    4    4    0    0  0.32712962933E+03 -0.19855282362E+03  0.86193965260E+03  0.94739461834E+03  0.90441030398E+02 0.  0.
         23    2    4    4    0    0 -0.22890633904E+03  0.48986880544E+03  0.86743670310E+03  0.10262918276E+04  0.91972402642E+02 0.  0.
          1    1    3    3  502    0  0.29542471212E+00 -0.42544271026E+02  0.58950705544E+02  0.72699985950E+02  0.00000000000E+00 0. -1.
         -2    1    3    3    0  502 -0.98518715005E+02 -0.24877171079E+03  0.17020861082E+03  0.31711870410E+03  0.00000000000E+00 0.  1.
         13    1    5    5    0    0  0.30815359257E+03 -0.20166319347E+03  0.77094482881E+03  0.85439019733E+03  0.00000000000E+00 0. -1.
        -13    1    5    5    0    0  0.18976036763E+02  0.31103698522E+01  0.90994823785E+02  0.93004421011E+02  0.00000000000E+00 0.  1.
          1    1    6    6  503    0 -0.18716068827E+03  0.42475658590E+03  0.67790065045E+03  0.82158175027E+03  0.00000000000E+00 0. -1.
         -1    1    6    6    0  503 -0.41745650765E+02  0.65112219537E+02  0.18953605264E+03  0.20471007729E+03  0.00000000000E+00 0.  1.
<mgrwt>
<rscale>  0 0.13229870E+04</rscale>
<asrwt>0</asrwt>
<pdfrwt beam="1">  1        1 0.33246466E+00 0.13229870E+04</pdfrwt>
<pdfrwt beam="2">  1       -2 0.31151499E-01 0.13229870E+04</pdfrwt>
<totfact> 0.19095385E+01</totfact>
</mgrwt>
</event>
<event>
12    5  0.5297412E-008  0.1536974E+04  0.7818608E-02  0.8860231E-01
          1   -1    0    0  501    0  0.00000000000E+00  0.00000000000E+00  0.31480799925E+04  0.31480799925E+04  0.00000000000E+00 0. -1.
         -2   -1    0    0    0  501 -0.00000000000E+00 -0.00000000000E+00 -0.18759753786E+03  0.18759753786E+03  0.00000000000E+00 0.  1.
        -24    2    1    2    0    0  0.12008551724E+03  0.38012399639E+03  0.14231413534E+04  0.14800399867E+04  0.79197642401E+02 0.  0.
        254    2    1    2    0    0 -0.12008551724E+03 -0.38012399639E+03  0.15373411013E+04  0.18556375437E+04  0.95971779584E+03 0.  0.
         23    2    4    4    0    0 -0.27383026902E+03 -0.44598696494E+02  0.14322119376E+04  0.14615471766E+04  0.88977835610E+02 0.  0.
         23    2    4    4    0    0  0.15374475178E+03 -0.33552529989E+03  0.10512916374E+03  0.39409036712E+03  0.89668282117E+02 0.  0.
          1    1    3    3  502    0  0.10932590829E+03  0.21956156302E+03  0.83453365190E+03  0.86983093204E+03  0.00000000000E+00 0. -1.
         -2    1    3    3    0  502  0.10759608946E+02  0.16056243337E+03  0.58860770147E+03  0.61020905469E+03  0.00000000000E+00 0.  1.
         13    1    5    5    0    0 -0.33819115477E+02  0.22396798080E+02  0.25970184495E+03  0.26285052293E+03  0.00000000000E+00 0. -1.
        -13    1    5    5    0    0 -0.24001115354E+03 -0.66995494574E+02  0.11725100926E+04  0.11986966536E+04  0.00000000000E+00 0.  1.
          4    1    6    6  503    0  0.73330774208E+02 -0.88091716172E+02  0.62172195965E+02  0.13039530227E+03  0.00000000000E+00 0. -1.
         -4    1    6    6    0  503  0.80413977574E+02 -0.24743358372E+03  0.42956967771E+02  0.26369506484E+03  0.00000000000E+00 0.  1.
<mgrwt>
<rscale>  0 0.15369737E+04</rscale>
<asrwt>0</asrwt>
<pdfrwt beam="1">  1        1 0.48431996E+00 0.15369737E+04</pdfrwt>
<pdfrwt beam="2">  1       -2 0.28861162E-01 0.15369737E+04</pdfrwt>
<totfact> 0.43696306E+00</totfact>
</mgrwt>
</event>
<event>
12    5  0.5297412E-008  0.1566213E+04  0.7818608E-02  0.8841578E-01
         -2   -1    0    0    0  501 -0.00000000000E+00  0.00000000000E+00  0.88531554646E+03  0.88531554646E+03  0.00000000000E+00 0.  1.
          1   -1    0    0  501    0  0.00000000000E+00 -0.00000000000E+00 -0.69269731028E+03  0.69269731028E+03  0.00000000000E+00 0. -1.
        -24    2    1    2    0    0 -0.10587603877E+03  0.35651178590E+01 -0.45011556183E+03  0.46907628330E+03  0.78778771914E+02 0.  0.
        254    2    1    2    0    0  0.10587603877E+03 -0.35651178590E+01  0.64273379800E+03  0.11089365734E+04  0.89744701414E+03 0.  0.
         23    2    4    4    0    0  0.19482663293E+03 -0.29163680247E+03 -0.32285696181E+02  0.36428988935E+03  0.93033949966E+02 0.  0.
         23    2    4    4    0    0 -0.88950594168E+02  0.28807168462E+03  0.67501949418E+03  0.74464668410E+03  0.89162003841E+02 0.  0.
          3    1    3    3  502    0 -0.60826570399E+02 -0.23314229615E+01 -0.38436580700E+03  0.38915598517E+03  0.00000000000E+00 0. -1.
         -4    1    3    3    0  502 -0.45049468367E+02  0.58965408205E+01 -0.65749754825E+02  0.79920298131E+02  0.00000000000E+00 0.  1.
         13    1    5    5    0    0  0.19940496002E+03 -0.29490879899E+03 -0.35578431379E+02  0.35776998558E+03  0.00000000000E+00 0.  1.
        -13    1    5    5    0    0 -0.45783270892E+01  0.32719965112E+01  0.32927351976E+01  0.65199037713E+01  0.00000000000E+00 0. -1.
          2    1    6    6  503    0 -0.63367066908E+02  0.14141322356E+03  0.24813449787E+03  0.29254711415E+03  0.00000000000E+00 0. -1.
         -2    1    6    6    0  503 -0.25583527260E+02  0.14665846106E+03  0.42688499631E+03  0.45209956995E+03  0.00000000000E+00 0.  1.
<mgrwt>
<rscale>  0 0.15662129E+04</rscale>
<asrwt>0</asrwt>
<pdfrwt beam="1">  1        1 0.10656882E+00 0.15662129E+04</pdfrwt>
<pdfrwt beam="2">  1       -2 0.13620239E+00 0.15662129E+04</pdfrwt>
<totfact> 0.89901038E+00</totfact>
</mgrwt>
</event>
<event>
12    5  0.5297412E-008  0.1797096E+04  0.7818608E-02  0.8707845E-01
          1   -1    0    0  501    0  0.00000000000E+00  0.00000000000E+00  0.17218360870E+04  0.17218360870E+04  0.00000000000E+00 0. -1.
         -2   -1    0    0    0  501 -0.00000000000E+00 -0.00000000000E+00 -0.46891144395E+03  0.46891144395E+03  0.00000000000E+00 0.  1.
        -24    2    1    2    0    0  0.26396126258E+02  0.10244452824E+03 -0.33165311132E+03  0.35705175243E+03  0.79375883113E+02 0.  0.
        254    2    1    2    0    0 -0.26396126258E+02 -0.10244452824E+03  0.15845777544E+04  0.18336957785E+04  0.91671255673E+03 0.  0.
         23    2    4    4    0    0 -0.10649135286E+03  0.15063458843E+03 -0.17186131707E+02  0.20761973970E+03  0.93698483051E+02 0.  0.
         23    2    4    4    0    0  0.80095226602E+02 -0.25307911667E+03  0.16017638861E+04  0.16260760388E+04  0.89506718390E+02 0.  0.
          1    1    3    3  502    0 -0.27125202322E+02  0.19470525537E+02 -0.90853837292E+02  0.96795132710E+02  0.00000000000E+00 0. -1.
         -2    1    3    3    0  502  0.53521328580E+02  0.82974002702E+02 -0.24079927403E+03  0.26025661972E+03  0.00000000000E+00 0.  1.
         13    1    5    5    0    0 -0.88769039448E+02  0.14895235492E+03 -0.40716549447E+02  0.17811396296E+03  0.00000000000E+00 0.  1.
        -13    1    5    5    0    0 -0.17722313412E+02  0.16822335050E+01  0.23530417740E+02  0.29505776744E+02  0.00000000000E+00 0. -1.
          2    1    6    6  503    0 -0.18082633383E+02 -0.30228170346E+02  0.15420634357E+03  0.15817812842E+03  0.00000000000E+00 0. -1.
         -2    1    6    6    0  503  0.98177859985E+02 -0.22285094632E+03  0.14475575425E+04  0.14678979104E+04  0.00000000000E+00 0.  1.
<mgrwt>
<rscale>  0 0.17970962E+04</rscale>
<asrwt>0</asrwt>
<pdfrwt beam="1">  1        1 0.26489786E+00 0.17970962E+04</pdfrwt>
<pdfrwt beam="2">  1       -2 0.72140223E-01 0.17970962E+04</pdfrwt>
<totfact> 0.66392284E+00</totfact>
</mgrwt>
</event>
<event>
12    5  0.5297412E-008  0.1387171E+04  0.7818608E-02  0.8963157E-01
          3   -1    0    0  501    0  0.00000000000E+00  0.00000000000E+00  0.17492121093E+04  0.17492121093E+04  0.00000000000E+00 0. -1.
         -4   -1    0    0    0  501 -0.00000000000E+00 -0.00000000000E+00 -0.27501583247E+03  0.27501583247E+03  0.00000000000E+00 0.  1.
        -24    2    1    2    0    0 -0.15164735293E+03 -0.36341424739E+03  0.34708998020E+03  0.53104286580E+03  0.80425344918E+02 0.  0.
        254    2    1    2    0    0  0.15164735293E+03  0.36341424739E+03  0.11271062966E+04  0.14931850760E+04  0.89675316132E+03 0.  0.
         23    2    4    4    0    0  0.31346813586E+03 -0.43167376495E+02  0.57694489030E+02  0.33403958941E+03  0.90155968379E+02 0.  0.
         23    2    4    4    0    0 -0.16182078293E+03  0.40658162388E+03  0.10694118076E+04  0.11591454865E+04  0.92098111416E+02 0.  0.
          1    1    3    3  502    0 -0.28300771791E+02 -0.43209448407E+02  0.15652005868E+02  0.53971987209E+02  0.00000000000E+00 0. -1.
         -2    1    3    3    0  502 -0.12334658114E+03 -0.32020479898E+03  0.33143797433E+03  0.47707087859E+03  0.00000000000E+00 0.  1.
         13    1    5    5    0    0  0.76556423103E+01  0.67991159052E+01  0.19240238278E+02  0.21795036253E+02  0.00000000000E+00 0. -1.
        -13    1    5    5    0    0  0.30581249355E+03 -0.49966492400E+02  0.38454250752E+02  0.31224455315E+03  0.00000000000E+00 0.  1.
          4    1    6    6  503    0 -0.14365403722E+03  0.39901588462E+03  0.98402219566E+03  0.10715175407E+04  0.00000000000E+00 0.  1.
         -4    1    6    6    0  503 -0.18166745711E+02  0.75657392589E+01  0.85389611924E+02  0.87627945798E+02  0.00000000000E+00 0. -1.
<mgrwt>
<rscale>  0 0.13871713E+04</rscale>
<asrwt>0</asrwt>
<pdfrwt beam="1">  1        3 0.26910955E+00 0.13871713E+04</pdfrwt>
<pdfrwt beam="2">  1       -4 0.42310129E-01 0.13871713E+04</pdfrwt>
<totfact> 0.70198940E-01</totfact>
</mgrwt>
</event>
<event>
12    5  0.5297412E-008  0.1802322E+04  0.7818608E-02  0.8705065E-01
          1   -1    0    0  501    0  0.00000000000E+00  0.00000000000E+00  0.11890821028E+04  0.11890821028E+04  0.00000000000E+00 0. -1.
         -2   -1    0    0    0  501 -0.00000000000E+00 -0.00000000000E+00 -0.68295657795E+03  0.68295657795E+03  0.00000000000E+00 0.  1.
        -24    2    1    2    0    0 -0.47021387339E+03 -0.36766459029E+03  0.52489086387E+03  0.79863987735E+03  0.77697471283E+02 0.  0.
        254    2    1    2    0    0  0.47021387339E+03  0.36766459029E+03 -0.18765338979E+02  0.10733988034E+04  0.89193862770E+03 0.  0.
         23    2    4    4    0    0  0.17855502333E+03  0.45232645304E+03 -0.35677856456E+03  0.60966109817E+03  0.88964003990E+02 0.  0.
         23    2    4    4    0    0  0.29165885005E+03 -0.84661862749E+02  0.33801322558E+03  0.46373770527E+03  0.92559185373E+02 0.  0.
          1    1    3    3  502    0 -0.32009979806E+03 -0.21096598788E+03  0.30718731138E+03  0.49125815315E+03  0.00000000000E+00 0. -1.
         -4    1    3    3    0  502 -0.15011407533E+03 -0.15669860241E+03  0.21770355249E+03  0.30738172420E+03  0.00000000000E+00 0.  1.
         13    1    5    5    0    0  0.55189384042E+01  0.84059647959E+02 -0.36363175489E+02  0.91753820780E+02  0.00000000000E+00 0. -1.
        -13    1    5    5    0    0  0.17303608493E+03  0.36826680508E+03 -0.32041538907E+03  0.51790727739E+03  0.00000000000E+00 0.  1.
          1    1    6    6  503    0  0.23784515566E+03 -0.65309911394E+02  0.21154835109E+03  0.32494369889E+03  0.00000000000E+00 0. -1.
         -1    1    6    6    0  503  0.53813694388E+02 -0.19351951355E+02  0.12646487449E+03  0.13879400638E+03  0.00000000000E+00 0.  1.
<mgrwt>
<rscale>  0 0.18023223E+04</rscale>
<asrwt>0</asrwt>
<pdfrwt beam="1">  1        1 0.18293571E+00 0.18023223E+04</pdfrwt>
<pdfrwt beam="2">  1       -2 0.10507024E+00 0.18023223E+04</pdfrwt>
<totfact> 0.66102363E+00</totfact>
</mgrwt>
</event>
<event>
12    5  0.5297412E-008  0.2293533E+04  0.7818608E-02  0.8480475E-01
          1   -1    0    0  501    0  0.00000000000E+00  0.00000000000E+00  0.27513206950E+04  0.27513206950E+04  0.00000000000E+00 0. -1.
         -2   -1    0    0    0  501 -0.00000000000E+00 -0.00000000000E+00 -0.47797913254E+03  0.47797913254E+03  0.00000000000E+00 0.  1.
        -24    2    1    2    0    0 -0.49185584713E+03  0.11903791433E+03  0.21262515208E+04  0.21862942437E+04  0.53336579719E+02 0.  0.
        254    2    1    2    0    0  0.49185584713E+03 -0.11903791433E+03  0.14709004160E+03  0.10430055838E+04  0.90007386815E+03 0.  0.
         23    2    4    4    0    0  0.73042676690E+03 -0.20121840758E+03  0.11160923883E+03  0.77129111881E+03  0.91767414687E+02 0.  0.
         23    2    4    4    0    0 -0.23857091977E+03  0.82180493244E+02  0.35480802764E+02  0.27171446501E+03  0.94340584580E+02 0.  0.
          1    1    3    3  502    0 -0.47038957749E+03  0.11163070750E+03  0.20683328923E+04  0.21240830311E+04  0.00000000000E+00 0. -1.
         -2    1    3    3    0  502 -0.21466269642E+02  0.74072068355E+01  0.57918628504E+02  0.62211212600E+02  0.00000000000E+00 0.  1.
         13    1    5    5    0    0  0.72876934259E+03 -0.19643494517E+03  0.11711567712E+03  0.76381118361E+03  0.00000000000E+00 0. -1.
        -13    1    5    5    0    0  0.16574243133E+01 -0.47834624056E+01 -0.55064382829E+01  0.74799351938E+01  0.00000000000E+00 0.  1.
          3    1    6    6  503    0 -0.22856778878E+03  0.93562204525E+02  0.16639350937E+02  0.24753583212E+03  0.00000000000E+00 0. -1.
         -3    1    6    6    0  503 -0.10003130990E+02 -0.11381711281E+02  0.18841451827E+02  0.24178632886E+02  0.00000000000E+00 0.  1.
<mgrwt>
<rscale>  0 0.22935334E+04</rscale>
<asrwt>0</asrwt>
<pdfrwt beam="1">  1        1 0.42328010E+00 0.22935334E+04</pdfrwt>
<pdfrwt beam="2">  1       -2 0.73535253E-01 0.22935334E+04</pdfrwt>
<totfact> 0.11970306E+00</totfact>
</mgrwt>
</event>
<event>
12    5  0.5297412E-008  0.1471176E+04  0.7818608E-02  0.8903850E-01
         -2   -1    0    0    0  501 -0.00000000000E+00  0.00000000000E+00  0.11103708355E+04  0.11103708355E+04  0.00000000000E+00 0.  1.
          1   -1    0    0  501    0  0.00000000000E+00 -0.00000000000E+00 -0.48730570837E+03  0.48730570837E+03  0.00000000000E+00 0. -1.
        -24    2    1    2    0    0  0.10001044083E+03  0.18062447024E+03  0.62245873216E+03  0.66068135359E+03  0.80110487550E+02 0.  0.
        254    2    1    2    0    0 -0.10001044083E+03 -0.18062447024E+03  0.60639499534E+00  0.93699519031E+03  0.91396516970E+03 0.  0.
         23    2    4    4    0    0 -0.45727651761E+02  0.33436025098E+03 -0.16542888817E+03  0.38740667599E+03  0.93964993425E+02 0.  0.
         23    2    4    4    0    0 -0.54282789066E+02 -0.51498472122E+03  0.16603528317E+03  0.54958851432E+03  0.79523176112E+02 0.  0.
          3    1    3    3  502    0 -0.64240080543E+01  0.60061594143E+02  0.15670011076E+03  0.16793923807E+03  0.00000000000E+00 0. -1.
         -4    1    3    3    0  502  0.10643444888E+03  0.12056287610E+03  0.46575862140E+03  0.49274211552E+03  0.00000000000E+00 0.  1.
         13    1    5    5    0    0  0.11117148602E+02  0.47189482281E+02 -0.57953922719E+02  0.75558556031E+02  0.00000000000E+00 0. -1.
        -13    1    5    5    0    0 -0.56844800363E+02  0.28717076870E+03 -0.10747496545E+03  0.31184811996E+03  0.00000000000E+00 0.  1.
          1    1    6    6  503    0  0.15989214675E+02 -0.18967333777E+03  0.74594462510E+02  0.20444061212E+03  0.00000000000E+00 0. -1.
         -1    1    6    6    0  503 -0.70272003740E+02 -0.32531138345E+03  0.91440820657E+02  0.34514790220E+03  0.00000000000E+00 0.  1.
<mgrwt>
<rscale>  0 0.14711765E+04</rscale>
<asrwt>0</asrwt>
<pdfrwt beam="1">  1        1 0.74970109E-01 0.14711765E+04</pdfrwt>
<pdfrwt beam="2">  1       -2 0.17082628E+00 0.14711765E+04</pdfrwt>
<totfact> 0.81794143E+00</totfact>
</mgrwt>
</event>
<event>
12    5  0.5297412E-008  0.1308957E+04  0.7818608E-02  0.9022492E-01
          1   -1    0    0  501    0  0.00000000000E+00  0.00000000000E+00  0.61335641918E+03  0.61335641918E+03  0.00000000000E+00 0. -1.
         -2   -1    0    0    0  501 -0.00000000000E+00 -0.00000000000E+00 -0.69835720757E+03  0.69835720757E+03  0.00000000000E+00 0.  1.
        -24    2    1    2    0    0  0.24228885183E+03  0.92453855841E+02 -0.24027256005E+03  0.36234377839E+03  0.79438702409E+02 0.  0.
        254    2    1    2    0    0 -0.24228885183E+03 -0.92453855841E+02  0.15527177166E+03  0.94936984835E+03  0.89996787871E+03 0.  0.
         23    2    4    4    0    0 -0.35764189237E+03 -0.15849372764E+03 -0.27718238787E+03  0.48811274987E+03  0.91629665286E+02 0.  0.
         23    2    4    4    0    0  0.11535304054E+03  0.66039871804E+02  0.43245415953E+03  0.46125709848E+03  0.89855006375E+02 0.  0.
          3    1    3    3  502    0  0.62826393238E+02  0.21443413619E+02 -0.11331791243E+03  0.13133135556E+03  0.00000000000E+00 0. -1.
         -4    1    3    3    0  502  0.17946245860E+03  0.71010442222E+02 -0.12695464762E+03  0.23101242283E+03  0.00000000000E+00 0.  1.
         13    1    5    5    0    0 -0.24068772807E+03 -0.14620295054E+03 -0.16967235936E+03  0.32877742429E+03  0.00000000000E+00 0.  1.
        -13    1    5    5    0    0 -0.11695416430E+03 -0.12290777106E+02 -0.10751002851E+03  0.15933532559E+03  0.00000000000E+00 0. -1.
          4    1    6    6  503    0  0.25234226312E+02 -0.33668304143E+00  0.15669130843E+02  0.29705238501E+02  0.00000000000E+00 0. -1.
         -4    1    6    6    0  503  0.90118814229E+02  0.66376554845E+02  0.41678502869E+03  0.43155185998E+03  0.00000000000E+00 0.  1.
<mgrwt>
<rscale>  0 0.13089566E+04</rscale>
<asrwt>0</asrwt>
<pdfrwt beam="1">  1        1 0.94362526E-01 0.13089566E+04</pdfrwt>
<pdfrwt beam="2">  1       -2 0.10743957E+00 0.13089566E+04</pdfrwt>
<totfact> 0.19824929E+01</totfact>
</mgrwt>
</event>
<event>
12    5  0.5297412E-008  0.1937221E+04  0.7818608E-02  0.8636548E-01
         -2   -1    0    0    0  501 -0.00000000000E+00  0.00000000000E+00  0.97046170615E+03  0.97046170615E+03  0.00000000000E+00 0.  1.
          1   -1    0    0  501    0  0.00000000000E+00 -0.00000000000E+00 -0.96676250325E+03  0.96676250325E+03  0.00000000000E+00 0. -1.
        -24    2    1    2    0    0  0.56134591897E+03 -0.37990201292E+03  0.33709129858E+03  0.76113172028E+03  0.79095966243E+02 0.  0.
        254    2    1    2    0    0 -0.56134591897E+03  0.37990201292E+03 -0.33339209568E+03  0.11760924891E+04  0.90144798705E+03 0.  0.
         23    2    4    4    0    0 -0.60434582815E+03  0.15482071595E+03  0.13652354464E+03  0.64512980635E+03  0.91380822389E+02 0.  0.
         23    2    4    4    0    0  0.42999909187E+02  0.22508129697E+03 -0.46991564031E+03  0.53096268278E+03  0.92682679401E+02 0.  0.
          3    1    3    3  502    0  0.10254435342E+03 -0.97442862162E+02  0.46021550645E+02  0.14875630719E+03  0.00000000000E+00 0. -1.
         -4    1    3    3    0  502  0.45880156555E+03 -0.28245915076E+03  0.29106974793E+03  0.61237541309E+03  0.00000000000E+00 0.  1.
         13    1    5    5    0    0 -0.22919667033E+03  0.13989436967E+02  0.57227419374E+02  0.23664698512E+03  0.00000000000E+00 0.  1.
        -13    1    5    5    0    0 -0.37514915782E+03  0.14083127899E+03  0.79296125264E+02  0.40848282123E+03  0.00000000000E+00 0. -1.
          3    1    6    6  503    0  0.27385592698E+02  0.23134982500E+02 -0.13393782924E+03  0.13865258816E+03  0.00000000000E+00 0. -1.
         -3    1    6    6    0  503  0.15614316489E+02  0.20194631447E+03 -0.33597781107E+03  0.39231009462E+03  0.00000000000E+00 0.  1.
<mgrwt>
<rscale>  0 0.19372207E+04</rscale>
<asrwt>0</asrwt>
<pdfrwt beam="1">  1        1 0.14873269E+00 0.19372207E+04</pdfrwt>
<pdfrwt beam="2">  1       -2 0.14930180E+00 0.19372207E+04</pdfrwt>
<totfact> 0.39852687E+00</totfact>
</mgrwt>
</event>
<event>
12    5  0.5297412E-008  0.1557225E+04  0.7818608E-02  0.8847266E-01
         -2   -1    0    0    0  501 -0.00000000000E+00  0.00000000000E+00  0.12977242976E+04  0.12977242976E+04  0.00000000000E+00 0.  1.
          1   -1    0    0  501    0  0.00000000000E+00 -0.00000000000E+00 -0.46715419311E+03  0.46715419311E+03  0.00000000000E+00 0. -1.
        -24    2    1    2    0    0 -0.45077893329E+03 -0.12529504441E+03  0.49147098308E+03  0.68389251129E+03  0.85233473048E+02 0.  0.
        254    2    1    2    0    0  0.45077893329E+03  0.12529504441E+03  0.33909912144E+03  0.10809859795E+04  0.91358742262E+03 0.  0.
         23    2    4    4    0    0  0.53042961388E+03 -0.15457834879E+03  0.48655413761E+03  0.74203716718E+03  0.92920328554E+02 0.  0.
         23    2    4    4    0    0 -0.79650680584E+02  0.27987339320E+03 -0.14745501617E+03  0.33894881228E+03  0.92032431293E+02 0.  0.
          3    1    3    3  502    0 -0.50057486211E+02 -0.63285509462E+01  0.21285220853E+02  0.54761876425E+02  0.00000000000E+00 0. -1.
         -4    1    3    3    0  502 -0.40072144708E+03 -0.11896649347E+03  0.47018576223E+03  0.62913063486E+03  0.00000000000E+00 0.  1.
         13    1    5    5    0    0  0.42248419024E+02  0.12730670838E+02  0.35140438581E+02  0.56407883436E+02  0.00000000000E+00 0. -1.
        -13    1    5    5    0    0  0.48818119485E+03 -0.16730901963E+03  0.45141369903E+03  0.68562928375E+03  0.00000000000E+00 0.  1.
          2    1    6    6  503    0 -0.52421064829E+02  0.13339877613E+03 -0.12112659513E+03  0.18765621108E+03  0.00000000000E+00 0. -1.
         -2    1    6    6    0  503 -0.27229615755E+02  0.14647461708E+03 -0.26328421042E+02  0.15129260120E+03  0.00000000000E+00 0.  1.
<mgrwt>
<rscale>  0 0.15572249E+04</rscale>
<asrwt>0</asrwt>
<pdfrwt beam="1">  1        1 0.71869877E-01 0.15572249E+04</pdfrwt>
<pdfrwt beam="2">  1       -2 0.19964989E+00 0.15572249E+04</pdfrwt>
<totfact> 0.54735320E+00</totfact>
</mgrwt>
</event>
<event>
12    5  0.5297412E-008  0.1632492E+04  0.7818608E-02  0.8800832E-01
         -2   -1    0    0    0  501 -0.00000000000E+00  0.00000000000E+00  0.52922841186E+03  0.52922841186E+03  0.00000000000E+00 0.  1.
          1   -1    0    0  501    0  0.00000000000E+00 -0.00000000000E+00 -0.12589221683E+04  0.12589221683E+04  0.00000000000E+00 0. -1.
        -24    2    1    2    0    0  0.42085688816E+03  0.36200327922E+03 -0.30937490615E+03  0.64114921764E+03  0.84809151941E+02 0.  0.
        254    2    1    2    0    0 -0.42085688816E+03 -0.36200327922E+03 -0.42031885031E+03  0.11470013625E+04  0.91146985427E+03 0.  0.
         23    2    4    4    0    0 -0.42744561329E+03 -0.63735710974E+03 -0.33296696300E+03  0.84162198700E+03  0.92340310251E+02 0.  0.
         23    2    4    4    0    0  0.65887251315E+01  0.27535383052E+03 -0.87351887309E+02  0.30537937553E+03  0.98808236023E+02 0.  0.
          3    1    3    3  502    0  0.27773645782E+03  0.24450637233E+03 -0.25048589657E+03  0.44683787943E+03  0.00000000000E+00 0. -1.
         -4    1    3    3    0  502  0.14312043034E+03  0.11749690689E+03 -0.58889009579E+02  0.19431133822E+03  0.00000000000E+00 0.  1.
         13    1    5    5    0    0 -0.39465222323E+03 -0.55772404095E+03 -0.32026181423E+03  0.75456882576E+03  0.00000000000E+00 0.  1.
        -13    1    5    5    0    0 -0.32793390057E+02 -0.79633068792E+02 -0.12705148765E+02  0.87053161240E+02  0.00000000000E+00 0. -1.
          4    1    6    6  503    0 -0.44517784468E+02  0.93576312762E+02 -0.35920864421E+02  0.10967528411E+03  0.00000000000E+00 0. -1.
         -4    1    6    6    0  503  0.51106509599E+02  0.18177751775E+03 -0.51431022887E+02  0.19570409142E+03  0.00000000000E+00 0.  1.
<mgrwt>
<rscale>  0 0.16324918E+04</rscale>
<asrwt>0</asrwt>
<pdfrwt beam="1">  1        1 0.19368033E+00 0.16324918E+04</pdfrwt>
<pdfrwt beam="2">  1       -2 0.81419756E-01 0.16324918E+04</pdfrwt>
<totfact> 0.10797499E+01</totfact>
</mgrwt>
</event>
<event>
12    5  0.5297412E-008  0.1650052E+04  0.7818608E-02  0.8790376E-01
         -2   -1    0    0    0  501 -0.00000000000E+00  0.00000000000E+00  0.22998254939E+03  0.22998254939E+03  0.00000000000E+00 0.  1.
          1   -1    0    0  501    0  0.00000000000E+00 -0.00000000000E+00 -0.29596488360E+04  0.29596488360E+04  0.00000000000E+00 0. -1.
        -24    2    1    2    0    0 -0.24561772429E+03 -0.52187616878E+03 -0.10684445055E+04  0.12168053914E+04  0.79742693336E+02 0.  0.
        254    2    1    2    0    0  0.24561772429E+03  0.52187616878E+03 -0.16612217812E+04  0.19728259941E+04  0.89426047358E+03 0.  0.
         23    2    4    4    0    0  0.44997175485E+03 -0.21350119566E+02 -0.55734107339E+03  0.72240535589E+03  0.91159302116E+02 0.  0.
         23    2    4    4    0    0 -0.20435403056E+03  0.54322628835E+03 -0.11038807078E+04  0.12504206382E+04  0.90242923311E+02 0.  0.
          3    1    3    3  502    0 -0.10119431402E+03 -0.15932446891E+03 -0.41077988146E+03  0.45206712621E+03  0.00000000000E+00 0. -1.
         -4    1    3    3    0  502 -0.14442341027E+03 -0.36255169987E+03 -0.65766462401E+03  0.76473826515E+03  0.00000000000E+00 0.  1.
         13    1    5    5    0    0  0.39192708776E+03 -0.18929718538E+02 -0.52649397615E+03  0.65662857331E+03  0.00000000000E+00 0.  1.
        -13    1    5    5    0    0  0.58044667089E+02 -0.24204010277E+01 -0.30847097245E+02  0.65776782584E+02  0.00000000000E+00 0. -1.
          3    1    6    6  503    0 -0.17205944925E+02  0.15884134008E+02 -0.83024174293E+02  0.86263339670E+02  0.00000000000E+00 0. -1.
         -3    1    6    6    0  503 -0.18714808564E+03  0.52734215434E+03 -0.10208565335E+04  0.11641572985E+04  0.00000000000E+00 0.  1.
<mgrwt>
<rscale>  0 0.16500516E+04</rscale>
<asrwt>0</asrwt>
<pdfrwt beam="1">  1        1 0.45533056E+00 0.16500516E+04</pdfrwt>
<pdfrwt beam="2">  1       -2 0.35381933E-01 0.16500516E+04</pdfrwt>
<totfact> 0.40444117E+00</totfact>
</mgrwt>
</event>
<event>
12    5  0.5297412E-008  0.1086403E+04  0.7818608E-02  0.9218546E-01
         -2   -1    0    0    0  501 -0.00000000000E+00  0.00000000000E+00  0.18050152792E+03  0.18050152792E+03  0.00000000000E+00 0.  1.
          1   -1    0    0  501    0  0.00000000000E+00 -0.00000000000E+00 -0.16347121219E+04  0.16347121219E+04  0.00000000000E+00 0. -1.
        -24    2    1    2    0    0 -0.20339145849E+02 -0.14702683957E+03 -0.35636075925E+03  0.39418513710E+03  0.79739320109E+02 0.  0.
        254    2    1    2    0    0  0.20339145849E+02  0.14702683957E+03 -0.10978498348E+04  0.14210285128E+04  0.88995348304E+03 0.  0.
         23    2    4    4    0    0  0.27584404751E+02 -0.34621677341E+03 -0.67505860376E+03  0.76494221883E+03  0.93837764576E+02 0.  0.
         23    2    4    4    0    0 -0.72452589028E+01  0.49324361298E+03 -0.42279123101E+03  0.65608629393E+03  0.91405932771E+02 0.  0.
          3    1    3    3  502    0 -0.16950731115E+02 -0.15345266422E+03 -0.35454020751E+03  0.38669601263E+03  0.00000000000E+00 0. -1.
         -4    1    3    3    0  502 -0.33884147331E+01  0.64258246469E+01 -0.18205517429E+01  0.74891244778E+01  0.00000000000E+00 0.  1.
         13    1    5    5    0    0  0.45723005406E+01 -0.15457326845E+03 -0.20491188950E+03  0.25671518014E+03  0.00000000000E+00 0. -1.
        -13    1    5    5    0    0  0.23012104211E+02 -0.19164350496E+03 -0.47014671426E+03  0.50822703869E+03  0.00000000000E+00 0.  1.
          4    1    6    6  503    0 -0.44619134295E+02  0.35437489183E+03 -0.28536989134E+03  0.45717437153E+03  0.00000000000E+00 0.  1.
         -4    1    6    6    0  503  0.37373875392E+02  0.13886872116E+03 -0.13742133967E+03  0.19891192240E+03  0.00000000000E+00 0. -1.
<mgrwt>
<rscale>  0 0.10864033E+04</rscale>
<asrwt>0</asrwt>
<pdfrwt beam="1">  1        1 0.25149418E+00 0.10864033E+04</pdfrwt>
<pdfrwt beam="2">  1       -2 0.27769465E-01 0.10864033E+04</pdfrwt>
<totfact> 0.54751218E+01</totfact>
</mgrwt>
</event>
<event>
12    5  0.5297412E-008  0.2157335E+04  0.7818608E-02  0.8536399E-01
         -2   -1    0    0    0  501 -0.00000000000E+00  0.00000000000E+00  0.55304491015E+03  0.55304491015E+03  0.00000000000E+00 0.  1.
          1   -1    0    0  501    0  0.00000000000E+00 -0.00000000000E+00 -0.21038497076E+04  0.21038497076E+04  0.00000000000E+00 0. -1.
        -24    2    1    2    0    0 -0.33502512523E+03  0.23833352327E+02  0.36767168980E+03  0.50515340123E+03  0.84779856570E+02 0.  0.
        254    2    1    2    0    0  0.33502512523E+03 -0.23833352327E+02 -0.19184764873E+04  0.21517412165E+04  0.91467391322E+03 0.  0.
         23    2    4    4    0    0  0.16323604416E+03  0.42807334905E+03 -0.75287665673E+03  0.88669946223E+03  0.97569861030E+02 0.  0.
         23    2    4    4    0    0  0.17178908106E+03 -0.45190670138E+03 -0.11655998306E+04  0.12650417543E+04  0.89311365862E+02 0.  0.
          1    1    3    3  502    0 -0.18200854143E+03  0.49017917274E+02  0.16931339591E+03  0.25337105478E+03  0.00000000000E+00 0. -1.
         -2    1    3    3    0  502 -0.15301658380E+03 -0.25184564947E+02  0.19835829389E+03  0.25178234645E+03  0.00000000000E+00 0.  1.
         13    1    5    5    0    0  0.14836992865E+03  0.42847237822E+03 -0.73217497716E+03  0.86120985352E+03  0.00000000000E+00 0. -1.
        -13    1    5    5    0    0  0.14866115519E+02 -0.39902916830E+00 -0.20701679566E+02  0.25489608702E+02  0.00000000000E+00 0.  1.
          3    1    6    6  503    0  0.14016992120E+03 -0.32911662094E+03 -0.94726824865E+03  0.10125623398E+04  0.00000000000E+00 0. -1.
         -3    1    6    6    0  503  0.31619159866E+02 -0.12279008044E+03 -0.21833158190E+03  0.25247941457E+03  0.00000000000E+00 0.  1.
<mgrwt>
<rscale>  0 0.21573348E+04</rscale>
<asrwt>0</asrwt>
<pdfrwt beam="1">  1        1 0.32366919E+00 0.21573348E+04</pdfrwt>
<pdfrwt beam="2">  1       -2 0.85083831E-01 0.21573348E+04</pdfrwt>
<totfact> 0.24479946E+00</totfact>
</mgrwt>
</event>
<event>
12    5  0.5297412E-008  0.2068476E+04  0.7818608E-02  0.8575259E-01
         -2   -1    0    0    0  501 -0.00000000000E+00  0.00000000000E+00  0.11837677373E+04  0.11837677373E+04  0.00000000000E+00 0.  1.
          1   -1    0    0  501    0  0.00000000000E+00 -0.00000000000E+00 -0.90359615388E+03  0.90359615388E+03  0.00000000000E+00 0. -1.
        -24    2    1    2    0    0 -0.49216736237E+03 -0.24914768181E+03  0.72845098700E+03  0.91717608939E+03  0.79169808262E+02 0.  0.
        254    2    1    2    0    0  0.49216736237E+03  0.24914768181E+03 -0.44827940356E+03  0.11701878018E+04  0.92955999695E+03 0.  0.
         23    2    4    4    0    0  0.38535286217E+03  0.59064831314E+03 -0.30179987534E+03  0.77252297529E+03  0.91358220155E+02 0.  0.
         23    2    4    4    0    0  0.10681450020E+03 -0.34150063134E+03 -0.14647952822E+03  0.39766482653E+03  0.93000233422E+02 0.  0.
          1    1    3    3  502    0 -0.57258327595E+02 -0.56853606232E+02  0.86576737426E+02  0.11834855337E+03  0.00000000000E+00 0. -1.
         -2    1    3    3    0  502 -0.43490903478E+03 -0.19229407558E+03  0.64187424958E+03  0.79882753602E+03  0.00000000000E+00 0.  1.
         13    1    5    5    0    0  0.11664265128E+03  0.11240754276E+03 -0.55845747234E+02  0.17134675733E+03  0.00000000000E+00 0. -1.
        -13    1    5    5    0    0  0.26871021090E+03  0.47824077039E+03 -0.24595412811E+03  0.60117621795E+03  0.00000000000E+00 0.  1.
          1    1    6    6  503    0  0.93703866442E+02 -0.16941132582E+03 -0.50046462677E+02  0.19996314743E+03  0.00000000000E+00 0. -1.
         -1    1    6    6    0  503  0.13110633757E+02 -0.17208930552E+03 -0.96433065544E+02  0.19770167911E+03  0.00000000000E+00 0.  1.
<mgrwt>
<rscale>  0 0.20684757E+04</rscale>
<asrwt>0</asrwt>
<pdfrwt beam="1">  1        1 0.13901479E+00 0.20684757E+04</pdfrwt>
<pdfrwt beam="2">  1       -2 0.18211811E+00 0.20684757E+04</pdfrwt>
<totfact> 0.25605638E+00</totfact>
</mgrwt>
</event>
<event>
12    5  0.5297412E-008  0.1397316E+04  0.7818608E-02  0.8955764E-01
         -2   -1    0    0    0  501 -0.00000000000E+00  0.00000000000E+00  0.64020882913E+03  0.64020882913E+03  0.00000000000E+00 0.  1.
          1   -1    0    0  501    0  0.00000000000E+00 -0.00000000000E+00 -0.76244319663E+03  0.76244319663E+03  0.00000000000E+00 0. -1.
        -24    2    1    2    0    0 -0.18940883830E+03  0.35009129876E+03 -0.10023684585E+03  0.41804268795E+03  0.79199988573E+02 0.  0.
        254    2    1    2    0    0  0.18940883830E+03 -0.35009129876E+03 -0.21997521647E+02  0.98460933781E+03  0.90029552462E+03 0.  0.
         23    2    4    4    0    0 -0.20819354484E+03 -0.42766665788E+03 -0.21113201459E+03  0.52871124924E+03  0.93357030306E+02 0.  0.
         23    2    4    4    0    0  0.39760238313E+03  0.77575359122E+02  0.18913449294E+03  0.45589808858E+03  0.89250318382E+02 0.  0.
          3    1    3    3  502    0 -0.21224875389E+02  0.84725518790E+02  0.28473072826E+01  0.87390022475E+02  0.00000000000E+00 0. -1.
         -4    1    3    3    0  502 -0.16818396291E+03  0.26536577997E+03 -0.10308415313E+03  0.33065266548E+03  0.00000000000E+00 0.  1.
         13    1    5    5    0    0 -0.18323229004E+03 -0.41742777262E+03 -0.20942968025E+03  0.50167799278E+03  0.00000000000E+00 0.  1.
        -13    1    5    5    0    0 -0.24961254795E+02 -0.10238885263E+02 -0.17023343324E+01  0.27033256455E+02  0.00000000000E+00 0. -1.
          3    1    6    6  503    0  0.10181507547E+03  0.19291329321E+01  0.11005977421E+02  0.10242637690E+03  0.00000000000E+00 0. -1.
         -3    1    6    6    0  503  0.29578730767E+03  0.75646226190E+02  0.17812851552E+03  0.35347171167E+03  0.00000000000E+00 0.  1.
<mgrwt>
<rscale>  0 0.13973158E+04</rscale>
<asrwt>0</asrwt>
<pdfrwt beam="1">  1        1 0.11729895E+00 0.13973158E+04</pdfrwt>
<pdfrwt beam="2">  1       -2 0.98493665E-01 0.13973158E+04</pdfrwt>
<totfact> 0.17458011E+01</totfact>
</mgrwt>
</event>
<event>
12    5  0.5297412E-008  0.1797740E+04  0.7818608E-02  0.8707502E-01
          1   -1    0    0  501    0  0.00000000000E+00  0.00000000000E+00  0.94453630143E+03  0.94453630143E+03  0.00000000000E+00 0. -1.
         -2   -1    0    0    0  501 -0.00000000000E+00 -0.00000000000E+00 -0.85541194528E+03  0.85541194528E+03  0.00000000000E+00 0.  1.
        -24    2    1    2    0    0  0.26271321790E+03 -0.56866574531E+03 -0.20504781846E+03  0.66414399351E+03  0.81508720488E+02 0.  0.
        254    2    1    2    0    0 -0.26271321790E+03  0.56866574531E+03  0.29417217462E+03  0.11358042532E+04  0.90061926945E+03 0.  0.
         23    2    4    4    0    0 -0.12982444551E+03 -0.10743140058E+03 -0.20479406863E+03  0.28010137165E+03  0.90112570554E+02 0.  0.
         23    2    4    4    0    0 -0.13288877239E+03  0.67609714589E+03  0.49896624325E+03  0.85570288155E+03  0.92159281058E+02 0.  0.
          3    1    3    3  502    0  0.15034961979E+02 -0.47354593904E+01 -0.44941965496E+01  0.16391231192E+02  0.00000000000E+00 0. -1.
         -4    1    3    3    0  502  0.24767825592E+03 -0.56393028592E+03 -0.20055362191E+03  0.64775276232E+03  0.00000000000E+00 0.  1.
         13    1    5    5    0    0 -0.49747556435E+02  0.41312349502E+01 -0.81365953768E+02  0.95458393586E+02  0.00000000000E+00 0.  1.
        -13    1    5    5    0    0 -0.80076889077E+02 -0.11156263553E+03 -0.12342811486E+03  0.18464297806E+03  0.00000000000E+00 0. -1.
          3    1    6    6  503    0 -0.11132285524E+03  0.65490651370E+03  0.48431878899E+03  0.82210705456E+03  0.00000000000E+00 0. -1.
         -3    1    6    6    0  503 -0.21565917147E+02  0.21190632193E+02  0.14647454253E+02  0.33595826991E+02  0.00000000000E+00 0.  1.
<mgrwt>
<rscale>  0 0.17977404E+04</rscale>
<asrwt>0</asrwt>
<pdfrwt beam="1">  1        1 0.14531328E+00 0.17977404E+04</pdfrwt>
<pdfrwt beam="2">  1       -2 0.13160184E+00 0.17977404E+04</pdfrwt>
<totfact> 0.58302488E+00</totfact>
</mgrwt>
</event>
<event>
12    5  0.5297412E-008  0.1583567E+04  0.7818608E-02  0.8830707E-01
          1   -1    0    0  501    0  0.00000000000E+00  0.00000000000E+00  0.79460906755E+03  0.79460906755E+03  0.00000000000E+00 0. -1.
         -2   -1    0    0    0  501 -0.00000000000E+00 -0.00000000000E+00 -0.78896817245E+03  0.78896817245E+03  0.00000000000E+00 0.  1.
        -24    2    1    2    0    0 -0.19368971018E+03  0.16416002148E+03  0.45972791177E+03  0.53129178655E+03  0.80355417462E+02 0.  0.
        254    2    1    2    0    0  0.19368971018E+03 -0.16416002148E+03 -0.45408701667E+03  0.10522854534E+04  0.91468324591E+03 0.  0.
         23    2    4    4    0    0  0.31893337138E+03 -0.22720526858E+03  0.14755013415E+03  0.42804428415E+03  0.90056302689E+02 0.  0.
         23    2    4    4    0    0 -0.12524366120E+03  0.63045247101E+02 -0.60163715081E+03  0.62424116930E+03  0.89716767430E+02 0.  0.
          3    1    3    3  502    0 -0.13611153640E+03  0.79251207974E+02  0.33199472821E+03  0.36746102360E+03  0.00000000000E+00 0. -1.
         -4    1    3    3    0  502 -0.57578173783E+02  0.84908813508E+02  0.12773318356E+03  0.16383076295E+03  0.00000000000E+00 0.  1.
         13    1    5    5    0    0  0.30193846133E+03 -0.23337459171E+03  0.14951021612E+03  0.40985831602E+03  0.00000000000E+00 0.  1.
        -13    1    5    5    0    0  0.16994910044E+02  0.61693231273E+01 -0.19600819752E+01  0.18185968124E+02  0.00000000000E+00 0. -1.
          3    1    6    6  503    0 -0.49671585780E+02 -0.16775404757E+01 -0.35223047331E+03  0.35571953405E+03  0.00000000000E+00 0. -1.
         -3    1    6    6    0  503 -0.75572075416E+02  0.64722787577E+02 -0.24940667750E+03  0.26852163525E+03  0.00000000000E+00 0.  1.
<mgrwt>
<rscale>  0 0.15835672E+04</rscale>
<asrwt>0</asrwt>
<pdfrwt beam="1">  1        1 0.12224755E+00 0.15835672E+04</pdfrwt>
<pdfrwt beam="2">  1       -2 0.12137972E+00 0.15835672E+04</pdfrwt>
<totfact> 0.97070160E+00</totfact>
</mgrwt>
</event>
<event>
12    5  0.5297412E-008  0.1530713E+04  0.7818608E-02  0.8864282E-01
         -2   -1    0    0    0  501 -0.00000000000E+00  0.00000000000E+00  0.14166380844E+04  0.14166380844E+04  0.00000000000E+00 0.  1.
          1   -1    0    0  501    0  0.00000000000E+00 -0.00000000000E+00 -0.41349326736E+03  0.41349326736E+03  0.00000000000E+00 0. -1.
        -24    2    1    2    0    0 -0.63757184656E+02 -0.38190776594E+03 -0.46925082716E+02  0.39819368383E+03  0.80235442118E+02 0.  0.
        254    2    1    2    0    0  0.63757184656E+02  0.38190776594E+03  0.10500698997E+04  0.14319376679E+04  0.89324138404E+03 0.  0.
         23    2    4    4    0    0  0.45762403382E+03  0.14999182773E+03  0.40713913568E+03  0.63773945464E+03  0.95037000633E+02 0.  0.
         23    2    4    4    0    0 -0.39386684916E+03  0.23191593821E+03  0.64293076403E+03  0.79419821325E+03  0.92058336524E+02 0.  0.
          1    1    3    3  502    0 -0.71638160914E+02 -0.20997888020E+03 -0.95235186432E+01  0.22206722774E+03  0.00000000000E+00 0. -1.
         -2    1    3    3    0  502  0.78809762585E+01 -0.17192888574E+03 -0.37401564072E+02  0.17612645609E+03  0.00000000000E+00 0.  1.
         13    1    5    5    0    0  0.28668169869E+02  0.13853545305E+02  0.15112705724E+01  0.31875831282E+02  0.00000000000E+00 0. -1.
        -13    1    5    5    0    0  0.42895586395E+03  0.13613828243E+03  0.40562786511E+03  0.60586362336E+03  0.00000000000E+00 0.  1.
          4    1    6    6  503    0 -0.19069004086E+03  0.11802799932E+03  0.23767656219E+03  0.32677736844E+03  0.00000000000E+00 0.  1.
         -4    1    6    6    0  503 -0.20317680830E+03  0.11388793889E+03  0.40525420184E+03  0.46742084481E+03  0.00000000000E+00 0. -1.
<mgrwt>
<rscale>  0 0.15307127E+04</rscale>
<asrwt>0</asrwt>
<pdfrwt beam="1">  1        1 0.63614350E-01 0.15307127E+04</pdfrwt>
<pdfrwt beam="2">  1       -2 0.21794432E+00 0.15307127E+04</pdfrwt>
<totfact> 0.49277538E+00</totfact>
</mgrwt>
</event>
<event>
12    5  0.5297412E-008  0.2097917E+04  0.7818608E-02  0.8562161E-01
         -2   -1    0    0    0  501 -0.00000000000E+00  0.00000000000E+00  0.12079449481E+04  0.12079449481E+04  0.00000000000E+00 0.  1.
          1   -1    0    0  501    0  0.00000000000E+00 -0.00000000000E+00 -0.91089744676E+03  0.91089744676E+03  0.00000000000E+00 0. -1.
        -24    2    1    2    0    0 -0.79588101944E+03 -0.23956064418E+03 -0.57528672684E+01  0.83520058798E+03  0.81920860275E+02 0.  0.
        254    2    1    2    0    0  0.79588101944E+03  0.23956064418E+03  0.30280036858E+03  0.12836418069E+04  0.93017865260E+03 0.  0.
         23    2    4    4    0    0  0.47372389732E+02 -0.19598779182E+03  0.34698638552E+03  0.41178053651E+03  0.92240450229E+02 0.  0.
         23    2    4    4    0    0  0.74850862970E+03  0.43554843600E+03 -0.44186016939E+02  0.87186127035E+03  0.90675585455E+02 0.  0.
          3    1    3    3  502    0 -0.71210937235E+03 -0.20017602257E+03  0.16894425118E+02  0.73990243938E+03  0.00000000000E+00 0. -1.
         -4    1    3    3    0  502 -0.83771647084E+02 -0.39384621607E+02 -0.22647292387E+02  0.95298148601E+02  0.00000000000E+00 0.  1.
         13    1    5    5    0    0 -0.76215229336E+01 -0.48433357126E+01  0.71104512420E+02  0.71675638813E+02  0.00000000000E+00 0. -1.
        -13    1    5    5    0    0  0.54993912666E+02 -0.19114445611E+03  0.27588187310E+03  0.34010489770E+03  0.00000000000E+00 0.  1.
          2    1    6    6  503    0  0.39929822572E+03  0.21531980898E+03 -0.66008275097E+02  0.45843078604E+03  0.00000000000E+00 0. -1.
         -2    1    6    6    0  503  0.34921040398E+03  0.22022862702E+03  0.21822258158E+02  0.41343048431E+03  0.00000000000E+00 0.  1.
<mgrwt>
<rscale>  0 0.20979170E+04</rscale>
<asrwt>0</asrwt>
<pdfrwt beam="1">  1        1 0.14013807E+00 0.20979170E+04</pdfrwt>
<pdfrwt beam="2">  1       -2 0.18583768E+00 0.20979170E+04</pdfrwt>
<totfact> 0.23761087E+00</totfact>
</mgrwt>
</event>
<event>
12    5  0.5297412E-008  0.1128004E+04  0.7818608E-02  0.9178319E-01
          1   -1    0    0  501    0  0.00000000000E+00  0.00000000000E+00  0.45087421851E+03  0.45087421851E+03  0.00000000000E+00 0. -1.
         -2   -1    0    0    0  501 -0.00000000000E+00 -0.00000000000E+00 -0.70551452003E+03  0.70551452003E+03  0.00000000000E+00 0.  1.
        -24    2    1    2    0    0 -0.12922745481E+03 -0.29033835127E+02 -0.18967685212E+03  0.24438454229E+03  0.78764189984E+02 0.  0.
        254    2    1    2    0    0  0.12922745481E+03  0.29033835127E+02 -0.64963449400E+02  0.91200419625E+03  0.89999372529E+03 0.  0.
         23    2    4    4    0    0 -0.11732548753E+03  0.41370338182E+03  0.81190162001E+01  0.44077305518E+03  0.96432409476E+02 0.  0.
         23    2    4    4    0    0  0.24655294234E+03 -0.38466954669E+03 -0.73082465600E+02  0.47123114107E+03  0.89211703313E+02 0.  0.
          3    1    3    3  502    0 -0.11510647691E+03 -0.11310123408E+02 -0.10326894821E+03  0.15505449229E+03  0.00000000000E+00 0. -1.
         -4    1    3    3    0  502 -0.14120977900E+02 -0.17723711719E+02 -0.86407903913E+02  0.89330049997E+02  0.00000000000E+00 0.  1.
         13    1    5    5    0    0 -0.18314224634E+02  0.53462204514E+01  0.77267466324E+01  0.20583865297E+02  0.00000000000E+00 0. -1.
        -13    1    5    5    0    0 -0.99011262900E+02  0.40835716137E+03  0.39226956773E+00  0.42018918988E+03  0.00000000000E+00 0.  1.
          2    1    6    6  503    0  0.14813489432E+03 -0.25065662080E+03 -0.88337043377E+02  0.30426324408E+03  0.00000000000E+00 0. -1.
         -2    1    6    6    0  503  0.98418048017E+02 -0.13401292589E+03  0.15254577777E+02  0.16696789699E+03  0.00000000000E+00 0.  1.
<mgrwt>
<rscale>  0 0.11280041E+04</rscale>
<asrwt>0</asrwt>
<pdfrwt beam="1">  1        1 0.69365264E-01 0.11280041E+04</pdfrwt>
<pdfrwt beam="2">  1       -2 0.10854070E+00 0.11280041E+04</pdfrwt>
<totfact> 0.30129273E+01</totfact>
</mgrwt>
</event>
<event>
12    5  0.5297412E-008  0.1614467E+04  0.7818608E-02  0.8811709E-01
         -4   -1    0    0    0  501 -0.00000000000E+00  0.00000000000E+00  0.38285583016E+03  0.38285583016E+03  0.00000000000E+00 0.  1.
          3   -1    0    0  501    0  0.00000000000E+00 -0.00000000000E+00 -0.17020134113E+04  0.17020134113E+04  0.00000000000E+00 0. -1.
        -24    2    1    2    0    0  0.30788670492E+03  0.13051975292E+03  0.11507450931E+03  0.36290825738E+03  0.81428690373E+02 0.  0.
        254    2    1    2    0    0 -0.30788670492E+03 -0.13051975292E+03 -0.14342320904E+04  0.17219609841E+04  0.89235548549E+03 0.  0.
         23    2    4    4    0    0 -0.32271301432E+03 -0.32194458555E+03 -0.26795649057E+03  0.53659667402E+03  0.91341687942E+02 0.  0.
         23    2    4    4    0    0  0.14826309408E+02  0.19142483263E+03 -0.11662755999E+04  0.11853643100E+04  0.89590661967E+02 0.  0.
          3    1    3    3  502    0  0.64612302818E+01 -0.31992928072E+01 -0.81506579280E+01  0.10881920597E+02  0.00000000000E+00 0. -1.
         -4    1    3    3    0  502  0.30142547463E+03  0.13371904573E+03  0.12322516723E+03  0.35202633678E+03  0.00000000000E+00 0.  1.
         13    1    5    5    0    0 -0.26813760250E+03 -0.30707874378E+03 -0.24444958372E+03  0.47534274765E+03  0.00000000000E+00 0. -1.
        -13    1    5    5    0    0 -0.54575411825E+02 -0.14865841769E+02 -0.23506906847E+02  0.61253926379E+02  0.00000000000E+00 0.  1.
          3    1    6    6  503    0 -0.27762689429E+01  0.17254012117E+03 -0.11114308993E+04  0.11247472805E+04  0.00000000000E+00 0. -1.
         -3    1    6    6    0  503  0.17602578351E+02  0.18884711461E+02 -0.54844700578E+02  0.60617029563E+02  0.00000000000E+00 0.  1.
<mgrwt>
<rscale>  0 0.16144668E+04</rscale>
<asrwt>0</asrwt>
<pdfrwt beam="1">  1        3 0.26184822E+00 0.16144668E+04</pdfrwt>
<pdfrwt beam="2">  1       -4 0.58900897E-01 0.16144668E+04</pdfrwt>
<totfact> 0.37947920E-01</totfact>
</mgrwt>
</event>
<event>
12    5  0.5297412E-008  0.2170822E+04  0.7818608E-02  0.8530672E-01
          1   -1    0    0  501    0  0.00000000000E+00  0.00000000000E+00  0.44007637109E+03  0.44007637109E+03  0.00000000000E+00 0. -1.
         -2   -1    0    0    0  501 -0.00000000000E+00 -0.00000000000E+00 -0.26770744718E+04  0.26770744718E+04  0.00000000000E+00 0.  1.
        -24    2    1    2    0    0 -0.62337687089E+03  0.19085582642E+03 -0.47836138186E+02  0.66146398717E+03  0.10110212942E+03 0.  0.
        254    2    1    2    0    0  0.62337687089E+03 -0.19085582642E+03 -0.21891619626E+04  0.24556868558E+04  0.90163360938E+03 0.  0.
         23    2    4    4    0    0  0.50214783926E+03  0.24616439829E+03 -0.16499579364E+04  0.17445055869E+04  0.90494128688E+02 0.  0.
         23    2    4    4    0    0  0.12122903163E+03 -0.43702022471E+03 -0.53920402615E+03  0.71118126886E+03  0.96719493615E+02 0.  0.
          3    1    3    3  502    0 -0.26392211117E+03  0.99290832351E+02  0.26261533222E+02  0.28320172719E+03  0.00000000000E+00 0. -1.
         -4    1    3    3    0  502 -0.35945475971E+03  0.91564994065E+02 -0.74097671407E+02  0.37826225998E+03  0.00000000000E+00 0.  1.
         13    1    5    5    0    0  0.32018948919E+02 -0.21162493479E+01 -0.60453050764E+02  0.68441675519E+02  0.00000000000E+00 0. -1.
        -13    1    5    5    0    0  0.47012889034E+03  0.24828064764E+03 -0.15895048856E+04  0.16760639114E+04  0.00000000000E+00 0.  1.
          2    1    6    6  503    0  0.80635956188E+02 -0.15400767656E+03 -0.25007181481E+03  0.30455941034E+03  0.00000000000E+00 0. -1.
         -2    1    6    6    0  503  0.40593075441E+02 -0.28301254815E+03 -0.28913221134E+03  0.40662185851E+03  0.00000000000E+00 0.  1.
<mgrwt>
<rscale>  0 0.21708222E+04</rscale>
<asrwt>0</asrwt>
<pdfrwt beam="1">  1        1 0.67704056E-01 0.21708222E+04</pdfrwt>
<pdfrwt beam="2">  1       -2 0.41185762E+00 0.21708222E+04</pdfrwt>
<totfact> 0.26245038E-01</totfact>
</mgrwt>
</event>
<event>
12    5  0.5297412E-008  0.2278160E+04  0.7818608E-02  0.8486583E-01
         -4   -1    0    0    0  501 -0.00000000000E+00  0.00000000000E+00  0.47520685154E+03  0.47520685154E+03  0.00000000000E+00 0.  1.
          3   -1    0    0  501    0  0.00000000000E+00 -0.00000000000E+00 -0.27303959223E+04  0.27303959223E+04  0.00000000000E+00 0. -1.
        -24    2    1    2    0    0  0.14994260098E+03 -0.28481361033E+03  0.31956201418E+03  0.45970968822E+03  0.74910215045E+02 0.  0.
        254    2    1    2    0    0 -0.14994260098E+03  0.28481361033E+03 -0.25747510850E+04  0.27458930856E+04  0.89832294418E+03 0.  0.
         23    2    4    4    0    0 -0.14894309656E+03  0.49796796519E+03 -0.81547891881E+03  0.97164717722E+03  0.94531632811E+02 0.  0.
         23    2    4    4    0    0 -0.99950442281E+00 -0.21315435486E+03 -0.17592721662E+04  0.17742459084E+04  0.86453519059E+02 0.  0.
          1    1    3    3  502    0  0.98401002606E+01 -0.87650984335E+02  0.75551700542E+02  0.11613604988E+03  0.00000000000E+00 0. -1.
         -2    1    3    3    0  502  0.14010250072E+03 -0.19716262600E+03  0.24401031363E+03  0.34357363833E+03  0.00000000000E+00 0.  1.
         13    1    5    5    0    0 -0.36810194453E+02  0.54550187626E+02 -0.63206913481E+02  0.91245971404E+02  0.00000000000E+00 0. -1.
        -13    1    5    5    0    0 -0.11213290210E+03  0.44341777756E+03 -0.75227200533E+03  0.88040120581E+03  0.00000000000E+00 0.  1.
          4    1    6    6  503    0  0.42536337645E+02 -0.10161695809E+03 -0.81345112307E+03  0.82087640715E+03  0.00000000000E+00 0. -1.
         -4    1    6    6    0  503 -0.43535842068E+02 -0.11153739677E+03 -0.94582104308E+03  0.95336950127E+03  0.00000000000E+00 0.  1.
<mgrwt>
<rscale>  0 0.22781597E+04</rscale>
<asrwt>0</asrwt>
<pdfrwt beam="1">  1        3 0.42006091E+00 0.22781597E+04</pdfrwt>
<pdfrwt beam="2">  1       -4 0.73108747E-01 0.22781597E+04</pdfrwt>
<totfact> 0.30902394E-02</totfact>
</mgrwt>
</event>
<event>
12    5  0.5297412E-008  0.2060705E+04  0.7818608E-02  0.8578754E-01
          1   -1    0    0  501    0  0.00000000000E+00  0.00000000000E+00  0.12241165119E+04  0.12241165119E+04  0.00000000000E+00 0. -1.
         -4   -1    0    0    0  501 -0.00000000000E+00 -0.00000000000E+00 -0.86725877729E+03  0.86725877729E+03  0.00000000000E+00 0.  1.
        -24    2    1    2    0    0  0.20365961033E+03 -0.11231814165E+02  0.96274839689E+03  0.98736656854E+03  0.80030459317E+02 0.  0.
        254    2    1    2    0    0 -0.20365961033E+03  0.11231814165E+02 -0.60589066226E+03  0.11040087207E+04  0.90007131394E+03 0.  0.
         23    2    4    4    0    0  0.21719218232E+03 -0.30266671242E+03 -0.32168359190E+03  0.50041528346E+03  0.90308027077E+02 0.  0.
         23    2    4    4    0    0 -0.42085179265E+03  0.31389852658E+03 -0.28420707036E+03  0.60359343722E+03  0.88898044085E+02 0.  0.
          3    1    3    3  502    0  0.43218300443E+02  0.12486134439E+02  0.37371957498E+03  0.37641738240E+03  0.00000000000E+00 0. -1.
         -4    1    3    3    0  502  0.16044130989E+03 -0.23717948603E+02  0.58902882191E+03  0.61094918614E+03  0.00000000000E+00 0.  1.
         13    1    5    5    0    0  0.89619585066E+01 -0.14885571427E+02  0.47229709981E+01  0.18005648893E+02  0.00000000000E+00 0.  1.
        -13    1    5    5    0    0  0.20823022381E+03 -0.28778114099E+03 -0.32640656290E+03  0.48240963456E+03  0.00000000000E+00 0. -1.
          3    1    6    6  503    0 -0.28360814022E+03  0.25384381692E+03 -0.17950524298E+03  0.42082346993E+03  0.00000000000E+00 0. -1.
         -3    1    6    6    0  503 -0.13724365243E+03  0.60054709662E+02 -0.10470182739E+03  0.18276996729E+03  0.00000000000E+00 0.  1.
<mgrwt>
<rscale>  0 0.20607045E+04</rscale>
<asrwt>0</asrwt>
<pdfrwt beam="1">  1        1 0.18832562E+00 0.20607045E+04</pdfrwt>
<pdfrwt beam="2">  1       -4 0.13342443E+00 0.20607045E+04</pdfrwt>
<totfact> 0.18654591E+00</totfact>
</mgrwt>
</event>
<event>
12    5  0.5297412E-008  0.1773551E+04  0.7818608E-02  0.8720493E-01
          1   -1    0    0  501    0  0.00000000000E+00  0.00000000000E+00  0.65840395069E+03  0.65840395069E+03  0.00000000000E+00 0. -1.
         -2   -1    0    0    0  501 -0.00000000000E+00 -0.00000000000E+00 -0.11943591455E+04  0.11943591455E+04  0.00000000000E+00 0.  1.
        -24    2    1    2    0    0  0.80966627271E+02 -0.64185560588E+03 -0.23801283755E+03  0.69382384225E+03  0.78785783634E+02 0.  0.
        254    2    1    2    0    0 -0.80966627271E+02  0.64185560588E+03 -0.29794235727E+03  0.11589392540E+04  0.91424085041E+03 0.  0.
         23    2    4    4    0    0  0.52536692506E+02  0.52150493214E+03 -0.59615506885E+03  0.79878631157E+03  0.89057324975E+02 0.  0.
         23    2    4    4    0    0 -0.13350331978E+03  0.12035067375E+03  0.29821271158E+03  0.36015294238E+03  0.92042922049E+02 0.  0.
          1    1    3    3  502    0  0.47477065799E+02 -0.48215952046E+03 -0.14367557331E+03  0.50534596596E+03  0.00000000000E+00 0. -1.
         -4    1    3    3    0  502  0.33489561472E+02 -0.15969608542E+03 -0.94337264235E+02  0.18847787629E+03  0.00000000000E+00 0.  1.
         13    1    5    5    0    0  0.37712947903E+02  0.78323441592E+02 -0.11937659745E+03  0.14767396508E+03  0.00000000000E+00 0.  1.
        -13    1    5    5    0    0  0.14823744603E+02  0.44318149054E+03 -0.47677847140E+03  0.65111234649E+03  0.00000000000E+00 0. -1.
          3    1    6    6  503    0 -0.12629110534E+03  0.10478204866E+03  0.19203939627E+03  0.25260215900E+03  0.00000000000E+00 0. -1.
         -3    1    6    6    0  503 -0.72122144367E+01  0.15568625086E+02  0.10617331531E+03  0.10755078339E+03  0.00000000000E+00 0.  1.
<mgrwt>
<rscale>  0 0.17735510E+04</rscale>
<asrwt>0</asrwt>
<pdfrwt beam="1">  1        1 0.10129292E+00 0.17735510E+04</pdfrwt>
<pdfrwt beam="2">  1       -2 0.18374756E+00 0.17735510E+04</pdfrwt>
<totfact> 0.42247931E+00</totfact>
</mgrwt>
</event>
<event>
12    5  0.5297412E-008  0.2025500E+04  0.7818608E-02  0.8594790E-01
         -2   -1    0    0    0  501 -0.00000000000E+00  0.00000000000E+00  0.13786751433E+04  0.13786751433E+04  0.00000000000E+00 0.  1.
          1   -1    0    0  501    0  0.00000000000E+00 -0.00000000000E+00 -0.74394814333E+03  0.74394814333E+03  0.00000000000E+00 0. -1.
        -24    2    1    2    0    0  0.21348435045E+03 -0.18776357404E+03  0.10556195193E+04  0.10962474237E+04  0.81210325382E+02 0.  0.
        254    2    1    2    0    0 -0.21348435045E+03  0.18776357404E+03 -0.42089251928E+03  0.10263758629E+04  0.89188910274E+03 0.  0.
         23    2    4    4    0    0  0.33634350369E+03  0.14745132303E+03 -0.16242569191E+03  0.41091885828E+03  0.87197233667E+02 0.  0.
         23    2    4    4    0    0 -0.54982785413E+03  0.40312251016E+02 -0.25846682737E+03  0.61545700465E+03  0.89702156899E+02 0.  0.
          3    1    3    3  502    0  0.40192808304E+01  0.68122561353E+01  0.55732680265E+02  0.56291145854E+02  0.00000000000E+00 0. -1.
         -4    1    3    3    0  502  0.20946506962E+03 -0.19457583018E+03  0.99988683901E+03  0.10399562779E+04  0.00000000000E+00 0.  1.
         13    1    5    5    0    0  0.28605538964E+03  0.10438937778E+03 -0.10159040292E+03  0.32100691286E+03  0.00000000000E+00 0.  1.
        -13    1    5    5    0    0  0.50288114046E+02  0.43061945249E+02 -0.60835288986E+02  0.89911945419E+02  0.00000000000E+00 0. -1.
          2    1    6    6  503    0 -0.46277667856E+03  0.21589797828E+01 -0.20239393228E+03  0.50510416672E+03  0.00000000000E+00 0.  1.
         -2    1    6    6    0  503 -0.87051175572E+02  0.38153271233E+02 -0.56072895091E+02  0.11035283793E+03  0.00000000000E+00 0. -1.
<mgrwt>
<rscale>  0 0.20255002E+04</rscale>
<asrwt>0</asrwt>
<pdfrwt beam="1">  1        1 0.11445356E+00 0.20255002E+04</pdfrwt>
<pdfrwt beam="2">  1       -2 0.21210387E+00 0.20255002E+04</pdfrwt>
<totfact> 0.22314433E+00</totfact>
</mgrwt>
</event>
<event>
12    5  0.5297412E-008  0.2602657E+04  0.7818608E-02  0.8367299E-01
         -2   -1    0    0    0  501 -0.00000000000E+00  0.00000000000E+00  0.10291013153E+04  0.10291013153E+04  0.00000000000E+00 0.  1.
          1   -1    0    0  501    0  0.00000000000E+00 -0.00000000000E+00 -0.16455677910E+04  0.16455677910E+04  0.00000000000E+00 0. -1.
        -24    2    1    2    0    0  0.17364912005E+03 -0.57123186559E+03 -0.12777770408E+04  0.14126428188E+04  0.79910614072E+02 0.  0.
        254    2    1    2    0    0 -0.17364912005E+03  0.57123186559E+03  0.66131056515E+03  0.12620262874E+04  0.89382259169E+03 0.  0.
         23    2    4    4    0    0 -0.79106259514E+02 -0.47870235671E+02  0.61329616554E+03  0.62742929356E+03  0.94794366882E+02 0.  0.
         23    2    4    4    0    0 -0.94542860539E+02  0.61910210126E+03  0.48014399606E+02  0.63459699386E+03  0.90455501709E+02 0.  0.
          1    1    3    3  502    0  0.54562793895E+02 -0.31494248100E+03 -0.69264693497E+03  0.76284050845E+03  0.00000000000E+00 0. -1.
         -2    1    3    3    0  502  0.11908632616E+03 -0.25628938459E+03 -0.58513010588E+03  0.64980231035E+03  0.00000000000E+00 0.  1.
         13    1    5    5    0    0 -0.74114439546E+02 -0.61344521162E+02  0.60059304646E+03  0.60825003731E+03  0.00000000000E+00 0.  1.
        -13    1    5    5    0    0 -0.49918199682E+01  0.13474285491E+02  0.12703119081E+02  0.19179256254E+02  0.00000000000E+00 0. -1.
          2    1    6    6  503    0  0.52304051448E+01  0.95022778225E+02  0.33554919184E+02  0.10090895957E+03  0.00000000000E+00 0. -1.
         -2    1    6    6    0  503 -0.99773265684E+02  0.52407932303E+03  0.14459480422E+02  0.53368803430E+03  0.00000000000E+00 0.  1.
<mgrwt>
<rscale>  0 0.26026571E+04</rscale>
<asrwt>0</asrwt>
<pdfrwt beam="1">  1        1 0.25316427E+00 0.26026571E+04</pdfrwt>
<pdfrwt beam="2">  1       -2 0.15832328E+00 0.26026571E+04</pdfrwt>
<totfact> 0.10411054E+00</totfact>
</mgrwt>
</event>
<event>
12    5  0.5297412E-008  0.1940207E+04  0.7818608E-02  0.8635098E-01
          1   -1    0    0  501    0  0.00000000000E+00  0.00000000000E+00  0.90779086390E+03  0.90779086390E+03  0.00000000000E+00 0. -1.
         -2   -1    0    0    0  501 -0.00000000000E+00 -0.00000000000E+00 -0.10366933034E+04  0.10366933034E+04  0.00000000000E+00 0.  1.
        -24    2    1    2    0    0 -0.72309807818E+03 -0.55691998881E+02  0.18915816722E+03  0.75367619727E+03  0.79212175194E+02 0.  0.
        254    2    1    2    0    0  0.72309807818E+03  0.55691998881E+02 -0.31806060669E+03  0.11908079700E+04  0.88931920167E+03 0.  0.
         23    2    4    4    0    0 -0.99789883765E+02 -0.23117258822E+03 -0.11478887556E+03  0.29127331094E+03  0.90911326402E+02 0.  0.
         23    2    4    4    0    0  0.82288796195E+03  0.28686458710E+03 -0.20327173113E+03  0.89953465905E+03  0.91691422230E+02 0.  0.
          1    1    3    3  502    0 -0.62488809622E+03 -0.57359154374E+02  0.13635532288E+03  0.64215884286E+03  0.00000000000E+00 0. -1.
         -2    1    3    3    0  502 -0.98209981962E+02  0.16671554925E+01  0.52802844338E+02  0.11151735441E+03  0.00000000000E+00 0.  1.
         13    1    5    5    0    0  0.17186886676E+02 -0.40339355868E+02 -0.17480078312E+02  0.47203875300E+02  0.00000000000E+00 0.  1.
        -13    1    5    5    0    0 -0.11697677044E+03 -0.19083323235E+03 -0.97308797248E+02  0.24406943564E+03  0.00000000000E+00 0. -1.
          3    1    6    6  503    0  0.53783346017E+03  0.21158588095E+03 -0.96429678199E+02  0.58594547420E+03  0.00000000000E+00 0. -1.
         -3    1    6    6    0  503  0.28505450178E+03  0.75278706144E+02 -0.10684205293E+03  0.31358918485E+03  0.00000000000E+00 0.  1.
<mgrwt>
<rscale>  0 0.19402069E+04</rscale>
<asrwt>0</asrwt>
<pdfrwt beam="1">  1        1 0.13966013E+00 0.19402069E+04</pdfrwt>
<pdfrwt beam="2">  1       -2 0.15949128E+00 0.19402069E+04</pdfrwt>
<totfact> 0.37221183E+00</totfact>
</mgrwt>
</event>
<event>
12    5  0.5297412E-008  0.1218294E+04  0.7818608E-02  0.9096993E-01
         -2   -1    0    0    0  501 -0.00000000000E+00  0.00000000000E+00  0.19735633942E+03  0.19735633942E+03  0.00000000000E+00 0.  1.
          1   -1    0    0  501    0  0.00000000000E+00 -0.00000000000E+00 -0.18801523013E+04  0.18801523013E+04  0.00000000000E+00 0. -1.
        -24    2    1    2    0    0 -0.20912831722E+03 -0.16945554052E+03 -0.49944522568E+03  0.57318641552E+03  0.81530976992E+02 0.  0.
        254    2    1    2    0    0  0.20912831722E+03  0.16945554052E+03 -0.11833507362E+04  0.15043222252E+04  0.88894125740E+03 0.  0.
         23    2    4    4    0    0  0.38979548921E+03  0.60121046948E+02 -0.12913620173E+03  0.42512601474E+03  0.92200358523E+02 0.  0.
         23    2    4    4    0    0 -0.18066717199E+03  0.10933449357E+03 -0.10542145345E+04  0.10791962105E+04  0.93281924717E+02 0.  0.
          1    1    3    3  502    0 -0.23550143988E+01  0.52515990257E+01 -0.81161302490E+00  0.58124092120E+01  0.00000000000E+00 0. -1.
         -2    1    3    3    0  502 -0.20677330283E+03 -0.17470713954E+03 -0.49863361265E+03  0.56737400631E+03  0.00000000000E+00 0.  1.
         13    1    5    5    0    0  0.32593394212E+03  0.13952011668E+02 -0.10466290544E+03  0.34261044501E+03  0.00000000000E+00 0. -1.
        -13    1    5    5    0    0  0.63861547090E+02  0.46169035280E+02 -0.24473296288E+02  0.82515569722E+02  0.00000000000E+00 0.  1.
          4    1    6    6  503    0 -0.15005872737E+03  0.12459583671E+03 -0.84607631201E+03  0.86826658920E+03  0.00000000000E+00 0. -1.
         -4    1    6    6    0  503 -0.30608444620E+02 -0.15261343143E+02 -0.20813822248E+03  0.21092962128E+03  0.00000000000E+00 0.  1.
<mgrwt>
<rscale>  0 0.12182938E+04</rscale>
<asrwt>0</asrwt>
<pdfrwt beam="1">  1        1 0.28925421E+00 0.12182938E+04</pdfrwt>
<pdfrwt beam="2">  1       -2 0.30362513E-01 0.12182938E+04</pdfrwt>
<totfact> 0.31299530E+01</totfact>
</mgrwt>
</event>
<event>
12    5  0.5297412E-008  0.2032505E+04  0.7818608E-02  0.8591572E-01
          3   -1    0    0  501    0  0.00000000000E+00  0.00000000000E+00  0.16508279311E+04  0.16508279311E+04  0.00000000000E+00 0. -1.
         -4   -1    0    0    0  501 -0.00000000000E+00 -0.00000000000E+00 -0.62560694189E+03  0.62560694189E+03  0.00000000000E+00 0.  1.
        -24    2    1    2    0    0 -0.55168038613E+03 -0.56136721859E+03  0.52892271504E+03  0.95157923506E+03  0.79116367309E+02 0.  0.
        254    2    1    2    0    0  0.55168038613E+03  0.56136721859E+03  0.49629827418E+03  0.13248556379E+04  0.94310449149E+03 0.  0.
         23    2    4    4    0    0  0.95008376327E+02  0.42681114383E+03  0.67432894279E+03  0.80879553167E+03  0.90754310566E+02 0.  0.
         23    2    4    4    0    0  0.45667200980E+03  0.13455607475E+03 -0.17803066862E+03  0.51606010626E+03  0.89266189103E+02 0.  0.
          1    1    3    3  502    0 -0.38990477785E+03 -0.41594700860E+03  0.42122989506E+03  0.70885278742E+03  0.00000000000E+00 0. -1.
         -2    1    3    3    0  502 -0.16177560828E+03 -0.14542020999E+03  0.10769281999E+03  0.24272644764E+03  0.00000000000E+00 0.  1.
         13    1    5    5    0    0  0.74094766715E+02  0.41215933901E+03  0.65186220388E+03  0.77478363950E+03  0.00000000000E+00 0.  1.
        -13    1    5    5    0    0  0.20913609611E+02  0.14651804819E+02  0.22466738913E+02  0.34011892168E+02  0.00000000000E+00 0. -1.
          1    1    6    6  503    0  0.83338851247E+02 -0.90025011016E+01 -0.40480343391E+02  0.93086343543E+02  0.00000000000E+00 0. -1.
         -1    1    6    6    0  503  0.37333315855E+03  0.14355857586E+03 -0.13755032523E+03  0.42297376272E+03  0.00000000000E+00 0.  1.
<mgrwt>
<rscale>  0 0.20325053E+04</rscale>
<asrwt>0</asrwt>
<pdfrwt beam="1">  1        3 0.25397353E+00 0.20325053E+04</pdfrwt>
<pdfrwt beam="2">  1       -4 0.96247222E-01 0.20325053E+04</pdfrwt>
<totfact> 0.13457729E-01</totfact>
</mgrwt>
</event>
<event>
12    5  0.5297412E-008  0.2190717E+04  0.7818608E-02  0.8522302E-01
          1   -1    0    0  501    0  0.00000000000E+00  0.00000000000E+00  0.13793254014E+04  0.13793254014E+04  0.00000000000E+00 0. -1.
         -2   -1    0    0    0  501 -0.00000000000E+00 -0.00000000000E+00 -0.86985332072E+03  0.86985332072E+03  0.00000000000E+00 0.  1.
        -24    2    1    2    0    0  0.57136903955E+02  0.16891966593E+03  0.11403920522E+04  0.11569146518E+04  0.78479293374E+02 0.  0.
        254    2    1    2    0    0 -0.57136903955E+02 -0.16891966593E+03 -0.63091997155E+03  0.10922640703E+04  0.87360306171E+03 0.  0.
         23    2    4    4    0    0  0.21165294855E+03 -0.43250230201E+03 -0.44823093251E+03  0.66408975346E+03  0.90824115286E+02 0.  0.
         23    2    4    4    0    0 -0.26878985250E+03  0.26358263608E+03 -0.18268903904E+03  0.42817431684E+03  0.90742326166E+02 0.  0.
          1    1    3    3  502    0  0.75790276673E+02  0.14724859984E+03  0.93701228206E+03  0.95153472502E+03  0.00000000000E+00 0. -1.
         -2    1    3    3    0  502 -0.18653372718E+02  0.21671066091E+02  0.20337977018E+03  0.20537992681E+03  0.00000000000E+00 0.  1.
         13    1    5    5    0    0  0.16467093511E+03 -0.23769348232E+03 -0.27864172442E+03  0.40156683005E+03  0.00000000000E+00 0.  1.
        -13    1    5    5    0    0  0.46982013440E+02 -0.19480881969E+03 -0.16958920809E+03  0.26252292341E+03  0.00000000000E+00 0. -1.
          3    1    6    6  503    0 -0.26376775362E+03  0.23443073150E+03 -0.18511144559E+03  0.39849396860E+03  0.00000000000E+00 0. -1.
         -3    1    6    6    0  503 -0.50220988826E+01  0.29151904581E+02  0.24224065464E+01  0.29680348235E+02  0.00000000000E+00 0.  1.
<mgrwt>
<rscale>  0 0.21907175E+04</rscale>
<asrwt>0</asrwt>
<pdfrwt beam="1">  1        1 0.21220391E+00 0.21907175E+04</pdfrwt>
<pdfrwt beam="2">  1       -2 0.13382359E+00 0.21907175E+04</pdfrwt>
<totfact> 0.25669662E+00</totfact>
</mgrwt>
</event>
<event>
12    5  0.5297412E-008  0.1993080E+04  0.7818608E-02  0.8609863E-01
          1   -1    0    0  501    0  0.00000000000E+00  0.00000000000E+00  0.78095568841E+03  0.78095568841E+03  0.00000000000E+00 0. -1.
         -2   -1    0    0    0  501 -0.00000000000E+00 -0.00000000000E+00 -0.12716370710E+04  0.12716370710E+04  0.00000000000E+00 0.  1.
        -24    2    1    2    0    0 -0.19258691396E+03  0.15152925504E+03 -0.97312961475E+03  0.10065948579E+04  0.78747230847E+02 0.  0.
        254    2    1    2    0    0  0.19258691396E+03 -0.15152925504E+03  0.48244823213E+03  0.10459979015E+04  0.89515611974E+03 0.  0.
         23    2    4    4    0    0  0.48513011992E+02 -0.50614188065E+03  0.37623863955E+03  0.63816273589E+03  0.84634791326E+02 0.  0.
         23    2    4    4    0    0  0.14407390196E+03  0.35461262561E+03  0.10620959258E+03  0.40783516562E+03  0.92421000272E+02 0.  0.
          3    1    3    3  502    0 -0.80435587103E+02  0.16943694099E+02 -0.31363487409E+03  0.32422801650E+03  0.00000000000E+00 0. -1.
         -4    1    3    3    0  502 -0.11215132685E+03  0.13458556094E+03 -0.65949474066E+03  0.68236684144E+03  0.00000000000E+00 0.  1.
         13    1    5    5    0    0  0.53346576418E+02 -0.33672768158E+03  0.29208184846E+03  0.44893562451E+03  0.00000000000E+00 0. -1.
        -13    1    5    5    0    0 -0.48335644256E+01 -0.16941419908E+03  0.84156791092E+02  0.18922711138E+03  0.00000000000E+00 0.  1.
          1    1    6    6  503    0  0.13039318039E+03  0.20649235453E+03  0.53381475463E+02  0.24998211115E+03  0.00000000000E+00 0. -1.
         -1    1    6    6    0  503  0.13680721571E+02  0.14812027108E+03  0.52828117112E+02  0.15785305447E+03  0.00000000000E+00 0.  1.
<mgrwt>
<rscale>  0 0.19930802E+04</rscale>
<asrwt>0</asrwt>
<pdfrwt beam="1">  1        1 0.12014703E+00 0.19930802E+04</pdfrwt>
<pdfrwt beam="2">  1       -2 0.19563647E+00 0.19930802E+04</pdfrwt>
<totfact> 0.26545638E+00</totfact>
</mgrwt>
</event>
<event>
12    5  0.5297412E-008  0.1418147E+04  0.7818608E-02  0.8940787E-01
          1   -1    0    0  501    0  0.00000000000E+00  0.00000000000E+00  0.23003469751E+04  0.23003469751E+04  0.00000000000E+00 0. -1.
         -2   -1    0    0    0  501 -0.00000000000E+00 -0.00000000000E+00 -0.21856924523E+03  0.21856924523E+03  0.00000000000E+00 0.  1.
        -24    2    1    2    0    0  0.11335162757E+03  0.34940573630E+03  0.27360960920E+03  0.46470704654E+03  0.78469489767E+02 0.  0.
        254    2    1    2    0    0 -0.11335162757E+03 -0.34940573630E+03  0.18081681207E+04  0.20542091738E+04  0.90297863599E+03 0.  0.
         23    2    4    4    0    0  0.35470244378E+03 -0.29891150972E+03  0.11205270197E+04  0.12161364358E+04  0.90802612062E+02 0.  0.
         23    2    4    4    0    0 -0.46805407135E+03 -0.50494226572E+02  0.68764110103E+03  0.83807273803E+03  0.88833269614E+02 0.  0.
          3    1    3    3  502    0  0.11427026213E+03  0.33490221133E+03  0.23856162516E+03  0.42676554800E+03  0.00000000000E+00 0. -1.
         -4    1    3    3    0  502 -0.91863455596E+00  0.14503524963E+02  0.35047984039E+02  0.37941498534E+02  0.00000000000E+00 0.  1.
         13    1    5    5    0    0  0.30647698917E+03 -0.26816995651E+03  0.89204664008E+03  0.98060719891E+03  0.00000000000E+00 0. -1.
        -13    1    5    5    0    0  0.48225454605E+02 -0.30741553210E+02  0.22848037958E+03  0.23552923686E+03  0.00000000000E+00 0.  1.
          1    1    6    6  503    0 -0.38798624172E+03 -0.41871500611E+02  0.62151543114E+03  0.73387190809E+03  0.00000000000E+00 0. -1.
         -1    1    6    6    0  503 -0.80067829627E+02 -0.86227259612E+01  0.66125669883E+02  0.10420082995E+03  0.00000000000E+00 0.  1.
<mgrwt>
<rscale>  0 0.14181468E+04</rscale>
<asrwt>0</asrwt>
<pdfrwt beam="1">  1        1 0.35389952E+00 0.14181468E+04</pdfrwt>
<pdfrwt beam="2">  1       -2 0.33626039E-01 0.14181468E+04</pdfrwt>
<totfact> 0.13178578E+01</totfact>
</mgrwt>
</event>
<event>
12    5  0.5297412E-008  0.1995310E+04  0.7818608E-02  0.8608816E-01
         -4   -1    0    0    0  501 -0.00000000000E+00  0.00000000000E+00  0.11316388203E+04  0.11316388203E+04  0.00000000000E+00 0.  1.
          3   -1    0    0  501    0  0.00000000000E+00 -0.00000000000E+00 -0.87953502853E+03  0.87953502853E+03  0.00000000000E+00 0. -1.
        -24    2    1    2    0    0 -0.27742492139E+03 -0.53055290770E+03  0.62506964041E+03  0.86922261589E+03  0.79905730359E+02 0.  0.
        254    2    1    2    0    0  0.27742492139E+03  0.53055290770E+03 -0.37296584867E+03  0.11419512329E+04  0.89805240334E+03 0.  0.
         23    2    4    4    0    0  0.54625170696E+03  0.14407164619E+03 -0.32996597348E+03  0.66042584865E+03  0.90206381784E+02 0.  0.
         23    2    4    4    0    0 -0.26882678556E+03  0.38648126151E+03 -0.42999875195E+02  0.48152538424E+03  0.91553810815E+02 0.  0.
          1    1    3    3  502    0 -0.17141948989E+00 -0.11527586225E+02  0.30916480595E+02  0.32996111910E+02  0.00000000000E+00 0. -1.
         -2    1    3    3    0  502 -0.27725350190E+03 -0.51902532147E+03  0.59415315981E+03  0.83622650398E+03  0.00000000000E+00 0.  1.
         13    1    5    5    0    0  0.20535412468E+03  0.45956056057E+02 -0.17341429586E+03  0.27268075403E+03  0.00000000000E+00 0.  1.
        -13    1    5    5    0    0  0.34089758228E+03  0.98115590137E+02 -0.15655167762E+03  0.38774509461E+03  0.00000000000E+00 0. -1.
          2    1    6    6  503    0 -0.23182287052E+03  0.31901365280E+03 -0.68922438824E+02  0.40032718686E+03  0.00000000000E+00 0. -1.
         -2    1    6    6    0  503 -0.37003915047E+02  0.67467608709E+02  0.25922563629E+02  0.81198197387E+02  0.00000000000E+00 0.  1.
<mgrwt>
<rscale>  0 0.19953105E+04</rscale>
<asrwt>0</asrwt>
<pdfrwt beam="1">  1        3 0.13531308E+00 0.19953105E+04</pdfrwt>
<pdfrwt beam="2">  1       -4 0.17409828E+00 0.19953105E+04</pdfrwt>
<totfact> 0.17686816E-01</totfact>
</mgrwt>
</event>
<event>
12    5  0.5297412E-008  0.1406286E+04  0.7818608E-02  0.8949281E-01
          1   -1    0    0  501    0  0.00000000000E+00  0.00000000000E+00  0.29629401145E+03  0.29629401145E+03  0.00000000000E+00 0. -1.
         -2   -1    0    0    0  501 -0.00000000000E+00 -0.00000000000E+00 -0.16686464265E+04  0.16686464265E+04  0.00000000000E+00 0.  1.
        -24    2    1    2    0    0  0.29366566762E+03  0.51968947934E+02 -0.27443136139E+02  0.31024308467E+03  0.80977465877E+02 0.  0.
        254    2    1    2    0    0 -0.29366566762E+03 -0.51968947934E+02 -0.13449092789E+04  0.16546973533E+04  0.91667991498E+03 0.  0.
         23    2    4    4    0    0 -0.35896868207E+03  0.37245851077E+03 -0.75897456067E+03  0.92251270793E+03  0.86043335582E+02 0.  0.
         23    2    4    4    0    0  0.65303014455E+02 -0.42442745870E+03 -0.58593471826E+03  0.73218464536E+03  0.91497046028E+02 0.  0.
          3    1    3    3  502    0  0.29729454298E+03  0.55503308117E+02 -0.31055241832E+02  0.30402152974E+03  0.00000000000E+00 0. -1.
         -4    1    3    3    0  502 -0.36288753624E+01 -0.35343601836E+01  0.36121056932E+01  0.62215549376E+01  0.00000000000E+00 0.  1.
         13    1    5    5    0    0 -0.40500146526E+02  0.19250098970E+02 -0.10243357967E+03  0.11181890012E+03  0.00000000000E+00 0. -1.
        -13    1    5    5    0    0 -0.31846853555E+03  0.35320841180E+03 -0.65654098100E+03  0.81069380782E+03  0.00000000000E+00 0.  1.
          1    1    6    6  503    0  0.20698326441E+01 -0.13593948338E+03 -0.12461188110E+03  0.18442328557E+03  0.00000000000E+00 0. -1.
         -1    1    6    6    0  503  0.63233181811E+02 -0.28848797532E+03 -0.46132283716E+03  0.54776135979E+03  0.00000000000E+00 0.  1.
<mgrwt>
<rscale>  0 0.14062858E+04</rscale>
<asrwt>0</asrwt>
<pdfrwt beam="1">  1        1 0.45583696E-01 0.14062858E+04</pdfrwt>
<pdfrwt beam="2">  1       -2 0.25671483E+00 0.14062858E+04</pdfrwt>
<totfact> 0.44377320E+00</totfact>
</mgrwt>
</event>
<event>
12    5  0.5297412E-008  0.1118134E+04  0.7818608E-02  0.9187695E-01
          1   -1    0    0  501    0  0.00000000000E+00  0.00000000000E+00  0.92992056281E+03  0.92992056281E+03  0.00000000000E+00 0. -1.
         -2   -1    0    0    0  501 -0.00000000000E+00 -0.00000000000E+00 -0.33611030525E+03  0.33611030525E+03  0.00000000000E+00 0.  1.
        -24    2    1    2    0    0 -0.11479995596E+03 -0.12220670520E+03  0.37340611885E+02  0.18826893483E+03  0.77054278554E+02 0.  0.
        254    2    1    2    0    0  0.11479995596E+03  0.12220670520E+03  0.55646964568E+03  0.10777619332E+04  0.90763363175E+03 0.  0.
         23    2    4    4    0    0 -0.13777248683E+03  0.40754020169E+03  0.52434731071E+03  0.68458593035E+03  0.92992040927E+02 0.  0.
         23    2    4    4    0    0  0.25257244279E+03 -0.28533349649E+03  0.32122334970E+02  0.39317600288E+03  0.91364554156E+02 0.  0.
          3    1    3    3  502    0  0.84419651332E+00 -0.89443565058E+01  0.24261261945E+02  0.25871277746E+02  0.00000000000E+00 0. -1.
         -4    1    3    3    0  502 -0.11564415248E+03 -0.11326234869E+03  0.13079349941E+02  0.16239765709E+03  0.00000000000E+00 0.  1.
         13    1    5    5    0    0 -0.11611374807E+02  0.14158040230E+03  0.21383477737E+03  0.25671997653E+03  0.00000000000E+00 0. -1.
        -13    1    5    5    0    0 -0.12616111203E+03  0.26595979939E+03  0.31051253334E+03  0.42786595382E+03  0.00000000000E+00 0.  1.
          4    1    6    6  503    0  0.85689141161E+02 -0.76891143173E+02 -0.30110910219E+02  0.11900228454E+03  0.00000000000E+00 0. -1.
         -4    1    6    6    0  503  0.16688330163E+03 -0.20844235332E+03  0.62233245189E+02  0.27417371834E+03  0.00000000000E+00 0.  1.
<mgrwt>
<rscale>  0 0.11181340E+04</rscale>
<asrwt>0</asrwt>
<pdfrwt beam="1">  1        1 0.14306470E+00 0.11181340E+04</pdfrwt>
<pdfrwt beam="2">  1       -2 0.51709278E-01 0.11181340E+04</pdfrwt>
<totfact> 0.53009634E+01</totfact>
</mgrwt>
</event>
<event>
12    5  0.5297412E-008  0.1225736E+04  0.7818608E-02  0.9090623E-01
          1   -1    0    0  501    0  0.00000000000E+00  0.00000000000E+00  0.14133660877E+04  0.14133660877E+04  0.00000000000E+00 0. -1.
         -2   -1    0    0    0  501 -0.00000000000E+00 -0.00000000000E+00 -0.26575370499E+03  0.26575370499E+03  0.00000000000E+00 0.  1.
        -24    2    1    2    0    0 -0.15495708828E+03  0.20138700694E+03  0.95595079142E+02  0.28050279386E+03  0.70533484479E+02 0.  0.
        254    2    1    2    0    0  0.15495708828E+03 -0.20138700694E+03  0.10520173036E+04  0.13986169988E+04  0.88590105354E+03 0.  0.
         23    2    4    4    0    0  0.32032658011E+02 -0.50535951653E+03  0.87986735755E+03  0.10191285026E+04  0.89677231226E+02 0.  0.
         23    2    4    4    0    0  0.12292443027E+03  0.30397250959E+03  0.17214994603E+03  0.37948849625E+03  0.82862613561E+02 0.  0.
          1    1    3    3  502    0 -0.89095111833E+01  0.67218007555E+01 -0.10219669845E+02  0.15132866439E+02  0.00000000000E+00 0. -1.
         -2    1    3    3    0  502 -0.14604757709E+03  0.19466520619E+03  0.10581474899E+03  0.26536992742E+03  0.00000000000E+00 0.  1.
         13    1    5    5    0    0  0.11145594747E+02 -0.93609508318E+01  0.50308175519E+02  0.52371406385E+02  0.00000000000E+00 0. -1.
        -13    1    5    5    0    0  0.20887063263E+02 -0.49599856570E+03  0.82955918203E+03  0.96675709621E+03  0.00000000000E+00 0.  1.
          3    1    6    6  503    0  0.34749428135E+02  0.19004673271E+03  0.84593225569E+02  0.21090589651E+03  0.00000000000E+00 0. -1.
         -3    1    6    6    0  503  0.88175002132E+02  0.11392577688E+03  0.87556720457E+02  0.16858259974E+03  0.00000000000E+00 0.  1.
<mgrwt>
<rscale>  0 0.12257361E+04</rscale>
<asrwt>0</asrwt>
<pdfrwt beam="1">  1        1 0.21744093E+00 0.12257361E+04</pdfrwt>
<pdfrwt beam="2">  1       -2 0.40885186E-01 0.12257361E+04</pdfrwt>
<totfact> 0.36912147E+01</totfact>
</mgrwt>
</event>
<event>
12    5  0.5297412E-008  0.1793322E+04  0.7818608E-02  0.8709859E-01
          1   -1    0    0  501    0  0.00000000000E+00  0.00000000000E+00  0.52095482102E+03  0.52095482102E+03  0.00000000000E+00 0. -1.
         -2   -1    0    0    0  501 -0.00000000000E+00 -0.00000000000E+00 -0.15433214504E+04  0.15433214504E+04  0.00000000000E+00 0.  1.
        -24    2    1    2    0    0  0.41985971671E+03 -0.21688797457E+03 -0.91096738872E+03  0.10293242170E+04  0.79524745842E+02 0.  0.
        254    2    1    2    0    0 -0.41985971671E+03  0.21688797457E+03 -0.11139924066E+03  0.10349520544E+04  0.91399857159E+03 0.  0.
         23    2    4    4    0    0 -0.70065224275E+03  0.11067060375E+03 -0.78088777519E+02  0.71919329604E+03  0.89328562559E+02 0.  0.
         23    2    4    4    0    0  0.28079252603E+03  0.10621737082E+03 -0.33310463139E+02  0.31575875837E+03  0.92018661123E+02 0.  0.
          1    1    3    3  502    0  0.21347268546E+02 -0.30506483892E+02 -0.48646189876E+02  0.61260127516E+02  0.00000000000E+00 0. -1.
         -2    1    3    3    0  502  0.39851244817E+03 -0.18638149068E+03 -0.86232119884E+03  0.96806408950E+03  0.00000000000E+00 0.  1.
         13    1    5    5    0    0 -0.44232780075E+03  0.11006331562E+03 -0.33466116253E+02  0.45704244628E+03  0.00000000000E+00 0. -1.
        -13    1    5    5    0    0 -0.25832444199E+03  0.60728813505E+00 -0.44622661265E+02  0.26215084976E+03  0.00000000000E+00 0.  1.
          2    1    6    6  503    0  0.12682210657E+03  0.12297514318E+02  0.16930937226E+02  0.12853689046E+03  0.00000000000E+00 0. -1.
         -2    1    6    6    0  503  0.15397041946E+03  0.93919856497E+02 -0.50241400365E+02  0.18722186791E+03  0.00000000000E+00 0.  1.
<mgrwt>
<rscale>  0 0.17933218E+04</rscale>
<asrwt>0</asrwt>
<pdfrwt beam="1">  1        1 0.80146896E-01 0.17933218E+04</pdfrwt>
<pdfrwt beam="2">  1       -2 0.23743407E+00 0.17933218E+04</pdfrwt>
<totfact> 0.26570002E+00</totfact>
</mgrwt>
</event>
<event>
12    5  0.5297412E-008  0.1133841E+04  0.7818608E-02  0.9172822E-01
         -2   -1    0    0    0  501 -0.00000000000E+00  0.00000000000E+00  0.15330035319E+03  0.15330035319E+03  0.00000000000E+00 0.  1.
          1   -1    0    0  501    0  0.00000000000E+00 -0.00000000000E+00 -0.20965303726E+04  0.20965303726E+04  0.00000000000E+00 0. -1.
        -24    2    1    2    0    0 -0.51900755121E+01  0.13184545618E+03 -0.69048117128E+03  0.70677603136E+03  0.73198015123E+02 0.  0.
        254    2    1    2    0    0  0.51900755121E+01 -0.13184545618E+03 -0.12527488481E+04  0.15430546944E+04  0.89119467698E+03 0.  0.
         23    2    4    4    0    0  0.41985827546E+03 -0.10555837524E+02 -0.81073744813E+03  0.91748290269E+03  0.89929248603E+02 0.  0.
         23    2    4    4    0    0 -0.41466819994E+03 -0.12128961866E+03 -0.44201140000E+03  0.62557179173E+03  0.96462952691E+02 0.  0.
          3    1    3    3  502    0  0.17371381171E+02  0.12640172107E+03 -0.57499320794E+03  0.58897907361E+03  0.00000000000E+00 0. -1.
         -4    1    3    3    0  502 -0.22561456683E+02  0.54437351138E+01 -0.11548796334E+03  0.11779695775E+03  0.00000000000E+00 0.  1.
         13    1    5    5    0    0  0.26251231812E+03  0.34127134713E+02 -0.53417462120E+03  0.59617103622E+03  0.00000000000E+00 0.  1.
        -13    1    5    5    0    0  0.15734595734E+03 -0.44682972237E+02 -0.27656282693E+03  0.32131186647E+03  0.00000000000E+00 0. -1.
          4    1    6    6  503    0 -0.37736970755E+03 -0.78430940945E+02 -0.37566467789E+03  0.53822231363E+03  0.00000000000E+00 0. -1.
         -4    1    6    6    0  503 -0.37298492392E+02 -0.42858677711E+02 -0.66346722109E+02  0.87349478100E+02  0.00000000000E+00 0.  1.
<mgrwt>
<rscale>  0 0.11338410E+04</rscale>
<asrwt>0</asrwt>
<pdfrwt beam="1">  1        1 0.32254314E+00 0.11338410E+04</pdfrwt>
<pdfrwt beam="2">  1       -2 0.23584669E-01 0.11338410E+04</pdfrwt>
<totfact> 0.35770013E+01</totfact>
</mgrwt>
</event>
<event>
12    5  0.5297412E-008  0.1446097E+04  0.7818608E-02  0.8921111E-01
         -2   -1    0    0    0  501 -0.00000000000E+00  0.00000000000E+00  0.34422122276E+03  0.34422122276E+03  0.00000000000E+00 0.  1.
          1   -1    0    0  501    0  0.00000000000E+00 -0.00000000000E+00 -0.15187887771E+04  0.15187887771E+04  0.00000000000E+00 0. -1.
        -24    2    1    2    0    0  0.33030972173E+03 -0.17650981177E+03 -0.11198995034E+03  0.40085495410E+03  0.88784679547E+02 0.  0.
        254    2    1    2    0    0 -0.33030972173E+03  0.17650981177E+03 -0.10625776040E+04  0.14621550458E+04  0.93196887686E+03 0.  0.
         23    2    4    4    0    0  0.13506591230E+03 -0.28874072549E+03 -0.27252251704E+03  0.42999387469E+03  0.94932622163E+02 0.  0.
         23    2    4    4    0    0 -0.46537563403E+03  0.46525053727E+03 -0.79005508699E+03  0.10321611711E+04  0.90205872788E+02 0.  0.
          3    1    3    3  502    0  0.25561944847E+03 -0.10496817875E+03 -0.10996761251E+03  0.29740964474E+03  0.00000000000E+00 0. -1.
         -4    1    3    3    0  502  0.74690273265E+02 -0.71541633029E+02 -0.20223378269E+01  0.10344530935E+03  0.00000000000E+00 0.  1.
         13    1    5    5    0    0  0.12945100675E+03 -0.29619804471E+03 -0.26408016352E+03  0.41740768753E+03  0.00000000000E+00 0.  1.
        -13    1    5    5    0    0  0.56149055499E+01  0.74573192209E+01 -0.84423535194E+01  0.12586187161E+02  0.00000000000E+00 0. -1.
          2    1    6    6  503    0 -0.18183591622E+03  0.24476900767E+03 -0.35337003118E+03  0.46674034161E+03  0.00000000000E+00 0. -1.
         -2    1    6    6    0  503 -0.28353971781E+03  0.22048152960E+03 -0.43668505581E+03  0.56542082950E+03  0.00000000000E+00 0.  1.
<mgrwt>
<rscale>  0 0.14460973E+04</rscale>
<asrwt>0</asrwt>
<pdfrwt beam="1">  1        1 0.23365981E+00 0.14460973E+04</pdfrwt>
<pdfrwt beam="2">  1       -2 0.52957111E-01 0.14460973E+04</pdfrwt>
<totfact> 0.18199573E+01</totfact>
</mgrwt>
</event>
<event>
12    5  0.5297412E-008  0.2662614E+04  0.7818608E-02  0.8347238E-01
         -2   -1    0    0    0  501 -0.00000000000E+00  0.00000000000E+00  0.30502481882E+04  0.30502481882E+04  0.00000000000E+00 0.  1.
          1   -1    0    0  501    0  0.00000000000E+00 -0.00000000000E+00 -0.58106019949E+03  0.58106019949E+03  0.00000000000E+00 0. -1.
        -24    2    1    2    0    0 -0.96794580129E+03 -0.47922148545E+03  0.16497098506E+04  0.19735167943E+04  0.81569846876E+02 0.  0.
        254    2    1    2    0    0  0.96794580129E+03  0.47922148545E+03  0.81947813808E+03  0.16577915933E+04  0.95402109086E+03 0.  0.
         23    2    4    4    0    0  0.33263316385E+03  0.64085142504E+03  0.20893472295E+03  0.75735330619E+03  0.92708906123E+02 0.  0.
         23    2    4    4    0    0  0.63531263743E+03 -0.16162993959E+03  0.61054341514E+03  0.90043828715E+03  0.90991552016E+02 0.  0.
          1    1    3    3  502    0 -0.90247979995E+03 -0.42244258464E+03  0.15222632546E+04  0.18193990609E+04  0.00000000000E+00 0. -1.
         -2    1    3    3    0  502 -0.65466001340E+02 -0.56778900818E+02  0.12744659599E+03  0.15411773337E+03  0.00000000000E+00 0.  1.
         13    1    5    5    0    0  0.65599009443E+01  0.69543349426E+02  0.13727030561E+02  0.71188068648E+02  0.00000000000E+00 0. -1.
        -13    1    5    5    0    0  0.32607326291E+03  0.57130807562E+03  0.19520769238E+03  0.68616523754E+03  0.00000000000E+00 0.  1.
          2    1    6    6  503    0  0.12973328967E+03 -0.11658286727E+02  0.82645055305E+02  0.15426226779E+03  0.00000000000E+00 0. -1.
         -2    1    6    6    0  503  0.50557934777E+03 -0.14997165286E+03  0.52789835983E+03  0.74617601936E+03  0.00000000000E+00 0.  1.
<mgrwt>
<rscale>  0 0.26626136E+04</rscale>
<asrwt>0</asrwt>
<pdfrwt beam="1">  1        1 0.89393878E-01 0.26626136E+04</pdfrwt>
<pdfrwt beam="2">  1       -2 0.46926894E+00 0.26626136E+04</pdfrwt>
<totfact> 0.71255116E-02</totfact>
</mgrwt>
</event>
<event>
12    5  0.5297412E-008  0.1607882E+04  0.7818608E-02  0.8815721E-01
          1   -1    0    0  501    0  0.00000000000E+00  0.00000000000E+00  0.57656164241E+03  0.57656164241E+03  0.00000000000E+00 0. -1.
         -2   -1    0    0    0  501 -0.00000000000E+00 -0.00000000000E+00 -0.11209918107E+04  0.11209918107E+04  0.00000000000E+00 0.  1.
        -24    2    1    2    0    0 -0.30389942090E+03  0.45892189852E+03 -0.18413562075E+03  0.58584716938E+03  0.79666881907E+02 0.  0.
        254    2    1    2    0    0  0.30389942090E+03 -0.45892189852E+03 -0.36029454757E+03  0.11117062838E+04  0.89616657682E+03 0.  0.
         23    2    4    4    0    0  0.57438613436E+03 -0.11751044844E+03 -0.29808409871E+03  0.66242317721E+03  0.78880916393E+02 0.  0.
         23    2    4    4    0    0 -0.27048671346E+03 -0.34141145008E+03 -0.62210448860E+02  0.44928310656E+03  0.90886354780E+02 0.  0.
          3    1    3    3  502    0 -0.23717728863E+03  0.40583678479E+03 -0.16724795353E+03  0.49892728939E+03  0.00000000000E+00 0. -1.
         -4    1    3    3    0  502 -0.66722132262E+02  0.53085113730E+02 -0.16887667220E+02  0.86919879990E+02  0.00000000000E+00 0.  1.
         13    1    5    5    0    0  0.22045958243E+03 -0.80839895485E+02 -0.10042081891E+03  0.25538570253E+03  0.00000000000E+00 0. -1.
        -13    1    5    5    0    0  0.35392655193E+03 -0.36670552953E+02 -0.19766327980E+03  0.40703747468E+03  0.00000000000E+00 0.  1.
          1    1    6    6  503    0  0.62043127953E+01 -0.91120650620E+01  0.42071130117E+01  0.11799280777E+02  0.00000000000E+00 0. -1.
         -1    1    6    6    0  503 -0.27669102626E+03 -0.33229938502E+03 -0.66417561872E+02  0.43748382578E+03  0.00000000000E+00 0.  1.
<mgrwt>
<rscale>  0 0.16078817E+04</rscale>
<asrwt>0</asrwt>
<pdfrwt beam="1">  1        1 0.88701790E-01 0.16078817E+04</pdfrwt>
<pdfrwt beam="2">  1       -2 0.17246028E+00 0.16078817E+04</pdfrwt>
<totfact> 0.62261661E+00</totfact>
</mgrwt>
</event>
<event>
12    5  0.5297412E-008  0.1378393E+04  0.7818608E-02  0.8969609E-01
          1   -1    0    0  501    0  0.00000000000E+00  0.00000000000E+00  0.72567507676E+03  0.72567507676E+03  0.00000000000E+00 0. -1.
         -2   -1    0    0    0  501 -0.00000000000E+00 -0.00000000000E+00 -0.65455143587E+03  0.65455143587E+03  0.00000000000E+00 0.  1.
        -24    2    1    2    0    0  0.65840888806E+01  0.26820115113E+03  0.30483325299E+03  0.41376677740E+03  0.79400417250E+02 0.  0.
        254    2    1    2    0    0 -0.65840888806E+01 -0.26820115113E+03 -0.23370961210E+03  0.96645973523E+03  0.89858167650E+03 0.  0.
         23    2    4    4    0    0  0.35013247131E+03 -0.18417220946E+03 -0.38590902521E+03  0.55985029584E+03  0.89411564178E+02 0.  0.
         23    2    4    4    0    0 -0.35671656019E+03 -0.84028941670E+02  0.15219941310E+03  0.40660943939E+03  0.88651043420E+02 0.  0.
          3    1    3    3  502    0  0.16887061514E+02  0.26839202612E+03  0.29800216846E+03  0.40140346902E+03  0.00000000000E+00 0. -1.
         -4    1    3    3    0  502 -0.10302972633E+02 -0.19087499337E+00  0.68310845313E+01  0.12363308385E+02  0.00000000000E+00 0.  1.
         13    1    5    5    0    0  0.83751877211E+02 -0.22001057577E+02 -0.44192257111E+02  0.97218203334E+02  0.00000000000E+00 0. -1.
        -13    1    5    5    0    0  0.26638059410E+03 -0.16217115188E+03 -0.34171676810E+03  0.46263209251E+03  0.00000000000E+00 0.  1.
          3    1    6    6  503    0 -0.90764540182E+02 -0.61585075677E+02  0.53602312038E+02  0.12208247686E+03  0.00000000000E+00 0. -1.
         -3    1    6    6    0  503 -0.26595202001E+03 -0.22443865993E+02  0.98597101066E+02  0.28452696253E+03  0.00000000000E+00 0.  1.
<mgrwt>
<rscale>  0 0.13783928E+04</rscale>
<asrwt>0</asrwt>
<pdfrwt beam="1">  1        1 0.11164232E+00 0.13783928E+04</pdfrwt>
<pdfrwt beam="2">  1       -2 0.10070022E+00 0.13783928E+04</pdfrwt>
<totfact> 0.17915018E+01</totfact>
</mgrwt>
</event>
<event>
12    5  0.5297412E-008  0.1559662E+04  0.7818608E-02  0.8845720E-01
         -2   -1    0    0    0  501 -0.00000000000E+00  0.00000000000E+00  0.17867589166E+04  0.17867589166E+04  0.00000000000E+00 0.  1.
          1   -1    0    0  501    0  0.00000000000E+00 -0.00000000000E+00 -0.34035735102E+03  0.34035735102E+03  0.00000000000E+00 0. -1.
        -24    2    1    2    0    0  0.32886479822E+02  0.31015289066E+02  0.11340314448E+04  0.11376452144E+04  0.78522910485E+02 0.  0.
        254    2    1    2    0    0 -0.32886479822E+02 -0.31015289066E+02  0.31237012082E+03  0.98947105319E+03  0.93778163984E+03 0.  0.
         23    2    4    4    0    0 -0.25562857207E+03  0.26355056281E+03  0.44723588186E+03  0.58625258502E+03  0.94166307131E+02 0.  0.
         23    2    4    4    0    0  0.22274209225E+03 -0.29456585187E+03 -0.13486576105E+03  0.40321846818E+03  0.89516919222E+02 0.  0.
          1    1    3    3  502    0 -0.25050337600E+02  0.38789144291E+00  0.30362394691E+03  0.30465582386E+03  0.00000000000E+00 0. -1.
         -2    1    3    3    0  502  0.57936817421E+02  0.30627397623E+02  0.83040749785E+03  0.83298939056E+03  0.00000000000E+00 0.  1.
         13    1    5    5    0    0 -0.16860895444E+03  0.22995810679E+03  0.35101383225E+03  0.45223934020E+03  0.00000000000E+00 0.  1.
        -13    1    5    5    0    0 -0.87019617632E+02  0.33592456017E+02  0.96222049611E+02  0.13401324481E+03  0.00000000000E+00 0. -1.
          4    1    6    6  503    0  0.63931539616E+02 -0.67391076587E+02 -0.75612851437E+02  0.11977521557E+03  0.00000000000E+00 0. -1.
         -4    1    6    6    0  503  0.15881055263E+03 -0.22717477529E+03 -0.59252909609E+02  0.28344325261E+03  0.00000000000E+00 0.  1.
<mgrwt>
<rscale>  0 0.15596622E+04</rscale>
<asrwt>0</asrwt>
<pdfrwt beam="1">  1        1 0.52362670E-01 0.15596622E+04</pdfrwt>
<pdfrwt beam="2">  1       -2 0.27488598E+00 0.15596622E+04</pdfrwt>
<totfact> 0.28329353E+00</totfact>
</mgrwt>
</event>
<event>
12    5  0.5297412E-008  0.1606011E+04  0.7818608E-02  0.8816864E-01
          3   -1    0    0  501    0  0.00000000000E+00  0.00000000000E+00  0.64356533111E+03  0.64356533111E+03  0.00000000000E+00 0. -1.
         -4   -1    0    0    0  501 -0.00000000000E+00 -0.00000000000E+00 -0.10019464391E+04  0.10019464391E+04  0.00000000000E+00 0.  1.
        -24    2    1    2    0    0 -0.11282483466E+00  0.32949587701E+03 -0.57381722151E+03  0.66662780668E+03  0.80986932529E+02 0.  0.
        254    2    1    2    0    0  0.11282483466E+00 -0.32949587701E+03  0.21543611348E+03  0.97888396356E+03  0.89623297720E+03 0.  0.
         23    2    4    4    0    0 -0.13967375264E+03  0.27385067767E+03  0.13014205677E+03  0.34619235047E+03  0.91701896074E+02 0.  0.
         23    2    4    4    0    0  0.13978657747E+03 -0.60334655468E+03  0.85294056717E+02  0.63269161310E+03  0.97243245943E+02 0.  0.
          1    1    3    3  502    0  0.27058228094E+02  0.54751020511E+02 -0.77296596561E+02  0.98511856111E+02  0.00000000000E+00 0. -1.
         -2    1    3    3    0  502 -0.27171052929E+02  0.27474485650E+03 -0.49652062495E+03  0.56811595057E+03  0.00000000000E+00 0.  1.
         13    1    5    5    0    0 -0.11444866219E+02  0.83534868013E+02  0.68338361440E+02  0.10853198045E+03  0.00000000000E+00 0.  1.
        -13    1    5    5    0    0 -0.12822888642E+03  0.19031580966E+03  0.61803695327E+02  0.23766037001E+03  0.00000000000E+00 0. -1.
          1    1    6    6  503    0  0.13735839927E+03 -0.59665105292E+03  0.96095615299E+02  0.61975331873E+03  0.00000000000E+00 0. -1.
         -1    1    6    6    0  503  0.24281782001E+01 -0.66955017643E+01 -0.10801558582E+02  0.12938294364E+02  0.00000000000E+00 0.  1.
<mgrwt>
<rscale>  0 0.16060112E+04</rscale>
<asrwt>0</asrwt>
<pdfrwt beam="1">  1        3 0.99010051E-01 0.16060112E+04</pdfrwt>
<pdfrwt beam="2">  1       -4 0.15414561E+00 0.16060112E+04</pdfrwt>
<totfact> 0.54379253E-01</totfact>
</mgrwt>
</event>
<event>
12    5  0.5297412E-008  0.1214572E+04  0.7818608E-02  0.9100196E-01
          3   -1    0    0  501    0  0.00000000000E+00  0.00000000000E+00  0.42789155322E+04  0.42789155322E+04  0.00000000000E+00 0. -1.
         -4   -1    0    0    0  501 -0.00000000000E+00 -0.00000000000E+00 -0.86189235969E+02  0.86189235969E+02  0.00000000000E+00 0.  1.
        -24    2    1    2    0    0  0.11576175645E+03  0.18074747389E+03  0.15100588212E+04  0.15272852800E+04  0.79071167628E+02 0.  0.
        254    2    1    2    0    0 -0.11576175645E+03 -0.18074747389E+03  0.26826674750E+04  0.28378194882E+04  0.90024676177E+03 0.  0.
         23    2    4    4    0    0 -0.13727428968E+03 -0.47950875109E+03  0.94845567805E+03  0.10755662561E+04  0.92204799280E+02 0.  0.
         23    2    4    4    0    0  0.21512533228E+02  0.29876127720E+03  0.17342117970E+04  0.17622532321E+04  0.91240381742E+02 0.  0.
          1    1    3    3  502    0  0.10270431334E+03  0.18679156868E+03  0.14462053924E+04  0.14618308052E+04  0.00000000000E+00 0. -1.
         -2    1    3    3    0  502  0.13057443107E+02 -0.60440947934E+01  0.63853428771E+02  0.65454474776E+02  0.00000000000E+00 0.  1.
         13    1    5    5    0    0 -0.51294429518E+02 -0.95895236042E+02  0.14670270346E+03  0.18261625886E+03  0.00000000000E+00 0. -1.
        -13    1    5    5    0    0 -0.85979860158E+02 -0.38361351505E+03  0.80175297458E+03  0.89294999722E+03  0.00000000000E+00 0.  1.
          1    1    6    6  503    0  0.82962851924E+01 -0.43367167639E+01  0.68697510190E+02  0.69332412093E+02  0.00000000000E+00 0. -1.
         -1    1    6    6    0  503  0.13216248036E+02  0.30309799397E+03  0.16655142868E+04  0.16929208200E+04  0.00000000000E+00 0.  1.
<mgrwt>
<rscale>  0 0.12145723E+04</rscale>
<asrwt>0</asrwt>
<pdfrwt beam="1">  1        3 0.65829453E+00 0.12145723E+04</pdfrwt>
<pdfrwt beam="2">  1       -4 0.13259886E-01 0.12145723E+04</pdfrwt>
<totfact> 0.65345363E-02</totfact>
</mgrwt>
</event>
<event>
12    5  0.5297412E-008  0.1697061E+04  0.7818608E-02  0.8763042E-01
          1   -1    0    0  501    0  0.00000000000E+00  0.00000000000E+00  0.11642637678E+04  0.11642637678E+04  0.00000000000E+00 0. -1.
         -2   -1    0    0    0  501 -0.00000000000E+00 -0.00000000000E+00 -0.61841992451E+03  0.61841992451E+03  0.00000000000E+00 0.  1.
        -24    2    1    2    0    0  0.18074015699E+02  0.43064021228E+03 -0.25237062461E+03  0.50555345684E+03  0.78202960823E+02 0.  0.
        254    2    1    2    0    0 -0.18074015699E+02 -0.43064021228E+03  0.79821446793E+03  0.12771302355E+04  0.89896475967E+03 0.  0.
         23    2    4    4    0    0  0.29534232473E+02 -0.16338674090E+03  0.93924370310E+03  0.95802250839E+03  0.89782485909E+02 0.  0.
         23    2    4    4    0    0 -0.47608248172E+02 -0.26725347139E+03 -0.14102923517E+03  0.31910772711E+03  0.90826940213E+02 0.  0.
          3    1    3    3  502    0  0.38541690651E+02  0.25545970128E+03 -0.11904537647E+03  0.28445899978E+03  0.00000000000E+00 0. -1.
         -4    1    3    3    0  502 -0.20467674952E+02  0.17518051100E+03 -0.13332524814E+03  0.22109445706E+03  0.00000000000E+00 0.  1.
         13    1    5    5    0    0  0.20852782680E+02  0.34340988355E+01  0.13138825512E+03  0.13307706476E+03  0.00000000000E+00 0.  1.
        -13    1    5    5    0    0  0.86814497927E+01 -0.16682083973E+03  0.80785544797E+03  0.82494544363E+03  0.00000000000E+00 0. -1.
          3    1    6    6  503    0 -0.34825677778E+02 -0.35759833700E+02 -0.48134682845E+02  0.69343645935E+02  0.00000000000E+00 0. -1.
         -3    1    6    6    0  503 -0.12782570394E+02 -0.23149363769E+03 -0.92894552323E+02  0.24976408118E+03  0.00000000000E+00 0.  1.
<mgrwt>
<rscale>  0 0.16970609E+04</rscale>
<asrwt>0</asrwt>
<pdfrwt beam="1">  1        1 0.17911750E+00 0.16970609E+04</pdfrwt>
<pdfrwt beam="2">  1       -2 0.95141527E-01 0.16970609E+04</pdfrwt>
<totfact> 0.88022648E+00</totfact>
</mgrwt>
</event>
<event>
12    5  0.5297412E-008  0.1215689E+04  0.7818608E-02  0.9099233E-01
          1   -1    0    0  501    0  0.00000000000E+00  0.00000000000E+00  0.33052668600E+04  0.33052668600E+04  0.00000000000E+00 0. -1.
         -2   -1    0    0    0  501 -0.00000000000E+00 -0.00000000000E+00 -0.11178376182E+03  0.11178376182E+03  0.00000000000E+00 0.  1.
        -24    2    1    2    0    0 -0.30264749523E+02 -0.34430713728E+03  0.77046450965E+03  0.84824486808E+03  0.80252325433E+02 0.  0.
        254    2    1    2    0    0  0.30264749523E+02  0.34430713728E+03  0.24230185885E+04  0.25688057537E+04  0.77992343234E+03 0.  0.
         23    2    4    4    0    0  0.28033696981E+03 -0.67002776301E+02  0.49705073623E+03  0.58138776081E+03  0.88736155918E+02 0.  0.
         23    2    4    4    0    0 -0.25007222028E+03  0.41130991358E+03  0.19259678523E+04  0.19874179929E+04  0.93627721272E+02 0.  0.
          3    1    3    3  502    0 -0.17502258578E+02 -0.87288338339E+02  0.12577857283E+03  0.15409682816E+03  0.00000000000E+00 0. -1.
         -4    1    3    3    0  502 -0.12762490945E+02 -0.25701879894E+03  0.64468593682E+03  0.69414803992E+03  0.00000000000E+00 0.  1.
         13    1    5    5    0    0  0.23486822641E+03 -0.45033952190E+02  0.33465016546E+03  0.41131724237E+03  0.00000000000E+00 0.  1.
        -13    1    5    5    0    0  0.45468743397E+02 -0.21968824110E+02  0.16240057076E+03  0.17007051844E+03  0.00000000000E+00 0. -1.
          2    1    6    6  503    0 -0.38470370221E+02  0.85837650236E+02  0.25090340631E+03  0.26795632271E+03  0.00000000000E+00 0. -1.
         -2    1    6    6    0  503 -0.21160185006E+03  0.32547226335E+03  0.16750644460E+04  0.17194616702E+04  0.00000000000E+00 0.  1.
<mgrwt>
<rscale>  0 0.12156894E+04</rscale>
<asrwt>0</asrwt>
<pdfrwt beam="1">  1        1 0.50850252E+00 0.12156894E+04</pdfrwt>
<pdfrwt beam="2">  1       -2 0.17197504E-01 0.12156894E+04</pdfrwt>
<totfact> 0.86918766E+00</totfact>
</mgrwt>
</event>
<event>
12    5  0.5297412E-008  0.1228999E+04  0.7818608E-02  0.9087846E-01
         -2   -1    0    0    0  501 -0.00000000000E+00  0.00000000000E+00  0.67626506613E+03  0.67626506613E+03  0.00000000000E+00 0.  1.
          1   -1    0    0  501    0  0.00000000000E+00 -0.00000000000E+00 -0.55837504780E+03  0.55837504780E+03  0.00000000000E+00 0. -1.
        -24    2    1    2    0    0 -0.14943401125E+03  0.32518392538E+02 -0.20355719248E+03  0.26701398306E+03  0.80454751053E+02 0.  0.
        254    2    1    2    0    0  0.14943401125E+03 -0.32518392538E+02  0.32144721082E+03  0.96762613087E+03  0.89976888712E+03 0.  0.
         23    2    4    4    0    0  0.22431854902E+03 -0.25735236886E+03  0.53074804602E+03  0.63743926794E+03  0.89923738626E+02 0.  0.
         23    2    4    4    0    0 -0.74884537775E+02  0.22483397632E+03 -0.20930083520E+03  0.33018686293E+03  0.95176225674E+02 0.  0.
          1    1    3    3  502    0 -0.15735310176E+03  0.26606736078E+02 -0.17521505983E+03  0.23699838445E+03  0.00000000000E+00 0. -1.
         -2    1    3    3    0  502  0.79190905177E+01  0.59116564603E+01 -0.28342132650E+02  0.30015598609E+02  0.00000000000E+00 0.  1.
         13    1    5    5    0    0  0.13285071425E+03 -0.13687154955E+03  0.21558500372E+03  0.28785417694E+03  0.00000000000E+00 0.  1.
        -13    1    5    5    0    0  0.91467834768E+02 -0.12048081931E+03  0.31516304230E+03  0.34958509100E+03  0.00000000000E+00 0. -1.
          4    1    6    6  503    0  0.79048210187E+01  0.12598124104E+03 -0.11014735877E+03  0.16752969865E+03  0.00000000000E+00 0. -1.
         -4    1    6    6    0  503 -0.82789358793E+02  0.98852735286E+02 -0.99153476433E+02  0.16265716428E+03  0.00000000000E+00 0.  1.
<mgrwt>
<rscale>  0 0.12289988E+04</rscale>
<asrwt>0</asrwt>
<pdfrwt beam="1">  1        1 0.85903854E-01 0.12289988E+04</pdfrwt>
<pdfrwt beam="2">  1       -2 0.10404078E+00 0.12289988E+04</pdfrwt>
<totfact> 0.24655156E+01</totfact>
</mgrwt>
</event>
<event>
12    5  0.5297412E-008  0.1817044E+04  0.7818608E-02  0.8697288E-01
         -2   -1    0    0    0  501 -0.00000000000E+00  0.00000000000E+00  0.18271679905E+04  0.18271679905E+04  0.00000000000E+00 0.  1.
          1   -1    0    0  501    0  0.00000000000E+00 -0.00000000000E+00 -0.45174394862E+03  0.45174394862E+03  0.00000000000E+00 0. -1.
        -24    2    1    2    0    0 -0.24736135779E+03 -0.20054336465E+03  0.12729375541E+04  0.13149340467E+04  0.85300926847E+02 0.  0.
        254    2    1    2    0    0  0.24736135779E+03  0.20054336465E+03  0.10248648776E+03  0.96397789240E+03  0.90407113350E+03 0.  0.
         23    2    4    4    0    0  0.62135601167E+02  0.23219562536E+03  0.47285404640E+03  0.53835893400E+03  0.91998648113E+02 0.  0.
         23    2    4    4    0    0  0.18522575662E+03 -0.31652260705E+02 -0.37036755864E+03  0.42561895839E+03  0.93107049837E+02 0.  0.
          3    1    3    3  502    0 -0.10211530005E+02 -0.26854154677E+02  0.21523932720E+03  0.21714831093E+03  0.00000000000E+00 0. -1.
         -4    1    3    3    0  502 -0.23714982778E+03 -0.17368920998E+03  0.10576982269E+04  0.10977857358E+04  0.00000000000E+00 0.  1.
         13    1    5    5    0    0 -0.81223995083E+01 -0.26870417979E+01  0.43799430216E+01  0.96113197984E+01  0.00000000000E+00 0. -1.
        -13    1    5    5    0    0  0.70258000676E+02  0.23488266716E+03  0.46847410338E+03  0.52874761420E+03  0.00000000000E+00 0.  1.
          4    1    6    6  503    0  0.15555143368E+03 -0.89453645805E+01 -0.21316711320E+03  0.26403879680E+03  0.00000000000E+00 0. -1.
         -4    1    6    6    0  503  0.29674322942E+02 -0.22706896125E+02 -0.15720044544E+03  0.16158016159E+03  0.00000000000E+00 0.  1.
<mgrwt>
<rscale>  0 0.18170438E+04</rscale>
<asrwt>0</asrwt>
<pdfrwt beam="1">  1        1 0.69499070E-01 0.18170438E+04</pdfrwt>
<pdfrwt beam="2">  1       -2 0.28110276E+00 0.18170438E+04</pdfrwt>
<totfact> 0.17426630E+00</totfact>
</mgrwt>
</event>
<event>
12    5  0.5297412E-008  0.1690987E+04  0.7818608E-02  0.8766521E-01
          3   -1    0    0  501    0  0.00000000000E+00  0.00000000000E+00  0.28006483470E+04  0.28006483470E+04  0.00000000000E+00 0. -1.
         -4   -1    0    0    0  501 -0.00000000000E+00 -0.00000000000E+00 -0.25524788882E+03  0.25524788882E+03  0.00000000000E+00 0.  1.
        -24    2    1    2    0    0  0.28523541016E+03 -0.53021954346E+03  0.86983585436E+03  0.10606987479E+04  0.77300819419E+02 0.  0.
        254    2    1    2    0    0 -0.28523541016E+03  0.53021954346E+03  0.16755646038E+04  0.19951974880E+04  0.90044670631E+03 0.  0.
         23    2    4    4    0    0  0.14141021010E+03 -0.15976597062E+03  0.60853783891E+03  0.65156597214E+03  0.93262542190E+02 0.  0.
         23    2    4    4    0    0 -0.42664562026E+03  0.68998551408E+03  0.10670267649E+04  0.13436315158E+04  0.93236464688E+02 0.  0.
          1    1    3    3  502    0  0.21416329082E+02 -0.75950671065E+02  0.15091408359E+03  0.17030039405E+03  0.00000000000E+00 0. -1.
         -2    1    3    3    0  502  0.26381908108E+03 -0.45426887240E+03  0.71892177077E+03  0.89039835381E+03  0.00000000000E+00 0.  1.
         13    1    5    5    0    0  0.14782421789E+03 -0.16395687114E+03  0.60292321320E+03  0.64206717406E+03  0.00000000000E+00 0. -1.
        -13    1    5    5    0    0 -0.64140077849E+01  0.41909005289E+01  0.56146257141E+01  0.94987980828E+01  0.00000000000E+00 0.  1.
          3    1    6    6  503    0 -0.33408624078E+03  0.47417496261E+03  0.71923901293E+03  0.92399148760E+03  0.00000000000E+00 0. -1.
         -3    1    6    6    0  503 -0.92559379483E+02  0.21581055147E+03  0.34778775197E+03  0.41964002821E+03  0.00000000000E+00 0.  1.
<mgrwt>
<rscale>  0 0.16909874E+04</rscale>
<asrwt>0</asrwt>
<pdfrwt beam="1">  1        3 0.43086895E+00 0.16909874E+04</pdfrwt>
<pdfrwt beam="2">  1       -4 0.39268908E-01 0.16909874E+04</pdfrwt>
<totfact> 0.10674754E-01</totfact>
</mgrwt>
</event>
<event>
12    5  0.5297412E-008  0.2365062E+04  0.7818608E-02  0.8452701E-01
         -2   -1    0    0    0  501 -0.00000000000E+00  0.00000000000E+00  0.11697954920E+04  0.11697954920E+04  0.00000000000E+00 0.  1.
          1   -1    0    0  501    0  0.00000000000E+00 -0.00000000000E+00 -0.11954050084E+04  0.11954050084E+04  0.00000000000E+00 0. -1.
        -24    2    1    2    0    0 -0.16882668312E+03  0.84332386691E+03  0.51957148276E+03  0.10079297999E+04  0.79185620163E+02 0.  0.
        254    2    1    2    0    0  0.16882668312E+03 -0.84332386691E+03 -0.54518099914E+03  0.13572707005E+04  0.89736494203E+03 0.  0.
         23    2    4    4    0    0  0.58080624163E+02 -0.93839055721E+03 -0.65839701021E+03  0.11512576043E+04  0.89203427897E+02 0.  0.
         23    2    4    4    0    0  0.11074605896E+03  0.95066690293E+02  0.11321601107E+03  0.20601309625E+03  0.91220422508E+02 0.  0.
          1    1    3    3  502    0 -0.32212558025E+02  0.30833196728E+03  0.21581509406E+03  0.37773324684E+03  0.00000000000E+00 0. -1.
         -2    1    3    3    0  502 -0.13661412510E+03  0.53499189963E+03  0.30375638870E+03  0.63019655309E+03  0.00000000000E+00 0.  1.
         13    1    5    5    0    0  0.58512266094E+02 -0.28335254207E+03 -0.19687315148E+03  0.34995912069E+03  0.00000000000E+00 0.  1.
        -13    1    5    5    0    0 -0.43164193009E+00 -0.65503801514E+03 -0.46152385873E+03  0.80129848357E+03  0.00000000000E+00 0. -1.
          2    1    6    6  503    0  0.44510442568E+02  0.91535985128E+01 -0.48221827422E+01  0.45697060187E+02  0.00000000000E+00 0. -1.
         -2    1    6    6    0  503  0.66235616393E+02  0.85913091780E+02  0.11803819382E+03  0.16031603606E+03  0.00000000000E+00 0.  1.
<mgrwt>
<rscale>  0 0.23650619E+04</rscale>
<asrwt>0</asrwt>
<pdfrwt beam="1">  1        1 0.18390846E+00 0.23650619E+04</pdfrwt>
<pdfrwt beam="2">  1       -2 0.17996854E+00 0.23650619E+04</pdfrwt>
<totfact> 0.15406140E+00</totfact>
</mgrwt>
</event>
<event>
12    5  0.5297412E-008  0.9647958E+03  0.7818608E-02  0.9348022E-01
          1   -1    0    0  501    0  0.00000000000E+00  0.00000000000E+00  0.11897388736E+04  0.11897388736E+04  0.00000000000E+00 0. -1.
         -2   -1    0    0    0  501 -0.00000000000E+00 -0.00000000000E+00 -0.19559563576E+03  0.19559563576E+03  0.00000000000E+00 0.  1.
        -24    2    1    2    0    0 -0.38132975782E+01  0.40685018892E+01  0.13130694202E+03  0.15253183213E+03  0.77416747837E+02 0.  0.
        254    2    1    2    0    0  0.38132975782E+01 -0.40685018892E+01  0.86283629586E+03  0.12328026773E+04  0.88050262560E+03 0.  0.
         23    2    4    4    0    0 -0.29061934956E+03  0.14720877607E+02 -0.11622702848E+02  0.30540502764E+03  0.91982787043E+02 0.  0.
         23    2    4    4    0    0  0.29443264714E+03 -0.18789379496E+02  0.87445899871E+03  0.92739764963E+03  0.91346787754E+02 0.  0.
          3    1    3    3  502    0  0.72210503151E+01 -0.78606256184E+01  0.13536310793E+03  0.13578329791E+03  0.00000000000E+00 0. -1.
         -4    1    3    3    0  502 -0.11034347893E+02  0.11929127508E+02 -0.40561659171E+01  0.16748534219E+02  0.00000000000E+00 0.  1.
         13    1    5    5    0    0 -0.14203221782E+03 -0.27115325554E+02 -0.36290804139E+02  0.14908190448E+03  0.00000000000E+00 0. -1.
        -13    1    5    5    0    0 -0.14858713174E+03  0.41836203162E+02  0.24668101292E+02  0.15632312316E+03  0.00000000000E+00 0.  1.
          4    1    6    6  503    0  0.27322451415E+03 -0.18077795764E+02  0.85772729619E+03  0.90037467560E+03  0.00000000000E+00 0. -1.
         -4    1    6    6    0  503  0.21208132986E+02 -0.71158373219E+00  0.16731702517E+02  0.27022974027E+02  0.00000000000E+00 0.  1.
<mgrwt>
<rscale>  0 0.96479579E+03</rscale>
<asrwt>0</asrwt>
<pdfrwt beam="1">  1        1 0.18303675E+00 0.96479579E+03</pdfrwt>
<pdfrwt beam="2">  1       -2 0.30091637E-01 0.96479579E+03</pdfrwt>
<totfact> 0.97599241E+01</totfact>
</mgrwt>
</event>
<event>
12    5  0.5297412E-008  0.1847151E+04  0.7818608E-02  0.8681619E-01
         -2   -1    0    0    0  501 -0.00000000000E+00  0.00000000000E+00  0.64131533774E+03  0.64131533774E+03  0.00000000000E+00 0.  1.
          1   -1    0    0  501    0  0.00000000000E+00 -0.00000000000E+00 -0.13300655652E+04  0.13300655652E+04  0.00000000000E+00 0. -1.
        -24    2    1    2    0    0  0.48139900772E+03  0.41276464020E+03 -0.59018328581E+03  0.86996829508E+03  0.80055423058E+02 0.  0.
        254    2    1    2    0    0 -0.48139900772E+03 -0.41276464020E+03 -0.98566941626E+02  0.11014126078E+04  0.89513945165E+03 0.  0.
         23    2    4    4    0    0  0.17260408449E+03  0.53761887907E+02 -0.20237077009E+03  0.28635238336E+03  0.91439861627E+02 0.  0.
         23    2    4    4    0    0 -0.65400309221E+03 -0.46652652811E+03  0.10380382846E+03  0.81506022449E+03  0.90448265287E+02 0.  0.
          1    1    3    3  502    0  0.43421001843E+02  0.65890270106E+02 -0.94125030258E+02  0.12282683915E+03  0.00000000000E+00 0. -1.
         -2    1    3    3    0  502  0.43797800588E+03  0.34687437009E+03 -0.49605825555E+03  0.74714145592E+03  0.00000000000E+00 0.  1.
         13    1    5    5    0    0  0.13245404424E+02  0.32860251744E+02 -0.68737768511E+02  0.77331220751E+02  0.00000000000E+00 0.  1.
        -13    1    5    5    0    0  0.15935868007E+03  0.20901636163E+02 -0.13363300158E+03  0.20902116260E+03  0.00000000000E+00 0. -1.
          1    1    6    6  503    0 -0.44622630496E+03 -0.29115362136E+03  0.10551927976E+03  0.54315988886E+03  0.00000000000E+00 0. -1.
         -1    1    6    6    0  503 -0.20777678725E+03 -0.17537290674E+03 -0.17154512961E+01  0.27190033562E+03  0.00000000000E+00 0.  1.
<mgrwt>
<rscale>  0 0.18471507E+04</rscale>
<asrwt>0</asrwt>
<pdfrwt beam="1">  1        1 0.20462547E+00 0.18471507E+04</pdfrwt>
<pdfrwt beam="2">  1       -2 0.98663899E-01 0.18471507E+04</pdfrwt>
<totfact> 0.60537934E+00</totfact>
</mgrwt>
</event>
<event>
12    5  0.5297412E-008  0.1481471E+04  0.7818608E-02  0.8896869E-01
         -2   -1    0    0    0  501 -0.00000000000E+00  0.00000000000E+00  0.36017170543E+03  0.36017170543E+03  0.00000000000E+00 0.  1.
          1   -1    0    0  501    0  0.00000000000E+00 -0.00000000000E+00 -0.15234087667E+04  0.15234087667E+04  0.00000000000E+00 0. -1.
        -24    2    1    2    0    0 -0.78107574050E+02  0.44389197647E+03 -0.24199245605E+03  0.51776938431E+03  0.79899353221E+02 0.  0.
        254    2    1    2    0    0  0.78107574050E+02 -0.44389197647E+03 -0.92124460527E+03  0.13658110879E+04  0.90200189861E+03 0.  0.
         23    2    4    4    0    0 -0.38436752492E+03 -0.34226471056E+03 -0.53279436216E+03  0.74649646192E+03  0.92215015032E+02 0.  0.
         23    2    4    4    0    0  0.46247509897E+03 -0.10162726592E+03 -0.38845024310E+03  0.61931462594E+03  0.91900468951E+02 0.  0.
          1    1    3    3  502    0 -0.16006448960E+02  0.15886402164E+03 -0.45412775266E+02  0.16600091547E+03  0.00000000000E+00 0. -1.
         -2    1    3    3    0  502 -0.62101125090E+02  0.28502795483E+03 -0.19657968078E+03  0.35176846884E+03  0.00000000000E+00 0.  1.
         13    1    5    5    0    0 -0.35026549691E+03 -0.29767099951E+03 -0.43034929288E+03  0.62967805755E+03  0.00000000000E+00 0. -1.
        -13    1    5    5    0    0 -0.34102028013E+02 -0.44593711047E+02 -0.10244506928E+03  0.11681840437E+03  0.00000000000E+00 0.  1.
          1    1    6    6  503    0  0.36731734657E+03 -0.93135623963E+02 -0.35155617021E+03  0.51690232961E+03  0.00000000000E+00 0. -1.
         -1    1    6    6    0  503  0.95157752409E+02 -0.84916419535E+01 -0.36894072888E+02  0.10241229634E+03  0.00000000000E+00 0.  1.
<mgrwt>
<rscale>  0 0.14814705E+04</rscale>
<asrwt>0</asrwt>
<pdfrwt beam="1">  1        1 0.23437058E+00 0.14814705E+04</pdfrwt>
<pdfrwt beam="2">  1       -2 0.55411032E-01 0.14814705E+04</pdfrwt>
<totfact> 0.16398886E+01</totfact>
</mgrwt>
</event>
<event>
12    5  0.5297412E-008  0.2091521E+04  0.7818608E-02  0.8564988E-01
         -2   -1    0    0    0  501 -0.00000000000E+00  0.00000000000E+00  0.34452333936E+03  0.34452333936E+03  0.00000000000E+00 0.  1.
          1   -1    0    0  501    0  0.00000000000E+00 -0.00000000000E+00 -0.31742828087E+04  0.31742828087E+04  0.00000000000E+00 0. -1.
        -24    2    1    2    0    0 -0.39441462879E+02  0.10285576194E+03 -0.25510514445E+04  0.25546860802E+04  0.80140869830E+02 0.  0.
        254    2    1    2    0    0  0.39441462879E+02 -0.10285576194E+03 -0.27870802481E+03  0.96412006785E+03  0.91635932111E+03 0.  0.
         23    2    4    4    0    0  0.37031516642E+03 -0.20467808854E+03 -0.39709341062E+03  0.58723332307E+03  0.90185123792E+02 0.  0.
         23    2    4    4    0    0 -0.33087370355E+03  0.10182232660E+03  0.11838538581E+03  0.37688674479E+03  0.90461731850E+02 0.  0.
          3    1    3    3  502    0 -0.28461523192E+02  0.11365407377E+03 -0.20071762205E+04  0.20105928695E+04  0.00000000000E+00 0. -1.
         -4    1    3    3    0  502 -0.10979939687E+02 -0.10798311835E+02 -0.54387522405E+03  0.54409321072E+03  0.00000000000E+00 0.  1.
         13    1    5    5    0    0  0.91983916876E+02 -0.12856716232E+02 -0.10798633181E+03  0.14243378803E+03  0.00000000000E+00 0. -1.
        -13    1    5    5    0    0  0.27833124955E+03 -0.19182137231E+03 -0.28910707881E+03  0.44479953503E+03  0.00000000000E+00 0.  1.
          3    1    6    6  503    0 -0.13078831118E+03  0.65168575992E+02  0.10171506011E+02  0.14647861678E+03  0.00000000000E+00 0. -1.
         -3    1    6    6    0  503 -0.20008539236E+03  0.36653750612E+02  0.10821387980E+03  0.23040812801E+03  0.00000000000E+00 0.  1.
<mgrwt>
<rscale>  0 0.20915205E+04</rscale>
<asrwt>0</asrwt>
<pdfrwt beam="1">  1        1 0.48835122E+00 0.20915205E+04</pdfrwt>
<pdfrwt beam="2">  1       -2 0.53003589E-01 0.20915205E+04</pdfrwt>
<totfact> 0.12087801E+00</totfact>
</mgrwt>
</event>
<event>
12    5  0.5297412E-008  0.1304243E+04  0.7818608E-02  0.9026207E-01
         -2   -1    0    0    0  501 -0.00000000000E+00  0.00000000000E+00  0.51184409511E+03  0.51184409511E+03  0.00000000000E+00 0.  1.
          1   -1    0    0  501    0  0.00000000000E+00 -0.00000000000E+00 -0.83084345783E+03  0.83084345783E+03  0.00000000000E+00 0. -1.
        -24    2    1    2    0    0 -0.56220064264E+01  0.27563731571E+03 -0.31637086372E+03  0.42657664982E+03  0.76613171177E+02 0.  0.
        254    2    1    2    0    0  0.56220064264E+01 -0.27563731571E+03 -0.26284989987E+01  0.91611090312E+03  0.87363879323E+03 0.  0.
         23    2    4    4    0    0  0.84127693151E+02 -0.44950593773E+03 -0.29748328411E+03  0.55328980138E+03  0.92196763384E+02 0.  0.
         23    2    4    4    0    0 -0.78505686725E+02  0.17386862202E+03  0.29485478511E+03  0.36282110174E+03  0.91139272490E+02 0.  0.
          3    1    3    3  502    0 -0.38201913144E+01  0.25041105216E+03 -0.31330815693E+03  0.40110134643E+03  0.00000000000E+00 0. -1.
         -4    1    3    3    0  502 -0.18018151120E+01  0.25226263543E+02 -0.30627067838E+01  0.25475303391E+02  0.00000000000E+00 0.  1.
         13    1    5    5    0    0  0.49904932291E+02 -0.11817265686E+03 -0.12094416322E+03  0.17630306212E+03  0.00000000000E+00 0. -1.
        -13    1    5    5    0    0  0.34222760860E+02 -0.33133328087E+03 -0.17653912089E+03  0.37698673926E+03  0.00000000000E+00 0.  1.
          4    1    6    6  503    0 -0.35247830691E+02  0.46017922943E+01  0.65271244896E+02  0.74323088412E+02  0.00000000000E+00 0. -1.
         -4    1    6    6    0  503 -0.43257856034E+02  0.16926682972E+03  0.22958354022E+03  0.28849801333E+03  0.00000000000E+00 0.  1.
<mgrwt>
<rscale>  0 0.13042428E+04</rscale>
<asrwt>0</asrwt>
<pdfrwt beam="1">  1        1 0.12782207E+00 0.13042428E+04</pdfrwt>
<pdfrwt beam="2">  1       -2 0.78745245E-01 0.13042428E+04</pdfrwt>
<totfact> 0.25635118E+01</totfact>
</mgrwt>
</event>
<event>
12    5  0.5297412E-008  0.1599122E+04  0.7818608E-02  0.8821088E-01
          1   -1    0    0  501    0  0.00000000000E+00  0.00000000000E+00  0.15511273447E+04  0.15511273447E+04  0.00000000000E+00 0. -1.
         -2   -1    0    0    0  501 -0.00000000000E+00 -0.00000000000E+00 -0.41215045810E+03  0.41215045810E+03  0.00000000000E+00 0.  1.
        -24    2    1    2    0    0 -0.23170975256E+03  0.47996248814E+03  0.28855135783E+03  0.61112858702E+03  0.78503912749E+02 0.  0.
        254    2    1    2    0    0  0.23170975256E+03 -0.47996248814E+03  0.85042552873E+03  0.13521492157E+04  0.90610734588E+03 0.  0.
         23    2    4    4    0    0 -0.17330304526E+03 -0.34165806342E+03 -0.24177107563E+01  0.39345701583E+03  0.89657125687E+02 0.  0.
         23    2    4    4    0    0  0.40501279782E+03 -0.13830442472E+03  0.85284323948E+03  0.95869219991E+03  0.92658851401E+02 0.  0.
          1    1    3    3  502    0 -0.13909819209E+03  0.23010541341E+03  0.17903258200E+03  0.32303169154E+03  0.00000000000E+00 0. -1.
         -2    1    3    3    0  502 -0.92611560472E+02  0.24985707473E+03  0.10951877583E+03  0.28809689548E+03  0.00000000000E+00 0.  1.
         13    1    5    5    0    0 -0.23950159059E+01 -0.32164093697E+02 -0.22521501224E+02  0.39338060983E+02  0.00000000000E+00 0.  1.
        -13    1    5    5    0    0 -0.17090802935E+03 -0.30949396972E+03  0.20103790468E+02  0.35411895485E+03  0.00000000000E+00 0. -1.
          4    1    6    6  503    0  0.24432625851E+03 -0.75460739129E+02  0.40743323573E+03  0.48103168848E+03  0.00000000000E+00 0. -1.
         -4    1    6    6    0  503  0.16068653931E+03 -0.62843685593E+02  0.44541000375E+03  0.47766051143E+03  0.00000000000E+00 0.  1.
<mgrwt>
<rscale>  0 0.15991221E+04</rscale>
<asrwt>0</asrwt>
<pdfrwt beam="1">  1        1 0.23863497E+00 0.15991221E+04</pdfrwt>
<pdfrwt beam="2">  1       -2 0.63407764E-01 0.15991221E+04</pdfrwt>
<totfact> 0.11691442E+01</totfact>
</mgrwt>
</event>
<event>
12    5  0.5297412E-008  0.1610568E+04  0.7818608E-02  0.8814082E-01
         -2   -1    0    0    0  501 -0.00000000000E+00  0.00000000000E+00  0.75063440636E+03  0.75063440636E+03  0.00000000000E+00 0.  1.
          1   -1    0    0  501    0  0.00000000000E+00 -0.00000000000E+00 -0.86391253598E+03  0.86391253598E+03  0.00000000000E+00 0. -1.
        -24    2    1    2    0    0 -0.32861538448E+03  0.40392733692E+03 -0.22042635919E+03  0.57112402749E+03  0.80308844603E+02 0.  0.
        254    2    1    2    0    0  0.32861538448E+03 -0.40392733692E+03  0.10714822958E+03  0.10434229149E+04  0.89783365481E+03 0.  0.
         23    2    4    4    0    0  0.19811035652E+03 -0.35899017401E+03  0.47683750700E+03  0.63545909933E+03  0.91173463471E+02 0.  0.
         23    2    4    4    0    0  0.13050502796E+03 -0.44937162911E+02 -0.36968927743E+03  0.40796381552E+03  0.10350556505E+03 0.  0.
          3    1    3    3  502    0  0.65367868157E+00  0.10486439294E+00 -0.86623797405E+01  0.86876415170E+01  0.00000000000E+00 0. -1.
         -2    1    3    3    0  502 -0.32926906316E+03  0.40382247253E+03 -0.21176397945E+03  0.56243638597E+03  0.00000000000E+00 0.  1.
         13    1    5    5    0    0  0.14751637595E+03 -0.17473138133E+03  0.27144809408E+03  0.35493126740E+03  0.00000000000E+00 0. -1.
        -13    1    5    5    0    0  0.50593980573E+02 -0.18425879268E+03  0.20538941292E+03  0.28052783194E+03  0.00000000000E+00 0.  1.
          3    1    6    6  503    0  0.11032559592E+03 -0.10208382112E+02 -0.34115046906E+03  0.35869149797E+03  0.00000000000E+00 0. -1.
         -3    1    6    6    0  503  0.20179432035E+02 -0.34728780799E+02 -0.28538808369E+02  0.49272317544E+02  0.00000000000E+00 0.  1.
<mgrwt>
<rscale>  0 0.16105682E+04</rscale>
<asrwt>0</asrwt>
<pdfrwt beam="1">  1        1 0.13290962E+00 0.16105682E+04</pdfrwt>
<pdfrwt beam="2">  1       -2 0.11548222E+00 0.16105682E+04</pdfrwt>
<totfact> 0.95573689E+00</totfact>
</mgrwt>
</event>
<event>
12    5  0.5297412E-008  0.2150500E+04  0.7818608E-02  0.8539318E-01
         -2   -1    0    0    0  501 -0.00000000000E+00  0.00000000000E+00  0.80732829842E+03  0.80732829842E+03  0.00000000000E+00 0.  1.
          1   -1    0    0  501    0  0.00000000000E+00 -0.00000000000E+00 -0.14320853677E+04  0.14320853677E+04  0.00000000000E+00 0. -1.
        -24    2    1    2    0    0  0.16059044913E+02 -0.52588222299E+03 -0.99558214318E+03  0.11288948708E+04  0.80061352874E+02 0.  0.
        254    2    1    2    0    0 -0.16059044913E+02  0.52588222299E+03  0.37082507389E+03  0.11105187953E+04  0.90494792882E+03 0.  0.
         23    2    4    4    0    0  0.43326812885E+03  0.20437117002E+03  0.18362987578E+03  0.52115097966E+03  0.91594572479E+02 0.  0.
         23    2    4    4    0    0 -0.44932717377E+03  0.32151105297E+03  0.18719519811E+03  0.58936781562E+03  0.83953044201E+02 0.  0.
          3    1    3    3  502    0  0.23301605320E+02 -0.25782969997E+03 -0.56755163242E+03  0.62380603914E+03  0.00000000000E+00 0. -1.
         -4    1    3    3    0  502 -0.72425604072E+01 -0.26805252303E+03 -0.42803051076E+03  0.50508883171E+03  0.00000000000E+00 0.  1.
         13    1    5    5    0    0  0.93408117035E+02  0.86057085168E+02  0.61607465462E+02  0.14116082331E+03  0.00000000000E+00 0. -1.
        -13    1    5    5    0    0  0.33986001182E+03  0.11831408485E+03  0.12202241032E+03  0.37999015636E+03  0.00000000000E+00 0.  1.
          3    1    6    6  503    0 -0.41982030258E+03  0.31865218335E+03  0.18835092872E+03  0.55970025260E+03  0.00000000000E+00 0. -1.
         -3    1    6    6    0  503 -0.29506871184E+02  0.28588696273E+01 -0.11557306090E+01  0.29667563025E+02  0.00000000000E+00 0.  1.
<mgrwt>
<rscale>  0 0.21505004E+04</rscale>
<asrwt>0</asrwt>
<pdfrwt beam="1">  1        1 0.22032082E+00 0.21505004E+04</pdfrwt>
<pdfrwt beam="2">  1       -2 0.12420436E+00 0.21505004E+04</pdfrwt>
<totfact> 0.28566635E+00</totfact>
</mgrwt>
</event>
<event>
12    5  0.5297412E-008  0.1568498E+04  0.7818608E-02  0.8840138E-01
          1   -1    0    0  501    0  0.00000000000E+00  0.00000000000E+00  0.88530796166E+03  0.88530796166E+03  0.00000000000E+00 0. -1.
         -2   -1    0    0    0  501 -0.00000000000E+00 -0.00000000000E+00 -0.69472560098E+03  0.69472560098E+03  0.00000000000E+00 0.  1.
        -24    2    1    2    0    0  0.32385342359E+03  0.13550973810E+03 -0.32511860963E+03  0.48510928180E+03  0.79906044000E+02 0.  0.
        254    2    1    2    0    0 -0.32385342359E+03 -0.13550973810E+03  0.51570097032E+03  0.10949242808E+04  0.89981540379E+03 0.  0.
         23    2    4    4    0    0 -0.98860124548E+02  0.57706806153E+02 -0.23837515086E+03  0.27951411337E+03  0.90565044712E+02 0.  0.
         23    2    4    4    0    0 -0.22499329904E+03 -0.19321654425E+03  0.75407612117E+03  0.81541016747E+03  0.91150025253E+02 0.  0.
          3    1    3    3  502    0  0.57991228143E+02 -0.52572363048E+01 -0.66552624389E+02  0.88430045166E+02  0.00000000000E+00 0. -1.
         -4    1    3    3    0  502  0.26586219545E+03  0.14076697440E+03 -0.25856598524E+03  0.39667923663E+03  0.00000000000E+00 0.  1.
         13    1    5    5    0    0 -0.35296731361E+02 -0.23822625780E+02 -0.69258598417E+02  0.81302707203E+02  0.00000000000E+00 0.  1.
        -13    1    5    5    0    0 -0.63563393188E+02  0.81529431933E+02 -0.16911655244E+03  0.19821140616E+03  0.00000000000E+00 0. -1.
          1    1    6    6  503    0 -0.81164587194E+02 -0.99532921704E+02  0.22365681807E+03  0.25790863690E+03  0.00000000000E+00 0. -1.
         -1    1    6    6    0  503 -0.14382871185E+03 -0.93683622545E+02  0.53041930311E+03  0.55750153057E+03  0.00000000000E+00 0.  1.
<mgrwt>
<rscale>  0 0.15684975E+04</rscale>
<asrwt>0</asrwt>
<pdfrwt beam="1">  1        1 0.13620122E+00 0.15684975E+04</pdfrwt>
<pdfrwt beam="2">  1       -2 0.10688086E+00 0.15684975E+04</pdfrwt>
<totfact> 0.11109964E+01</totfact>
</mgrwt>
</event>
<event>
12    5  0.5297412E-008  0.2630720E+04  0.7818608E-02  0.8357841E-01
          1   -1    0    0  501    0  0.00000000000E+00  0.00000000000E+00  0.21619046396E+04  0.21619046396E+04  0.00000000000E+00 0. -1.
         -2   -1    0    0    0  501 -0.00000000000E+00 -0.00000000000E+00 -0.80029956289E+03  0.80029956289E+03  0.00000000000E+00 0.  1.
        -24    2    1    2    0    0 -0.46444118251E+03 -0.10111196288E+04  0.25834956268E+03  0.11450958895E+04  0.80197156685E+02 0.  0.
        254    2    1    2    0    0  0.46444118251E+03  0.10111196288E+04  0.11032555140E+04  0.18171083129E+04  0.92013117334E+03 0.  0.
         23    2    4    4    0    0  0.70943385655E+03  0.74255323224E+03  0.60907379014E+03  0.11973743534E+04  0.89737176379E+02 0.  0.
         23    2    4    4    0    0 -0.24499267404E+03  0.26856639653E+03  0.49418172385E+03  0.61973395955E+03  0.87779751399E+02 0.  0.
          3    1    3    3  502    0 -0.43791835254E+03 -0.91152122794E+03  0.24991601839E+03  0.10416820286E+04  0.00000000000E+00 0. -1.
         -4    1    3    3    0  502 -0.26522829971E+02 -0.99598400832E+02  0.84335442938E+01  0.10341386091E+03  0.00000000000E+00 0.  1.
         13    1    5    5    0    0  0.22387648807E+03  0.29667311747E+03  0.22041743947E+03  0.43211048143E+03  0.00000000000E+00 0.  1.
        -13    1    5    5    0    0  0.48555736847E+03  0.44588011478E+03  0.38865635067E+03  0.76526387197E+03  0.00000000000E+00 0. -1.
          3    1    6    6  503    0 -0.89524886836E+02  0.16142421851E+03  0.22716111788E+03  0.29270233542E+03  0.00000000000E+00 0. -1.
         -3    1    6    6    0  503 -0.15546778720E+03  0.10714217802E+03  0.26702060597E+03  0.32703162413E+03  0.00000000000E+00 0.  1.
<mgrwt>
<rscale>  0 0.26307196E+04</rscale>
<asrwt>0</asrwt>
<pdfrwt beam="1">  1        1 0.33260071E+00 0.26307196E+04</pdfrwt>
<pdfrwt beam="2">  1       -2 0.12312301E+00 0.26307196E+04</pdfrwt>
<totfact> 0.88929546E-01</totfact>
</mgrwt>
</event>
<event>
12    5  0.5297412E-008  0.2472292E+04  0.7818608E-02  0.8412924E-01
          3   -1    0    0  501    0  0.00000000000E+00  0.00000000000E+00  0.17863025576E+04  0.17863025576E+04  0.00000000000E+00 0. -1.
         -4   -1    0    0    0  501 -0.00000000000E+00 -0.00000000000E+00 -0.85542982920E+03  0.85542982920E+03  0.00000000000E+00 0.  1.
        -24    2    1    2    0    0  0.61815946131E+03  0.16154222645E+03  0.13175834541E+04  0.14665028288E+04  0.79921071789E+02 0.  0.
        254    2    1    2    0    0 -0.61815946131E+03 -0.16154222645E+03 -0.38671072572E+03  0.11752295580E+04  0.90741518509E+03 0.  0.
         23    2    4    4    0    0 -0.84704312455E+03 -0.12729686147E+03 -0.31828466561E+03  0.91829511013E+03  0.90962822755E+02 0.  0.
         23    2    4    4    0    0  0.22888366325E+03 -0.34245364978E+02 -0.68426060107E+02  0.25693444789E+03  0.88162965517E+02 0.  0.
          1    1    3    3  502    0  0.42519787099E+03  0.76437181889E+02  0.84653719186E+03  0.95040048899E+03  0.00000000000E+00 0. -1.
         -2    1    3    3    0  502  0.19296159032E+03  0.85105044556E+02  0.47104626223E+03  0.51610233976E+03  0.00000000000E+00 0.  1.
         13    1    5    5    0    0 -0.46654574822E+03 -0.98694448090E+02 -0.13908311512E+03  0.49673900811E+03  0.00000000000E+00 0.  1.
        -13    1    5    5    0    0 -0.38049737634E+03 -0.28602413377E+02 -0.17920155050E+03  0.42155610202E+03  0.00000000000E+00 0. -1.
          2    1    6    6  503    0  0.13907387690E+03 -0.19555071039E+02  0.41982135991E+01  0.14050469400E+03  0.00000000000E+00 0. -1.
         -2    1    6    6    0  503  0.89809786346E+02 -0.14690293939E+02 -0.72624273706E+02  0.11642975389E+03  0.00000000000E+00 0.  1.
<mgrwt>
<rscale>  0 0.24722916E+04</rscale>
<asrwt>0</asrwt>
<pdfrwt beam="1">  1        3 0.27481578E+00 0.24722916E+04</pdfrwt>
<pdfrwt beam="2">  1       -4 0.13160459E+00 0.24722916E+04</pdfrwt>
<totfact> 0.45742199E-02</totfact>
</mgrwt>
</event>
<event>
12    5  0.5297412E-008  0.1147127E+04  0.7818608E-02  0.9160438E-01
         -2   -1    0    0    0  501 -0.00000000000E+00  0.00000000000E+00  0.12414063427E+04  0.12414063427E+04  0.00000000000E+00 0.  1.
          1   -1    0    0  501    0  0.00000000000E+00 -0.00000000000E+00 -0.26500209587E+03  0.26500209587E+03  0.00000000000E+00 0. -1.
        -24    2    1    2    0    0  0.16741308517E+03  0.93979433846E+02  0.29854295796E+03  0.36516759255E+03  0.85791595336E+02 0.  0.
        254    2    1    2    0    0 -0.16741308517E+03 -0.93979433846E+02  0.67786128888E+03  0.11412408460E+04  0.89781705631E+03 0.  0.
         23    2    4    4    0    0 -0.20612955924E+02 -0.21324673230E+03 -0.15682429307E+03  0.28064662864E+03  0.90937387715E+02 0.  0.
         23    2    4    4    0    0 -0.14680012924E+03  0.11926729845E+03  0.83468558195E+03  0.86059421738E+03  0.90263059146E+02 0.  0.
          3    1    3    3  502    0  0.98960828497E+02  0.59397734905E+02  0.10140295273E+03  0.15363559259E+03  0.00000000000E+00 0. -1.
         -2    1    3    3    0  502  0.68452256670E+02  0.34581698942E+02  0.19714000522E+03  0.21153199995E+03  0.00000000000E+00 0.  1.
         13    1    5    5    0    0 -0.56359348935E+02 -0.11983168941E+03 -0.96334615164E+02  0.16375703978E+03  0.00000000000E+00 0.  1.
        -13    1    5    5    0    0  0.35746393012E+02 -0.93415042890E+02 -0.60489677905E+02  0.11688958886E+03  0.00000000000E+00 0. -1.
          3    1    6    6  503    0 -0.11084475994E+03  0.34533392158E+02  0.41506028947E+03  0.43099206475E+03  0.00000000000E+00 0. -1.
         -3    1    6    6    0  503 -0.35955369303E+02  0.84733906295E+02  0.41962529247E+03  0.42960215263E+03  0.00000000000E+00 0.  1.
<mgrwt>
<rscale>  0 0.11471273E+04</rscale>
<asrwt>0</asrwt>
<pdfrwt beam="1">  1        1 0.40769554E-01 0.11471273E+04</pdfrwt>
<pdfrwt beam="2">  1       -2 0.19098559E+00 0.11471273E+04</pdfrwt>
<totfact> 0.13625061E+01</totfact>
</mgrwt>
</event>
<event>
12    5  0.5297412E-008  0.1616224E+04  0.7818608E-02  0.8810642E-01
          1   -1    0    0  501    0  0.00000000000E+00  0.00000000000E+00  0.95862096745E+03  0.95862096745E+03  0.00000000000E+00 0. -1.
         -2   -1    0    0    0  501 -0.00000000000E+00 -0.00000000000E+00 -0.68123401801E+03  0.68123401801E+03  0.00000000000E+00 0.  1.
        -24    2    1    2    0    0  0.47734425465E+03 -0.27340579289E+03  0.45929231860E+02  0.55779678436E+03  0.80121740305E+02 0.  0.
        254    2    1    2    0    0 -0.47734425465E+03  0.27340579289E+03  0.23145771758E+03  0.10820582011E+04  0.90259016753E+03 0.  0.
         23    2    4    4    0    0 -0.14586584957E+03  0.34812792105E+03 -0.26743931863E+03  0.47135031825E+03  0.90429187126E+02 0.  0.
         23    2    4    4    0    0 -0.33147840508E+03 -0.74722128157E+02  0.49889703621E+03  0.61070788286E+03  0.92760638043E+02 0.  0.
          1    1    3    3  502    0  0.27416962609E+02 -0.46182532992E+01  0.17653231083E+02  0.32934095857E+02  0.00000000000E+00 0. -1.
         -2    1    3    3    0  502  0.44992729204E+03 -0.26878753959E+03  0.28276000777E+02  0.52486268850E+03  0.00000000000E+00 0.  1.
         13    1    5    5    0    0 -0.52552517299E+02  0.23602045057E+03 -0.15547789796E+03  0.28747312381E+03  0.00000000000E+00 0.  1.
        -13    1    5    5    0    0 -0.93313332271E+02  0.11210747048E+03 -0.11196142067E+03  0.18387719444E+03  0.00000000000E+00 0. -1.
          2    1    6    6  503    0 -0.18557068036E+03 -0.38997580823E+02  0.35614149589E+03  0.40347745143E+03  0.00000000000E+00 0. -1.
         -2    1    6    6    0  503 -0.14590772472E+03 -0.35724547334E+02  0.14275554032E+03  0.20723043142E+03  0.00000000000E+00 0.  1.
<mgrwt>
<rscale>  0 0.16162243E+04</rscale>
<asrwt>0</asrwt>
<pdfrwt beam="1">  1        1 0.14748015E+00 0.16162243E+04</pdfrwt>
<pdfrwt beam="2">  1       -2 0.10480523E+00 0.16162243E+04</pdfrwt>
<totfact> 0.10117639E+01</totfact>
</mgrwt>
</event>
<event>
12    5  0.5297412E-008  0.1414836E+04  0.7818608E-02  0.8943149E-01
          1   -1    0    0  501    0  0.00000000000E+00  0.00000000000E+00  0.55384505248E+03  0.55384505248E+03  0.00000000000E+00 0. -1.
         -2   -1    0    0    0  501 -0.00000000000E+00 -0.00000000000E+00 -0.90357406272E+03  0.90357406272E+03  0.00000000000E+00 0.  1.
        -24    2    1    2    0    0 -0.88624817684E+02  0.21389313235E+03 -0.40283542383E+03  0.47117194561E+03  0.78243167557E+02 0.  0.
        254    2    1    2    0    0  0.88624817684E+02 -0.21389313235E+03  0.53106413593E+02  0.98624716958E+03  0.95721395621E+03 0.  0.
         23    2    4    4    0    0  0.29026961646E+03 -0.28607828774E+03 -0.33338976108E+03  0.53421695505E+03  0.90231842016E+02 0.  0.
         23    2    4    4    0    0 -0.20164479878E+03  0.72185155385E+02  0.38649617467E+03  0.45203021454E+03  0.95292708469E+02 0.  0.
          1    1    3    3  502    0 -0.19616507778E+01  0.59544808247E+01 -0.63857751803E+02  0.64164759651E+02  0.00000000000E+00 0. -1.
         -2    1    3    3    0  502 -0.86663166906E+02  0.20793865153E+03 -0.33897767202E+03  0.40700718596E+03  0.00000000000E+00 0.  1.
         13    1    5    5    0    0  0.10500779552E+03 -0.86310202662E+02 -0.61101279311E+02  0.14902836823E+03  0.00000000000E+00 0.  1.
        -13    1    5    5    0    0  0.18526182094E+03 -0.19976808507E+03 -0.27228848177E+03  0.38518858682E+03  0.00000000000E+00 0. -1.
          3    1    6    6  503    0 -0.69502297307E+02  0.63661591816E+02  0.21969094358E+03  0.23905538750E+03  0.00000000000E+00 0. -1.
         -3    1    6    6    0  503 -0.13214250147E+03  0.85235635681E+01  0.16680523109E+03  0.21297482704E+03  0.00000000000E+00 0.  1.
<mgrwt>
<rscale>  0 0.14148357E+04</rscale>
<asrwt>0</asrwt>
<pdfrwt beam="1">  1        1 0.85206932E-01 0.14148357E+04</pdfrwt>
<pdfrwt beam="2">  1       -2 0.13901139E+00 0.14148357E+04</pdfrwt>
<totfact> 0.11965073E+01</totfact>
</mgrwt>
</event>
<event>
12    5  0.5297412E-008  0.1173468E+04  0.7818608E-02  0.9136402E-01
         -2   -1    0    0    0  501 -0.00000000000E+00  0.00000000000E+00  0.39558301197E+03  0.39558301197E+03  0.00000000000E+00 0.  1.
          1   -1    0    0  501    0  0.00000000000E+00 -0.00000000000E+00 -0.87025158510E+03  0.87025158510E+03  0.00000000000E+00 0. -1.
        -24    2    1    2    0    0 -0.11438143003E+03  0.18096766528E+03 -0.14843945545E+02  0.22866942278E+03  0.78974393211E+02 0.  0.
        254    2    1    2    0    0  0.11438143003E+03 -0.18096766528E+03 -0.45982462759E+03  0.10371651743E+04  0.90467701596E+03 0.  0.
         23    2    4    4    0    0  0.48650380290E+03 -0.22134214675E+03 -0.30704110264E+03  0.62283064094E+03  0.89249495330E+02 0.  0.
         23    2    4    4    0    0 -0.37212237287E+03  0.40374481469E+02 -0.15278352495E+03  0.41433453334E+03  0.90692562435E+02 0.  0.
          3    1    3    3  502    0 -0.60355976521E+02  0.40444946771E+02 -0.27278751662E+02  0.77606494015E+02  0.00000000000E+00 0. -1.
         -4    1    3    3    0  502 -0.54025453511E+02  0.14052271851E+03  0.12434806118E+02  0.15106292877E+03  0.00000000000E+00 0.  1.
         13    1    5    5    0    0  0.18971095336E+02 -0.15893185170E+02 -0.38708029048E+02  0.45943523002E+02  0.00000000000E+00 0.  1.
        -13    1    5    5    0    0  0.46753270757E+03 -0.20544896158E+03 -0.26833307359E+03  0.57688711794E+03  0.00000000000E+00 0. -1.
          1    1    6    6  503    0 -0.31145162440E+03  0.40696545009E+02 -0.16125500640E+03  0.35307435507E+03  0.00000000000E+00 0. -1.
         -1    1    6    6    0  503 -0.60670748468E+02 -0.32206353931E+00  0.84714814470E+01  0.61260178277E+02  0.00000000000E+00 0.  1.
<mgrwt>
<rscale>  0 0.11734679E+04</rscale>
<asrwt>0</asrwt>
<pdfrwt beam="1">  1        1 0.13388486E+00 0.11734679E+04</pdfrwt>
<pdfrwt beam="2">  1       -2 0.60858926E-01 0.11734679E+04</pdfrwt>
<totfact> 0.42061480E+01</totfact>
</mgrwt>
</event>
<event>
12    5  0.5297412E-008  0.1740738E+04  0.7818608E-02  0.8738465E-01
         -2   -1    0    0    0  501 -0.00000000000E+00  0.00000000000E+00  0.32398987064E+03  0.32398987064E+03  0.00000000000E+00 0.  1.
          1   -1    0    0  501    0  0.00000000000E+00 -0.00000000000E+00 -0.23381675644E+04  0.23381675644E+04  0.00000000000E+00 0. -1.
        -24    2    1    2    0    0 -0.19174199610E+03 -0.30064004802E+03 -0.15506562868E+04  0.15931970188E+04  0.81193531328E+02 0.  0.
        254    2    1    2    0    0  0.19174199610E+03  0.30064004802E+03 -0.46352140698E+03  0.10689604162E+04  0.89480436138E+03 0.  0.
         23    2    4    4    0    0  0.33725565073E+03 -0.14650840665E+03  0.31733548772E+02  0.38012735965E+03  0.91014857412E+02 0.  0.
         23    2    4    4    0    0 -0.14551365463E+03  0.44714845467E+03 -0.49525495576E+03  0.68883305656E+03  0.89986356769E+02 0.  0.
          1    1    3    3  502    0 -0.17041696957E+03 -0.29787305149E+03 -0.14270082423E+04  0.14676930272E+04  0.00000000000E+00 0. -1.
         -2    1    3    3    0  502 -0.21325026526E+02 -0.27669965348E+01 -0.12364804447E+03  0.12550399168E+03  0.00000000000E+00 0.  1.
         13    1    5    5    0    0  0.32995529120E+03 -0.13314958541E+03  0.13077388157E+02  0.35604820512E+03  0.00000000000E+00 0. -1.
        -13    1    5    5    0    0  0.73003595282E+01 -0.13358821242E+02  0.18656160614E+02  0.24079154534E+02  0.00000000000E+00 0.  1.
          2    1    6    6  503    0 -0.53232801691E+02  0.83525788518E+02 -0.14494998115E+03  0.17555849612E+03  0.00000000000E+00 0. -1.
         -2    1    6    6    0  503 -0.92280852940E+02  0.36362266615E+03 -0.35030497460E+03  0.51327456044E+03  0.00000000000E+00 0.  1.
<mgrwt>
<rscale>  0 0.17407385E+04</rscale>
<asrwt>0</asrwt>
<pdfrwt beam="1">  1        1 0.35971808E+00 0.17407385E+04</pdfrwt>
<pdfrwt beam="2">  1       -2 0.49844596E-01 0.17407385E+04</pdfrwt>
<totfact> 0.55624223E+00</totfact>
</mgrwt>
</event>
<event>
12    5  0.5297412E-008  0.1940413E+04  0.7818608E-02  0.8634998E-01
          1   -1    0    0  501    0  0.00000000000E+00  0.00000000000E+00  0.34297126727E+04  0.34297126727E+04  0.00000000000E+00 0. -1.
         -2   -1    0    0    0  501 -0.00000000000E+00 -0.00000000000E+00 -0.27445473581E+03  0.27445473581E+03  0.00000000000E+00 0.  1.
        -24    2    1    2    0    0  0.63533623903E+03 -0.41138748496E+03  0.11513547500E+04  0.13802885950E+04  0.81774358337E+02 0.  0.
        254    2    1    2    0    0 -0.63533623903E+03  0.41138748496E+03  0.20039031869E+04  0.23238788136E+04  0.90105102973E+03 0.  0.
         23    2    4    4    0    0 -0.65783645271E+03  0.61381369279E+03  0.18296272224E+04  0.20411404241E+04  0.95929192485E+02 0.  0.
         23    2    4    4    0    0  0.22500213676E+02 -0.20242620783E+03  0.17427596454E+03  0.28273838948E+03  0.89923611141E+02 0.  0.
          3    1    3    3  502    0  0.90544898575E+02 -0.73596368720E+02  0.22968975462E+03  0.25762800222E+03  0.00000000000E+00 0. -1.
         -4    1    3    3    0  502  0.54479134046E+03 -0.33779111624E+03  0.92166499535E+03  0.11226605927E+04  0.00000000000E+00 0.  1.
         13    1    5    5    0    0 -0.16724449887E+03  0.10819680028E+03  0.36221163268E+03  0.41336973382E+03  0.00000000000E+00 0.  1.
        -13    1    5    5    0    0 -0.49059195384E+03  0.50561689251E+03  0.14674155897E+04  0.16277706903E+04  0.00000000000E+00 0. -1.
          1    1    6    6  503    0  0.43161589338E+02 -0.18590430640E+03  0.12918803289E+03  0.23046232181E+03  0.00000000000E+00 0. -1.
         -1    1    6    6    0  503 -0.20661375663E+02 -0.16521901430E+02  0.45087931649E+02  0.52276067674E+02  0.00000000000E+00 0.  1.
<mgrwt>
<rscale>  0 0.19404132E+04</rscale>
<asrwt>0</asrwt>
<pdfrwt beam="1">  1        1 0.52764807E+00 0.19404132E+04</pdfrwt>
<pdfrwt beam="2">  1       -2 0.42223808E-01 0.19404132E+04</pdfrwt>
<totfact> 0.12410701E+00</totfact>
</mgrwt>
</event>
<event>
12    5  0.5297412E-008  0.3092580E+04  0.7818608E-02  0.8217777E-01
         -2   -1    0    0    0  501 -0.00000000000E+00  0.00000000000E+00  0.24693193361E+04  0.24693193361E+04  0.00000000000E+00 0.  1.
          1   -1    0    0  501    0  0.00000000000E+00 -0.00000000000E+00 -0.96828797152E+03  0.96828797152E+03  0.00000000000E+00 0. -1.
        -24    2    1    2    0    0 -0.10087185110E+04 -0.70188675699E+03 -0.89237918138E+02  0.12347114305E+04  0.79942832005E+02 0.  0.
        254    2    1    2    0    0  0.10087185110E+04  0.70188675699E+03  0.15902692827E+04  0.22028958771E+04  0.90201762728E+03 0.  0.
         23    2    4    4    0    0 -0.31928321421E+02  0.50322128566E+02 -0.74241491976E+02  0.13256631059E+03  0.92251250622E+02 0.  0.
         23    2    4    4    0    0  0.10406468324E+04  0.65156462842E+03  0.16645107747E+04  0.20703295665E+04  0.90477070287E+02 0.  0.
          3    1    3    3  502    0 -0.89158426547E+03 -0.60553260284E+03 -0.54716689818E+02  0.10791599287E+04  0.00000000000E+00 0. -1.
         -4    1    3    3    0  502 -0.11713424553E+03 -0.96354154153E+02 -0.34521228320E+02  0.15555150177E+03  0.00000000000E+00 0.  1.
         13    1    5    5    0    0  0.26594573727E+02  0.38982548411E+02 -0.17685903027E+02  0.50395452158E+02  0.00000000000E+00 0.  1.
        -13    1    5    5    0    0 -0.58522895148E+02  0.11339580155E+02 -0.56555588949E+02  0.82170858436E+02  0.00000000000E+00 0. -1.
          4    1    6    6  503    0  0.41697461734E+03  0.30332172827E+03  0.65323727640E+03  0.83222042851E+03  0.00000000000E+00 0. -1.
         -4    1    6    6    0  503  0.62367221508E+03  0.34824290015E+03  0.10112734983E+04  0.12381091380E+04  0.00000000000E+00 0.  1.
<mgrwt>
<rscale>  0 0.30925796E+04</rscale>
<asrwt>0</asrwt>
<pdfrwt beam="1">  1        1 0.14896738E+00 0.30925796E+04</pdfrwt>
<pdfrwt beam="2">  1       -2 0.37989528E+00 0.30925796E+04</pdfrwt>
<totfact> 0.11900763E-01</totfact>
</mgrwt>
</event>
<event>
12    5  0.5297412E-008  0.1894796E+04  0.7818608E-02  0.8657451E-01
         -4   -1    0    0    0  501 -0.00000000000E+00  0.00000000000E+00  0.89427156194E+03  0.89427156194E+03  0.00000000000E+00 0.  1.
          3   -1    0    0  501    0  0.00000000000E+00 -0.00000000000E+00 -0.10036807035E+04  0.10036807035E+04  0.00000000000E+00 0. -1.
        -24    2    1    2    0    0  0.69669800244E+03 -0.19628047980E+03  0.37925995698E+02  0.72925827805E+03  0.80405979849E+02 0.  0.
        254    2    1    2    0    0 -0.69669800244E+03  0.19628047980E+03 -0.14733513722E+03  0.11686939874E+04  0.90566211142E+03 0.  0.
         23    2    4    4    0    0 -0.25989618392E+03 -0.19268264619E+02  0.36384502172E+03  0.45666429685E+03  0.90784292458E+02 0.  0.
         23    2    4    4    0    0 -0.43680181852E+03  0.21554874442E+03 -0.51118015894E+03  0.71202969050E+03  0.91782543936E+02 0.  0.
          1    1    3    3  502    0  0.14987422163E+03 -0.50379779888E+02  0.40812636667E+02  0.16329750715E+03  0.00000000000E+00 0. -1.
         -2    1    3    3    0  502  0.54682378081E+03 -0.14590069991E+03 -0.28866409690E+01  0.56596077089E+03  0.00000000000E+00 0.  1.
         13    1    5    5    0    0 -0.18058237549E+02  0.22566739791E+02  0.24635134008E+02  0.37976933996E+02  0.00000000000E+00 0. -1.
        -13    1    5    5    0    0 -0.24183794637E+03 -0.41835004410E+02  0.33920988771E+03  0.41868736286E+03  0.00000000000E+00 0.  1.
          4    1    6    6  503    0 -0.11864997682E+03  0.15560839722E+02 -0.13243602918E+03  0.17849162041E+03  0.00000000000E+00 0. -1.
         -4    1    6    6    0  503 -0.31815184171E+03  0.19998790470E+03 -0.37874412976E+03  0.53353807009E+03  0.00000000000E+00 0.  1.
<mgrwt>
<rscale>  0 0.18947961E+04</rscale>
<asrwt>0</asrwt>
<pdfrwt beam="1">  1        3 0.15441242E+00 0.18947961E+04</pdfrwt>
<pdfrwt beam="2">  1       -4 0.13758024E+00 0.18947961E+04</pdfrwt>
<totfact> 0.24065854E-01</totfact>
</mgrwt>
</event>
<event>
12    5  0.5297412E-008  0.1404252E+04  0.7818608E-02  0.8950746E-01
          1   -1    0    0  501    0  0.00000000000E+00  0.00000000000E+00  0.18320668948E+04  0.18320668948E+04  0.00000000000E+00 0. -1.
         -2   -1    0    0    0  501 -0.00000000000E+00 -0.00000000000E+00 -0.26908473507E+03  0.26908473507E+03  0.00000000000E+00 0.  1.
        -24    2    1    2    0    0  0.14141424063E+03 -0.19587225804E+03 -0.26667752545E+02  0.25586924513E+03  0.79962320213E+02 0.  0.
        254    2    1    2    0    0 -0.14141424063E+03  0.19587225804E+03  0.15896499123E+04  0.18452823848E+04  0.90538185696E+03 0.  0.
         23    2    4    4    0    0  0.11738278964E+03 -0.32584439350E+02  0.14565873046E+04  0.14644474441E+04  0.90107022906E+02 0.  0.
         23    2    4    4    0    0 -0.25879703028E+03  0.22845669739E+03  0.13306260775E+03  0.38083494072E+03  0.90339520873E+02 0.  0.
          3    1    3    3  502    0 -0.97879466836E+01 -0.15384428144E+02  0.32563424029E+01  0.18522642777E+02  0.00000000000E+00 0. -1.
         -4    1    3    3    0  502  0.15120218732E+03 -0.18048782989E+03 -0.29924094948E+02  0.23734660235E+03  0.00000000000E+00 0.  1.
         13    1    5    5    0    0 -0.46938266258E+01  0.11938623907E+02  0.35354857951E+03  0.35378123299E+03  0.00000000000E+00 0.  1.
        -13    1    5    5    0    0  0.12207661627E+03 -0.44523063258E+02  0.11030387251E+04  0.11106662111E+04  0.00000000000E+00 0. -1.
          1    1    6    6  503    0 -0.25451521138E+03  0.22085363376E+03  0.10732218902E+03  0.35365572613E+03  0.00000000000E+00 0. -1.
         -1    1    6    6    0  503 -0.42818188971E+01  0.76030636293E+01  0.25740418725E+02  0.27179214590E+02  0.00000000000E+00 0.  1.
<mgrwt>
<rscale>  0 0.14042524E+04</rscale>
<asrwt>0</asrwt>
<pdfrwt beam="1">  1        1 0.28185644E+00 0.14042524E+04</pdfrwt>
<pdfrwt beam="2">  1       -2 0.41397653E-01 0.14042524E+04</pdfrwt>
<totfact> 0.18333343E+01</totfact>
</mgrwt>
</event>
<event>
12    5  0.5297412E-008  0.1436101E+04  0.7818608E-02  0.8928093E-01
         -2   -1    0    0    0  501 -0.00000000000E+00  0.00000000000E+00  0.46668922154E+03  0.46668922154E+03  0.00000000000E+00 0.  1.
          1   -1    0    0  501    0  0.00000000000E+00 -0.00000000000E+00 -0.11047968677E+04  0.11047968677E+04  0.00000000000E+00 0. -1.
        -24    2    1    2    0    0  0.14686490900E+03  0.55173876701E+02  0.24499288155E+03  0.30315176253E+03  0.85240958161E+02 0.  0.
        254    2    1    2    0    0 -0.14686490900E+03 -0.55173876701E+02 -0.88310052775E+03  0.12683343268E+04  0.89676750841E+03 0.  0.
         23    2    4    4    0    0 -0.11659222791E+03  0.27746396747E+03  0.68368980813E+01  0.31332456009E+03  0.86865044315E+02 0.  0.
         23    2    4    4    0    0 -0.30272681090E+02 -0.33263784417E+03 -0.88993742583E+03  0.95500976666E+03  0.92144787913E+02 0.  0.
          1    1    3    3  502    0  0.36722559030E+02  0.40318082144E+02  0.32865053514E+02  0.63672645869E+02  0.00000000000E+00 0. -1.
         -2    1    3    3    0  502  0.11014234997E+03  0.14855794558E+02  0.21212782804E+03  0.23947911666E+03  0.00000000000E+00 0.  1.
         13    1    5    5    0    0 -0.79691221564E+02  0.20991075324E+03  0.42456718830E+02  0.22850774187E+03  0.00000000000E+00 0. -1.
        -13    1    5    5    0    0 -0.36901006346E+02  0.67553214229E+02 -0.35619820748E+02  0.84816818216E+02  0.00000000000E+00 0.  1.
          4    1    6    6  503    0 -0.73090230150E+00 -0.34617220553E+02 -0.19856301221E+03  0.20155931136E+03  0.00000000000E+00 0.  1.
         -4    1    6    6    0  503 -0.29541778789E+02 -0.29802062362E+03 -0.69137441361E+03  0.75345045530E+03  0.00000000000E+00 0. -1.
<mgrwt>
<rscale>  0 0.14361014E+04</rscale>
<asrwt>0</asrwt>
<pdfrwt beam="1">  1        1 0.16996875E+00 0.14361014E+04</pdfrwt>
<pdfrwt beam="2">  1       -2 0.71798343E-01 0.14361014E+04</pdfrwt>
<totfact> 0.18850620E+01</totfact>
</mgrwt>
</event>
<event>
12    5  0.5297412E-008  0.2320204E+04  0.7818608E-02  0.8469997E-01
          1   -1    0    0  501    0  0.00000000000E+00  0.00000000000E+00  0.87985548866E+03  0.87985548866E+03  0.00000000000E+00 0. -1.
         -2   -1    0    0    0  501 -0.00000000000E+00 -0.00000000000E+00 -0.15296106724E+04  0.15296106724E+04  0.00000000000E+00 0.  1.
        -24    2    1    2    0    0 -0.76798720297E+03  0.61042162995E+03 -0.28234642602E+03  0.10239797388E+04  0.79975564262E+02 0.  0.
        254    2    1    2    0    0  0.76798720297E+03 -0.61042162995E+03 -0.36740875769E+03  0.13854864223E+04  0.90673288285E+03 0.  0.
         23    2    4    4    0    0  0.84490465758E+03 -0.16283808626E+03 -0.17383321218E+03  0.88342302994E+03  0.99187405707E+02 0.  0.
         23    2    4    4    0    0 -0.76917454609E+02 -0.44758354369E+03 -0.19357554552E+03  0.50206339233E+03  0.91371957903E+02 0.  0.
          3    1    3    3  502    0 -0.34818599804E+03  0.29913615210E+03 -0.94782389591E+02  0.46872126909E+03  0.00000000000E+00 0. -1.
         -4    1    3    3    0  502 -0.41980120492E+03  0.31128547785E+03 -0.18756403642E+03  0.55525846967E+03  0.00000000000E+00 0.  1.
         13    1    5    5    0    0  0.14459125682E+03 -0.46178845490E+02  0.28179127425E+01  0.15181257508E+03  0.00000000000E+00 0. -1.
        -13    1    5    5    0    0  0.70031340075E+03 -0.11665924077E+03 -0.17665112492E+03  0.73161045486E+03  0.00000000000E+00 0.  1.
          3    1    6    6  503    0 -0.11194286559E+02 -0.30240410992E+01 -0.13855807849E+02  0.18067658600E+02  0.00000000000E+00 0. -1.
         -3    1    6    6    0  503 -0.65723168050E+02 -0.44455950259E+03 -0.17971973767E+03  0.48399573373E+03  0.00000000000E+00 0.  1.
<mgrwt>
<rscale>  0 0.23202037E+04</rscale>
<asrwt>0</asrwt>
<pdfrwt beam="1">  1        1 0.13536238E+00 0.23202037E+04</pdfrwt>
<pdfrwt beam="2">  1       -2 0.23532472E+00 0.23202037E+04</pdfrwt>
<totfact> 0.11842797E+00</totfact>
</mgrwt>
</event>
<event>
12    5  0.5297412E-008  0.1864154E+04  0.7818608E-02  0.8672908E-01
         -2   -1    0    0    0  501 -0.00000000000E+00  0.00000000000E+00  0.39698570852E+03  0.39698570852E+03  0.00000000000E+00 0.  1.
          1   -1    0    0  501    0  0.00000000000E+00 -0.00000000000E+00 -0.21884089463E+04  0.21884089463E+04  0.00000000000E+00 0. -1.
        -24    2    1    2    0    0 -0.34044422521E+03  0.26429751585E+03 -0.14756055460E+04  0.15392927202E+04  0.79087949068E+02 0.  0.
        254    2    1    2    0    0  0.34044422521E+03 -0.26429751585E+03 -0.31581769176E+03  0.10461019346E+04  0.89935143065E+03 0.  0.
         23    2    4    4    0    0 -0.15560530462E+03  0.19241345164E+03 -0.24724747072E+03  0.36225936685E+03  0.94151951091E+02 0.  0.
         23    2    4    4    0    0  0.49604952984E+03 -0.45671096749E+03 -0.68570221039E+02  0.68384256777E+03  0.91042508754E+02 0.  0.
          3    1    3    3  502    0 -0.25275652326E+03  0.23145082985E+03 -0.12133161070E+04  0.12607899595E+04  0.00000000000E+00 0. -1.
         -4    1    3    3    0  502 -0.87687701956E+02  0.32846686007E+02 -0.26228943904E+03  0.27850276065E+03  0.00000000000E+00 0.  1.
         13    1    5    5    0    0 -0.70913135718E+02  0.53904581821E+02 -0.36582317363E+02  0.96294562164E+02  0.00000000000E+00 0. -1.
        -13    1    5    5    0    0 -0.84692168903E+02  0.13850886982E+03 -0.21066515336E+03  0.26596480469E+03  0.00000000000E+00 0.  1.
          3    1    6    6  503    0  0.64565891384E+02 -0.86154436589E+02 -0.38310482927E+02  0.11427613214E+03  0.00000000000E+00 0. -1.
         -3    1    6    6    0  503  0.43148363845E+03 -0.37055653090E+03 -0.30259738112E+02  0.56956643563E+03  0.00000000000E+00 0.  1.
<mgrwt>
<rscale>  0 0.18641535E+04</rscale>
<asrwt>0</asrwt>
<pdfrwt beam="1">  1        1 0.33667831E+00 0.18641535E+04</pdfrwt>
<pdfrwt beam="2">  1       -2 0.61074723E-01 0.18641535E+04</pdfrwt>
<totfact> 0.45618683E+00</totfact>
</mgrwt>
</event>
<event>
12    5  0.5297412E-008  0.1517893E+04  0.7818608E-02  0.8872640E-01
          1   -1    0    0  501    0  0.00000000000E+00  0.00000000000E+00  0.83332708145E+03  0.83332708145E+03  0.00000000000E+00 0. -1.
         -2   -1    0    0    0  501 -0.00000000000E+00 -0.00000000000E+00 -0.69120531643E+03  0.69120531643E+03  0.00000000000E+00 0.  1.
        -24    2    1    2    0    0  0.12565754198E+03  0.41641597341E+03 -0.17556929925E+03  0.47610389948E+03  0.81598183125E+02 0.  0.
        254    2    1    2    0    0 -0.12565754198E+03 -0.41641597341E+03  0.31769106427E+03  0.10484284984E+04  0.89949020183E+03 0.  0.
         23    2    4    4    0    0 -0.36850226665E+03 -0.46615259944E+03  0.44904344138E+03  0.75106620822E+03  0.96789825910E+02 0.  0.
         23    2    4    4    0    0  0.24284472467E+03  0.49736626026E+02 -0.13135237711E+03  0.29736229018E+03  0.98608277445E+02 0.  0.
          3    1    3    3  502    0 -0.32087740914E+01  0.51687828004E+01 -0.15019682151E+02  0.16205042385E+02  0.00000000000E+00 0. -1.
         -4    1    3    3    0  502  0.12886631607E+03  0.41124719061E+03 -0.16054961710E+03  0.45989885709E+03  0.00000000000E+00 0.  1.
         13    1    5    5    0    0 -0.83134709294E+02 -0.14789113382E+03  0.85835313536E+02  0.19013381709E+03  0.00000000000E+00 0.  1.
        -13    1    5    5    0    0 -0.28536755735E+03 -0.31826146562E+03  0.36320812785E+03  0.56093239113E+03  0.00000000000E+00 0. -1.
          4    1    6    6  503    0  0.23978837798E+03  0.61476426345E+02 -0.13812166271E+03  0.28347029989E+03  0.00000000000E+00 0. -1.
         -4    1    6    6    0  503  0.30563466853E+01 -0.11739800319E+02  0.67692855997E+01  0.13891990286E+02  0.00000000000E+00 0.  1.
<mgrwt>
<rscale>  0 0.15178934E+04</rscale>
<asrwt>0</asrwt>
<pdfrwt beam="1">  1        1 0.12820417E+00 0.15178934E+04</pdfrwt>
<pdfrwt beam="2">  1       -2 0.10633928E+00 0.15178934E+04</pdfrwt>
<totfact> 0.12485824E+01</totfact>
</mgrwt>
</event>
<event>
12    5  0.5297412E-008  0.1648409E+04  0.7818608E-02  0.8791349E-01
         -2   -1    0    0    0  501 -0.00000000000E+00  0.00000000000E+00  0.10233407768E+04  0.10233407768E+04  0.00000000000E+00 0.  1.
          1   -1    0    0  501    0  0.00000000000E+00 -0.00000000000E+00 -0.66381862612E+03  0.66381862612E+03  0.00000000000E+00 0. -1.
        -24    2    1    2    0    0  0.15638455720E+03 -0.11346189811E+03  0.69908494717E+03  0.72966018196E+03  0.79715028174E+02 0.  0.
        254    2    1    2    0    0 -0.15638455720E+03  0.11346189811E+03 -0.33956279650E+03  0.95749922097E+03  0.87416939625E+03 0.  0.
         23    2    4    4    0    0  0.29811543424E+02 -0.11600485586E+03 -0.55844937070E+03  0.57824370927E+03  0.90300791619E+02 0.  0.
         23    2    4    4    0    0 -0.18619610063E+03  0.22946675396E+03  0.21888657420E+03  0.37925551170E+03  0.92733120963E+02 0.  0.
          1    1    3    3  502    0 -0.46508528954E+01 -0.21160669907E+02  0.10668065188E+03  0.10885846714E+03  0.00000000000E+00 0. -1.
         -2    1    3    3    0  502  0.16103541010E+03 -0.92301228199E+02  0.59240429530E+03  0.62080171482E+03  0.00000000000E+00 0.  1.
         13    1    5    5    0    0  0.52342431670E+02 -0.11599957095E+03 -0.46303237263E+03  0.48020267462E+03  0.00000000000E+00 0. -1.
        -13    1    5    5    0    0 -0.22530888246E+02 -0.52849131803E-02 -0.95416998072E+02  0.98041034644E+02  0.00000000000E+00 0.  1.
          4    1    6    6  503    0 -0.12415239697E+03  0.20525139939E+03  0.14737989638E+03  0.28153647806E+03  0.00000000000E+00 0. -1.
         -4    1    6    6    0  503 -0.62043703660E+02  0.24215354576E+02  0.71506677826E+02  0.97719033636E+02  0.00000000000E+00 0.  1.
<mgrwt>
<rscale>  0 0.16484085E+04</rscale>
<asrwt>0</asrwt>
<pdfrwt beam="1">  1        1 0.10212594E+00 0.16484085E+04</pdfrwt>
<pdfrwt beam="2">  1       -2 0.15743704E+00 0.16484085E+04</pdfrwt>
<totfact> 0.64956889E+00</totfact>
</mgrwt>
</event>
<event>
12    5  0.5297412E-008  0.1521573E+04  0.7818608E-02  0.8870233E-01
          1   -1    0    0  501    0  0.00000000000E+00  0.00000000000E+00  0.43206857534E+03  0.43206857534E+03  0.00000000000E+00 0. -1.
         -2   -1    0    0    0  501 -0.00000000000E+00 -0.00000000000E+00 -0.13395929744E+04  0.13395929744E+04  0.00000000000E+00 0.  1.
        -24    2    1    2    0    0  0.22871142222E+03  0.31995000740E+03  0.46741509248E+02  0.40398028392E+03  0.79613938603E+02 0.  0.
        254    2    1    2    0    0 -0.22871142222E+03 -0.31995000740E+03 -0.95426590834E+03  0.13676812659E+04  0.89735817781E+03 0.  0.
         23    2    4    4    0    0 -0.42860028315E+03 -0.33945129768E+03 -0.21260574349E+03  0.59386434625E+03  0.92456873018E+02 0.  0.
         23    2    4    4    0    0  0.19988886093E+03  0.19501290277E+02 -0.74166016485E+03  0.77381691962E+03  0.91634970968E+02 0.  0.
          1    1    3    3  502    0  0.21021617246E+03  0.25420447359E+03  0.57505610790E+02  0.33483973604E+03  0.00000000000E+00 0. -1.
         -2    1    3    3    0  502  0.18495249761E+02  0.65745533807E+02 -0.10764101542E+02  0.69140547881E+02  0.00000000000E+00 0.  1.
         13    1    5    5    0    0 -0.19597289397E+03 -0.20807844401E+03 -0.13174272997E+03  0.31473506467E+03  0.00000000000E+00 0. -1.
        -13    1    5    5    0    0 -0.23262738919E+03 -0.13137285366E+03 -0.80863013511E+02  0.27912928158E+03  0.00000000000E+00 0.  1.
          1    1    6    6  503    0  0.10106894976E+03  0.55496998831E+02 -0.40729627328E+03  0.42330261482E+03  0.00000000000E+00 0. -1.
         -1    1    6    6    0  503  0.98819911170E+02 -0.35995708554E+02 -0.33436389157E+03  0.35051430479E+03  0.00000000000E+00 0.  1.
<mgrwt>
<rscale>  0 0.15215729E+04</rscale>
<asrwt>0</asrwt>
<pdfrwt beam="1">  1        1 0.66472089E-01 0.15215729E+04</pdfrwt>
<pdfrwt beam="2">  1       -2 0.20609123E+00 0.15215729E+04</pdfrwt>
<totfact> 0.55383297E+00</totfact>
</mgrwt>
</event>
<event>
12    5  0.5297412E-008  0.2824377E+04  0.7818608E-02  0.8295740E-01
         -2   -1    0    0    0  501 -0.00000000000E+00  0.00000000000E+00  0.89737296763E+03  0.89737296763E+03  0.00000000000E+00 0.  1.
          1   -1    0    0  501    0  0.00000000000E+00 -0.00000000000E+00 -0.22223496943E+04  0.22223496943E+04  0.00000000000E+00 0. -1.
        -24    2    1    2    0    0 -0.25562405320E+03 -0.12512863323E+04 -0.62354570425E+03  0.14234496873E+04  0.79615482644E+02 0.  0.
        254    2    1    2    0    0  0.25562405320E+03  0.12512863323E+04 -0.70143102244E+03  0.16962729746E+04  0.86849028975E+03 0.  0.
         23    2    4    4    0    0  0.16259946159E+03 -0.78488902912E+02 -0.42801125874E+02  0.20686095040E+03  0.91435352227E+02 0.  0.
         23    2    4    4    0    0  0.93024591617E+02  0.13297752352E+04 -0.65862989656E+03  0.14894120242E+04  0.87172739845E+02 0.  0.
          3    1    3    3  502    0 -0.82491419752E+02 -0.48907469619E+03 -0.28104894948E+03  0.57007666571E+03  0.00000000000E+00 0. -1.
         -4    1    3    3    0  502 -0.17313263345E+03 -0.76221163607E+03 -0.34249675477E+03  0.85337302157E+03  0.00000000000E+00 0.  1.
         13    1    5    5    0    0  0.12034261109E+03 -0.20467775006E+02  0.22946045620E+01  0.12209233828E+03  0.00000000000E+00 0.  1.
        -13    1    5    5    0    0  0.42256850502E+02 -0.58021127906E+02 -0.45095730436E+02  0.84768612124E+02  0.00000000000E+00 0. -1.
          1    1    6    6  503    0  0.30748787943E+01  0.22754086449E+02 -0.25568443256E+02  0.34364933003E+02  0.00000000000E+00 0. -1.
         -1    1    6    6    0  503  0.89949712822E+02  0.13070211487E+04 -0.63306145331E+03  0.14550470912E+04  0.00000000000E+00 0.  1.
<mgrwt>
<rscale>  0 0.28243771E+04</rscale>
<asrwt>0</asrwt>
<pdfrwt beam="1">  1        1 0.34189995E+00 0.28243771E+04</pdfrwt>
<pdfrwt beam="2">  1       -2 0.13805738E+00 0.28243771E+04</pdfrwt>
<totfact> 0.59498799E-01</totfact>
</mgrwt>
</event>
<event>
12    5  0.5297412E-008  0.1541592E+04  0.7818608E-02  0.8857256E-01
          1   -1    0    0  501    0  0.00000000000E+00  0.00000000000E+00  0.59187626046E+03  0.59187626046E+03  0.00000000000E+00 0. -1.
         -2   -1    0    0    0  501 -0.00000000000E+00 -0.00000000000E+00 -0.10038020851E+04  0.10038020851E+04  0.00000000000E+00 0.  1.
        -24    2    1    2    0    0 -0.22606643171E+03  0.14209075524E+03  0.30676557230E+03  0.41401888153E+03  0.77528727837E+02 0.  0.
        254    2    1    2    0    0  0.22606643171E+03 -0.14209075524E+03 -0.71869139691E+03  0.11816594640E+04  0.89916958945E+03 0.  0.
         23    2    4    4    0    0  0.21274461613E+03 -0.69557716643E+02  0.16371945563E+03  0.29198095460E+03  0.91379812115E+02 0.  0.
         23    2    4    4    0    0  0.13321815581E+02 -0.72533038596E+02 -0.88241085254E+03  0.88967850940E+03  0.86257897908E+02 0.  0.
          1    1    3    3  502    0 -0.19402162908E+03  0.14862867838E+03  0.28073699204E+03  0.37222054657E+03  0.00000000000E+00 0. -1.
         -4    1    3    3    0  502 -0.32044802632E+02 -0.65379231446E+01  0.26028580260E+02  0.41798334957E+02  0.00000000000E+00 0.  1.
         13    1    5    5    0    0  0.16718194419E+03 -0.90915057283E+02  0.14057321938E+03  0.23659285727E+03  0.00000000000E+00 0.  1.
        -13    1    5    5    0    0  0.45562671945E+02  0.21357340641E+02  0.23146236245E+02  0.55388097334E+02  0.00000000000E+00 0. -1.
          3    1    6    6  503    0  0.11368008739E+02 -0.67384625111E+02 -0.31885428915E+03  0.32609504294E+03  0.00000000000E+00 0. -1.
         -3    1    6    6    0  503  0.19538068426E+01 -0.51484134850E+01 -0.56355656339E+03  0.56358346645E+03  0.00000000000E+00 0.  1.
<mgrwt>
<rscale>  0 0.15415922E+04</rscale>
<asrwt>0</asrwt>
<pdfrwt beam="1">  1        1 0.91057887E-01 0.15415922E+04</pdfrwt>
<pdfrwt beam="2">  1       -2 0.15443109E+00 0.15415922E+04</pdfrwt>
<totfact> 0.81642953E+00</totfact>
</mgrwt>
</event>
<event>
12    5  0.5297412E-008  0.1410560E+04  0.7818608E-02  0.8946210E-01
         -2   -1    0    0    0  501 -0.00000000000E+00  0.00000000000E+00  0.43918672869E+03  0.43918672869E+03  0.00000000000E+00 0.  1.
          1   -1    0    0  501    0  0.00000000000E+00 -0.00000000000E+00 -0.11325928851E+04  0.11325928851E+04  0.00000000000E+00 0. -1.
        -24    2    1    2    0    0  0.89378737469E+02  0.79225668517E+02 -0.63232299869E+03  0.64855049243E+03  0.80747144257E+02 0.  0.
        254    2    1    2    0    0 -0.89378737469E+02 -0.79225668517E+02 -0.61083157736E+02  0.92322912137E+03  0.91343067231E+03 0.  0.
         23    2    4    4    0    0 -0.17201104006E+03  0.36133848505E+03  0.12526577456E+03  0.42930480846E+03  0.91966328672E+02 0.  0.
         23    2    4    4    0    0  0.82632302592E+02 -0.44056415357E+03 -0.18634893230E+03  0.49392431291E+03  0.91161567959E+02 0.  0.
          3    1    3    3  502    0  0.85134442484E+02  0.39381685001E+02 -0.31388062503E+03  0.32759706528E+03  0.00000000000E+00 0. -1.
         -4    1    3    3    0  502  0.42442949845E+01  0.39843983516E+02 -0.31844237366E+03  0.32095342716E+03  0.00000000000E+00 0.  1.
         13    1    5    5    0    0 -0.12476622915E+03  0.15595473417E+03  0.55072108585E+02  0.20717487345E+03  0.00000000000E+00 0. -1.
        -13    1    5    5    0    0 -0.47244810916E+02  0.20538375088E+03  0.70193665979E+02  0.22212993501E+03  0.00000000000E+00 0.  1.
          1    1    6    6  503    0  0.51926697768E+02 -0.17384119606E+03 -0.31988828630E+02  0.18422928254E+03  0.00000000000E+00 0. -1.
         -1    1    6    6    0  503  0.30705604824E+02 -0.26672295751E+03 -0.15436010367E+03  0.30969503037E+03  0.00000000000E+00 0.  1.
<mgrwt>
<rscale>  0 0.14105598E+04</rscale>
<asrwt>0</asrwt>
<pdfrwt beam="1">  1        1 0.17424506E+00 0.14105598E+04</pdfrwt>
<pdfrwt beam="2">  1       -2 0.67567189E-01 0.14105598E+04</pdfrwt>
<totfact> 0.20558895E+01</totfact>
</mgrwt>
</event>
<event>
12    5  0.5297412E-008  0.2377855E+04  0.7818608E-02  0.8447841E-01
         -2   -1    0    0    0  501 -0.00000000000E+00  0.00000000000E+00  0.52688744443E+03  0.52688744443E+03  0.00000000000E+00 0.  1.
          1   -1    0    0  501    0  0.00000000000E+00 -0.00000000000E+00 -0.26828293778E+04  0.26828293778E+04  0.00000000000E+00 0. -1.
        -24    2    1    2    0    0 -0.50467841616E+02  0.19197207545E+03 -0.22497630614E+04  0.22604285663E+04  0.93290887799E+02 0.  0.
        254    2    1    2    0    0  0.50467841616E+02 -0.19197207545E+03  0.93821128061E+02  0.94928825597E+03  0.92355049026E+03 0.  0.
         23    2    4    4    0    0  0.37816093116E+03 -0.19111813529E+03  0.31894395915E+03  0.54028202848E+03  0.10318715872E+03 0.  0.
         23    2    4    4    0    0 -0.32769308954E+03 -0.85394016151E+00 -0.22512283108E+03  0.40900622750E+03  0.96032884505E+02 0.  0.
          3    1    3    3  502    0 -0.33057131925E+02  0.13072202739E+03 -0.19097627299E+04  0.19145168338E+04  0.00000000000E+00 0. -1.
         -4    1    3    3    0  502 -0.17410709691E+02  0.61250048067E+02 -0.34000033152E+03  0.34591173243E+03  0.00000000000E+00 0.  1.
         13    1    5    5    0    0  0.16434376822E+03 -0.82151390526E+02  0.20286429765E+03  0.27369992397E+03  0.00000000000E+00 0. -1.
        -13    1    5    5    0    0  0.21381716294E+03 -0.10896674476E+03  0.11607966150E+03  0.26658210451E+03  0.00000000000E+00 0.  1.
          1    1    6    6  503    0 -0.21807015619E+03 -0.44142319463E+02 -0.16270958014E+03  0.27564024535E+03  0.00000000000E+00 0. -1.
         -1    1    6    6    0  503 -0.10962293336E+03  0.43288379301E+02 -0.62413250940E+02  0.13336598215E+03  0.00000000000E+00 0.  1.
<mgrwt>
<rscale>  0 0.23778554E+04</rscale>
<asrwt>0</asrwt>
<pdfrwt beam="1">  1        1 0.41274299E+00 0.23778554E+04</pdfrwt>
<pdfrwt beam="2">  1       -2 0.81059604E-01 0.23778554E+04</pdfrwt>
<totfact> 0.10687186E+00</totfact>
</mgrwt>
</event>
<event>
12    5  0.5297412E-008  0.1125211E+04  0.7818608E-02  0.9180962E-01
          3   -1    0    0  501    0  0.00000000000E+00  0.00000000000E+00  0.36950698024E+03  0.36950698024E+03  0.00000000000E+00 0. -1.
         -2   -1    0    0    0  501 -0.00000000000E+00 -0.00000000000E+00 -0.85661481032E+03  0.85661481032E+03  0.00000000000E+00 0.  1.
        -24    2    1    2    0    0 -0.33395386213E+02  0.61073665499E+02  0.10549799800E+03  0.14969314784E+03  0.80205775910E+02 0.  0.
        254    2    1    2    0    0  0.33395386213E+02 -0.61073665499E+02 -0.59260582808E+03  0.10764286427E+04  0.89591947794E+03 0.  0.
         23    2    4    4    0    0 -0.30177933394E+03  0.27097277343E+03 -0.24493952574E+03  0.48307560573E+03  0.94178868412E+02 0.  0.
         23    2    4    4    0    0  0.33517472015E+03 -0.33204643893E+03 -0.34766630234E+03  0.59335303698E+03  0.92730998479E+02 0.  0.
          1    1    3    3  502    0 -0.50258632551E+01  0.44496769998E+01  0.81794489123E+02  0.82069466781E+02  0.00000000000E+00 0. -1.
         -2    1    3    3    0  502 -0.28369522958E+02  0.56623988499E+02  0.23703508878E+02  0.67623681055E+02  0.00000000000E+00 0.  1.
         13    1    5    5    0    0 -0.25798877651E+03  0.23574581454E+03 -0.16790607668E+03  0.38771993560E+03  0.00000000000E+00 0. -1.
        -13    1    5    5    0    0 -0.43790557423E+02  0.35226958894E+02 -0.77033449057E+02  0.95355670130E+02  0.00000000000E+00 0.  1.
          2    1    6    6  503    0  0.22942849468E+02 -0.49262120449E+02 -0.70832641721E+02  0.89277063045E+02  0.00000000000E+00 0. -1.
         -2    1    6    6    0  503  0.31223187068E+03 -0.28278431848E+03 -0.27683366062E+03  0.50407597394E+03  0.00000000000E+00 0.  1.
<mgrwt>
<rscale>  0 0.11252114E+04</rscale>
<asrwt>0</asrwt>
<pdfrwt beam="1">  1        3 0.56847228E-01 0.11252114E+04</pdfrwt>
<pdfrwt beam="2">  1       -2 0.13178689E+00 0.11252114E+04</pdfrwt>
<totfact> 0.52904195E+00</totfact>
</mgrwt>
</event>
<event>
12    5  0.5297412E-008  0.2972121E+04  0.7818608E-02  0.8251737E-01
         -2   -1    0    0    0  501 -0.00000000000E+00  0.00000000000E+00  0.11461337427E+04  0.11461337427E+04  0.00000000000E+00 0.  1.
          1   -1    0    0  501    0  0.00000000000E+00 -0.00000000000E+00 -0.19268044978E+04  0.19268044978E+04  0.00000000000E+00 0. -1.
        -24    2    1    2    0    0 -0.51983646058E+03 -0.83147060204E+01 -0.16431437308E+04  0.17252448406E+04  0.79052892355E+02 0.  0.
        254    2    1    2    0    0  0.51983646058E+03  0.83147060204E+01  0.86247297580E+03  0.13476933999E+04  0.89561084522E+03 0.  0.
         23    2    4    4    0    0  0.46169527239E+03  0.29546013159E+03  0.15686077006E+03  0.57813704831E+03  0.95801521623E+02 0.  0.
         23    2    4    4    0    0  0.58141188193E+02 -0.28714542557E+03  0.70561220574E+03  0.76955635159E+03  0.92171037725E+02 0.  0.
          3    1    3    3  502    0 -0.32442265286E+03 -0.14432563634E+02 -0.89933228881E+03  0.95616783164E+03  0.00000000000E+00 0. -1.
         -4    1    3    3    0  502 -0.19541380773E+03  0.61178576139E+01 -0.74381144204E+03  0.76907700898E+03  0.00000000000E+00 0.  1.
         13    1    5    5    0    0  0.38759365471E+03  0.22808001901E+03  0.16158730087E+03  0.47787005770E+03  0.00000000000E+00 0.  1.
        -13    1    5    5    0    0  0.74101617683E+02  0.67380112574E+02 -0.47265308096E+01  0.10026699062E+03  0.00000000000E+00 0. -1.
          1    1    6    6  503    0 -0.14333762781E+02 -0.41921487038E+01  0.30160075830E+02  0.33655029940E+02  0.00000000000E+00 0. -1.
         -1    1    6    6    0  503  0.72474950974E+02 -0.28295327686E+03  0.67545212991E+03  0.73590132165E+03  0.00000000000E+00 0.  1.
<mgrwt>
<rscale>  0 0.29721209E+04</rscale>
<asrwt>0</asrwt>
<pdfrwt beam="1">  1        1 0.29643146E+00 0.29721209E+04</pdfrwt>
<pdfrwt beam="2">  1       -2 0.17632827E+00 0.29721209E+04</pdfrwt>
<totfact> 0.48184131E-01</totfact>
</mgrwt>
</event>
<event>
12    5  0.5297412E-008  0.2523711E+04  0.7818608E-02  0.8394587E-01
         -2   -1    0    0    0  501 -0.00000000000E+00  0.00000000000E+00  0.64063024536E+03  0.64063024536E+03  0.00000000000E+00 0.  1.
          1   -1    0    0  501    0  0.00000000000E+00 -0.00000000000E+00 -0.24854890909E+04  0.24854890909E+04  0.00000000000E+00 0. -1.
        -24    2    1    2    0    0 -0.65740933882E+03 -0.88187872294E+03 -0.80992232183E+03  0.13682927696E+04  0.79710822861E+02 0.  0.
        254    2    1    2    0    0  0.65740933882E+03  0.88187872294E+03 -0.10349365237E+04  0.17578265667E+04  0.89942398764E+03 0.  0.
         23    2    4    4    0    0  0.31232965672E+03  0.60027747161E+03 -0.63690615027E+02  0.68551790684E+03  0.89417273289E+02 0.  0.
         23    2    4    4    0    0  0.34507968210E+03  0.28160125133E+03 -0.97124590872E+03  0.10723086598E+04  0.90266244989E+02 0.  0.
          1    1    3    3  502    0 -0.51872804812E+03 -0.68260633030E+03 -0.66993612548E+03  0.10880462317E+04  0.00000000000E+00 0. -1.
         -2    1    3    3    0  502 -0.13868129070E+03 -0.19927239264E+03 -0.13998619635E+03  0.28024653794E+03  0.00000000000E+00 0.  1.
         13    1    5    5    0    0  0.19871617492E+03  0.36727772381E+03 -0.82318265701E+02  0.42562582329E+03  0.00000000000E+00 0. -1.
        -13    1    5    5    0    0  0.11361348180E+03  0.23299974781E+03  0.18627650673E+02  0.25989208355E+03  0.00000000000E+00 0.  1.
          2    1    6    6  503    0  0.12189611348E+03  0.71568695449E+02 -0.39675509166E+03  0.42118326582E+03  0.00000000000E+00 0. -1.
         -2    1    6    6    0  503  0.22318356862E+03  0.21003255588E+03 -0.57449081706E+03  0.65112539400E+03  0.00000000000E+00 0.  1.
<mgrwt>
<rscale>  0 0.25237111E+04</rscale>
<asrwt>0</asrwt>
<pdfrwt beam="1">  1        1 0.38238294E+00 0.25237111E+04</pdfrwt>
<pdfrwt beam="2">  1       -2 0.98558499E-01 0.25237111E+04</pdfrwt>
<totfact> 0.92365853E-01</totfact>
</mgrwt>
</event>
<event>
12    5  0.5297412E-008  0.1994209E+04  0.7818608E-02  0.8609333E-01
          1   -1    0    0  501    0  0.00000000000E+00  0.00000000000E+00  0.40259889378E+03  0.40259889378E+03  0.00000000000E+00 0. -1.
         -2   -1    0    0    0  501 -0.00000000000E+00 -0.00000000000E+00 -0.24694980320E+04  0.24694980320E+04  0.00000000000E+00 0.  1.
        -24    2    1    2    0    0  0.21610778919E+03 -0.14432659292E+03 -0.18985275412E+04  0.19178651594E+04  0.79165668749E+02 0.  0.
        254    2    1    2    0    0 -0.21610778919E+03  0.14432659292E+03 -0.16837159707E+03  0.95423176639E+03  0.90259433153E+03 0.  0.
         23    2    4    4    0    0  0.84930580948E+02  0.29162302041E+03  0.25495013608E+03  0.40683322914E+03  0.90865366533E+02 0.  0.
         23    2    4    4    0    0 -0.30103837014E+03 -0.14729642748E+03 -0.42332173315E+03  0.54739853725E+03  0.90130632856E+02 0.  0.
          3    1    3    3  502    0  0.64628245093E+02 -0.46636520803E+02 -0.87184858479E+03  0.87548371198E+03  0.00000000000E+00 0. -1.
         -4    1    3    3    0  502  0.15147954410E+03 -0.97690072121E+02 -0.10266789564E+04  0.10423814474E+04  0.00000000000E+00 0.  1.
         13    1    5    5    0    0  0.24396813330E+02  0.79893394594E+01  0.11299981648E+02  0.28048594099E+02  0.00000000000E+00 0. -1.
        -13    1    5    5    0    0  0.60533767617E+02  0.28363368095E+03  0.24365015444E+03  0.37878463504E+03  0.00000000000E+00 0.  1.
          1    1    6    6  503    0 -0.11578125872E+03 -0.13891310361E+02 -0.11519048526E+03  0.16391191619E+03  0.00000000000E+00 0. -1.
         -1    1    6    6    0  503 -0.18525711142E+03 -0.13340511712E+03 -0.30813124789E+03  0.38348662106E+03  0.00000000000E+00 0.  1.
<mgrwt>
<rscale>  0 0.19942088E+04</rscale>
<asrwt>0</asrwt>
<pdfrwt beam="1">  1        1 0.61938292E-01 0.19942088E+04</pdfrwt>
<pdfrwt beam="2">  1       -2 0.37992277E+00 0.19942088E+04</pdfrwt>
<totfact> 0.48557041E-01</totfact>
</mgrwt>
</event>
<event>
12    5  0.5297412E-008  0.1435498E+04  0.7818608E-02  0.8928517E-01
         -4   -1    0    0    0  501 -0.00000000000E+00  0.00000000000E+00  0.52937454118E+03  0.52937454118E+03  0.00000000000E+00 0.  1.
          3   -1    0    0  501    0  0.00000000000E+00 -0.00000000000E+00 -0.97315548933E+03  0.97315548933E+03  0.00000000000E+00 0. -1.
        -24    2    1    2    0    0  0.25350709144E+03 -0.26985354664E+03 -0.36595899803E+03  0.52658314182E+03  0.79227741115E+02 0.  0.
        254    2    1    2    0    0 -0.25350709144E+03  0.26985354664E+03 -0.77821950123E+02  0.97594688870E+03  0.89962730705E+03 0.  0.
         23    2    4    4    0    0 -0.18510332497E+02 -0.32803745869E+02 -0.43394045738E+03  0.44527567929E+03  0.92452105778E+02 0.  0.
         23    2    4    4    0    0 -0.23499675895E+03  0.30265729251E+03  0.35611850725E+03  0.53067120941E+03  0.89255968221E+02 0.  0.
          1    1    3    3  502    0  0.23248387034E+03 -0.22909497618E+03 -0.28394541646E+03  0.43261791180E+03  0.00000000000E+00 0. -1.
         -2    1    3    3    0  502  0.21023221105E+02 -0.40758570466E+02 -0.82013581563E+02  0.93965230021E+02  0.00000000000E+00 0.  1.
         13    1    5    5    0    0  0.95643227435E+01  0.26733207051E+02 -0.20842635214E+03  0.21035133680E+03  0.00000000000E+00 0.  1.
        -13    1    5    5    0    0 -0.28074655241E+02 -0.59536952920E+02 -0.22551410524E+03  0.23492434248E+03  0.00000000000E+00 0. -1.
          1    1    6    6  503    0 -0.14628829065E+03  0.23757808897E+03  0.28945773840E+03  0.40203158415E+03  0.00000000000E+00 0. -1.
         -1    1    6    6    0  503 -0.88708468300E+02  0.65079203546E+02  0.66660768854E+02  0.12863962526E+03  0.00000000000E+00 0.  1.
<mgrwt>
<rscale>  0 0.14354982E+04</rscale>
<asrwt>0</asrwt>
<pdfrwt beam="1">  1        3 0.14971623E+00 0.14354982E+04</pdfrwt>
<pdfrwt beam="2">  1       -4 0.81442238E-01 0.14354982E+04</pdfrwt>
<totfact> 0.96321142E-01</totfact>
</mgrwt>
</event>
<event>
12    5  0.5297412E-008  0.1814714E+04  0.7818608E-02  0.8698514E-01
          1   -1    0    0  501    0  0.00000000000E+00  0.00000000000E+00  0.18198704175E+04  0.18198704175E+04  0.00000000000E+00 0. -1.
         -4   -1    0    0    0  501 -0.00000000000E+00 -0.00000000000E+00 -0.45239287665E+03  0.45239287665E+03  0.00000000000E+00 0.  1.
        -24    2    1    2    0    0  0.59768190171E+03 -0.22389340592E+03  0.80006780414E+03  0.10265943570E+04  0.80222003242E+02 0.  0.
        254    2    1    2    0    0 -0.59768190171E+03  0.22389340592E+03  0.56740973668E+03  0.12456689371E+04  0.90685466241E+03 0.  0.
         23    2    4    4    0    0  0.63571778907E+02  0.24151107611E+02  0.53630874045E+03  0.54831546401E+03  0.91641343933E+02 0.  0.
         23    2    4    4    0    0 -0.66125368062E+03  0.19974229831E+03  0.31100996227E+02  0.69735347309E+03  0.90449867888E+02 0.  0.
          3    1    3    3  502    0  0.48339443529E+03 -0.16756601842E+03  0.68455129174E+03  0.85461045022E+03  0.00000000000E+00 0. -1.
         -4    1    3    3    0  502  0.11428746642E+03 -0.56327387498E+02  0.11551651240E+03  0.17198390681E+03  0.00000000000E+00 0.  1.
         13    1    5    5    0    0  0.68946490579E+02 -0.18294753203E+02  0.33570406045E+03  0.34319896964E+03  0.00000000000E+00 0.  1.
        -13    1    5    5    0    0 -0.53747116716E+01  0.42445860815E+02  0.20060467999E+03  0.20511649437E+03  0.00000000000E+00 0. -1.
          4    1    6    6  503    0 -0.16274164948E+03  0.64297713093E+02 -0.28693583490E+02  0.17731994281E+03  0.00000000000E+00 0. -1.
         -4    1    6    6    0  503 -0.49851203113E+03  0.13544458522E+03  0.59794579717E+02  0.52003353028E+03  0.00000000000E+00 0.  1.
<mgrwt>
<rscale>  0 0.18147137E+04</rscale>
<asrwt>0</asrwt>
<pdfrwt beam="1">  1        1 0.27998006E+00 0.18147137E+04</pdfrwt>
<pdfrwt beam="2">  1       -4 0.69598905E-01 0.18147137E+04</pdfrwt>
<totfact> 0.34740831E+00</totfact>
</mgrwt>
</event>
<event>
12    5  0.5297412E-008  0.3273525E+04  0.7818608E-02  0.8169665E-01
         -2   -1    0    0    0  501 -0.00000000000E+00  0.00000000000E+00  0.13037821354E+04  0.13037821354E+04  0.00000000000E+00 0.  1.
          1   -1    0    0  501    0  0.00000000000E+00 -0.00000000000E+00 -0.20547845173E+04  0.20547845173E+04  0.00000000000E+00 0. -1.
        -24    2    1    2    0    0  0.35378072941E+03 -0.11565113747E+03  0.11573231428E+04  0.12182936517E+04  0.79413945745E+02 0.  0.
        254    2    1    2    0    0 -0.35378072941E+03  0.11565113747E+03 -0.19083255247E+04  0.21402730010E+04  0.89472130887E+03 0.  0.
         23    2    4    4    0    0 -0.10648641840E+03 -0.22877103404E+03 -0.15633042324E+04  0.15861645077E+04  0.91225977314E+02 0.  0.
         23    2    4    4    0    0 -0.24729431101E+03  0.34442217151E+03 -0.34502129227E+03  0.55410849334E+03  0.90638963966E+02 0.  0.
          3    1    3    3  502    0  0.40160523797E+02 -0.42554678427E+02  0.18464570219E+03  0.19369513072E+03  0.00000000000E+00 0. -1.
         -4    1    3    3    0  502  0.31362020561E+03 -0.73096459046E+02  0.97267744059E+03  0.10245985209E+04  0.00000000000E+00 0.  1.
         13    1    5    5    0    0 -0.27483474133E+01 -0.17219475212E+02 -0.33574899125E+03  0.33620150039E+03  0.00000000000E+00 0.  1.
        -13    1    5    5    0    0 -0.10373807099E+03 -0.21155155883E+03 -0.12275552412E+04  0.12499630073E+04  0.00000000000E+00 0. -1.
          1    1    6    6  503    0 -0.14548228167E+03  0.14416593842E+03 -0.12663046415E+03  0.24079905841E+03  0.00000000000E+00 0.  1.
         -1    1    6    6    0  503 -0.10181202933E+03  0.20025623309E+03 -0.21839082812E+03  0.31330943493E+03  0.00000000000E+00 0. -1.
<mgrwt>
<rscale>  0 0.32735249E+04</rscale>
<asrwt>0</asrwt>
<pdfrwt beam="1">  1        1 0.31612070E+00 0.32735249E+04</pdfrwt>
<pdfrwt beam="2">  1       -2 0.20058187E+00 0.32735249E+04</pdfrwt>
<totfact> 0.26365462E-01</totfact>
</mgrwt>
</event>
<event>
12    5  0.5297412E-008  0.2059095E+04  0.7818608E-02  0.8579480E-01
          1   -1    0    0  501    0  0.00000000000E+00  0.00000000000E+00  0.14001421990E+04  0.14001421990E+04  0.00000000000E+00 0. -1.
         -2   -1    0    0    0  501 -0.00000000000E+00 -0.00000000000E+00 -0.75704307069E+03  0.75704307069E+03  0.00000000000E+00 0.  1.
        -24    2    1    2    0    0 -0.54942899143E+03 -0.14968180221E+03 -0.37293547954E+03  0.68476516693E+03  0.74468808234E+02 0.  0.
        254    2    1    2    0    0  0.54942899143E+03  0.14968180221E+03  0.10160346079E+04  0.14724201028E+04  0.90078730901E+03 0.  0.
         23    2    4    4    0    0  0.71152065913E+03 -0.12385784684E+03  0.61661000435E+03  0.95379772346E+03  0.88993175226E+02 0.  0.
         23    2    4    4    0    0 -0.16209166769E+03  0.27353964905E+03  0.39942460351E+03  0.51862237929E+03  0.91277105961E+02 0.  0.
          3    1    3    3  502    0 -0.28381870002E+03 -0.40885565324E+02 -0.20100769648E+03  0.35018392021E+03  0.00000000000E+00 0. -1.
         -4    1    3    3    0  502 -0.26561029142E+03 -0.10879623689E+03 -0.17192778307E+03  0.33458124672E+03  0.00000000000E+00 0.  1.
         13    1    5    5    0    0  0.42966259217E+03 -0.96510575891E+02  0.32496726330E+03  0.54729147315E+03  0.00000000000E+00 0. -1.
        -13    1    5    5    0    0  0.28185806696E+03 -0.27347270945E+02  0.29164274105E+03  0.40650625031E+03  0.00000000000E+00 0.  1.
          3    1    6    6  503    0 -0.14374053729E+03  0.23545402459E+03  0.38565128514E+03  0.47415910145E+03  0.00000000000E+00 0. -1.
         -3    1    6    6    0  503 -0.18351130402E+02  0.38085624458E+02  0.13773318371E+02  0.44463277841E+02  0.00000000000E+00 0.  1.
<mgrwt>
<rscale>  0 0.20590949E+04</rscale>
<asrwt>0</asrwt>
<pdfrwt beam="1">  1        1 0.21540649E+00 0.20590949E+04</pdfrwt>
<pdfrwt beam="2">  1       -2 0.11646816E+00 0.20590949E+04</pdfrwt>
<totfact> 0.35565265E+00</totfact>
</mgrwt>
</event>
<event>
12    5  0.5297412E-008  0.3010411E+04  0.7818608E-02  0.8240764E-01
          1   -1    0    0  501    0  0.00000000000E+00  0.00000000000E+00  0.15834874036E+04  0.15834874036E+04  0.00000000000E+00 0. -1.
         -2   -1    0    0    0  501 -0.00000000000E+00 -0.00000000000E+00 -0.14307936782E+04  0.14307936782E+04  0.00000000000E+00 0.  1.
        -24    2    1    2    0    0  0.96027391150E+02  0.10626846548E+04  0.92832097436E+03  0.14164882150E+04  0.78352385787E+02 0.  0.
        254    2    1    2    0    0 -0.96027391150E+02 -0.10626846548E+04 -0.77562724895E+03  0.15977928667E+04  0.90156779010E+03 0.  0.
         23    2    4    4    0    0  0.30664412145E+03 -0.72037740278E+03 -0.20389513272E+03  0.81404904040E+03  0.90157614050E+02 0.  0.
         23    2    4    4    0    0 -0.40267151260E+03 -0.34230725206E+03 -0.57173211623E+03  0.78374382632E+03  0.89767314228E+02 0.  0.
          1    1    3    3  502    0  0.30050892566E+02  0.64436827978E+03  0.52561453410E+03  0.83209625320E+03  0.00000000000E+00 0. -1.
         -2    1    3    3    0  502  0.65976498584E+02  0.41831637505E+03  0.40270644026E+03  0.58439196181E+03  0.00000000000E+00 0.  1.
         13    1    5    5    0    0  0.25792928161E+03 -0.57008755121E+03 -0.12758203209E+03  0.63859572913E+03  0.00000000000E+00 0.  1.
        -13    1    5    5    0    0  0.48714839836E+02 -0.15028985157E+03 -0.76313100631E+02  0.17545331126E+03  0.00000000000E+00 0. -1.
          1    1    6    6  503    0 -0.27306876053E+03 -0.21391915130E+03 -0.43151431827E+03  0.55365382518E+03  0.00000000000E+00 0.  1.
         -1    1    6    6    0  503 -0.12960275206E+03 -0.12838810076E+03 -0.14021779796E+03  0.23009000114E+03  0.00000000000E+00 0. -1.
<mgrwt>
<rscale>  0 0.30104111E+04</rscale>
<asrwt>0</asrwt>
<pdfrwt beam="1">  1        1 0.24361345E+00 0.30104111E+04</pdfrwt>
<pdfrwt beam="2">  1       -2 0.22012210E+00 0.30104111E+04</pdfrwt>
<totfact> 0.42212280E-01</totfact>
</mgrwt>
</event>
<event>
12    5  0.5297412E-008  0.1665082E+04  0.7818608E-02  0.8781534E-01
         -2   -1    0    0    0  501 -0.00000000000E+00  0.00000000000E+00  0.33495784780E+03  0.33495784780E+03  0.00000000000E+00 0.  1.
          1   -1    0    0  501    0  0.00000000000E+00 -0.00000000000E+00 -0.20692877508E+04  0.20692877508E+04  0.00000000000E+00 0. -1.
        -24    2    1    2    0    0  0.49258653515E+03 -0.29781886431E+03 -0.45706347248E+03  0.73923716434E+03  0.78911321843E+02 0.  0.
        254    2    1    2    0    0 -0.49258653515E+03  0.29781886431E+03 -0.12772664305E+04  0.16650084343E+04  0.89972550317E+03 0.  0.
         23    2    4    4    0    0  0.20107460989E+03  0.26883375235E+03 -0.58628211325E+03  0.68119640623E+03  0.87173633609E+02 0.  0.
         23    2    4    4    0    0 -0.69366114504E+03  0.28985111953E+02 -0.69098431727E+03  0.98381202802E+03  0.91765238080E+02 0.  0.
          1    1    3    3  502    0 -0.73854531896E-01 -0.74226973527E+01 -0.45986483828E+00  0.74372956208E+01  0.00000000000E+00 0. -1.
         -2    1    3    3    0  502  0.49266038968E+03 -0.29039616695E+03 -0.45660360764E+03  0.73179986871E+03  0.00000000000E+00 0.  1.
         13    1    5    5    0    0  0.40233113261E+02  0.57463572477E+02 -0.62647867138E+02  0.94050629033E+02  0.00000000000E+00 0. -1.
        -13    1    5    5    0    0  0.16084149663E+03  0.21137017988E+03 -0.52363424612E+03  0.58714577720E+03  0.00000000000E+00 0.  1.
          1    1    6    6  503    0 -0.30770174073E+02  0.10137233191E+02 -0.11573172849E+02  0.34402113875E+02  0.00000000000E+00 0. -1.
         -1    1    6    6    0  503 -0.66289097097E+03  0.18847878762E+02 -0.67941114442E+03  0.94940991415E+03  0.00000000000E+00 0.  1.
<mgrwt>
<rscale>  0 0.16650816E+04</rscale>
<asrwt>0</asrwt>
<pdfrwt beam="1">  1        1 0.31835197E+00 0.16650816E+04</pdfrwt>
<pdfrwt beam="2">  1       -2 0.51531976E-01 0.16650816E+04</pdfrwt>
<totfact> 0.79743753E+00</totfact>
</mgrwt>
</event>
<event>
12    5  0.5297412E-008  0.1453050E+04  0.7818608E-02  0.8916289E-01
         -2   -1    0    0    0  501 -0.00000000000E+00  0.00000000000E+00  0.52962994372E+03  0.52962994372E+03  0.00000000000E+00 0.  1.
          1   -1    0    0  501    0  0.00000000000E+00 -0.00000000000E+00 -0.99661706947E+03  0.99661706947E+03  0.00000000000E+00 0. -1.
        -24    2    1    2    0    0  0.18446463490E+03 -0.29975052083E+03  0.14048651927E+03  0.38716153677E+03  0.79246559472E+02 0.  0.
        254    2    1    2    0    0 -0.18446463490E+03  0.29975052083E+03 -0.60747364503E+03  0.11390854764E+04  0.89700274077E+03 0.  0.
         23    2    4    4    0    0  0.14028728640E+03  0.48010635939E+03 -0.55541995639E+03  0.75312711163E+03  0.92338936867E+02 0.  0.
         23    2    4    4    0    0 -0.32475192130E+03 -0.18035583856E+03 -0.52053688632E+02  0.38595836480E+03  0.90896831470E+02 0.  0.
          1    1    3    3  502    0  0.71395554735E+02 -0.15969158966E+03  0.34567811152E+02  0.17830777497E+03  0.00000000000E+00 0. -1.
         -2    1    3    3    0  502  0.11306908017E+03 -0.14005893116E+03  0.10591870812E+03  0.20885376180E+03  0.00000000000E+00 0.  1.
         13    1    5    5    0    0  0.42615920162E+02  0.47026828749E+02 -0.87716373864E+02  0.10826726891E+03  0.00000000000E+00 0.  1.
        -13    1    5    5    0    0  0.97671366234E+02  0.43307953064E+03 -0.46770358253E+03  0.64485984272E+03  0.00000000000E+00 0. -1.
          2    1    6    6  503    0 -0.32098104860E+03 -0.15593481472E+03 -0.55021116563E+02  0.36107038548E+03  0.00000000000E+00 0. -1.
         -2    1    6    6    0  503 -0.37708726990E+01 -0.24421023840E+02  0.29674279318E+01  0.24887979324E+02  0.00000000000E+00 0.  1.
<mgrwt>
<rscale>  0 0.14530495E+04</rscale>
<asrwt>0</asrwt>
<pdfrwt beam="1">  1        1 0.15332570E+00 0.14530495E+04</pdfrwt>
<pdfrwt beam="2">  1       -2 0.81481530E-01 0.14530495E+04</pdfrwt>
<totfact> 0.17187589E+01</totfact>
</mgrwt>
</event>
<event>
12    5  0.5297412E-008  0.1880243E+04  0.7818608E-02  0.8664753E-01
          1   -1    0    0  501    0  0.00000000000E+00  0.00000000000E+00  0.18200765680E+04  0.18200765680E+04  0.00000000000E+00 0. -1.
         -2   -1    0    0    0  501 -0.00000000000E+00 -0.00000000000E+00 -0.48559979198E+03  0.48559979198E+03  0.00000000000E+00 0.  1.
        -24    2    1    2    0    0 -0.31613277547E+03 -0.44912768196E+03 -0.47975689425E+02  0.55652106324E+03  0.75884258008E+02 0.  0.
        254    2    1    2    0    0  0.31613277547E+03  0.44912768196E+03  0.13824524654E+04  0.17491552968E+04  0.92017054208E+03 0.  0.
         23    2    4    4    0    0  0.17433590870E+03  0.55208095627E+03  0.31823831646E+03  0.66677556541E+03  0.90153409391E+02 0.  0.
         23    2    4    4    0    0  0.14179686678E+03 -0.10295327431E+03  0.10642141490E+04  0.10823797313E+04  0.91040649185E+02 0.  0.
          3    1    3    3  502    0 -0.18174750630E+03 -0.21832534722E+03  0.55812163047E+01  0.28412895533E+03  0.00000000000E+00 0. -1.
         -4    1    3    3    0  502 -0.13438526917E+03 -0.23080233475E+03 -0.53556905730E+02  0.27239210790E+03  0.00000000000E+00 0.  1.
         13    1    5    5    0    0  0.67632095422E+01  0.32055346440E+02 -0.31305582885E+01  0.32910281583E+02  0.00000000000E+00 0.  1.
        -13    1    5    5    0    0  0.16757269915E+03  0.52002560983E+03  0.32136887475E+03  0.63386528383E+03  0.00000000000E+00 0. -1.
          1    1    6    6  503    0  0.15267920105E+03 -0.10634982257E+03  0.10037331341E+04  0.10208336925E+04  0.00000000000E+00 0. -1.
         -1    1    6    6    0  503 -0.10882334273E+02  0.33965482617E+01  0.60481014869E+02  0.61546038856E+02  0.00000000000E+00 0.  1.
<mgrwt>
<rscale>  0 0.18802434E+04</rscale>
<asrwt>0</asrwt>
<pdfrwt beam="1">  1        1 0.28001178E+00 0.18802434E+04</pdfrwt>
<pdfrwt beam="2">  1       -2 0.74707661E-01 0.18802434E+04</pdfrwt>
<totfact> 0.52322496E+00</totfact>
</mgrwt>
</event>
<event>
12    5  0.5297412E-008  0.1419278E+04  0.7818608E-02  0.8939981E-01
         -2   -1    0    0    0  501 -0.00000000000E+00  0.00000000000E+00  0.46665226541E+03  0.46665226541E+03  0.00000000000E+00 0.  1.
          1   -1    0    0  501    0  0.00000000000E+00 -0.00000000000E+00 -0.10791493653E+04  0.10791493653E+04  0.00000000000E+00 0. -1.
        -24    2    1    2    0    0  0.24831339714E+03  0.33493191251E+03 -0.21459653024E+03  0.47553580338E+03  0.79017088587E+02 0.  0.
        254    2    1    2    0    0 -0.24831339714E+03 -0.33493191251E+03 -0.39790056968E+03  0.10702658274E+04  0.90183432440E+03 0.  0.
         23    2    4    4    0    0  0.31513835171E+03  0.56450506988E+01 -0.15235043243E+03  0.36202730749E+03  0.92244619334E+02 0.  0.
         23    2    4    4    0    0 -0.56345174885E+03 -0.34057696320E+03 -0.24555013725E+03  0.70823851987E+03  0.88523386637E+02 0.  0.
          3    1    3    3  502    0  0.19215581709E+02  0.32715457421E+01 -0.20004106021E+02  0.27930375036E+02  0.00000000000E+00 0. -1.
         -4    1    3    3    0  502  0.22909781543E+03  0.33166036676E+03 -0.19459242422E+03  0.44760542834E+03  0.00000000000E+00 0.  1.
         13    1    5    5    0    0  0.21448455079E+03 -0.22559987176E+02 -0.63457608764E+02  0.22480979440E+03  0.00000000000E+00 0. -1.
        -13    1    5    5    0    0  0.10065380092E+03  0.28205037875E+02 -0.88892823662E+02  0.13721751310E+03  0.00000000000E+00 0.  1.
          4    1    6    6  503    0 -0.17031799950E+02  0.46077683408E+01 -0.10344783737E+02  0.20453075299E+02  0.00000000000E+00 0.  1.
         -4    1    6    6    0  503 -0.54641994890E+03 -0.34518473155E+03 -0.23520535352E+03  0.68778544457E+03  0.00000000000E+00 0. -1.
<mgrwt>
<rscale>  0 0.14192780E+04</rscale>
<asrwt>0</asrwt>
<pdfrwt beam="1">  1        1 0.16602298E+00 0.14192780E+04</pdfrwt>
<pdfrwt beam="2">  1       -2 0.71792656E-01 0.14192780E+04</pdfrwt>
<totfact> 0.19740138E+01</totfact>
</mgrwt>
</event>
<event>
12    5  0.5297412E-008  0.1170725E+04  0.7818608E-02  0.9138874E-01
          1   -1    0    0  501    0  0.00000000000E+00  0.00000000000E+00  0.33556104033E+03  0.33556104033E+03  0.00000000000E+00 0. -1.
         -2   -1    0    0    0  501 -0.00000000000E+00 -0.00000000000E+00 -0.10211239148E+04  0.10211239148E+04  0.00000000000E+00 0.  1.
        -24    2    1    2    0    0 -0.23004340908E+03 -0.95429512237E+01 -0.10281171245E+03  0.26724015867E+03  0.88521275483E+02 0.  0.
        254    2    1    2    0    0  0.23004340908E+03  0.95429512237E+01 -0.58275116200E+03  0.10894447964E+04  0.89122388303E+03 0.  0.
         23    2    4    4    0    0  0.50261849254E+03 -0.19572000409E+03 -0.24273801242E+03  0.59836121112E+03  0.90458428328E+02 0.  0.
         23    2    4    4    0    0 -0.27257508347E+03  0.20526295531E+03 -0.34001314958E+03  0.49108358532E+03  0.95520096982E+02 0.  0.
          3    1    3    3  502    0 -0.18510375362E+03  0.27592639643E+02 -0.66782440494E+02  0.19870744255E+03  0.00000000000E+00 0. -1.
         -4    1    3    3    0  502 -0.44939655457E+02 -0.37135590867E+02 -0.36029271952E+02  0.68532716122E+02  0.00000000000E+00 0.  1.
         13    1    5    5    0    0  0.32595698985E+03 -0.16265714036E+03 -0.19105932082E+03  0.41135017761E+03  0.00000000000E+00 0.  1.
        -13    1    5    5    0    0  0.17666150269E+03 -0.33062863724E+02 -0.51678691592E+02  0.18701103351E+03  0.00000000000E+00 0. -1.
          4    1    6    6  503    0 -0.27621802974E+03  0.18219839552E+03 -0.31479404648E+03  0.45671429470E+03  0.00000000000E+00 0. -1.
         -4    1    6    6    0  503  0.36429462785E+01  0.23064559791E+02 -0.25219103108E+02  0.34369290617E+02  0.00000000000E+00 0.  1.
<mgrwt>
<rscale>  0 0.11707253E+04</rscale>
<asrwt>0</asrwt>
<pdfrwt beam="1">  1        1 0.51624777E-01 0.11707253E+04</pdfrwt>
<pdfrwt beam="2">  1       -2 0.15709598E+00 0.11707253E+04</pdfrwt>
<totfact> 0.17333999E+01</totfact>
</mgrwt>
</event>
<event>
12    5  0.5297412E-008  0.1578214E+04  0.7818608E-02  0.8834045E-01
         -2   -1    0    0    0  501 -0.00000000000E+00  0.00000000000E+00  0.31657509190E+03  0.31657509190E+03  0.00000000000E+00 0.  1.
          1   -1    0    0  501    0  0.00000000000E+00 -0.00000000000E+00 -0.19669584775E+04  0.19669584775E+04  0.00000000000E+00 0. -1.
        -24    2    1    2    0    0  0.49451136174E+02 -0.45851757496E+03 -0.95546638303E+03  0.10637226834E+04  0.76851523636E+02 0.  0.
        254    2    1    2    0    0 -0.49451136174E+02  0.45851757496E+03 -0.69491700260E+03  0.12198108860E+04  0.89013772851E+03 0.  0.
         23    2    4    4    0    0  0.10186717295E+03  0.27862165110E+03 -0.86181007767E+03  0.91586763432E+03  0.89944250734E+02 0.  0.
         23    2    4    4    0    0 -0.15131830913E+03  0.17989592386E+03  0.16689307506E+03  0.30394325170E+03  0.96272673435E+02 0.  0.
          1    1    3    3  502    0  0.62645819460E+02 -0.43732394573E+03 -0.91686701339E+03  0.10177533358E+04  0.00000000000E+00 0. -1.
         -2    1    3    3    0  502 -0.13194683286E+02 -0.21193629229E+02 -0.38599369643E+02  0.45969347654E+02  0.00000000000E+00 0.  1.
         13    1    5    5    0    0  0.91812726386E+02  0.21295636499E+03 -0.75747225792E+03  0.79217688153E+03  0.00000000000E+00 0.  1.
        -13    1    5    5    0    0  0.10054446566E+02  0.65665286109E+02 -0.10433781975E+03  0.12369075279E+03  0.00000000000E+00 0. -1.
          3    1    6    6  503    0 -0.16287735651E+03  0.15163063644E+03  0.13766558184E+03  0.26167287898E+03  0.00000000000E+00 0. -1.
         -3    1    6    6    0  503  0.11559047386E+02  0.28265287421E+02  0.29227493223E+02  0.42270372716E+02  0.00000000000E+00 0.  1.
<mgrwt>
<rscale>  0 0.15782143E+04</rscale>
<asrwt>0</asrwt>
<pdfrwt beam="1">  1        1 0.30260900E+00 0.15782143E+04</pdfrwt>
<pdfrwt beam="2">  1       -2 0.48703860E-01 0.15782143E+04</pdfrwt>
<totfact> 0.10576117E+01</totfact>
</mgrwt>
</event>
<event>
12    5  0.5297412E-008  0.1819419E+04  0.7818608E-02  0.8696040E-01
         -2   -1    0    0    0  501 -0.00000000000E+00  0.00000000000E+00  0.37235568684E+03  0.37235568684E+03  0.00000000000E+00 0.  1.
          1   -1    0    0  501    0  0.00000000000E+00 -0.00000000000E+00 -0.22225300990E+04  0.22225300990E+04  0.00000000000E+00 0. -1.
        -24    2    1    2    0    0  0.28261238623E+03 -0.58849556956E+03 -0.10346707604E+04  0.12261224614E+04  0.81461104603E+02 0.  0.
        254    2    1    2    0    0 -0.28261238623E+03  0.58849556956E+03 -0.81550365175E+03  0.13687633245E+04  0.88446030786E+03 0.  0.
         23    2    4    4    0    0 -0.39029793710E+03  0.17068249339E+03  0.66995638354E+01  0.43586925227E+03  0.92044161506E+02 0.  0.
         23    2    4    4    0    0  0.10768555087E+03  0.41781307617E+03 -0.82220321558E+03  0.93289407221E+03  0.90051528348E+02 0.  0.
          3    1    3    3  502    0  0.12466208370E+03 -0.20923371384E+03 -0.44762948434E+03  0.50959938910E+03  0.00000000000E+00 0. -1.
         -2    1    3    3    0  502  0.15795030254E+03 -0.37926185572E+03 -0.58704127609E+03  0.71652307228E+03  0.00000000000E+00 0.  1.
         13    1    5    5    0    0 -0.38834598147E+03  0.15560965856E+03 -0.19797717193E+01  0.41836692825E+03  0.00000000000E+00 0.  1.
        -13    1    5    5    0    0 -0.19519556338E+01  0.15072834824E+02  0.86793355547E+01  0.17502324020E+02  0.00000000000E+00 0. -1.
          3    1    6    6  503    0 -0.78569742591E+01  0.59224587145E+01 -0.41688642136E+02  0.42833987030E+02  0.00000000000E+00 0. -1.
         -3    1    6    6    0  503  0.11554252513E+03  0.41189061746E+03 -0.78051457345E+03  0.89006008518E+03  0.00000000000E+00 0.  1.
<mgrwt>
<rscale>  0 0.18194194E+04</rscale>
<asrwt>0</asrwt>
<pdfrwt beam="1">  1        1 0.34192770E+00 0.18194194E+04</pdfrwt>
<pdfrwt beam="2">  1       -2 0.57285491E-01 0.18194194E+04</pdfrwt>
<totfact> 0.49691406E+00</totfact>
</mgrwt>
</event>
<event>
12    5  0.5297412E-008  0.1164020E+04  0.7818608E-02  0.9144946E-01
          3   -1    0    0  501    0  0.00000000000E+00  0.00000000000E+00  0.21116201573E+03  0.21116201573E+03  0.00000000000E+00 0. -1.
         -4   -1    0    0    0  501 -0.00000000000E+00 -0.00000000000E+00 -0.16041516987E+04  0.16041516987E+04  0.00000000000E+00 0.  1.
        -24    2    1    2    0    0  0.18302438984E+03  0.19829901631E+02 -0.31477500660E+03  0.37454146870E+03  0.85480142277E+02 0.  0.
        254    2    1    2    0    0 -0.18302438984E+03 -0.19829901631E+02 -0.10782146763E+04  0.14407722457E+04  0.93775616415E+03 0.  0.
         23    2    4    4    0    0 -0.24469072430E+03 -0.36943407764E+02  0.82526692337E+02  0.27474983487E+03  0.86246454310E+02 0.  0.
         23    2    4    4    0    0  0.61666334460E+02  0.17113506133E+02 -0.11607413687E+04  0.11660224108E+04  0.90510378847E+02 0.  0.
          3    1    3    3  502    0  0.18845636629E+03  0.11446036318E+02 -0.31107601627E+03  0.36388885891E+03  0.00000000000E+00 0. -1.
         -4    1    3    3    0  502 -0.54319764582E+01  0.83838653128E+01 -0.36989903320E+01  0.10652609788E+02  0.00000000000E+00 0.  1.
         13    1    5    5    0    0 -0.25143361745E+03 -0.35381377739E+02  0.75526449733E+02  0.26490555012E+03  0.00000000000E+00 0. -1.
        -13    1    5    5    0    0  0.67428931514E+01 -0.15620300250E+01  0.70002426042E+01  0.98442847566E+01  0.00000000000E+00 0.  1.
          2    1    6    6  503    0 -0.20347502427E+01 -0.19444262852E+02 -0.62090498891E+03  0.62121270497E+03  0.00000000000E+00 0.  1.
         -2    1    6    6    0  503  0.63701084703E+02  0.36557768985E+02 -0.53983637975E+03  0.54480970584E+03  0.00000000000E+00 0. -1.
<mgrwt>
<rscale>  0 0.11640205E+04</rscale>
<asrwt>0</asrwt>
<pdfrwt beam="1">  1        3 0.32486463E-01 0.11640205E+04</pdfrwt>
<pdfrwt beam="2">  1       -4 0.24679257E+00 0.11640205E+04</pdfrwt>
<totfact> 0.14006403E+00</totfact>
</mgrwt>
</event>
<event>
12    5  0.5297412E-008  0.1850577E+04  0.7818608E-02  0.8679856E-01
          1   -1    0    0  501    0  0.00000000000E+00  0.00000000000E+00  0.94940922559E+03  0.94940922559E+03  0.00000000000E+00 0. -1.
         -2   -1    0    0    0  501 -0.00000000000E+00 -0.00000000000E+00 -0.90178054079E+03  0.90178054079E+03  0.00000000000E+00 0.  1.
        -24    2    1    2    0    0 -0.61785735136E+03 -0.90205279926E+01 -0.33664635442E+03  0.70907034240E+03  0.87297800550E+02 0.  0.
        254    2    1    2    0    0  0.61785735136E+03  0.90205279926E+01  0.38427503922E+03  0.11421194240E+04  0.88030698981E+03 0.  0.
         23    2    4    4    0    0 -0.21223747037E+03  0.73324465365E+01  0.14674517582E+03  0.27389951916E+03  0.91587615801E+02 0.  0.
         23    2    4    4    0    0  0.83009482173E+03  0.16880814561E+01  0.23752986340E+03  0.86821990482E+03  0.91242010300E+02 0.  0.
          3    1    3    3  502    0 -0.10862176917E+03  0.25523707497E+02 -0.38899546111E+02  0.11816650570E+03  0.00000000000E+00 0. -1.
         -4    1    3    3    0  502 -0.50923558218E+03 -0.34544235489E+02 -0.29774680831E+03  0.59090383670E+03  0.00000000000E+00 0.  1.
         13    1    5    5    0    0 -0.19451363157E+03  0.35482838964E+02  0.12071925393E+03  0.23166295129E+03  0.00000000000E+00 0. -1.
        -13    1    5    5    0    0 -0.17723838795E+02 -0.28150392428E+02  0.26025921892E+02  0.42236567874E+02  0.00000000000E+00 0.  1.
          2    1    6    6  503    0  0.30168498905E+03 -0.37594190118E+02  0.10917914834E+03  0.32302823744E+03  0.00000000000E+00 0. -1.
         -2    1    6    6    0  503  0.52840983267E+03  0.39282271574E+02  0.12835071506E+03  0.54519166738E+03  0.00000000000E+00 0.  1.
<mgrwt>
<rscale>  0 0.18505770E+04</rscale>
<asrwt>0</asrwt>
<pdfrwt beam="1">  1        1 0.14606296E+00 0.18505770E+04</pdfrwt>
<pdfrwt beam="2">  1       -2 0.13873547E+00 0.18505770E+04</pdfrwt>
<totfact> 0.50240968E+00</totfact>
</mgrwt>
</event>
<event>
12    5  0.5297412E-008  0.3215742E+04  0.7818608E-02  0.8184672E-01
          1   -1    0    0  501    0  0.00000000000E+00  0.00000000000E+00  0.18280697859E+04  0.18280697859E+04  0.00000000000E+00 0. -1.
         -2   -1    0    0    0  501 -0.00000000000E+00 -0.00000000000E+00 -0.14141964494E+04  0.14141964494E+04  0.00000000000E+00 0.  1.
        -24    2    1    2    0    0 -0.34906336561E+03 -0.11659115570E+04  0.10460352943E+04  0.16067875514E+04  0.79883704644E+02 0.  0.
        254    2    1    2    0    0  0.34906336561E+03  0.11659115570E+04 -0.63216195782E+03  0.16354786839E+04  0.89104814278E+03 0.  0.
         23    2    4    4    0    0  0.49521933298E+03  0.22595138031E+03 -0.21299293159E+03  0.59213932727E+03  0.94693083021E+02 0.  0.
         23    2    4    4    0    0 -0.14615596736E+03  0.93996017669E+03 -0.41916902623E+03  0.10433393567E+04  0.89261638311E+02 0.  0.
          1    1    3    3  502    0 -0.30924285397E+03 -0.10591836630E+04  0.91741311062E+03  0.14349731671E+04  0.00000000000E+00 0. -1.
         -2    1    3    3    0  502 -0.39820511637E+02 -0.10672789404E+03  0.12862218373E+03  0.17181438432E+03  0.00000000000E+00 0.  1.
         13    1    5    5    0    0  0.99026435433E+02  0.50479013935E+02 -0.44094080313E+01  0.11123762242E+03  0.00000000000E+00 0.  1.
        -13    1    5    5    0    0  0.39619289754E+03  0.17547236638E+03 -0.20858352356E+03  0.48090170485E+03  0.00000000000E+00 0. -1.
          1    1    6    6  503    0 -0.13013028643E+03  0.62091453687E+03 -0.30688945770E+03  0.70473391631E+03  0.00000000000E+00 0. -1.
         -1    1    6    6    0  503 -0.16025680934E+02  0.31904563982E+03 -0.11227956852E+03  0.33860544037E+03  0.00000000000E+00 0.  1.
<mgrwt>
<rscale>  0 0.32157424E+04</rscale>
<asrwt>0</asrwt>
<pdfrwt beam="1">  1        1 0.28124151E+00 0.32157424E+04</pdfrwt>
<pdfrwt beam="2">  1       -2 0.21756868E+00 0.32157424E+04</pdfrwt>
<totfact> 0.29324591E-01</totfact>
</mgrwt>
</event>
<event>
12    5  0.5297412E-008  0.1421032E+04  0.7818608E-02  0.8938733E-01
         -2   -1    0    0    0  501 -0.00000000000E+00  0.00000000000E+00  0.18325790881E+03  0.18325790881E+03  0.00000000000E+00 0.  1.
          1   -1    0    0  501    0  0.00000000000E+00 -0.00000000000E+00 -0.27547697171E+04  0.27547697171E+04  0.00000000000E+00 0. -1.
        -24    2    1    2    0    0  0.93882221419E+02  0.31009050703E+03 -0.19227862531E+03  0.38511645219E+03  0.79834941881E+02 0.  0.
        254    2    1    2    0    0 -0.93882221419E+02 -0.31009050703E+03 -0.23792331830E+04  0.25529111737E+04  0.86696881599E+03 0.  0.
         23    2    4    4    0    0  0.21647033296E+03  0.74517022025E+02 -0.16462838440E+04  0.16646533454E+04  0.91695549735E+02 0.  0.
         23    2    4    4    0    0 -0.31035255438E+03 -0.38460752905E+03 -0.73294933901E+03  0.88825782832E+03  0.86865278451E+02 0.  0.
          3    1    3    3  502    0  0.18054807628E+02  0.49409823136E+02 -0.69486402381E+02  0.87153122817E+02  0.00000000000E+00 0. -1.
         -4    1    3    3    0  502  0.75827413791E+02  0.26068068389E+03 -0.12279222293E+03  0.29796332937E+03  0.00000000000E+00 0.  1.
         13    1    5    5    0    0  0.95595029636E+02 -0.94294422960E+01 -0.78950396031E+03  0.79532623961E+03  0.00000000000E+00 0.  1.
        -13    1    5    5    0    0  0.12087530332E+03  0.83946464321E+02 -0.85677988366E+03  0.86932710579E+03  0.00000000000E+00 0. -1.
          1    1    6    6  503    0 -0.22852924001E+02 -0.57535989030E+02 -0.13526491584E+03  0.14875901192E+03  0.00000000000E+00 0. -1.
         -1    1    6    6    0  503 -0.28749963038E+03 -0.32707154002E+03 -0.59768442317E+03  0.73949881640E+03  0.00000000000E+00 0.  1.
<mgrwt>
<rscale>  0 0.14210325E+04</rscale>
<asrwt>0</asrwt>
<pdfrwt beam="1">  1        1 0.42381068E+00 0.14210325E+04</pdfrwt>
<pdfrwt beam="2">  1       -2 0.28193528E-01 0.14210325E+04</pdfrwt>
<totfact> 0.88762235E+00</totfact>
</mgrwt>
</event>
<event>
12    5  0.5297412E-008  0.2229856E+04  0.7818608E-02  0.8506103E-01
         -2   -1    0    0    0  501 -0.00000000000E+00  0.00000000000E+00  0.66937521254E+03  0.66937521254E+03  0.00000000000E+00 0.  1.
          1   -1    0    0  501    0  0.00000000000E+00 -0.00000000000E+00 -0.18570516614E+04  0.18570516614E+04  0.00000000000E+00 0. -1.
        -24    2    1    2    0    0  0.76875552284E+02 -0.47239361717E+03  0.40817938465E+03  0.63391430678E+03  0.78557992628E+02 0.  0.
        254    2    1    2    0    0 -0.76875552284E+02  0.47239361717E+03 -0.15958558335E+04  0.18925125672E+04  0.89765382830E+03 0.  0.
         23    2    4    4    0    0 -0.13455951764E+03  0.68064997584E+03 -0.80295482947E+03  0.10651205925E+04  0.91404404027E+02 0.  0.
         23    2    4    4    0    0  0.57683965355E+02 -0.20825635868E+03 -0.79290100406E+03  0.82739197465E+03  0.95850543481E+02 0.  0.
          1    1    3    3  502    0  0.36160165834E+02 -0.61159643408E+02  0.48092264379E+02  0.85795835960E+02  0.00000000000E+00 0. -1.
         -2    1    3    3    0  502  0.40715386450E+02 -0.41123397376E+03  0.36008712027E+03  0.54811847082E+03  0.00000000000E+00 0.  1.
         13    1    5    5    0    0 -0.74766843356E+01  0.65673918610E+00 -0.13642338093E+02  0.15570661632E+02  0.00000000000E+00 0.  1.
        -13    1    5    5    0    0 -0.12708283330E+03  0.67999323666E+03 -0.78931249138E+03  0.10495499309E+04  0.00000000000E+00 0. -1.
          4    1    6    6  503    0  0.75009380519E+02 -0.19355862002E+03 -0.75665928631E+03  0.78461750051E+03  0.00000000000E+00 0. -1.
         -4    1    6    6    0  503 -0.17325415164E+02 -0.14697738659E+02 -0.36241717751E+02  0.42774474139E+02  0.00000000000E+00 0.  1.
<mgrwt>
<rscale>  0 0.22298559E+04</rscale>
<asrwt>0</asrwt>
<pdfrwt beam="1">  1        1 0.28570026E+00 0.22298559E+04</pdfrwt>
<pdfrwt beam="2">  1       -2 0.10298080E+00 0.22298559E+04</pdfrwt>
<totfact> 0.22919041E+00</totfact>
</mgrwt>
</event>
<event>
12    5  0.5297412E-008  0.1431355E+04  0.7818608E-02  0.8931430E-01
          1   -1    0    0  501    0  0.00000000000E+00  0.00000000000E+00  0.19643158142E+04  0.19643158142E+04  0.00000000000E+00 0. -1.
         -2   -1    0    0    0  501 -0.00000000000E+00 -0.00000000000E+00 -0.26074935160E+03  0.26074935160E+03  0.00000000000E+00 0.  1.
        -24    2    1    2    0    0 -0.16745658757E+03 -0.11293811549E+03  0.97273943388E+03  0.99666401359E+03  0.79501088739E+02 0.  0.
        254    2    1    2    0    0  0.16745658757E+03  0.11293811549E+03  0.73082702874E+03  0.12284011522E+04  0.96647013311E+03 0.  0.
         23    2    4    4    0    0 -0.17536858028E+01  0.50818053432E+03  0.54627796496E+03  0.75161151916E+03  0.90828023542E+02 0.  0.
         23    2    4    4    0    0  0.16921027337E+03 -0.39524241882E+03  0.18454906378E+03  0.47678963306E+03  0.91767701291E+02 0.  0.
          3    1    3    3  502    0 -0.11720529125E+03 -0.93018797854E+02  0.53267848570E+03  0.55329553240E+03  0.00000000000E+00 0. -1.
         -4    1    3    3    0  502 -0.50251296325E+02 -0.19919317640E+02  0.44006094818E+03  0.44336848119E+03  0.00000000000E+00 0.  1.
         13    1    5    5    0    0  0.17796667436E+02  0.53032416782E+02  0.95764401560E+02  0.11090527133E+03  0.00000000000E+00 0. -1.
        -13    1    5    5    0    0 -0.19550353239E+02  0.45514811753E+03  0.45051356340E+03  0.64070624784E+03  0.00000000000E+00 0.  1.
          3    1    6    6  503    0  0.12436203937E+02 -0.10773529834E+03  0.73456098645E+02  0.13098607600E+03  0.00000000000E+00 0. -1.
         -3    1    6    6    0  503  0.15677406944E+03 -0.28750712048E+03  0.11109296514E+03  0.34580355706E+03  0.00000000000E+00 0.  1.
<mgrwt>
<rscale>  0 0.14313547E+04</rscale>
<asrwt>0</asrwt>
<pdfrwt beam="1">  1        1 0.30220242E+00 0.14313547E+04</pdfrwt>
<pdfrwt beam="2">  1       -2 0.40115286E-01 0.14313547E+04</pdfrwt>
<totfact> 0.15833780E+01</totfact>
</mgrwt>
</event>
<event>
12    5  0.5297412E-008  0.1027371E+04  0.7818608E-02  0.9279023E-01
          1   -1    0    0  501    0  0.00000000000E+00  0.00000000000E+00  0.22666940441E+04  0.22666940441E+04  0.00000000000E+00 0. -1.
         -2   -1    0    0    0  501 -0.00000000000E+00 -0.00000000000E+00 -0.11641316355E+03  0.11641316355E+03  0.00000000000E+00 0.  1.
        -24    2    1    2    0    0 -0.35886173173E+02  0.40928707713E+02  0.71088348263E+02  0.11996397570E+03  0.79842505397E+02 0.  0.
        254    2    1    2    0    0  0.35886173173E+02 -0.40928707713E+02  0.20791925323E+04  0.22631432320E+04  0.89208336237E+03 0.  0.
         23    2    4    4    0    0  0.40177015497E+03  0.10906414974E+03  0.14752809145E+04  0.15356231353E+04  0.91489838416E+02 0.  0.
         23    2    4    4    0    0 -0.36588398180E+03 -0.14999285745E+03  0.60391161776E+03  0.72752009670E+03  0.90594169865E+02 0.  0.
          3    1    3    3  502    0  0.21790355856E+02  0.22979387533E+02  0.42855767964E+02  0.53286853045E+02  0.00000000000E+00 0. -1.
         -4    1    3    3    0  502 -0.57676529029E+02  0.17949320180E+02  0.28232580299E+02  0.66677122659E+02  0.00000000000E+00 0.  1.
         13    1    5    5    0    0  0.19915435674E+03  0.97073563099E+02  0.83854121894E+03  0.86731603832E+03  0.00000000000E+00 0. -1.
        -13    1    5    5    0    0  0.20261579823E+03  0.11990586636E+02  0.63673969560E+03  0.66830709694E+03  0.00000000000E+00 0.  1.
          2    1    6    6  503    0 -0.17570080192E+03 -0.79149363362E+02  0.21417692129E+03  0.28810960958E+03  0.00000000000E+00 0. -1.
         -2    1    6    6    0  503 -0.19018317988E+03 -0.70843494086E+02  0.38973469646E+03  0.43941048712E+03  0.00000000000E+00 0.  1.
<mgrwt>
<rscale>  0 0.10273715E+04</rscale>
<asrwt>0</asrwt>
<pdfrwt beam="1">  1        1 0.34872213E+00 0.10273715E+04</pdfrwt>
<pdfrwt beam="2">  1       -2 0.17909719E-01 0.10273715E+04</pdfrwt>
<totfact> 0.45019632E+01</totfact>
</mgrwt>
</event>
<event>
12    5  0.5297412E-008  0.1870880E+04  0.7818608E-02  0.8669488E-01
         -2   -1    0    0    0  501 -0.00000000000E+00  0.00000000000E+00  0.38845875447E+03  0.38845875447E+03  0.00000000000E+00 0.  1.
          1   -1    0    0  501    0  0.00000000000E+00 -0.00000000000E+00 -0.22526153667E+04  0.22526153667E+04  0.00000000000E+00 0. -1.
        -24    2    1    2    0    0  0.63805781525E+03  0.30433346010E+03 -0.68007944579E+03  0.98426924647E+03  0.80878096006E+02 0.  0.
        254    2    1    2    0    0 -0.63805781525E+03 -0.30433346010E+03 -0.11840771664E+04  0.16568048747E+04  0.91827393853E+03 0.  0.
         23    2    4    4    0    0 -0.13996206970E+03  0.11070023907E+03  0.93710829640E+02  0.22112666995E+03  0.90947021329E+02 0.  0.
         23    2    4    4    0    0 -0.49809574556E+03 -0.41503369917E+03 -0.12777879961E+04  0.14356782047E+04  0.89874364867E+02 0.  0.
          3    1    3    3  502    0  0.22981016905E+03  0.12150253159E+03 -0.19915349826E+03  0.32747167030E+03  0.00000000000E+00 0. -1.
         -4    1    3    3    0  502  0.40824764621E+03  0.18283092851E+03 -0.48092594752E+03  0.65679757617E+03  0.00000000000E+00 0.  1.
         13    1    5    5    0    0 -0.13593864958E+03  0.90580097371E+02  0.10826288834E+03  0.19597174153E+03  0.00000000000E+00 0. -1.
        -13    1    5    5    0    0 -0.40234201171E+01  0.20120141701E+02 -0.14552058696E+02  0.25154928419E+02  0.00000000000E+00 0.  1.
          1    1    6    6  503    0 -0.48548682628E+03 -0.39589225692E+03 -0.12582173430E+04  0.14055386938E+04  0.00000000000E+00 0. -1.
         -1    1    6    6    0  503 -0.12608919278E+02 -0.19141442251E+02 -0.19570653055E+02  0.30139510908E+02  0.00000000000E+00 0.  1.
<mgrwt>
<rscale>  0 0.18708802E+04</rscale>
<asrwt>0</asrwt>
<pdfrwt beam="1">  1        1 0.34655620E+00 0.18708802E+04</pdfrwt>
<pdfrwt beam="2">  1       -2 0.59762886E-01 0.18708802E+04</pdfrwt>
<totfact> 0.43161356E+00</totfact>
</mgrwt>
</event>
<event>
12    5  0.5297412E-008  0.1501135E+04  0.7818608E-02  0.8883698E-01
          1   -1    0    0  501    0  0.00000000000E+00  0.00000000000E+00  0.74005922979E+03  0.74005922979E+03  0.00000000000E+00 0. -1.
         -2   -1    0    0    0  501 -0.00000000000E+00 -0.00000000000E+00 -0.76122500033E+03  0.76122500033E+03  0.00000000000E+00 0.  1.
        -24    2    1    2    0    0  0.42669214480E+03 -0.93110742577E+02 -0.19059150933E+03  0.48346011763E+03  0.81686994645E+02 0.  0.
        254    2    1    2    0    0 -0.42669214480E+03  0.93110742577E+02  0.16942573878E+03  0.10178241125E+04  0.90361775446E+03 0.  0.
         23    2    4    4    0    0  0.13528023918E+02  0.18701399333E+03  0.43839292425E+03  0.48536083681E+03  0.90716838297E+02 0.  0.
         23    2    4    4    0    0 -0.44022016872E+03 -0.93903250751E+02 -0.26896718547E+03  0.53246327567E+03  0.92532024864E+02 0.  0.
          1    1    3    3  502    0  0.12611761803E+03 -0.24597113527E+02 -0.16865727856E+02  0.12959600437E+03  0.00000000000E+00 0. -1.
         -2    1    3    3    0  502  0.30057452677E+03 -0.68513629051E+02 -0.17372578147E+03  0.35386411326E+03  0.00000000000E+00 0.  1.
         13    1    5    5    0    0 -0.15641855045E+02  0.91909988795E+02  0.30518419173E+03  0.31910735584E+03  0.00000000000E+00 0. -1.
        -13    1    5    5    0    0  0.29169878963E+02  0.95104004533E+02  0.13320873252E+03  0.16625348098E+03  0.00000000000E+00 0.  1.
          3    1    6    6  503    0 -0.29924062920E+03 -0.28651710779E+02 -0.20812691522E+03  0.36562643166E+03  0.00000000000E+00 0. -1.
         -3    1    6    6    0  503 -0.14097953953E+03 -0.65251539971E+02 -0.60840270249E+02  0.16683684400E+03  0.00000000000E+00 0.  1.
<mgrwt>
<rscale>  0 0.15011350E+04</rscale>
<asrwt>0</asrwt>
<pdfrwt beam="1">  1        1 0.11385527E+00 0.15011350E+04</pdfrwt>
<pdfrwt beam="2">  1       -2 0.11711154E+00 0.15011350E+04</pdfrwt>
<totfact> 0.11945092E+01</totfact>
</mgrwt>
</event>
<event>
12    5  0.5297412E-008  0.2140082E+04  0.7818608E-02  0.8543790E-01
          1   -1    0    0  501    0  0.00000000000E+00  0.00000000000E+00  0.11540446362E+04  0.11540446362E+04  0.00000000000E+00 0. -1.
         -2   -1    0    0    0  501 -0.00000000000E+00 -0.00000000000E+00 -0.99215171346E+03  0.99215171346E+03  0.00000000000E+00 0.  1.
        -24    2    1    2    0    0  0.78854202848E+03  0.24504611644E+01 -0.32421173449E+03  0.85579355527E+03  0.73924454749E+02 0.  0.
        254    2    1    2    0    0 -0.78854202848E+03 -0.24504611644E+01  0.48610465724E+03  0.12904027944E+04  0.89835243559E+03 0.  0.
         23    2    4    4    0    0 -0.66035969766E+03  0.36597431853E+03  0.16783638126E+03  0.77872588394E+03  0.90734884851E+02 0.  0.
         23    2    4    4    0    0 -0.12818233082E+03 -0.36842477969E+03  0.31826827599E+03  0.51167691045E+03  0.91384008244E+02 0.  0.
          1    1    3    3  502    0  0.34643364013E+02 -0.23296046713E+01 -0.32038729897E+02  0.47244787453E+02  0.00000000000E+00 0. -1.
         -2    1    3    3    0  502  0.75389866447E+03  0.47800658357E+01 -0.29217300460E+03  0.80854876782E+03  0.00000000000E+00 0.  1.
         13    1    5    5    0    0 -0.65689508540E+03  0.37048537787E+03  0.16911161220E+03  0.77289669802E+03  0.00000000000E+00 0. -1.
        -13    1    5    5    0    0 -0.34646122674E+01 -0.45110593403E+01 -0.12752309453E+01  0.58291859208E+01  0.00000000000E+00 0.  1.
          2    1    6    6  503    0 -0.68663121994E+02 -0.23364976781E+03  0.25096362434E+03  0.34969926946E+03  0.00000000000E+00 0. -1.
         -2    1    6    6    0  503 -0.59519208826E+02 -0.13477501189E+03  0.67304651649E+02  0.16197764099E+03  0.00000000000E+00 0.  1.
<mgrwt>
<rscale>  0 0.21400816E+04</rscale>
<asrwt>0</asrwt>
<pdfrwt beam="1">  1        1 0.17754533E+00 0.21400816E+04</pdfrwt>
<pdfrwt beam="2">  1       -2 0.15263873E+00 0.21400816E+04</pdfrwt>
<totfact> 0.26562376E+00</totfact>
</mgrwt>
</event>
<event>
12    5  0.5297412E-008  0.2788570E+04  0.7818608E-02  0.8306826E-01
         -2   -1    0    0    0  501 -0.00000000000E+00  0.00000000000E+00  0.72140282518E+03  0.72140282518E+03  0.00000000000E+00 0.  1.
          1   -1    0    0  501    0  0.00000000000E+00 -0.00000000000E+00 -0.26947926052E+04  0.26947926052E+04  0.00000000000E+00 0. -1.
        -24    2    1    2    0    0  0.61413085770E+03 -0.72057059200E+03  0.15661490852E+03  0.96322211753E+03  0.83005600380E+02 0.  0.
        254    2    1    2    0    0 -0.61413085770E+03  0.72057059200E+03 -0.21300046885E+04  0.24529733128E+04  0.76405458704E+03 0.  0.
         23    2    4    4    0    0  0.35839472873E+02  0.48067332648E+03 -0.63260497497E+03  0.80062342519E+03  0.92073340319E+02 0.  0.
         23    2    4    4    0    0 -0.64997033057E+03  0.23989726552E+03 -0.14973997135E+04  0.16523498876E+04  0.89677870588E+02 0.  0.
          1    1    3    3  502    0  0.17570684569E+02 -0.48126649253E+02  0.35230706889E+01  0.51354798720E+02  0.00000000000E+00 0. -1.
         -2    1    3    3    0  502  0.59656017313E+03 -0.67244394275E+03  0.15309183783E+03  0.91186731881E+03  0.00000000000E+00 0.  1.
         13    1    5    5    0    0  0.48958320732E+02  0.33905891528E+03 -0.50050634648E+03  0.60651831635E+03  0.00000000000E+00 0. -1.
        -13    1    5    5    0    0 -0.13118847859E+02  0.14161441120E+03 -0.13209862849E+03  0.19410510884E+03  0.00000000000E+00 0.  1.
          1    1    6    6  503    0 -0.62548589814E+03  0.21600367489E+03 -0.13869641911E+04  0.15367367581E+04  0.00000000000E+00 0. -1.
         -1    1    6    6    0  503 -0.24484432435E+02  0.23893590627E+02 -0.11043552245E+03  0.11561312954E+03  0.00000000000E+00 0.  1.
<mgrwt>
<rscale>  0 0.27885702E+04</rscale>
<asrwt>0</asrwt>
<pdfrwt beam="1">  1        1 0.41458348E+00 0.27885702E+04</pdfrwt>
<pdfrwt beam="2">  1       -2 0.11098505E+00 0.27885702E+04</pdfrwt>
<totfact> 0.48486740E-01</totfact>
</mgrwt>
</event>
<event>
12    5  0.5297412E-008  0.1844805E+04  0.7818608E-02  0.8682829E-01
         -2   -1    0    0    0  501 -0.00000000000E+00  0.00000000000E+00  0.45931815017E+03  0.45931815017E+03  0.00000000000E+00 0.  1.
          1   -1    0    0  501    0  0.00000000000E+00 -0.00000000000E+00 -0.18523682978E+04  0.18523682978E+04  0.00000000000E+00 0. -1.
        -24    2    1    2    0    0  0.12899453329E+03 -0.68691548690E+03 -0.48716788248E+03  0.85554926056E+03  0.78355062197E+02 0.  0.
        254    2    1    2    0    0 -0.12899453329E+03  0.68691548690E+03 -0.90588226518E+03  0.14561371874E+04  0.90067771957E+03 0.  0.
         23    2    4    4    0    0  0.83308113058E+02  0.77101194174E+03 -0.92472426956E+03  0.12095092996E+04  0.79988218885E+02 0.  0.
         23    2    4    4    0    0 -0.21230264635E+03 -0.84096454840E+02  0.18842004384E+02  0.24662788782E+03  0.91245090597E+02 0.  0.
          3    1    3    3  502    0  0.91197377772E+02 -0.56431191497E+03 -0.36392639405E+03  0.67764837443E+03  0.00000000000E+00 0. -1.
         -4    1    3    3    0  502  0.37797155517E+02 -0.12260357193E+03 -0.12324148843E+03  0.17790088613E+03  0.00000000000E+00 0.  1.
         13    1    5    5    0    0  0.60607223369E+02  0.25431920257E+03 -0.28221907353E+03  0.38470650864E+03  0.00000000000E+00 0.  1.
        -13    1    5    5    0    0  0.22700889689E+02  0.51669273916E+03 -0.64250519603E+03  0.82480279099E+03  0.00000000000E+00 0. -1.
          4    1    6    6  503    0 -0.38927204820E+01 -0.10610246216E+02  0.22973556863E+02  0.25603025455E+02  0.00000000000E+00 0. -1.
         -4    1    6    6    0  503 -0.20840992587E+03 -0.73486208624E+02 -0.41315524792E+01  0.22102486236E+03  0.00000000000E+00 0.  1.
<mgrwt>
<rscale>  0 0.18448050E+04</rscale>
<asrwt>0</asrwt>
<pdfrwt beam="1">  1        1 0.28497974E+00 0.18448050E+04</pdfrwt>
<pdfrwt beam="2">  1       -2 0.70664330E-01 0.18448050E+04</pdfrwt>
<totfact> 0.56406058E+00</totfact>
</mgrwt>
</event>
<event>
12    5  0.5297412E-008  0.1982251E+04  0.7818608E-02  0.8614964E-01
         -4   -1    0    0    0  501 -0.00000000000E+00  0.00000000000E+00  0.18343415916E+04  0.18343415916E+04  0.00000000000E+00 0.  1.
          1   -1    0    0  501    0  0.00000000000E+00 -0.00000000000E+00 -0.53552160463E+03  0.53552160463E+03  0.00000000000E+00 0. -1.
        -24    2    1    2    0    0 -0.98199114186E+02  0.35903021002E+03 -0.29984698171E+03  0.48452617938E+03  0.79445883050E+02 0.  0.
        254    2    1    2    0    0  0.98199114186E+02 -0.35903021002E+03  0.15986669687E+04  0.18853370169E+04  0.92747713320E+03 0.  0.
         23    2    4    4    0    0  0.28737957471E+03 -0.51184618109E+03  0.56690891229E+03  0.82115031921E+03  0.91261157344E+02 0.  0.
         23    2    4    4    0    0 -0.18918046052E+03  0.15281597106E+03  0.10317580564E+04  0.10641866977E+04  0.93950374433E+02 0.  0.
          1    1    3    3  502    0 -0.66597695298E+02  0.18484609537E+03 -0.20394586390E+03  0.28319118523E+03  0.00000000000E+00 0. -1.
         -4    1    3    3    0  502 -0.31601418889E+02  0.17418411465E+03 -0.95901117810E+02  0.20133499415E+03  0.00000000000E+00 0.  1.
         13    1    5    5    0    0  0.26458380011E+03 -0.50000979571E+03  0.52375319143E+03  0.77092917225E+03  0.00000000000E+00 0.  1.
        -13    1    5    5    0    0  0.22795774605E+02 -0.11836385372E+02  0.43155720864E+02  0.50221146958E+02  0.00000000000E+00 0. -1.
          1    1    6    6  503    0 -0.80430909242E+02  0.98533260023E+01  0.33064162677E+03  0.34042635701E+03  0.00000000000E+00 0. -1.
         -1    1    6    6    0  503 -0.10874955128E+03  0.14296264506E+03  0.70111642964E+03  0.72376034065E+03  0.00000000000E+00 0.  1.
<mgrwt>
<rscale>  0 0.19822508E+04</rscale>
<asrwt>0</asrwt>
<pdfrwt beam="1">  1        1 0.82387940E-01 0.19822508E+04</pdfrwt>
<pdfrwt beam="2">  1       -4 0.28220640E+00 0.19822508E+04</pdfrwt>
<totfact> 0.71246303E-01</totfact>
</mgrwt>
</event>
<event>
12    5  0.5297412E-008  0.1456299E+04  0.7818608E-02  0.8914045E-01
         -2   -1    0    0    0  501 -0.00000000000E+00  0.00000000000E+00  0.62034454948E+03  0.62034454948E+03  0.00000000000E+00 0.  1.
          1   -1    0    0  501    0  0.00000000000E+00 -0.00000000000E+00 -0.85468937488E+03  0.85468937488E+03  0.00000000000E+00 0. -1.
        -24    2    1    2    0    0 -0.36625229858E+03  0.13911578278E+03 -0.30924014870E+03  0.50533024516E+03  0.78963535088E+02 0.  0.
        254    2    1    2    0    0  0.36625229858E+03 -0.13911578278E+03  0.74895323295E+02  0.96970367920E+03  0.88386761949E+03 0.  0.
         23    2    4    4    0    0 -0.11876645886E+03  0.21454215306E+03 -0.17322381062E+03  0.31375098748E+03  0.91100968122E+02 0.  0.
         23    2    4    4    0    0  0.48501875744E+03 -0.35365793584E+03  0.24811913391E+03  0.65595269172E+03  0.91617130017E+02 0.  0.
          1    1    3    3  502    0 -0.88865594794E+02  0.48532645723E+02 -0.41910489444E+02  0.10958558648E+03  0.00000000000E+00 0. -1.
         -2    1    3    3    0  502 -0.27738670378E+03  0.90583137057E+02 -0.26732965926E+03  0.39574465868E+03  0.00000000000E+00 0.  1.
         13    1    5    5    0    0 -0.57956850949E+02  0.38338194073E+02 -0.77898749861E+02  0.10438883526E+03  0.00000000000E+00 0. -1.
        -13    1    5    5    0    0 -0.60809607915E+02  0.17620395898E+03 -0.95325060758E+02  0.20936215223E+03  0.00000000000E+00 0.  1.
          3    1    6    6  503    0  0.30238439848E+01  0.51087649529E+01  0.15619672334E+00  0.59386454015E+01  0.00000000000E+00 0. -1.
         -3    1    6    6    0  503  0.48199491345E+03 -0.35876670079E+03  0.24796293719E+03  0.65001404632E+03  0.00000000000E+00 0.  1.
<mgrwt>
<rscale>  0 0.14562993E+04</rscale>
<asrwt>0</asrwt>
<pdfrwt beam="1">  1        1 0.13149067E+00 0.14562993E+04</pdfrwt>
<pdfrwt beam="2">  1       -2 0.95437623E-01 0.14562993E+04</pdfrwt>
<totfact> 0.15565893E+01</totfact>
</mgrwt>
</event>
<event>
12    5  0.5297412E-008  0.1176112E+04  0.7818608E-02  0.9134027E-01
         -2   -1    0    0    0  501 -0.00000000000E+00  0.00000000000E+00  0.17529302759E+04  0.17529302759E+04  0.00000000000E+00 0.  1.
          1   -1    0    0  501    0  0.00000000000E+00 -0.00000000000E+00 -0.19727516350E+03  0.19727516350E+03  0.00000000000E+00 0. -1.
        -24    2    1    2    0    0  0.16819193763E+03  0.12026932157E+02  0.62091196711E+03  0.64837226277E+03  0.80135792544E+02 0.  0.
        254    2    1    2    0    0 -0.16819193763E+03 -0.12026932157E+02  0.93474314529E+03  0.13018331766E+04  0.89027619148E+03 0.  0.
         23    2    4    4    0    0 -0.42350248542E+03  0.25975910499E+03  0.65969903283E+03  0.83106915471E+03  0.92972997237E+02 0.  0.
         23    2    4    4    0    0  0.25531054779E+03 -0.27178603715E+03  0.27504411245E+03  0.47076402191E+03  0.83176767937E+02 0.  0.
          3    1    3    3  502    0  0.33993177412E+02  0.33683608108E+02  0.11604200790E+03  0.12552238511E+03  0.00000000000E+00 0. -1.
         -4    1    3    3    0  502  0.13419876022E+03 -0.21656675951E+02  0.50486995920E+03  0.52284987765E+03  0.00000000000E+00 0.  1.
         13    1    5    5    0    0 -0.26477309469E+03  0.18709789804E+03  0.36196473043E+03  0.48593094283E+03  0.00000000000E+00 0.  1.
        -13    1    5    5    0    0 -0.15872939073E+03  0.72661206952E+02  0.29773430240E+03  0.34513821189E+03  0.00000000000E+00 0. -1.
          1    1    6    6  503    0  0.23134972967E+03 -0.20619425590E+03  0.20322953632E+03  0.37059548434E+03  0.00000000000E+00 0. -1.
         -1    1    6    6    0  503  0.23960818127E+02 -0.65591781251E+02  0.71814576131E+02  0.10016853757E+03  0.00000000000E+00 0.  1.
<mgrwt>
<rscale>  0 0.11761116E+04</rscale>
<asrwt>0</asrwt>
<pdfrwt beam="1">  1        1 0.30350026E-01 0.11761116E+04</pdfrwt>
<pdfrwt beam="2">  1       -2 0.26968157E+00 0.11761116E+04</pdfrwt>
<totfact> 0.64045431E+00</totfact>
</mgrwt>
</event>
<event>
12    5  0.5297412E-008  0.1906384E+04  0.7818608E-02  0.8651685E-01
         -2   -1    0    0    0  501 -0.00000000000E+00  0.00000000000E+00  0.89893262017E+03  0.89893262017E+03  0.00000000000E+00 0.  1.
          1   -1    0    0  501    0  0.00000000000E+00 -0.00000000000E+00 -0.10107262697E+04  0.10107262697E+04  0.00000000000E+00 0. -1.
        -24    2    1    2    0    0 -0.10301469434E+03  0.68503943361E+03 -0.29341321880E+03  0.75649015673E+03  0.79340956738E+02 0.  0.
        254    2    1    2    0    0  0.10301469434E+03 -0.68503943361E+03  0.18161956925E+03  0.11531687332E+04  0.90383704635E+03 0.  0.
         23    2    4    4    0    0 -0.74857004173E+02 -0.58165063393E+03 -0.26704129777E+03  0.65085321066E+03  0.91530410669E+02 0.  0.
         23    2    4    4    0    0  0.17787169851E+03 -0.10338879967E+03  0.44866086702E+03  0.50231552250E+03  0.93256235841E+02 0.  0.
          1    1    3    3  502    0 -0.65635964468E+02  0.40992020159E+03 -0.21742625587E+03  0.46863293551E+03  0.00000000000E+00 0. -1.
         -2    1    3    3    0  502 -0.37378729870E+02  0.27511923202E+03 -0.75986962929E+02  0.28785722122E+03  0.00000000000E+00 0.  1.
         13    1    5    5    0    0 -0.95403700331E+02 -0.43448112381E+03 -0.19451009006E+03  0.48549962731E+03  0.00000000000E+00 0. -1.
        -13    1    5    5    0    0  0.20546696159E+02 -0.14716951013E+03 -0.72531207714E+02  0.16535358335E+03  0.00000000000E+00 0.  1.
          4    1    6    6  503    0  0.18608779459E+03 -0.90524802521E+02  0.38767926489E+03  0.43945263635E+03  0.00000000000E+00 0. -1.
         -4    1    6    6    0  503 -0.82160960784E+01 -0.12863997152E+02  0.60981602132E+02  0.62862886158E+02  0.00000000000E+00 0.  1.
<mgrwt>
<rscale>  0 0.19063838E+04</rscale>
<asrwt>0</asrwt>
<pdfrwt beam="1">  1        1 0.15549635E+00 0.19063838E+04</pdfrwt>
<pdfrwt beam="2">  1       -2 0.13829733E+00 0.19063838E+04</pdfrwt>
<totfact> 0.45106917E+00</totfact>
</mgrwt>
</event>
<event>
12    5  0.5297412E-008  0.1635114E+04  0.7818608E-02  0.8799262E-01
          1   -1    0    0  501    0  0.00000000000E+00  0.00000000000E+00  0.55021523621E+03  0.55021523621E+03  0.00000000000E+00 0. -1.
         -2   -1    0    0    0  501 -0.00000000000E+00 -0.00000000000E+00 -0.12147956811E+04  0.12147956811E+04  0.00000000000E+00 0.  1.
        -24    2    1    2    0    0  0.36764580624E+03  0.41501699064E+03 -0.35571318750E+03  0.66357565331E+03  0.79988965081E+02 0.  0.
        254    2    1    2    0    0 -0.36764580624E+03 -0.41501699064E+03 -0.30886725742E+03  0.11014352640E+04  0.90019893177E+03 0.  0.
         23    2    4    4    0    0 -0.57927064527E+03 -0.92283746482E+02 -0.37091657199E+03  0.70010339067E+03  0.92167694523E+02 0.  0.
         23    2    4    4    0    0  0.21162483903E+03 -0.32273324416E+03  0.62049314574E+02  0.40133187335E+03  0.90968872405E+02 0.  0.
          3    1    3    3  502    0  0.12781349980E+03  0.16029887390E+03 -0.17630462140E+03  0.27039848230E+03  0.00000000000E+00 0. -1.
         -4    1    3    3    0  502  0.23983230644E+03  0.25471811674E+03 -0.17940856609E+03  0.39317717100E+03  0.00000000000E+00 0.  1.
         13    1    5    5    0    0 -0.19758494084E+02 -0.15755399319E+02 -0.15616364222E+01  0.25319348421E+02  0.00000000000E+00 0.  1.
        -13    1    5    5    0    0 -0.55951215119E+03 -0.76528347163E+02 -0.36935493557E+03  0.67478404225E+03  0.00000000000E+00 0. -1.
          3    1    6    6  503    0  0.18550179200E+03 -0.31841989408E+03  0.66552764379E+02  0.37447485126E+03  0.00000000000E+00 0. -1.
         -3    1    6    6    0  503  0.26123047032E+02 -0.43133500751E+01 -0.45034498050E+01  0.26857022085E+02  0.00000000000E+00 0.  1.
<mgrwt>
<rscale>  0 0.16351136E+04</rscale>
<asrwt>0</asrwt>
<pdfrwt beam="1">  1        1 0.84648498E-01 0.16351136E+04</pdfrwt>
<pdfrwt beam="2">  1       -2 0.18689164E+00 0.16351136E+04</pdfrwt>
<totfact> 0.52747195E+00</totfact>
</mgrwt>
</event>
<event>
12    5  0.5297412E-008  0.2064963E+04  0.7818608E-02  0.8576836E-01
         -2   -1    0    0    0  501 -0.00000000000E+00  0.00000000000E+00  0.42690903802E+03  0.42690903802E+03  0.00000000000E+00 0.  1.
          1   -1    0    0  501    0  0.00000000000E+00 -0.00000000000E+00 -0.24970619397E+04  0.24970619397E+04  0.00000000000E+00 0. -1.
        -24    2    1    2    0    0 -0.47293744230E+03 -0.54750281710E+03 -0.25250598073E+03  0.77043267380E+03  0.79862854269E+02 0.  0.
        254    2    1    2    0    0  0.47293744230E+03  0.54750281710E+03 -0.18176469210E+04  0.21535383039E+04  0.90025426306E+03 0.  0.
         23    2    4    4    0    0  0.73730634772E+02  0.43240499065E+03 -0.21864264569E+03  0.49893337110E+03  0.93378904674E+02 0.  0.
         23    2    4    4    0    0  0.39920680753E+03  0.11509782645E+03 -0.15990042753E+04  0.16546049328E+04  0.91045189790E+02 0.  0.
          1    1    3    3  502    0 -0.47055209704E+03 -0.54967265544E+03 -0.24800525305E+03  0.76489601235E+03  0.00000000000E+00 0. -1.
         -2    1    3    3    0  502 -0.23853452627E+01  0.21698383330E+01 -0.45007276853E+01  0.55366614589E+01  0.00000000000E+00 0.  1.
         13    1    5    5    0    0 -0.14242368810E+02  0.12031757866E+03 -0.34182282659E+02  0.12588722434E+03  0.00000000000E+00 0. -1.
        -13    1    5    5    0    0  0.87973003583E+02  0.31208741199E+03 -0.18446036303E+03  0.37304614676E+03  0.00000000000E+00 0.  1.
          1    1    6    6  503    0  0.38802302493E+02 -0.68867898077E+01 -0.24526538391E+03  0.24841126202E+03  0.00000000000E+00 0. -1.
         -1    1    6    6    0  503  0.36040450504E+03  0.12198461626E+03 -0.13537388914E+04  0.14061936708E+04  0.00000000000E+00 0.  1.
<mgrwt>
<rscale>  0 0.20649633E+04</rscale>
<asrwt>0</asrwt>
<pdfrwt beam="1">  1        1 0.38416338E+00 0.20649633E+04</pdfrwt>
<pdfrwt beam="2">  1       -2 0.65678313E-01 0.20649633E+04</pdfrwt>
<totfact> 0.23557426E+00</totfact>
</mgrwt>
</event>
<event>
12    5  0.5297412E-008  0.2174425E+04  0.7818608E-02  0.8529149E-01
         -2   -1    0    0    0  501 -0.00000000000E+00  0.00000000000E+00  0.19920025140E+04  0.19920025140E+04  0.00000000000E+00 0.  1.
          3   -1    0    0  501    0  0.00000000000E+00 -0.00000000000E+00 -0.59338833892E+03  0.59338833892E+03  0.00000000000E+00 0. -1.
        -24    2    1    2    0    0 -0.64115263770E+03  0.60551468404E+03  0.37234988116E+03  0.96198174237E+03  0.95077343357E+02 0.  0.
        254    2    1    2    0    0  0.64115263770E+03 -0.60551468404E+03  0.10262642939E+04  0.16234091105E+04  0.89694704515E+03 0.  0.
         23    2    4    4    0    0  0.22656793872E+03 -0.18273428777E+03  0.97457161463E+03  0.10214517478E+04  0.94069071813E+02 0.  0.
         23    2    4    4    0    0  0.41458469899E+03 -0.42278039627E+03  0.51692679244E+02  0.60195736271E+03  0.95167207215E+02 0.  0.
          3    1    3    3  502    0 -0.45702352349E+03  0.37020964356E+03  0.25214162035E+03  0.63992271246E+03  0.00000000000E+00 0. -1.
         -4    1    3    3    0  502 -0.18412911422E+03  0.23530504049E+03  0.12020826081E+03  0.32205902991E+03  0.00000000000E+00 0.  1.
         13    1    5    5    0    0  0.79835312633E+02 -0.24899614953E+02  0.37824106140E+03  0.38737574588E+03  0.00000000000E+00 0. -1.
        -13    1    5    5    0    0  0.14673262608E+03 -0.15783467282E+03  0.59633055322E+03  0.63407600192E+03  0.00000000000E+00 0.  1.
          3    1    6    6  503    0  0.20351094099E+03 -0.24733827799E+03  0.66342609022E+02  0.32709978391E+03  0.00000000000E+00 0. -1.
         -3    1    6    6    0  503  0.21107375799E+03 -0.17544211828E+03 -0.14649929778E+02  0.27485757880E+03  0.00000000000E+00 0.  1.
<mgrwt>
<rscale>  0 0.21744250E+04</rscale>
<asrwt>0</asrwt>
<pdfrwt beam="1">  1        3 0.91290514E-01 0.21744250E+04</pdfrwt>
<pdfrwt beam="2">  1       -2 0.30646192E+00 0.21744250E+04</pdfrwt>
<totfact> 0.12021700E-01</totfact>
</mgrwt>
</event>
<event>
12    5  0.5297412E-008  0.2929903E+04  0.7818608E-02  0.8264036E-01
          1   -1    0    0  501    0  0.00000000000E+00  0.00000000000E+00  0.14189571677E+04  0.14189571677E+04  0.00000000000E+00 0. -1.
         -2   -1    0    0    0  501 -0.00000000000E+00 -0.00000000000E+00 -0.15124367516E+04  0.15124367516E+04  0.00000000000E+00 0.  1.
        -24    2    1    2    0    0 -0.61979010093E+03  0.57905048313E+03  0.97899418533E+03  0.12975119827E+04  0.75289435231E+02 0.  0.
        254    2    1    2    0    0  0.61979010093E+03 -0.57905048313E+03 -0.10724737692E+04  0.16338819366E+04  0.89438859895E+03 0.  0.
         23    2    4    4    0    0  0.57922229504E+03  0.38667527510E+02 -0.66359921798E+03  0.88657887315E+03  0.93083465038E+02 0.  0.
         23    2    4    4    0    0  0.40567805891E+02 -0.61771801064E+03 -0.40887455121E+03  0.74730306345E+03  0.89789656828E+02 0.  0.
          3    1    3    3  502    0 -0.38885936475E+03  0.39269201731E+03  0.68006190438E+03  0.87630064464E+03  0.00000000000E+00 0. -1.
         -4    1    3    3    0  502 -0.23093073617E+03  0.18635846582E+03  0.29893228095E+03  0.42121133803E+03  0.00000000000E+00 0.  1.
         13    1    5    5    0    0  0.40782179563E+03 -0.77017509030E+01 -0.49859352239E+03  0.64418431720E+03  0.00000000000E+00 0. -1.
        -13    1    5    5    0    0  0.17140049941E+03  0.46369278413E+02 -0.16500569559E+03  0.24239455595E+03  0.00000000000E+00 0.  1.
          2    1    6    6  503    0  0.78104764582E+01 -0.44769877042E+03 -0.25282946805E+03  0.51421584232E+03  0.00000000000E+00 0. -1.
         -2    1    6    6    0  503  0.32757329432E+02 -0.17001924022E+03 -0.15604508316E+03  0.23308722113E+03  0.00000000000E+00 0.  1.
<mgrwt>
<rscale>  0 0.29299030E+04</rscale>
<asrwt>0</asrwt>
<pdfrwt beam="1">  1        1 0.21830110E+00 0.29299030E+04</pdfrwt>
<pdfrwt beam="2">  1       -2 0.23268258E+00 0.29299030E+04</pdfrwt>
<totfact> 0.46079377E-01</totfact>
</mgrwt>
</event>
<event>
12    5  0.5297412E-008  0.1742210E+04  0.7818608E-02  0.8737650E-01
          1   -1    0    0  501    0  0.00000000000E+00  0.00000000000E+00  0.19682335340E+04  0.19682335340E+04  0.00000000000E+00 0. -1.
         -2   -1    0    0    0  501 -0.00000000000E+00 -0.00000000000E+00 -0.38553565313E+03  0.38553565313E+03  0.00000000000E+00 0.  1.
        -24    2    1    2    0    0  0.55699665660E+03  0.19948375770E+03  0.27114339195E+03  0.65714697054E+03  0.91018442310E+02 0.  0.
        254    2    1    2    0    0 -0.55699665660E+03 -0.19948375770E+03  0.13115544890E+04  0.16966222166E+04  0.89906213546E+03 0.  0.
         23    2    4    4    0    0 -0.63167160178E+03  0.17435446322E+03  0.64817804415E+03  0.92604744318E+03  0.89557795675E+02 0.  0.
         23    2    4    4    0    0  0.74674945176E+02 -0.37383822091E+03  0.66337644482E+03  0.77057477346E+03  0.91574074378E+02 0.  0.
          1    1    3    3  502    0  0.23058259558E+03  0.65008004224E+02  0.64567884658E+02  0.24811970040E+03  0.00000000000E+00 0. -1.
         -2    1    3    3    0  502  0.32641406103E+03  0.13447575347E+03  0.20657550729E+03  0.40902727014E+03  0.00000000000E+00 0.  1.
         13    1    5    5    0    0 -0.30497528226E+03  0.41334885650E+02  0.27823499565E+03  0.41488939293E+03  0.00000000000E+00 0. -1.
        -13    1    5    5    0    0 -0.32669631952E+03  0.13301957757E+03  0.36994304851E+03  0.51115805026E+03  0.00000000000E+00 0.  1.
          2    1    6    6  503    0  0.32886312182E+02 -0.32312624348E+03  0.52422141018E+03  0.61668481873E+03  0.00000000000E+00 0. -1.
         -2    1    6    6    0  503  0.41788632995E+02 -0.50711977432E+02  0.13915503463E+03  0.15388995473E+03  0.00000000000E+00 0.  1.
<mgrwt>
<rscale>  0 0.17422103E+04</rscale>
<asrwt>0</asrwt>
<pdfrwt beam="1">  1        1 0.30280515E+00 0.17422103E+04</pdfrwt>
<pdfrwt beam="2">  1       -2 0.59313178E-01 0.17422103E+04</pdfrwt>
<totfact> 0.69203560E+00</totfact>
</mgrwt>
</event>
<event>
12    5  0.5297412E-008  0.1363019E+04  0.7818608E-02  0.8981031E-01
         -2   -1    0    0    0  501 -0.00000000000E+00  0.00000000000E+00  0.17644798132E+03  0.17644798132E+03  0.00000000000E+00 0.  1.
          1   -1    0    0  501    0  0.00000000000E+00 -0.00000000000E+00 -0.26322515965E+04  0.26322515965E+04  0.00000000000E+00 0. -1.
        -24    2    1    2    0    0  0.10745234053E+03  0.32460377427E+03 -0.82993079912E+03  0.90090744117E+03  0.77042004673E+02 0.  0.
        254    2    1    2    0    0 -0.10745234053E+03 -0.32460377427E+03 -0.16258728161E+04  0.19077921367E+04  0.93770720743E+03 0.  0.
         23    2    4    4    0    0 -0.45960565027E+03 -0.40698312737E+03 -0.10958704163E+04  0.12596057815E+04  0.93819697724E+02 0.  0.
         23    2    4    4    0    0  0.35215330974E+03  0.82379353101E+02 -0.53000239982E+03  0.64818635522E+03  0.91895026490E+02 0.  0.
          3    1    3    3  502    0  0.36651603933E+02  0.14726021101E+03 -0.27572782599E+03  0.31472963611E+03  0.00000000000E+00 0. -1.
         -4    1    3    3    0  502  0.70800736596E+02  0.17734356326E+03 -0.55420297313E+03  0.58617780507E+03  0.00000000000E+00 0.  1.
         13    1    5    5    0    0 -0.15247124535E+03 -0.18630106864E+03 -0.37669925223E+03  0.44705468957E+03  0.00000000000E+00 0. -1.
        -13    1    5    5    0    0 -0.30713440492E+03 -0.22068205873E+03 -0.71917116404E+03  0.81255109188E+03  0.00000000000E+00 0.  1.
          3    1    6    6  503    0  0.30369227009E+03  0.10245732307E+03 -0.44812481205E+03  0.55094677160E+03  0.00000000000E+00 0. -1.
         -3    1    6    6    0  503  0.48461039653E+02 -0.20077969973E+02 -0.81877587772E+02  0.97239583616E+02  0.00000000000E+00 0.  1.
<mgrwt>
<rscale>  0 0.13630194E+04</rscale>
<asrwt>0</asrwt>
<pdfrwt beam="1">  1        1 0.40496178E+00 0.13630194E+04</pdfrwt>
<pdfrwt beam="2">  1       -2 0.27145843E-01 0.13630194E+04</pdfrwt>
<totfact> 0.11664845E+01</totfact>
</mgrwt>
</event>
<event>
12    5  0.5297412E-008  0.2529376E+04  0.7818608E-02  0.8392594E-01
         -2   -1    0    0    0  501 -0.00000000000E+00  0.00000000000E+00  0.86489440354E+03  0.86489440354E+03  0.00000000000E+00 0.  1.
          1   -1    0    0  501    0  0.00000000000E+00 -0.00000000000E+00 -0.18492838612E+04  0.18492838612E+04  0.00000000000E+00 0. -1.
        -24    2    1    2    0    0 -0.47462029029E+03 -0.62063779975E+03 -0.12657896548E+04  0.14896372808E+04  0.79624617672E+02 0.  0.
        254    2    1    2    0    0  0.47462029029E+03  0.62063779975E+03  0.28140019716E+03  0.12245409839E+04  0.89992158097E+03 0.  0.
         23    2    4    4    0    0  0.42685791396E+03 -0.10316643428E+03  0.19284318727E+03  0.48796028533E+03  0.89809539059E+02 0.  0.
         23    2    4    4    0    0  0.47762376324E+02  0.72380423403E+03  0.88557009895E+02  0.73658069859E+03  0.92384889107E+02 0.  0.
          3    1    3    3  502    0 -0.30999313445E+03 -0.43054917101E+03 -0.79248885806E+03  0.95368072342E+03  0.00000000000E+00 0. -1.
         -4    1    3    3    0  502 -0.16462715584E+03 -0.19008862874E+03 -0.47330079678E+03  0.53595655742E+03  0.00000000000E+00 0.  1.
         13    1    5    5    0    0  0.10635974468E+03 -0.36128835353E+02  0.95979834101E+01  0.11273779011E+03  0.00000000000E+00 0.  1.
        -13    1    5    5    0    0  0.32049816928E+03 -0.67037598931E+02  0.18324520386E+03  0.37522249522E+03  0.00000000000E+00 0. -1.
          2    1    6    6  503    0  0.29150998010E+02  0.42839204148E+03  0.65499330180E+01  0.42943267634E+03  0.00000000000E+00 0. -1.
         -2    1    6    6    0  503  0.18611378314E+02  0.29541219256E+03  0.82007076877E+02  0.30714802225E+03  0.00000000000E+00 0.  1.
<mgrwt>
<rscale>  0 0.25293756E+04</rscale>
<asrwt>0</asrwt>
<pdfrwt beam="1">  1        1 0.28450520E+00 0.25293756E+04</pdfrwt>
<pdfrwt beam="2">  1       -2 0.13306068E+00 0.25293756E+04</pdfrwt>
<totfact> 0.12021130E+00</totfact>
</mgrwt>
</event>
<event>
12    5  0.5297412E-008  0.1972594E+04  0.7818608E-02  0.8619542E-01
         -2   -1    0    0    0  501 -0.00000000000E+00  0.00000000000E+00  0.83711267304E+03  0.83711267304E+03  0.00000000000E+00 0.  1.
          1   -1    0    0  501    0  0.00000000000E+00 -0.00000000000E+00 -0.11620678308E+04  0.11620678308E+04  0.00000000000E+00 0. -1.
        -24    2    1    2    0    0 -0.56165300047E+03  0.53224251862E+03 -0.69705670191E+02  0.78122353972E+03  0.81946000397E+02 0.  0.
        254    2    1    2    0    0  0.56165300047E+03 -0.53224251862E+03 -0.25524948755E+03  0.12179569641E+04  0.90527933477E+03 0.  0.
         23    2    4    4    0    0 -0.99237001889E+02 -0.50577462226E+03 -0.12766639254E+03  0.53851247647E+03  0.89671781907E+02 0.  0.
         23    2    4    4    0    0  0.66089000236E+03 -0.26467896365E+02 -0.12758309501E+03  0.67944448763E+03  0.88832544056E+02 0.  0.
          3    1    3    3  502    0 -0.36046789022E+03  0.28993784152E+03 -0.56079347780E+02  0.46598921132E+03  0.00000000000E+00 0. -1.
         -4    1    3    3    0  502 -0.20118511025E+03  0.24230467710E+03 -0.13626322411E+02  0.31523432839E+03  0.00000000000E+00 0.  1.
         13    1    5    5    0    0 -0.41034959412E+01 -0.18576922282E+03 -0.16073348871E+02  0.18650843244E+03  0.00000000000E+00 0. -1.
        -13    1    5    5    0    0 -0.95133505948E+02 -0.32000539944E+03 -0.11159304367E+03  0.35200404404E+03  0.00000000000E+00 0.  1.
          3    1    6    6  503    0  0.10560474843E+03  0.26216390829E+02 -0.32990511767E+02  0.11370152112E+03  0.00000000000E+00 0. -1.
         -3    1    6    6    0  503  0.55528525393E+03 -0.52684287194E+02 -0.94592583240E+02  0.56574296651E+03  0.00000000000E+00 0.  1.
<mgrwt>
<rscale>  0 0.19725939E+04</rscale>
<asrwt>0</asrwt>
<pdfrwt beam="1">  1        1 0.17877967E+00 0.19725939E+04</pdfrwt>
<pdfrwt beam="2">  1       -2 0.12878657E+00 0.19725939E+04</pdfrwt>
<totfact> 0.41331109E+00</totfact>
</mgrwt>
</event>
<event>
12    5  0.5297412E-008  0.1505937E+04  0.7818608E-02  0.8880515E-01
         -2   -1    0    0    0  501 -0.00000000000E+00  0.00000000000E+00  0.65581699396E+03  0.65581699396E+03  0.00000000000E+00 0.  1.
          3   -1    0    0  501    0  0.00000000000E+00 -0.00000000000E+00 -0.86451139473E+03  0.86451139473E+03  0.00000000000E+00 0. -1.
        -24    2    1    2    0    0  0.10084812825E+03 -0.46616451660E+03 -0.10429416280E+03  0.49431383699E+03  0.77389893008E+02 0.  0.
        254    2    1    2    0    0 -0.10084812825E+03  0.46616451660E+03 -0.10440023797E+03  0.10260145517E+04  0.90240054804E+03 0.  0.
         23    2    4    4    0    0  0.16406611723E+02 -0.25683301239E+03 -0.87587442260E+02  0.28626837566E+03  0.89697545684E+02 0.  0.
         23    2    4    4    0    0 -0.11725473997E+03  0.72299752899E+03 -0.16812795707E+02  0.73974617604E+03  0.10231145533E+03 0.  0.
          3    1    3    3  502    0  0.91471862116E+02 -0.31456535268E+03 -0.42517426754E+02  0.33034254077E+03  0.00000000000E+00 0. -1.
         -4    1    3    3    0  502  0.93762661307E+01 -0.15159916392E+03 -0.61776736044E+02  0.16397129622E+03  0.00000000000E+00 0.  1.
         13    1    5    5    0    0  0.67202276851E+01 -0.19269400020E+03 -0.10439643674E+03  0.21925956120E+03  0.00000000000E+00 0. -1.
        -13    1    5    5    0    0  0.96863840382E+01 -0.64139012189E+02  0.16808994480E+02  0.67008814464E+02  0.00000000000E+00 0.  1.
          4    1    6    6  503    0  0.10597294701E+02  0.34153979928E+02 -0.15904505019E+02  0.39137581425E+02  0.00000000000E+00 0.  1.
         -4    1    6    6    0  503 -0.12785203467E+03  0.68884354906E+03 -0.90829068834E+00  0.70060859461E+03  0.00000000000E+00 0. -1.
<mgrwt>
<rscale>  0 0.15059366E+04</rscale>
<asrwt>0</asrwt>
<pdfrwt beam="1">  1        3 0.13300175E+00 0.15059366E+04</pdfrwt>
<pdfrwt beam="2">  1       -2 0.10089492E+00 0.15059366E+04</pdfrwt>
<totfact> 0.14204249E+00</totfact>
</mgrwt>
</event>
<event>
12    5  0.5297412E-008  0.1728885E+04  0.7818608E-02  0.8745059E-01
          1   -1    0    0  501    0  0.00000000000E+00  0.00000000000E+00  0.27475606337E+04  0.27475606337E+04  0.00000000000E+00 0. -1.
         -2   -1    0    0    0  501 -0.00000000000E+00 -0.00000000000E+00 -0.27197260855E+03  0.27197260855E+03  0.00000000000E+00 0.  1.
        -24    2    1    2    0    0  0.27880730500E+03  0.54634651491E+03  0.66193688363E+03  0.90581883426E+03  0.78225922352E+02 0.  0.
        254    2    1    2    0    0 -0.27880730500E+03 -0.54634651491E+03  0.18136511416E+04  0.21137144080E+04  0.89567299152E+03 0.  0.
         23    2    4    4    0    0 -0.87520863869E+01 -0.24113158116E+03  0.56928662607E+01  0.25823188786E+03  0.91816451307E+02 0.  0.
         23    2    4    4    0    0 -0.27005521861E+03 -0.30521493374E+03  0.18079582753E+04  0.18554825202E+04  0.89533683790E+02 0.  0.
          3    1    3    3  502    0 -0.28517372468E+01  0.30303835844E+02  0.32654648769E+02  0.44640575247E+02  0.00000000000E+00 0. -1.
         -4    1    3    3    0  502  0.28165904224E+03  0.51604267906E+03  0.62928223486E+03  0.86117825902E+03  0.00000000000E+00 0.  1.
         13    1    5    5    0    0 -0.22074620127E+02 -0.22235434599E+02 -0.20393747844E+02  0.37384600528E+02  0.00000000000E+00 0.  1.
        -13    1    5    5    0    0  0.13322533740E+02 -0.21889614656E+03  0.26086614104E+02  0.22084728733E+03  0.00000000000E+00 0. -1.
          4    1    6    6  503    0 -0.13218343934E+03 -0.90435475474E+02  0.61345097480E+03  0.63401351353E+03  0.00000000000E+00 0. -1.
         -4    1    6    6    0  503 -0.13787177927E+03 -0.21477945827E+03  0.11945073005E+04  0.12214690066E+04  0.00000000000E+00 0.  1.
<mgrwt>
<rscale>  0 0.17288855E+04</rscale>
<asrwt>0</asrwt>
<pdfrwt beam="1">  1        1 0.42270162E+00 0.17288855E+04</pdfrwt>
<pdfrwt beam="2">  1       -2 0.41841942E-01 0.17288855E+04</pdfrwt>
<totfact> 0.41082112E+00</totfact>
</mgrwt>
</event>
<event>
12    5  0.5297412E-008  0.1176424E+04  0.7818608E-02  0.9133747E-01
          1   -1    0    0  501    0  0.00000000000E+00  0.00000000000E+00  0.25574477795E+03  0.25574477795E+03  0.00000000000E+00 0. -1.
         -2   -1    0    0    0  501 -0.00000000000E+00 -0.00000000000E+00 -0.13528847322E+04  0.13528847322E+04  0.00000000000E+00 0.  1.
        -24    2    1    2    0    0 -0.14709748252E+02  0.20669123302E+03 -0.10435090263E+03  0.24625203982E+03  0.82542799421E+02 0.  0.
        254    2    1    2    0    0  0.14709748252E+02 -0.20669123302E+03 -0.99278905158E+03  0.13623774703E+04  0.90967281377E+03 0.  0.
         23    2    4    4    0    0  0.36287275514E+03 -0.12470572231E+03 -0.11592823841E+03  0.41098556583E+03  0.90783397477E+02 0.  0.
         23    2    4    4    0    0 -0.34816300689E+03 -0.81985510711E+02 -0.87686081317E+03  0.95139190447E+03  0.91228103604E+02 0.  0.
          3    1    3    3  502    0  0.13554270378E+02  0.97743222133E+02 -0.88568259027E+02  0.13259635072E+03  0.00000000000E+00 0. -1.
         -4    1    3    3    0  502 -0.28264018630E+02  0.10894801089E+03 -0.15782643604E+02  0.11365568910E+03  0.00000000000E+00 0.  1.
         13    1    5    5    0    0  0.34822160538E+03 -0.13667023637E+03 -0.10276449557E+03  0.38794017775E+03  0.00000000000E+00 0.  1.
        -13    1    5    5    0    0  0.14651149760E+02  0.11964514060E+02 -0.13163742847E+02  0.23045388079E+02  0.00000000000E+00 0. -1.
          4    1    6    6  503    0 -0.38669348047E+01 -0.58371654914E+01 -0.76221124931E+02  0.76542051001E+02  0.00000000000E+00 0. -1.
         -4    1    6    6    0  503 -0.34429607208E+03 -0.76148345220E+02 -0.80063968824E+03  0.87484985347E+03  0.00000000000E+00 0.  1.
<mgrwt>
<rscale>  0 0.11764237E+04</rscale>
<asrwt>0</asrwt>
<pdfrwt beam="1">  1        1 0.39345351E-01 0.11764237E+04</pdfrwt>
<pdfrwt beam="2">  1       -2 0.20813611E+00 0.11764237E+04</pdfrwt>
<totfact> 0.10988859E+01</totfact>
</mgrwt>
</event>
<event>
12    5  0.5297412E-008  0.3099345E+04  0.7818608E-02  0.8215918E-01
          1   -1    0    0  501    0  0.00000000000E+00  0.00000000000E+00  0.13694582352E+04  0.13694582352E+04  0.00000000000E+00 0. -1.
         -2   -1    0    0    0  501 -0.00000000000E+00 -0.00000000000E+00 -0.17536016669E+04  0.17536016669E+04  0.00000000000E+00 0.  1.
        -24    2    1    2    0    0 -0.11628962433E+04  0.79186864288E+03 -0.35325901137E+02  0.14101797872E+04  0.89305613911E+02 0.  0.
        254    2    1    2    0    0  0.11628962433E+04 -0.79186864288E+03 -0.34881753060E+03  0.17128801149E+04  0.91263409877E+03 0.  0.
         23    2    4    4    0    0 -0.84718820127E+02 -0.12569999109E+03 -0.22936227306E+03  0.29080395401E+03  0.94774052974E+02 0.  0.
         23    2    4    4    0    0  0.12476150634E+04 -0.66616865179E+03 -0.11945525754E+03  0.14220761609E+04  0.87789690950E+02 0.  0.
          3    1    3    3  502    0 -0.10335825388E+04  0.73527218502E+03 -0.37946990927E+02  0.12689988277E+04  0.00000000000E+00 0. -1.
         -4    1    3    3    0  502 -0.12931370452E+03  0.56596457864E+02  0.26210897902E+01  0.14118095952E+03  0.00000000000E+00 0.  1.
         13    1    5    5    0    0 -0.35931656945E+02  0.10519539044E+01 -0.86565597479E+02  0.93732562350E+02  0.00000000000E+00 0. -1.
        -13    1    5    5    0    0 -0.48787163182E+02 -0.12675194500E+03 -0.14279667558E+03  0.19707139166E+03  0.00000000000E+00 0.  1.
          3    1    6    6  503    0  0.75425446434E+03 -0.44094817430E+03 -0.99948895965E+02  0.87938891920E+03  0.00000000000E+00 0. -1.
         -3    1    6    6    0  503  0.49336059905E+03 -0.22522047749E+03 -0.19506361578E+02  0.54268724171E+03  0.00000000000E+00 0.  1.
<mgrwt>
<rscale>  0 0.30993446E+04</rscale>
<asrwt>0</asrwt>
<pdfrwt beam="1">  1        1 0.21068588E+00 0.30993446E+04</pdfrwt>
<pdfrwt beam="2">  1       -2 0.26978487E+00 0.30993446E+04</pdfrwt>
<totfact> 0.29080789E-01</totfact>
</mgrwt>
</event>
<event>
12    5  0.5297412E-008  0.1513777E+04  0.7818608E-02  0.8875342E-01
         -4   -1    0    0    0  501 -0.00000000000E+00  0.00000000000E+00  0.20125496344E+04  0.20125496344E+04  0.00000000000E+00 0.  1.
          3   -1    0    0  501    0  0.00000000000E+00 -0.00000000000E+00 -0.28465408234E+03  0.28465408234E+03  0.00000000000E+00 0. -1.
        -24    2    1    2    0    0 -0.23602266164E+03 -0.39395591215E+03  0.81755051213E+03  0.94100283726E+03  0.78673644463E+02 0.  0.
        254    2    1    2    0    0  0.23602266164E+03  0.39395591215E+03  0.91034503996E+03  0.13562008795E+04  0.89422859286E+03 0.  0.
         23    2    4    4    0    0  0.15473506891E+03 -0.21158877235E+03  0.27882380121E+02  0.27899739467E+03  0.91374881549E+02 0.  0.
         23    2    4    4    0    0  0.81287592722E+02  0.60554468450E+03  0.88246265984E+03  0.10772034848E+04  0.91296024448E+02 0.  0.
          1    1    3    3  502    0 -0.64984531622E+02 -0.14511067420E+03  0.21937790019E+03  0.27093681959E+03  0.00000000000E+00 0. -1.
         -2    1    3    3    0  502 -0.17103813001E+03 -0.24884523794E+03  0.59817261194E+03  0.67006601767E+03  0.00000000000E+00 0.  1.
         13    1    5    5    0    0  0.37669294353E+02 -0.12868168141E+03  0.10373993305E+02  0.13448260336E+03  0.00000000000E+00 0. -1.
        -13    1    5    5    0    0  0.11706577456E+03 -0.82907090936E+02  0.17508386817E+02  0.14451479132E+03  0.00000000000E+00 0.  1.
          3    1    6    6  503    0  0.78525385310E+02  0.32318148961E+03  0.42589157937E+03  0.54036667989E+03  0.00000000000E+00 0. -1.
         -3    1    6    6    0  503  0.27622074121E+01  0.28236319489E+03  0.45657108047E+03  0.53683680494E+03  0.00000000000E+00 0.  1.
<mgrwt>
<rscale>  0 0.15137774E+04</rscale>
<asrwt>0</asrwt>
<pdfrwt beam="1">  1        3 0.43792937E-01 0.15137774E+04</pdfrwt>
<pdfrwt beam="2">  1       -4 0.30962301E+00 0.15137774E+04</pdfrwt>
<totfact> 0.30991538E-01</totfact>
</mgrwt>
</event>
<event>
12    5  0.5297412E-008  0.1050801E+04  0.7818608E-02  0.9254517E-01
         -2   -1    0    0    0  501 -0.00000000000E+00  0.00000000000E+00  0.29064333321E+03  0.29064333321E+03  0.00000000000E+00 0.  1.
          1   -1    0    0  501    0  0.00000000000E+00 -0.00000000000E+00 -0.94977533471E+03  0.94977533471E+03  0.00000000000E+00 0. -1.
        -24    2    1    2    0    0 -0.58541526369E+02  0.26565149363E+02  0.36496606750E+02  0.10907001903E+03  0.80196317103E+02 0.  0.
        254    2    1    2    0    0  0.58541526369E+02 -0.26565149363E+02 -0.69562860825E+03  0.11313486489E+04  0.88989762741E+03 0.  0.
         23    2    4    4    0    0  0.19624386436E+03  0.14247362805E+03 -0.82332547706E+03  0.86286217272E+03  0.88633509148E+02 0.  0.
         23    2    4    4    0    0 -0.13770233799E+03 -0.16903877741E+03  0.12769686881E+03  0.26848647618E+03  0.90787969614E+02 0.  0.
          1    1    3    3  502    0  0.19748185193E+02 -0.33278549836E-01  0.10666175341E+02  0.22444581134E+02  0.00000000000E+00 0. -1.
         -2    1    3    3    0  502 -0.78289711562E+02  0.26598427913E+02  0.25830431409E+02  0.86625437897E+02  0.00000000000E+00 0.  1.
         13    1    5    5    0    0  0.14678783888E+03  0.63238141815E+02 -0.43417299257E+03  0.46265745396E+03  0.00000000000E+00 0.  1.
        -13    1    5    5    0    0  0.49456025476E+02  0.79235486236E+02 -0.38915248449E+03  0.40020471876E+03  0.00000000000E+00 0. -1.
          4    1    6    6  503    0 -0.42450978035E+02 -0.11535192465E+03  0.91774769021E+02  0.15339739335E+03  0.00000000000E+00 0. -1.
         -4    1    6    6    0  503 -0.95251359954E+02 -0.53686852764E+02  0.35922099794E+02  0.11508908283E+03  0.00000000000E+00 0.  1.
<mgrwt>
<rscale>  0 0.10508013E+04</rscale>
<asrwt>0</asrwt>
<pdfrwt beam="1">  1        1 0.14611928E+00 0.10508013E+04</pdfrwt>
<pdfrwt beam="2">  1       -2 0.44714359E-01 0.10508013E+04</pdfrwt>
<totfact> 0.68895904E+01</totfact>
</mgrwt>
</event>
<event>
12    5  0.5297412E-008  0.1524593E+04  0.7818608E-02  0.8868262E-01
          1   -1    0    0  501    0  0.00000000000E+00  0.00000000000E+00  0.12221772120E+04  0.12221772120E+04  0.00000000000E+00 0. -1.
         -2   -1    0    0    0  501 -0.00000000000E+00 -0.00000000000E+00 -0.47545938684E+03  0.47545938684E+03  0.00000000000E+00 0.  1.
        -24    2    1    2    0    0 -0.47177767583E+03 -0.71433805641E+02  0.32580818511E+03  0.58291522695E+03  0.77215440993E+02 0.  0.
        254    2    1    2    0    0  0.47177767583E+03  0.71433805641E+02  0.42090964005E+03  0.11147213719E+04  0.91529331247E+03 0.  0.
         23    2    4    4    0    0 -0.88557945866E+02  0.12676788552E+02 -0.22043626244E+03  0.25635915696E+03  0.95523090478E+02 0.  0.
         23    2    4    4    0    0  0.56033562170E+03  0.58757017090E+02  0.64134590249E+03  0.85836221493E+03  0.89625495124E+02 0.  0.
          3    1    3    3  502    0 -0.23491478077E+03 -0.42672819908E+02  0.11717373165E+03  0.26596166485E+03  0.00000000000E+00 0. -1.
         -4    1    3    3    0  502 -0.23686289506E+03 -0.28760985733E+02  0.20863445346E+03  0.31695356210E+03  0.00000000000E+00 0.  1.
         13    1    5    5    0    0 -0.14992213367E+02  0.28685107227E+02 -0.14934245764E+03  0.15280959227E+03  0.00000000000E+00 0. -1.
        -13    1    5    5    0    0 -0.73565732500E+02 -0.16008318675E+02 -0.71093804804E+02  0.10354956469E+03  0.00000000000E+00 0.  1.
          3    1    6    6  503    0  0.15419341358E+03  0.17665115062E+02  0.24060755225E+03  0.28632090263E+03  0.00000000000E+00 0. -1.
         -3    1    6    6    0  503  0.40614220811E+03  0.41091902028E+02  0.40073835024E+03  0.57204131230E+03  0.00000000000E+00 0.  1.
<mgrwt>
<rscale>  0 0.15245926E+04</rscale>
<asrwt>0</asrwt>
<pdfrwt beam="1">  1        1 0.18802726E+00 0.15245926E+04</pdfrwt>
<pdfrwt beam="2">  1       -2 0.73147598E-01 0.15245926E+04</pdfrwt>
<totfact> 0.14711917E+01</totfact>
</mgrwt>
</event>
<event>
12    5  0.5297412E-008  0.1699245E+04  0.7818608E-02  0.8761795E-01
         -2   -1    0    0    0  501 -0.00000000000E+00  0.00000000000E+00  0.82502617510E+03  0.82502617510E+03  0.00000000000E+00 0.  1.
          1   -1    0    0  501    0  0.00000000000E+00 -0.00000000000E+00 -0.87495174312E+03  0.87495174312E+03  0.00000000000E+00 0. -1.
        -24    2    1    2    0    0 -0.16144003078E+03 -0.37180634919E+03 -0.46304284706E+03  0.62051129341E+03  0.79515672628E+02 0.  0.
        254    2    1    2    0    0  0.16144003078E+03  0.37180634919E+03  0.41311727905E+03  0.10794666248E+04  0.91119672025E+03 0.  0.
         23    2    4    4    0    0  0.54805278439E+02 -0.29327690285E+03  0.18357698638E+03  0.36205131213E+03  0.91464104396E+02 0.  0.
         23    2    4    4    0    0  0.10663475234E+03  0.66508325205E+03  0.22954029266E+03  0.71741531268E+03  0.91045496043E+02 0.  0.
          3    1    3    3  502    0 -0.12450076144E+03 -0.30043548391E+03 -0.31888411795E+03  0.45546569604E+03  0.00000000000E+00 0. -1.
         -4    1    3    3    0  502 -0.36939269343E+02 -0.71370865283E+02 -0.14415872911E+03  0.16504559736E+03  0.00000000000E+00 0.  1.
         13    1    5    5    0    0  0.57222431394E+02 -0.77950979916E+02  0.58784424915E+02  0.11316523555E+03  0.00000000000E+00 0. -1.
        -13    1    5    5    0    0 -0.24171529546E+01 -0.21532592294E+03  0.12479256147E+03  0.24888607658E+03  0.00000000000E+00 0.  1.
          4    1    6    6  503    0  0.10771943725E+03  0.56011941190E+03  0.22238308907E+03  0.61220214885E+03  0.00000000000E+00 0.  1.
         -4    1    6    6    0  503 -0.10846849112E+01  0.10496384015E+03  0.71572035891E+01  0.10521316383E+03  0.00000000000E+00 0. -1.
<mgrwt>
<rscale>  0 0.16992446E+04</rscale>
<asrwt>0</asrwt>
<pdfrwt beam="1">  1        1 0.13460796E+00 0.16992446E+04</pdfrwt>
<pdfrwt beam="2">  1       -2 0.12692710E+00 0.16992446E+04</pdfrwt>
<totfact> 0.73418854E+00</totfact>
</mgrwt>
</event>
<event>
12    5  0.5297412E-008  0.3166250E+04  0.7818608E-02  0.8197788E-01
         -2   -1    0    0    0  501 -0.00000000000E+00  0.00000000000E+00  0.16662905724E+04  0.16662905724E+04  0.00000000000E+00 0.  1.
          1   -1    0    0  501    0  0.00000000000E+00 -0.00000000000E+00 -0.15041099745E+04  0.15041099745E+04  0.00000000000E+00 0. -1.
        -24    2    1    2    0    0 -0.81365583571E+03 -0.11690815571E+04  0.35629027721E+03  0.14702949366E+04  0.77697700710E+02 0.  0.
        254    2    1    2    0    0  0.81365583571E+03  0.11690815571E+04 -0.19410967929E+03  0.17001056103E+04  0.90768552504E+03 0.  0.
         23    2    4    4    0    0  0.90768040194E+03  0.10858001632E+04 -0.36941868643E+03  0.14655040291E+04  0.91576127736E+02 0.  0.
         23    2    4    4    0    0 -0.94024566230E+02  0.83281393960E+02  0.17530900714E+03  0.23460158114E+03  0.92348493531E+02 0.  0.
          1    1    3    3  502    0 -0.67779061949E+02 -0.10561494993E+03  0.95623250100E+01  0.12585689074E+03  0.00000000000E+00 0. -1.
         -2    1    3    3    0  502 -0.74587677376E+03 -0.10634666072E+04  0.34672795220E+03  0.13444380458E+04  0.00000000000E+00 0.  1.
         13    1    5    5    0    0  0.79486350983E+03  0.96259148639E+03 -0.35487009566E+03  0.12978147609E+04  0.00000000000E+00 0. -1.
        -13    1    5    5    0    0  0.11281689211E+03  0.12320867677E+03 -0.14548590776E+02  0.16768926820E+03  0.00000000000E+00 0.  1.
          4    1    6    6  503    0 -0.86865996806E+02  0.97127277838E+02  0.17601422225E+03  0.21899866652E+03  0.00000000000E+00 0. -1.
         -4    1    6    6    0  503 -0.71585694240E+01 -0.13845883878E+02 -0.70521511323E+00  0.15602914629E+02  0.00000000000E+00 0.  1.
<mgrwt>
<rscale>  0 0.31662497E+04</rscale>
<asrwt>0</asrwt>
<pdfrwt beam="1">  1        1 0.23140153E+00 0.31662497E+04</pdfrwt>
<pdfrwt beam="2">  1       -2 0.25635240E+00 0.31662497E+04</pdfrwt>
<totfact> 0.28132964E-01</totfact>
</mgrwt>
</event>
<event>
12    5  0.5297412E-008  0.1153567E+04  0.7818608E-02  0.9154499E-01
         -2   -1    0    0    0  501 -0.00000000000E+00  0.00000000000E+00  0.14926819094E+03  0.14926819094E+03  0.00000000000E+00 0.  1.
          1   -1    0    0  501    0  0.00000000000E+00 -0.00000000000E+00 -0.22287348887E+04  0.22287348887E+04  0.00000000000E+00 0. -1.
        -24    2    1    2    0    0 -0.11738556114E+03  0.60176867995E+02 -0.59911163688E+01  0.15441930979E+03  0.80055008294E+02 0.  0.
        254    2    1    2    0    0  0.11738556114E+03 -0.60176867995E+02 -0.20734755814E+04  0.22235837699E+04  0.79222671601E+03 0.  0.
         23    2    4    4    0    0 -0.28223989487E+03 -0.20437173099E+03 -0.78794774157E+03  0.86630656489E+03  0.90544233544E+02 0.  0.
         23    2    4    4    0    0  0.39962545602E+03  0.14419486300E+03 -0.12855278398E+04  0.13572772050E+04  0.95534918160E+02 0.  0.
          1    1    3    3  502    0  0.87121687595E+01  0.17572716811E+02 -0.83025776120E+01  0.21298710186E+02  0.00000000000E+00 0. -1.
         -2    1    3    3    0  502 -0.12609772990E+03  0.42604151184E+02  0.23114612432E+01  0.13312059960E+03  0.00000000000E+00 0.  1.
         13    1    5    5    0    0 -0.66491255096E+00  0.71312665266E+01 -0.24980793858E+02  0.25987249427E+02  0.00000000000E+00 0. -1.
        -13    1    5    5    0    0 -0.28157498232E+03 -0.21150299752E+03 -0.76296694771E+03  0.84031931546E+03  0.00000000000E+00 0.  1.
          1    1    6    6  503    0  0.47613067549E+02  0.14443517624E+02 -0.75465959766E+02  0.90392093051E+02  0.00000000000E+00 0. -1.
         -1    1    6    6    0  503  0.35201238847E+03  0.12975134537E+03 -0.12100618801E+04  0.12668851119E+04  0.00000000000E+00 0.  1.
<mgrwt>
<rscale>  0 0.11535670E+04</rscale>
<asrwt>0</asrwt>
<pdfrwt beam="1">  1        1 0.34288226E+00 0.11535670E+04</pdfrwt>
<pdfrwt beam="2">  1       -2 0.22964339E-01 0.11535670E+04</pdfrwt>
<totfact> 0.30485211E+01</totfact>
</mgrwt>
</event>
<event>
12    5  0.5297412E-008  0.1855039E+04  0.7818608E-02  0.8677566E-01
         -2   -1    0    0    0  501 -0.00000000000E+00  0.00000000000E+00  0.41284160239E+03  0.41284160239E+03  0.00000000000E+00 0.  1.
          1   -1    0    0  501    0  0.00000000000E+00 -0.00000000000E+00 -0.20838315716E+04  0.20838315716E+04  0.00000000000E+00 0. -1.
        -24    2    1    2    0    0 -0.49764594090E+02  0.39467463515E+03  0.14567304862E+03  0.43070099695E+03  0.77705400222E+02 0.  0.
        254    2    1    2    0    0  0.49764594090E+02 -0.39467463515E+03 -0.18166630178E+04  0.20659721770E+04  0.89985106180E+03 0.  0.
         23    2    4    4    0    0 -0.24143317321E+03  0.19154346865E+03 -0.64492605604E+03  0.72061149511E+03  0.91500992423E+02 0.  0.
         23    2    4    4    0    0  0.29119776730E+03 -0.58621810380E+03 -0.11717369618E+04  0.13453606819E+04  0.92628569636E+02 0.  0.
          3    1    3    3  502    0 -0.44115827114E+02  0.13426812794E+03  0.24542950981E+02  0.14344508644E+03  0.00000000000E+00 0. -1.
         -4    1    3    3    0  502 -0.56487669762E+01  0.26040650722E+03  0.12113009764E+03  0.28725591051E+03  0.00000000000E+00 0.  1.
         13    1    5    5    0    0 -0.19540056011E+03  0.10632522523E+03 -0.40911235617E+03  0.46568159979E+03  0.00000000000E+00 0. -1.
        -13    1    5    5    0    0 -0.46032613095E+02  0.85218243424E+02 -0.23581369986E+03  0.25492989531E+03  0.00000000000E+00 0.  1.
          3    1    6    6  503    0  0.19615387155E+03 -0.33410047651E+03 -0.76440259328E+03  0.85697770936E+03  0.00000000000E+00 0. -1.
         -3    1    6    6    0  503  0.95043895743E+02 -0.25211762730E+03 -0.40733436851E+03  0.48838297255E+03  0.00000000000E+00 0.  1.
<mgrwt>
<rscale>  0 0.18550389E+04</rscale>
<asrwt>0</asrwt>
<pdfrwt beam="1">  1        1 0.32058947E+00 0.18550389E+04</pdfrwt>
<pdfrwt beam="2">  1       -2 0.63514093E-01 0.18550389E+04</pdfrwt>
<totfact> 0.49466102E+00</totfact>
</mgrwt>
</event>
<event>
12    5  0.5297412E-008  0.1139527E+04  0.7818608E-02  0.9167500E-01
         -2   -1    0    0    0  501 -0.00000000000E+00  0.00000000000E+00  0.23056275064E+03  0.23056275064E+03  0.00000000000E+00 0.  1.
          1   -1    0    0  501    0  0.00000000000E+00 -0.00000000000E+00 -0.14079916149E+04  0.14079916149E+04  0.00000000000E+00 0. -1.
        -24    2    1    2    0    0 -0.73827961945E+02 -0.18156060645E+02  0.43016436492E+02  0.11838958731E+03  0.79909136341E+02 0.  0.
        254    2    1    2    0    0  0.73827961945E+02  0.18156060645E+02 -0.12204453007E+04  0.15201647782E+04  0.90312458184E+03 0.  0.
         23    2    4    4    0    0  0.43658910029E+03  0.17352579101E+03 -0.49204496897E+03  0.68680444697E+03  0.94185212462E+02 0.  0.
         23    2    4    4    0    0 -0.36276113835E+03 -0.15536973037E+03 -0.72840033173E+03  0.83336033122E+03  0.90482052177E+02 0.  0.
          3    1    3    3  502    0  0.38127241617E+01  0.15009314330E+02  0.28903334690E+02  0.32790534280E+02  0.00000000000E+00 0. -1.
         -4    1    3    3    0  502 -0.77640686107E+02 -0.33165374974E+02  0.14113101802E+02  0.85599053025E+02  0.00000000000E+00 0.  1.
         13    1    5    5    0    0  0.24595647255E+02 -0.66836859306E+01 -0.94729652669E+01  0.27191075603E+02  0.00000000000E+00 0. -1.
        -13    1    5    5    0    0  0.41199345304E+03  0.18020947694E+03 -0.48257200371E+03  0.65961337137E+03  0.00000000000E+00 0.  1.
          4    1    6    6  503    0 -0.13601115180E+03 -0.10558232725E+03 -0.28905673465E+03  0.33645275610E+03  0.00000000000E+00 0. -1.
         -4    1    6    6    0  503 -0.22674998655E+03 -0.49787403117E+02 -0.43934359708E+03  0.49690757512E+03  0.00000000000E+00 0.  1.
<mgrwt>
<rscale>  0 0.11395270E+04</rscale>
<asrwt>0</asrwt>
<pdfrwt beam="1">  1        1 0.21661409E+00 0.11395270E+04</pdfrwt>
<pdfrwt beam="2">  1       -2 0.35471193E-01 0.11395270E+04</pdfrwt>
<totfact> 0.49366588E+01</totfact>
</mgrwt>
</event>
<event>
12    5  0.5297412E-008  0.1742733E+04  0.7818608E-02  0.8737360E-01
         -2   -1    0    0    0  501 -0.00000000000E+00  0.00000000000E+00  0.85208978910E+03  0.85208978910E+03  0.00000000000E+00 0.  1.
          1   -1    0    0  501    0  0.00000000000E+00 -0.00000000000E+00 -0.89107947973E+03  0.89107947973E+03  0.00000000000E+00 0. -1.
        -24    2    1    2    0    0  0.51932877821E+03 -0.35367200096E+03  0.81686782231E+02  0.63874278030E+03  0.80829108932E+02 0.  0.
        254    2    1    2    0    0 -0.51932877821E+03  0.35367200096E+03 -0.12067647286E+03  0.11044264885E+04  0.90022707876E+03 0.  0.
         23    2    4    4    0    0 -0.62728140228E+03  0.37427586194E+03 -0.36495918078E+03  0.82134822534E+03  0.88618988702E+02 0.  0.
         23    2    4    4    0    0  0.10795262407E+03 -0.20603860979E+02  0.24428270792E+03  0.28307826320E+03  0.91547657418E+02 0.  0.
          1    1    3    3  502    0  0.49707454820E+03 -0.31452486833E+03  0.71308525738E+02  0.59253177561E+03  0.00000000000E+00 0. -1.
         -2    1    3    3    0  502  0.22254230016E+02 -0.39147132628E+02  0.10378256493E+02  0.46211004690E+02  0.00000000000E+00 0.  1.
         13    1    5    5    0    0 -0.10292916376E+03  0.96169933671E+02 -0.50421294516E+02  0.14961743159E+03  0.00000000000E+00 0.  1.
        -13    1    5    5    0    0 -0.52435223852E+03  0.27810592827E+03 -0.31453788626E+03  0.67173079375E+03  0.00000000000E+00 0. -1.
          3    1    6    6  503    0  0.11775845802E+03 -0.35500856547E+02  0.22734491326E+03  0.25848225246E+03  0.00000000000E+00 0. -1.
         -3    1    6    6    0  503 -0.98058339541E+01  0.14896995569E+02  0.16937794656E+02  0.24596010740E+02  0.00000000000E+00 0.  1.
<mgrwt>
<rscale>  0 0.17427332E+04</rscale>
<asrwt>0</asrwt>
<pdfrwt beam="1">  1        1 0.13708915E+00 0.17427332E+04</pdfrwt>
<pdfrwt beam="2">  1       -2 0.13109074E+00 0.17427332E+04</pdfrwt>
<totfact> 0.65374628E+00</totfact>
</mgrwt>
</event>
<event>
12    5  0.5297412E-008  0.1785008E+04  0.7818608E-02  0.8714313E-01
          1   -1    0    0  501    0  0.00000000000E+00  0.00000000000E+00  0.20847258227E+04  0.20847258227E+04  0.00000000000E+00 0. -1.
         -2   -1    0    0    0  501 -0.00000000000E+00 -0.00000000000E+00 -0.38209512821E+03  0.38209512821E+03  0.00000000000E+00 0.  1.
        -24    2    1    2    0    0 -0.42225196761E+03 -0.19205064181E+03 -0.22386413558E+02  0.47044294519E+03  0.75068235656E+02 0.  0.
        254    2    1    2    0    0  0.42225196761E+03  0.19205064181E+03  0.17250171080E+04  0.19963780057E+04  0.89143757241E+03 0.  0.
         23    2    4    4    0    0  0.40821297401E+03 -0.81248005652E+02  0.25077796330E+03  0.49398834948E+03  0.88858494067E+02 0.  0.
         23    2    4    4    0    0  0.14038993593E+02  0.27329864746E+03  0.14742391447E+04  0.15023896562E+04  0.94363018382E+02 0.  0.
          3    1    3    3  502    0 -0.17706232273E+02 -0.25015486892E+02 -0.11188966229E+02  0.32626342287E+02  0.00000000000E+00 0. -1.
         -4    1    3    3    0  502 -0.40454573533E+03 -0.16703515492E+03 -0.11197447329E+02  0.43781660291E+03  0.00000000000E+00 0.  1.
         13    1    5    5    0    0  0.35208796685E+03 -0.72114792689E+02  0.24875790091E+03  0.43708920485E+03  0.00000000000E+00 0.  1.
        -13    1    5    5    0    0  0.56125007161E+02 -0.91332129627E+01  0.20200623892E+01  0.56899144632E+02  0.00000000000E+00 0. -1.
          2    1    6    6  503    0  0.33925430589E+02  0.10885920411E+03  0.41933754985E+03  0.43456327718E+03  0.00000000000E+00 0. -1.
         -2    1    6    6    0  503 -0.19886436996E+02  0.16443944335E+03  0.10549015949E+04  0.10678263791E+04  0.00000000000E+00 0.  1.
<mgrwt>
<rscale>  0 0.17850082E+04</rscale>
<asrwt>0</asrwt>
<pdfrwt beam="1">  1        1 0.32072704E+00 0.17850082E+04</pdfrwt>
<pdfrwt beam="2">  1       -2 0.58783867E-01 0.17850082E+04</pdfrwt>
<totfact> 0.58578793E+00</totfact>
</mgrwt>
</event>
<event>
12    5  0.5297412E-008  0.1445879E+04  0.7818608E-02  0.8921262E-01
         -2   -1    0    0    0  501 -0.00000000000E+00  0.00000000000E+00  0.18721106860E+03  0.18721106860E+03  0.00000000000E+00 0.  1.
          1   -1    0    0  501    0  0.00000000000E+00 -0.00000000000E+00 -0.27917244058E+04  0.27917244058E+04  0.00000000000E+00 0. -1.
        -24    2    1    2    0    0  0.26268524107E+03  0.34292570604E+03 -0.64167406325E+03  0.77764670597E+03  0.79920085899E+02 0.  0.
        254    2    1    2    0    0 -0.26268524107E+03 -0.34292570604E+03 -0.19628392740E+04  0.22012887685E+04  0.89796027244E+03 0.  0.
         23    2    4    4    0    0 -0.37209123859E+03 -0.41230044182E+03 -0.19646488655E+04  0.20436216572E+04  0.90004271098E+02 0.  0.
         23    2    4    4    0    0  0.10940599752E+03  0.69374735776E+02  0.18095914920E+01  0.15766711130E+03  0.89850526460E+02 0.  0.
          1    1    3    3  502    0  0.16615461051E+03  0.21271030206E+03 -0.46669596453E+03  0.53912721180E+03  0.00000000000E+00 0. -1.
         -4    1    3    3    0  502  0.96530630561E+02  0.13021540398E+03 -0.17497809872E+03  0.23851949418E+03  0.00000000000E+00 0.  1.
         13    1    5    5    0    0 -0.17700729067E+03 -0.24360827260E+03 -0.11722528108E+04  0.12103112095E+04  0.00000000000E+00 0.  1.
        -13    1    5    5    0    0 -0.19508394792E+03 -0.16869216921E+03 -0.79239605466E+03  0.83331044763E+03  0.00000000000E+00 0. -1.
          3    1    6    6  503    0 -0.11489444303E+02 -0.13184399979E+01  0.12725037843E+02  0.17195121475E+02  0.00000000000E+00 0. -1.
         -3    1    6    6    0  503  0.12089544183E+03  0.70693175774E+02 -0.10915446351E+02  0.14047198982E+03  0.00000000000E+00 0.  1.
<mgrwt>
<rscale>  0 0.14458793E+04</rscale>
<asrwt>0</asrwt>
<pdfrwt beam="1">  1        1 0.42949599E+00 0.14458793E+04</pdfrwt>
<pdfrwt beam="2">  1       -2 0.28801708E-01 0.14458793E+04</pdfrwt>
<totfact> 0.80150062E+00</totfact>
</mgrwt>
</event>
<event>
12    5  0.5297412E-008  0.2214387E+04  0.7818608E-02  0.8512464E-01
          1   -1    0    0  501    0  0.00000000000E+00  0.00000000000E+00  0.14360326022E+04  0.14360326022E+04  0.00000000000E+00 0. -1.
         -2   -1    0    0    0  501 -0.00000000000E+00 -0.00000000000E+00 -0.85365569054E+03  0.85365569054E+03  0.00000000000E+00 0.  1.
        -24    2    1    2    0    0  0.74924501942E+03 -0.36065144345E+03  0.66333561481E+03  0.10665809821E+04  0.78379146860E+02 0.  0.
        254    2    1    2    0    0 -0.74924501942E+03  0.36065144345E+03 -0.80958703147E+02  0.12231073107E+04  0.89330824410E+03 0.  0.
         23    2    4    4    0    0 -0.47699538626E+02  0.44985264971E+03 -0.19441083976E+03  0.50102976257E+03  0.92696256277E+02 0.  0.
         23    2    4    4    0    0 -0.70154548079E+03 -0.89201206253E+02  0.11345213662E+03  0.72207754809E+03  0.91660685875E+02 0.  0.
          1    1    3    3  502    0  0.60224782621E+03 -0.30640515732E+03  0.50281158489E+03  0.84226246177E+03  0.00000000000E+00 0. -1.
         -2    1    3    3    0  502  0.14699719321E+03 -0.54246286133E+02  0.16052402992E+03  0.22431852031E+03  0.00000000000E+00 0.  1.
         13    1    5    5    0    0 -0.61438316391E+02  0.40025936430E+03 -0.19525250610E+03  0.44956174945E+03  0.00000000000E+00 0. -1.
        -13    1    5    5    0    0  0.13738777765E+02  0.49593285405E+02  0.84166633855E+00  0.51468013115E+02  0.00000000000E+00 0.  1.
          1    1    6    6  503    0 -0.56805988648E+03 -0.93916488654E+02  0.12079947700E+03  0.58830676956E+03  0.00000000000E+00 0. -1.
         -1    1    6    6    0  503 -0.13348559432E+03  0.47152824007E+01 -0.73473403854E+01  0.13377077853E+03  0.00000000000E+00 0.  1.
<mgrwt>
<rscale>  0 0.22143870E+04</rscale>
<asrwt>0</asrwt>
<pdfrwt beam="1">  1        1 0.22092809E+00 0.22143870E+04</pdfrwt>
<pdfrwt beam="2">  1       -2 0.13133164E+00 0.22143870E+04</pdfrwt>
<totfact> 0.24520958E+00</totfact>
</mgrwt>
</event>
<event>
12    5  0.5297412E-008  0.2483480E+04  0.7818608E-02  0.8408895E-01
         -2   -1    0    0    0  501 -0.00000000000E+00  0.00000000000E+00  0.19608963252E+04  0.19608963252E+04  0.00000000000E+00 0.  1.
          1   -1    0    0  501    0  0.00000000000E+00 -0.00000000000E+00 -0.78633324717E+03  0.78633324717E+03  0.00000000000E+00 0. -1.
        -24    2    1    2    0    0 -0.89382156909E+03  0.13496053771E+03  0.11496033573E+04  0.14647620697E+04  0.82514833016E+02 0.  0.
        254    2    1    2    0    0  0.89382156909E+03 -0.13496053771E+03  0.24959720781E+02  0.12824675027E+04  0.90937811921E+03 0.  0.
         23    2    4    4    0    0  0.65452675945E+03  0.32292252842E+03  0.13146889290E+03  0.74743208819E+03  0.93200957445E+02 0.  0.
         23    2    4    4    0    0  0.23929480965E+03 -0.45788306613E+03 -0.10650917212E+03  0.53503541450E+03  0.89441505189E+02 0.  0.
          1    1    3    3  502    0 -0.32020803573E+03  0.92048723335E+01  0.41786166941E+03  0.52652283007E+03  0.00000000000E+00 0. -1.
         -2    1    3    3    0  502 -0.57361353336E+03  0.12575566537E+03  0.73174168786E+03  0.93823923963E+03  0.00000000000E+00 0.  1.
         13    1    5    5    0    0  0.26422062019E+03  0.16533110582E+03  0.90311473849E+02  0.32450434973E+03  0.00000000000E+00 0.  1.
        -13    1    5    5    0    0  0.39030613926E+03  0.15759142260E+03  0.41157419054E+02  0.42292773846E+03  0.00000000000E+00 0. -1.
          2    1    6    6  503    0  0.55367703347E+02 -0.42374145710E+02 -0.90832659085E+01  0.70311140783E+02  0.00000000000E+00 0. -1.
         -2    1    6    6    0  503  0.18392710630E+03 -0.41550892042E+03 -0.97425906214E+02  0.46472427372E+03  0.00000000000E+00 0.  1.
<mgrwt>
<rscale>  0 0.24834798E+04</rscale>
<asrwt>0</asrwt>
<pdfrwt beam="1">  1        1 0.12097435E+00 0.24834798E+04</pdfrwt>
<pdfrwt beam="2">  1       -2 0.30167636E+00 0.24834798E+04</pdfrwt>
<totfact> 0.55042094E-01</totfact>
</mgrwt>
</event>
<event>
12    5  0.5297412E-008  0.1934667E+04  0.7818608E-02  0.8637790E-01
          1   -1    0    0  501    0  0.00000000000E+00  0.00000000000E+00  0.17360136054E+04  0.17360136054E+04  0.00000000000E+00 0. -1.
         -2   -1    0    0    0  501 -0.00000000000E+00 -0.00000000000E+00 -0.53901309459E+03  0.53901309459E+03  0.00000000000E+00 0.  1.
        -24    2    1    2    0    0  0.30736831354E+03  0.41273153847E+03 -0.17763728419E+03  0.54997875604E+03  0.78096250528E+02 0.  0.
        254    2    1    2    0    0 -0.30736831354E+03 -0.41273153847E+03  0.13746377950E+04  0.17250479439E+04  0.90627740701E+03 0.  0.
         23    2    4    4    0    0 -0.50501204973E+03 -0.13260543792E+03  0.33658580404E+03  0.62791875472E+03  0.91490909385E+02 0.  0.
         23    2    4    4    0    0  0.19764373620E+03 -0.28012610054E+03  0.10380519909E+04  0.10971291892E+04  0.92773074062E+02 0.  0.
          3    1    3    3  502    0  0.62868981296E+02  0.11008681864E+03 -0.12750411988E+02  0.12741345868E+03  0.00000000000E+00 0. -1.
         -4    1    3    3    0  502  0.24449933224E+03  0.30264471983E+03 -0.16488687220E+03  0.42256529736E+03  0.00000000000E+00 0.  1.
         13    1    5    5    0    0 -0.45466173455E+02  0.67240598078E+01  0.95835706264E+01  0.46949235722E+02  0.00000000000E+00 0.  1.
        -13    1    5    5    0    0 -0.45954587628E+03 -0.13932949773E+03  0.32700223341E+03  0.58096951899E+03  0.00000000000E+00 0. -1.
          3    1    6    6  503    0  0.12167712539E+03 -0.95268260236E+02  0.48870633287E+03  0.51255755193E+03  0.00000000000E+00 0. -1.
         -3    1    6    6    0  503  0.75966610812E+02 -0.18485784031E+03  0.54934565804E+03  0.58457163726E+03  0.00000000000E+00 0.  1.
<mgrwt>
<rscale>  0 0.19346670E+04</rscale>
<asrwt>0</asrwt>
<pdfrwt beam="1">  1        1 0.26707901E+00 0.19346670E+04</pdfrwt>
<pdfrwt beam="2">  1       -2 0.82925092E-01 0.19346670E+04</pdfrwt>
<totfact> 0.47011396E+00</totfact>
</mgrwt>
</event>
<event>
12    5  0.5297412E-008  0.2826897E+04  0.7818608E-02  0.8294966E-01
         -2   -1    0    0    0  501 -0.00000000000E+00  0.00000000000E+00  0.64500943417E+03  0.64500943417E+03  0.00000000000E+00 0.  1.
          1   -1    0    0  501    0  0.00000000000E+00 -0.00000000000E+00 -0.30973753759E+04  0.30973753759E+04  0.00000000000E+00 0. -1.
        -24    2    1    2    0    0 -0.10218463682E+04 -0.72840899681E+03 -0.13667688776E+04  0.18573091945E+04  0.82405171532E+02 0.  0.
        254    2    1    2    0    0  0.10218463682E+04  0.72840899681E+03 -0.10855970641E+04  0.18850756156E+04  0.89456102316E+03 0.  0.
         23    2    4    4    0    0  0.29165206204E+02  0.49163781765E+03 -0.48363308921E+03  0.69673803975E+03  0.94787014202E+02 0.  0.
         23    2    4    4    0    0  0.99268116195E+03  0.23677117916E+03 -0.60196397489E+03  0.11883375758E+04  0.91154190886E+02 0.  0.
          1    1    3    3  502    0 -0.97871950713E+03 -0.68687698098E+03 -0.13222050684E+04  0.17826716197E+04  0.00000000000E+00 0. -1.
         -2    1    3    3    0  502 -0.43126861018E+02 -0.41532015825E+02 -0.44563809168E+02  0.74637574768E+02  0.00000000000E+00 0.  1.
         13    1    5    5    0    0  0.42028100114E+02  0.86271743358E+02 -0.91201133832E+02  0.13238890329E+03  0.00000000000E+00 0.  1.
        -13    1    5    5    0    0 -0.12862893910E+02  0.40536607429E+03 -0.39243195538E+03  0.56434913647E+03  0.00000000000E+00 0. -1.
          3    1    6    6  503    0  0.56648297508E+03  0.13458598620E+03 -0.39544109820E+03  0.70383947806E+03  0.00000000000E+00 0. -1.
         -3    1    6    6    0  503  0.42619818687E+03  0.10218519297E+03 -0.20652287669E+03  0.48449809778E+03  0.00000000000E+00 0.  1.
<mgrwt>
<rscale>  0 0.28268968E+04</rscale>
<asrwt>0</asrwt>
<pdfrwt beam="1">  1        1 0.47651929E+00 0.28268968E+04</pdfrwt>
<pdfrwt beam="2">  1       -2 0.99232221E-01 0.28268968E+04</pdfrwt>
<totfact> 0.32389816E-01</totfact>
</mgrwt>
</event>
<event>
12    5  0.5297412E-008  0.1687151E+04  0.7818608E-02  0.8768727E-01
          1   -1    0    0  501    0  0.00000000000E+00  0.00000000000E+00  0.50388875790E+03  0.50388875790E+03  0.00000000000E+00 0. -1.
         -2   -1    0    0    0  501 -0.00000000000E+00 -0.00000000000E+00 -0.14122556969E+04  0.14122556969E+04  0.00000000000E+00 0.  1.
        -24    2    1    2    0    0  0.44287797859E+03  0.38998427426E+03 -0.48627304099E+03  0.76881481718E+03  0.79913169287E+02 0.  0.
        254    2    1    2    0    0 -0.44287797859E+03 -0.38998427426E+03 -0.42209389804E+03  0.11473296377E+04  0.88880447828E+03 0.  0.
         23    2    4    4    0    0 -0.10188497969E+03 -0.53911124878E+03  0.27253461449E+02  0.55684241270E+03  0.91154998590E+02 0.  0.
         23    2    4    4    0    0 -0.34099299890E+03  0.14912697452E+03 -0.44934735949E+03  0.59048722497E+03  0.90813179321E+02 0.  0.
          3    1    3    3  502    0  0.25351380323E+03  0.25429642403E+03 -0.25389202361E+03  0.43976934790E+03  0.00000000000E+00 0. -1.
         -4    1    3    3    0  502  0.18936417537E+03  0.13568785023E+03 -0.23238101739E+03  0.32904546928E+03  0.00000000000E+00 0.  1.
         13    1    5    5    0    0 -0.42915860273E+02 -0.37280510469E+03  0.51310106673E+02  0.37875868860E+03  0.00000000000E+00 0.  1.
        -13    1    5    5    0    0 -0.58969119420E+02 -0.16630614409E+03 -0.24056645224E+02  0.17808372409E+03  0.00000000000E+00 0. -1.
          4    1    6    6  503    0 -0.13376041316E+03  0.10774516124E+03 -0.19901881612E+03  0.26288658594E+03  0.00000000000E+00 0. -1.
         -4    1    6    6    0  503 -0.20723258574E+03  0.41381813287E+02 -0.25032854337E+03  0.32760063902E+03  0.00000000000E+00 0.  1.
<mgrwt>
<rscale>  0 0.16871512E+04</rscale>
<asrwt>0</asrwt>
<pdfrwt beam="1">  1        1 0.77521346E-01 0.16871512E+04</pdfrwt>
<pdfrwt beam="2">  1       -2 0.21727011E+00 0.16871512E+04</pdfrwt>
<totfact> 0.37565760E+00</totfact>
</mgrwt>
</event>
<event>
12    5  0.5297412E-008  0.1117935E+04  0.7818608E-02  0.9187885E-01
          1   -1    0    0  501    0  0.00000000000E+00  0.00000000000E+00  0.25526452162E+04  0.25526452162E+04  0.00000000000E+00 0. -1.
         -4   -1    0    0    0  501 -0.00000000000E+00 -0.00000000000E+00 -0.12240032836E+03  0.12240032836E+03  0.00000000000E+00 0.  1.
        -24    2    1    2    0    0 -0.24865485319E+02 -0.34029961030E+02  0.86212851514E+03  0.86668188377E+03  0.78074198249E+02 0.  0.
        254    2    1    2    0    0  0.24865485319E+02  0.34029961030E+02  0.15681163727E+04  0.18083636608E+04  0.89967429702E+03 0.  0.
         23    2    4    4    0    0  0.19361592875E+03  0.39095631524E+02  0.15999515203E+04  0.16146002241E+04  0.89852213397E+02 0.  0.
         23    2    4    4    0    0 -0.16875044343E+03 -0.50656704935E+01 -0.31835147529E+02  0.19376343670E+03  0.89601448699E+02 0.  0.
          3    1    3    3  502    0 -0.34712380318E+01  0.15592488714E+02  0.52557746429E+03  0.52582016524E+03  0.00000000000E+00 0. -1.
         -4    1    3    3    0  502 -0.21394247287E+02 -0.49622449744E+02  0.33655105084E+03  0.34086171853E+03  0.00000000000E+00 0.  1.
         13    1    5    5    0    0  0.15659811738E+03  0.42629304220E+02  0.96433244907E+03  0.97789431959E+03  0.00000000000E+00 0.  1.
        -13    1    5    5    0    0  0.37017811370E+02 -0.35336726962E+01  0.63561907118E+03  0.63670590452E+03  0.00000000000E+00 0. -1.
          1    1    6    6  503    0 -0.14950699857E+03 -0.21858589227E+02  0.23209326198E+01  0.15111428547E+03  0.00000000000E+00 0. -1.
         -1    1    6    6    0  503 -0.19243444857E+02  0.16792918733E+02 -0.34156080149E+02  0.42649151231E+02  0.00000000000E+00 0.  1.
<mgrwt>
<rscale>  0 0.11179349E+04</rscale>
<asrwt>0</asrwt>
<pdfrwt beam="1">  1        1 0.39271461E+00 0.11179349E+04</pdfrwt>
<pdfrwt beam="2">  1       -4 0.18830822E-01 0.11179349E+04</pdfrwt>
<totfact> 0.16149718E+01</totfact>
</mgrwt>
</event>
<event>
12    5  0.5297412E-008  0.2084130E+04  0.7818608E-02  0.8568266E-01
          1   -1    0    0  501    0  0.00000000000E+00  0.00000000000E+00  0.47761952112E+03  0.47761952112E+03  0.00000000000E+00 0. -1.
         -2   -1    0    0    0  501 -0.00000000000E+00 -0.00000000000E+00 -0.22735668347E+04  0.22735668347E+04  0.00000000000E+00 0.  1.
        -24    2    1    2    0    0 -0.46726873319E+03  0.65213186851E+03 -0.39320783999E+03  0.89703855487E+03  0.80310152166E+02 0.  0.
        254    2    1    2    0    0  0.46726873319E+03 -0.65213186851E+03 -0.14027394736E+04  0.18541478010E+04  0.90915894876E+03 0.  0.
         23    2    4    4    0    0 -0.11691024108E+03  0.32343006371E+02  0.34933673048E+02  0.15567330680E+03  0.91102922047E+02 0.  0.
         23    2    4    4    0    0  0.58417897427E+03 -0.68447487488E+03 -0.14376731467E+04  0.16984744942E+04  0.90225287097E+02 0.  0.
          3    1    3    3  502    0 -0.30834367861E+03  0.43821812029E+03 -0.22016119931E+03  0.57929431101E+03  0.00000000000E+00 0. -1.
         -4    1    3    3    0  502 -0.15892505458E+03  0.21391374822E+03 -0.17304664068E+03  0.31774424386E+03  0.00000000000E+00 0.  1.
         13    1    5    5    0    0 -0.11589410716E+03  0.18735110920E+01  0.10092774799E+02  0.11634783291E+03  0.00000000000E+00 0.  1.
        -13    1    5    5    0    0 -0.10161339162E+01  0.30469495279E+02  0.24840898249E+02  0.39325473887E+02  0.00000000000E+00 0. -1.
          4    1    6    6  503    0  0.15984079427E+02 -0.72986062714E+01 -0.51623345824E+02  0.54531919852E+02  0.00000000000E+00 0. -1.
         -4    1    6    6    0  503  0.56819489484E+03 -0.67717626861E+03 -0.13860498009E+04  0.16439425744E+04  0.00000000000E+00 0.  1.
<mgrwt>
<rscale>  0 0.20841304E+04</rscale>
<asrwt>0</asrwt>
<pdfrwt beam="1">  1        1 0.73479928E-01 0.20841304E+04</pdfrwt>
<pdfrwt beam="2">  1       -2 0.34977950E+00 0.20841304E+04</pdfrwt>
<totfact> 0.59519563E-01</totfact>
</mgrwt>
</event>
<event>
12    5  0.5297412E-008  0.1930710E+04  0.7818608E-02  0.8639719E-01
          1   -1    0    0  501    0  0.00000000000E+00  0.00000000000E+00  0.10754898048E+04  0.10754898048E+04  0.00000000000E+00 0. -1.
         -2   -1    0    0    0  501 -0.00000000000E+00 -0.00000000000E+00 -0.86649878744E+03  0.86649878744E+03  0.00000000000E+00 0.  1.
        -24    2    1    2    0    0  0.25981166031E+03  0.32669447879E+03 -0.55230400904E+03  0.69644578554E+03  0.75931762128E+02 0.  0.
        254    2    1    2    0    0 -0.25981166031E+03 -0.32669447879E+03  0.76129502643E+03  0.12455428067E+04  0.89307076137E+03 0.  0.
         23    2    4    4    0    0 -0.16880287398E+03  0.69401460700E+02  0.80184591067E+03  0.82732109353E+03  0.90511625315E+02 0.  0.
         23    2    4    4    0    0 -0.91008786331E+02 -0.39609593949E+03 -0.40550884240E+02  0.41822171320E+03  0.89946843798E+02 0.  0.
          1    1    3    3  502    0  0.10951256872E+03  0.81058268330E+02 -0.17280841643E+03  0.22005952458E+03  0.00000000000E+00 0. -1.
         -2    1    3    3    0  502  0.15029909159E+03  0.24563621046E+03 -0.37949559260E+03  0.47638626096E+03  0.00000000000E+00 0.  1.
         13    1    5    5    0    0 -0.16587913315E+03  0.55847895640E+02  0.60022258678E+03  0.62522158308E+03  0.00000000000E+00 0.  1.
        -13    1    5    5    0    0 -0.29237408279E+01  0.13553565060E+02  0.20162332389E+03  0.20209951045E+03  0.00000000000E+00 0. -1.
          1    1    6    6  503    0 -0.11472391174E+02 -0.12361926507E+03  0.25612128895E+02  0.12676482005E+03  0.00000000000E+00 0. -1.
         -1    1    6    6    0  503 -0.79536395157E+02 -0.27247667442E+03 -0.66163013135E+02  0.29145689315E+03  0.00000000000E+00 0.  1.
<mgrwt>
<rscale>  0 0.19307103E+04</rscale>
<asrwt>0</asrwt>
<pdfrwt beam="1">  1        1 0.16545997E+00 0.19307103E+04</pdfrwt>
<pdfrwt beam="2">  1       -2 0.13330751E+00 0.19307103E+04</pdfrwt>
<totfact> 0.44113290E+00</totfact>
</mgrwt>
</event>
<event>
12    5  0.5297412E-008  0.1774564E+04  0.7818608E-02  0.8719944E-01
         -2   -1    0    0    0  501 -0.00000000000E+00  0.00000000000E+00  0.48529296627E+03  0.48529296627E+03  0.00000000000E+00 0.  1.
          1   -1    0    0  501    0  0.00000000000E+00 -0.00000000000E+00 -0.16222563558E+04  0.16222563558E+04  0.00000000000E+00 0. -1.
        -24    2    1    2    0    0  0.54545683261E+03  0.14940780454E+03 -0.37692796405E+02  0.57230608910E+03  0.79168582305E+02 0.  0.
        254    2    1    2    0    0 -0.54545683261E+03 -0.14940780454E+03 -0.10992705931E+04  0.15352432330E+04  0.91034614251E+03 0.  0.
         23    2    4    4    0    0 -0.52094634390E+03 -0.81015630614E+02 -0.11959512245E+03  0.54880838250E+03  0.94546400015E+02 0.  0.
         23    2    4    4    0    0 -0.24510488711E+02 -0.68392173923E+02 -0.97967547069E+03  0.98643485049E+03  0.89506608053E+02 0.  0.
          3    1    3    3  502    0  0.14912191144E+03  0.29014983986E+02  0.23055889676E+02  0.15365802230E+03  0.00000000000E+00 0. -1.
         -4    1    3    3    0  502  0.39633492117E+03  0.12039282055E+03 -0.60748686081E+02  0.41864806680E+03  0.00000000000E+00 0.  1.
         13    1    5    5    0    0 -0.12266133390E+03 -0.43821028962E+02 -0.63394187324E+02  0.14486168714E+03  0.00000000000E+00 0. -1.
        -13    1    5    5    0    0 -0.39828501000E+03 -0.37194601652E+02 -0.56200935130E+02  0.40394669536E+03  0.00000000000E+00 0.  1.
          1    1    6    6  503    0  0.33264240700E+02 -0.17785850307E+02 -0.37790386690E+03  0.37978175154E+03  0.00000000000E+00 0. -1.
         -1    1    6    6    0  503 -0.57774729411E+02 -0.50606323616E+02 -0.60177160378E+03  0.60665309895E+03  0.00000000000E+00 0.  1.
<mgrwt>
<rscale>  0 0.17745643E+04</rscale>
<asrwt>0</asrwt>
<pdfrwt beam="1">  1        1 0.24957790E+00 0.17745643E+04</pdfrwt>
<pdfrwt beam="2">  1       -2 0.74660456E-01 0.17745643E+04</pdfrwt>
<totfact> 0.72119647E+00</totfact>
</mgrwt>
</event>
<event>
12    5  0.5297412E-008  0.1360125E+04  0.7818608E-02  0.8983199E-01
         -2   -1    0    0    0  501 -0.00000000000E+00  0.00000000000E+00  0.47519759626E+03  0.47519759626E+03  0.00000000000E+00 0.  1.
          1   -1    0    0  501    0  0.00000000000E+00 -0.00000000000E+00 -0.97324749358E+03  0.97324749358E+03  0.00000000000E+00 0. -1.
        -24    2    1    2    0    0 -0.37144466676E+03  0.40328028352E+01 -0.60405238822E+02  0.38390245042E+03  0.75795082924E+02 0.  0.
        254    2    1    2    0    0  0.37144466676E+03 -0.40328028352E+01 -0.43764465849E+03  0.10645426394E+04  0.89651033462E+03 0.  0.
         23    2    4    4    0    0  0.11222986884E+03  0.30320357208E+03  0.13250471512E+03  0.36114368699E+03  0.91319841982E+02 0.  0.
         23    2    4    4    0    0  0.25921479792E+03 -0.30723637492E+03 -0.57014937361E+03  0.70339895244E+03  0.90073728318E+02 0.  0.
          3    1    3    3  502    0 -0.35369401667E+03 -0.20591756245E+01 -0.73191885006E+02  0.36119350722E+03  0.00000000000E+00 0. -1.
         -4    1    3    3    0  502 -0.17750650093E+02  0.60919784597E+01  0.12786646184E+02  0.22708943192E+02  0.00000000000E+00 0.  1.
         13    1    5    5    0    0  0.31408350708E+02  0.20983540713E+03  0.76435689137E+02  0.22552116787E+03  0.00000000000E+00 0. -1.
        -13    1    5    5    0    0  0.80821518131E+02  0.93368164947E+02  0.56069025978E+02  0.13562251912E+03  0.00000000000E+00 0.  1.
          1    1    6    6  503    0  0.16083891000E+03 -0.16007145792E+03 -0.25042626570E+03  0.33794280753E+03  0.00000000000E+00 0. -1.
         -1    1    6    6    0  503  0.98375887922E+02 -0.14716491699E+03 -0.31972310791E+03  0.36545614490E+03  0.00000000000E+00 0.  1.
<mgrwt>
<rscale>  0 0.13601248E+04</rscale>
<asrwt>0</asrwt>
<pdfrwt beam="1">  1        1 0.14973038E+00 0.13601248E+04</pdfrwt>
<pdfrwt beam="2">  1       -2 0.73107324E-01 0.13601248E+04</pdfrwt>
<totfact> 0.23012669E+01</totfact>
</mgrwt>
</event>
<event>
12    5  0.5297412E-008  0.1394350E+04  0.7818608E-02  0.8957919E-01
         -2   -1    0    0    0  501 -0.00000000000E+00  0.00000000000E+00  0.22836034652E+03  0.22836034652E+03  0.00000000000E+00 0.  1.
          1   -1    0    0  501    0  0.00000000000E+00 -0.00000000000E+00 -0.21284466282E+04  0.21284466282E+04  0.00000000000E+00 0. -1.
        -24    2    1    2    0    0 -0.81933446517E+02 -0.37594223114E+03 -0.82704483390E+03  0.91625418619E+03  0.86446085119E+02 0.  0.
        254    2    1    2    0    0  0.81933446517E+02  0.37594223114E+03 -0.10730414478E+04  0.14405527886E+04  0.88075464068E+03 0.  0.
         23    2    4    4    0    0  0.12503677343E+03 -0.22662809069E+03 -0.10542993021E+03  0.29629164077E+03  0.98380790853E+02 0.  0.
         23    2    4    4    0    0 -0.43103326908E+02  0.60257032183E+03 -0.96761151762E+03  0.11442611478E+04  0.90070171439E+02 0.  0.
          3    1    3    3  502    0 -0.11151934620E+02 -0.24391781283E+03 -0.53201810339E+03  0.58537468974E+03  0.00000000000E+00 0. -1.
         -4    1    3    3    0  502 -0.70781511897E+02 -0.13202441831E+03 -0.29502673051E+03  0.33087949645E+03  0.00000000000E+00 0.  1.
         13    1    5    5    0    0  0.12035290214E+03 -0.22110284532E+03 -0.12085986197E+03  0.27924611993E+03  0.00000000000E+00 0. -1.
        -13    1    5    5    0    0  0.46838712836E+01 -0.55252453689E+01  0.15429931758E+02  0.17045520838E+02  0.00000000000E+00 0.  1.
          4    1    6    6  503    0 -0.36595376701E+02  0.17460790757E+03 -0.34988572292E+03  0.39274312481E+03  0.00000000000E+00 0.  1.
         -4    1    6    6    0  503 -0.65079502064E+01  0.42796241426E+03 -0.61772579470E+03  0.75151802299E+03  0.00000000000E+00 0. -1.
<mgrwt>
<rscale>  0 0.13943498E+04</rscale>
<asrwt>0</asrwt>
<pdfrwt beam="1">  1        1 0.32745331E+00 0.13943498E+04</pdfrwt>
<pdfrwt beam="2">  1       -2 0.35132363E-01 0.13943498E+04</pdfrwt>
<totfact> 0.15898967E+01</totfact>
</mgrwt>
</event>
<event>
12    5  0.5297412E-008  0.1420214E+04  0.7818608E-02  0.8939315E-01
          1   -1    0    0  501    0  0.00000000000E+00  0.00000000000E+00  0.14442683940E+04  0.14442683940E+04  0.00000000000E+00 0. -1.
         -2   -1    0    0    0  501 -0.00000000000E+00 -0.00000000000E+00 -0.34914024134E+03  0.34914024134E+03  0.00000000000E+00 0.  1.
        -24    2    1    2    0    0  0.38303664670E+03  0.19944852002E+03  0.49825068283E+03  0.66447230555E+03  0.82297734227E+02 0.  0.
        254    2    1    2    0    0 -0.38303664670E+03 -0.19944852002E+03  0.59687746983E+03  0.11289363298E+04  0.85541670423E+03 0.  0.
         23    2    4    4    0    0 -0.64461919977E+03 -0.13191824268E+03  0.47413667702E+03  0.81633550039E+03  0.93068390034E+02 0.  0.
         23    2    4    4    0    0  0.26158255308E+03 -0.67530277340E+02  0.12274079281E+03  0.31260082940E+03  0.98327035413E+02 0.  0.
          1    1    3    3  502    0  0.24647387688E+03  0.12720526340E+03  0.37721925293E+03  0.46821460443E+03  0.00000000000E+00 0. -1.
         -2    1    3    3    0  502  0.13656276982E+03  0.72243256616E+02  0.12103142990E+03  0.19625770113E+03  0.00000000000E+00 0.  1.
         13    1    5    5    0    0 -0.10217279631E+03 -0.20986502344E+02  0.36224954081E+02  0.11041721281E+03  0.00000000000E+00 0. -1.
        -13    1    5    5    0    0 -0.54244640346E+03 -0.11093174033E+03  0.43791172294E+03  0.70591828758E+03  0.00000000000E+00 0.  1.
          4    1    6    6  503    0  0.46570076918E+02 -0.24298310522E+02 -0.13728675786E+02  0.54292324478E+02  0.00000000000E+00 0. -1.
         -4    1    6    6    0  503  0.21501247616E+03 -0.43231966817E+02  0.13646946859E+03  0.25830850493E+03  0.00000000000E+00 0.  1.
<mgrwt>
<rscale>  0 0.14202144E+04</rscale>
<asrwt>0</asrwt>
<pdfrwt beam="1">  1        1 0.22219513E+00 0.14202144E+04</pdfrwt>
<pdfrwt beam="2">  1       -2 0.53713884E-01 0.14202144E+04</pdfrwt>
<totfact> 0.19951398E+01</totfact>
</mgrwt>
</event>
<event>
12    5  0.5297412E-008  0.1493806E+04  0.7818608E-02  0.8888583E-01
          1   -1    0    0  501    0  0.00000000000E+00  0.00000000000E+00  0.81709072031E+03  0.81709072031E+03  0.00000000000E+00 0. -1.
         -2   -1    0    0    0  501 -0.00000000000E+00 -0.00000000000E+00 -0.68274409967E+03  0.68274409967E+03  0.00000000000E+00 0.  1.
        -24    2    1    2    0    0  0.18888383038E+03 -0.11829654628E+03  0.46194790833E+03  0.51917595480E+03  0.80477498647E+02 0.  0.
        254    2    1    2    0    0 -0.18888383038E+03  0.11829654628E+03 -0.32760128769E+03  0.98065886519E+03  0.89704962624E+03 0.  0.
         23    2    4    4    0    0 -0.53815130983E+03  0.24436786546E+02 -0.24169377536E+03  0.59772996140E+03  0.93065766521E+02 0.  0.
         23    2    4    4    0    0  0.34926747945E+03  0.93859759737E+02 -0.85907512326E+02  0.38292890378E+03  0.91962046404E+02 0.  0.
          3    1    3    3  502    0  0.15577272972E+03 -0.12816531562E+03  0.40741789905E+03  0.45462164040E+03  0.00000000000E+00 0. -1.
         -4    1    3    3    0  502  0.33111100664E+02  0.98687693421E+01  0.54530009280E+02  0.64554314399E+02  0.00000000000E+00 0.  1.
         13    1    5    5    0    0 -0.48883519786E+03  0.22318087904E+02 -0.24688372397E+03  0.54809626971E+03  0.00000000000E+00 0.  1.
        -13    1    5    5    0    0 -0.49316111972E+02  0.21186986417E+01  0.51899486063E+01  0.49633691688E+02  0.00000000000E+00 0. -1.
          3    1    6    6  503    0  0.13120012233E+02  0.26919235271E+02 -0.12254383596E+02  0.32356604672E+02  0.00000000000E+00 0. -1.
         -3    1    6    6    0  503  0.33614746722E+03  0.66940524466E+02 -0.73653128730E+02  0.35057229911E+03  0.00000000000E+00 0.  1.
<mgrwt>
<rscale>  0 0.14938057E+04</rscale>
<asrwt>0</asrwt>
<pdfrwt beam="1">  1        1 0.12570627E+00 0.14938057E+04</pdfrwt>
<pdfrwt beam="2">  1       -2 0.10503755E+00 0.14938057E+04</pdfrwt>
<totfact> 0.13306049E+01</totfact>
</mgrwt>
</event>
<event>
12    5  0.5297412E-008  0.1888335E+04  0.7818608E-02  0.8660685E-01
          1   -1    0    0  501    0  0.00000000000E+00  0.00000000000E+00  0.19389552254E+04  0.19389552254E+04  0.00000000000E+00 0. -1.
         -2   -1    0    0    0  501 -0.00000000000E+00 -0.00000000000E+00 -0.45975922311E+03  0.45975922311E+03  0.00000000000E+00 0.  1.
        -24    2    1    2    0    0 -0.35764844514E+03  0.59438605383E+03  0.30899944801E+03  0.76370855718E+03  0.81011790147E+02 0.  0.
        254    2    1    2    0    0  0.35764844514E+03 -0.59438605383E+03  0.11701965543E+04  0.16350058913E+04  0.90701548925E+03 0.  0.
         23    2    4    4    0    0  0.44741203894E+03 -0.14959264061E+03  0.13247814882E+03  0.49863516092E+03  0.92363808305E+02 0.  0.
         23    2    4    4    0    0 -0.89763593797E+02 -0.44479341322E+03  0.10377184055E+04  0.11363707304E+04  0.92629718138E+02 0.  0.
          3    1    3    3  502    0  0.47275154381E+00  0.28841956428E+02  0.16125769954E+02  0.33047275246E+02  0.00000000000E+00 0. -1.
         -2    1    3    3    0  502 -0.35812119668E+03  0.56554409740E+03  0.29287367805E+03  0.73066128193E+03  0.00000000000E+00 0.  1.
         13    1    5    5    0    0  0.21419838768E+02 -0.24654485276E+02 -0.68077421997E+01  0.33361632018E+02  0.00000000000E+00 0.  1.
        -13    1    5    5    0    0  0.42599220017E+03 -0.12493815533E+03  0.13928589102E+03  0.46527352890E+03  0.00000000000E+00 0. -1.
          2    1    6    6  503    0 -0.39402358701E+02 -0.20522937681E+03  0.59273462666E+03  0.62849501241E+03  0.00000000000E+00 0. -1.
         -2    1    6    6    0  503 -0.50361235096E+02 -0.23956403641E+03  0.44498377879E+03  0.50787571799E+03  0.00000000000E+00 0.  1.
<mgrwt>
<rscale>  0 0.18883353E+04</rscale>
<asrwt>0</asrwt>
<pdfrwt beam="1">  1        1 0.29830080E+00 0.18883353E+04</pdfrwt>
<pdfrwt beam="2">  1       -2 0.70732189E-01 0.18883353E+04</pdfrwt>
<totfact> 0.48987650E+00</totfact>
</mgrwt>
</event>
<event>
12    5  0.5297412E-008  0.1392510E+04  0.7818608E-02  0.8959258E-01
         -2   -1    0    0    0  501 -0.00000000000E+00  0.00000000000E+00  0.87800404246E+03  0.87800404246E+03  0.00000000000E+00 0.  1.
          1   -1    0    0  501    0  0.00000000000E+00 -0.00000000000E+00 -0.55212857600E+03  0.55212857600E+03  0.00000000000E+00 0. -1.
        -24    2    1    2    0    0  0.32241705300E+02 -0.27836049637E+03 -0.20715648158E+03  0.35667765198E+03  0.76033190535E+02 0.  0.
        254    2    1    2    0    0 -0.32241705300E+02  0.27836049637E+03  0.53303194804E+03  0.10734549665E+04  0.88862726377E+03 0.  0.
         23    2    4    4    0    0 -0.19708999993E+03  0.52547485665E+03  0.50536272631E+03  0.76090321061E+03  0.92811193957E+02 0.  0.
         23    2    4    4    0    0  0.16484829463E+03 -0.24711436028E+03  0.27669221732E+02  0.31255175586E+03  0.93180185455E+02 0.  0.
          3    1    3    3  502    0 -0.20106146408E+02 -0.14116788174E+03 -0.87879608264E+02  0.16749762239E+03  0.00000000000E+00 0. -1.
         -4    1    3    3    0  502  0.52347851707E+02 -0.13719261462E+03 -0.11927687332E+03  0.18918002959E+03  0.00000000000E+00 0.  1.
         13    1    5    5    0    0  0.57987613611E+00  0.49574373402E+01  0.25140115245E+02  0.25630798580E+02  0.00000000000E+00 0.  1.
        -13    1    5    5    0    0 -0.19766987607E+03  0.52051741931E+03  0.48022261107E+03  0.73527241203E+03  0.00000000000E+00 0. -1.
          2    1    6    6  503    0  0.45087847894E+02 -0.44387460367E+02 -0.30166497158E+02  0.70094066913E+02  0.00000000000E+00 0.  1.
         -2    1    6    6    0  503  0.11976044674E+03 -0.20272689991E+03  0.57835718890E+02  0.24245768895E+03  0.00000000000E+00 0. -1.
<mgrwt>
<rscale>  0 0.13925101E+04</rscale>
<asrwt>0</asrwt>
<pdfrwt beam="1">  1        1 0.84942858E-01 0.13925101E+04</pdfrwt>
<pdfrwt beam="2">  1       -2 0.13507755E+00 0.13925101E+04</pdfrwt>
<totfact> 0.12963982E+01</totfact>
</mgrwt>
</event>
<event>
12    5  0.5297412E-008  0.1806218E+04  0.7818608E-02  0.8703000E-01
         -2   -1    0    0    0  501 -0.00000000000E+00  0.00000000000E+00  0.10445113268E+04  0.10445113268E+04  0.00000000000E+00 0.  1.
          1   -1    0    0  501    0  0.00000000000E+00 -0.00000000000E+00 -0.78084887587E+03  0.78084887587E+03  0.00000000000E+00 0. -1.
        -24    2    1    2    0    0  0.54288221317E+03  0.33048201720E+02  0.47901781184E+03  0.72918775677E+03  0.80271038035E+02 0.  0.
        254    2    1    2    0    0 -0.54288221317E+03 -0.33048201720E+02 -0.21535536093E+03  0.10961724459E+04  0.92703981502E+03 0.  0.
         23    2    4    4    0    0 -0.68178407022E+03  0.14597553992E+03  0.86139668456E+02  0.70790623690E+03  0.87021957609E+02 0.  0.
         23    2    4    4    0    0  0.13890185704E+03 -0.17902374164E+03 -0.30149502938E+03  0.38826620899E+03  0.92239743788E+02 0.  0.
          3    1    3    3  502    0  0.12987735173E+03 -0.15255923927E+01  0.16055554667E+03  0.20651522339E+03  0.00000000000E+00 0. -1.
         -4    1    3    3    0  502  0.41300486144E+03  0.34573794113E+02  0.31846226517E+03  0.52267253338E+03  0.00000000000E+00 0.  1.
         13    1    5    5    0    0 -0.24064093841E+03  0.24708485938E+02  0.62191226241E+02  0.24977253480E+03  0.00000000000E+00 0. -1.
        -13    1    5    5    0    0 -0.44114313180E+03  0.12126705399E+03  0.23948442215E+02  0.45813370211E+03  0.00000000000E+00 0.  1.
          1    1    6    6  503    0  0.14400186452E+03 -0.15227532881E+03 -0.29200046810E+03  0.35942813763E+03  0.00000000000E+00 0. -1.
         -1    1    6    6    0  503 -0.51000074798E+01 -0.26748412835E+02 -0.94945612848E+01  0.28838071355E+02  0.00000000000E+00 0.  1.
<mgrwt>
<rscale>  0 0.18062176E+04</rscale>
<asrwt>0</asrwt>
<pdfrwt beam="1">  1        1 0.12013060E+00 0.18062176E+04</pdfrwt>
<pdfrwt beam="2">  1       -2 0.16069405E+00 0.18062176E+04</pdfrwt>
<totfact> 0.47245725E+00</totfact>
</mgrwt>
</event>
<event>
12    5  0.5297412E-008  0.1666998E+04  0.7818608E-02  0.8780414E-01
          1   -1    0    0  501    0  0.00000000000E+00  0.00000000000E+00  0.48431193908E+03  0.48431193908E+03  0.00000000000E+00 0. -1.
         -2   -1    0    0    0  501 -0.00000000000E+00 -0.00000000000E+00 -0.14344480154E+04  0.14344480154E+04  0.00000000000E+00 0.  1.
        -24    2    1    2    0    0  0.25815275477E+03  0.43130075146E+03 -0.51447694384E+02  0.51179791951E+03  0.81406769675E+02 0.  0.
        254    2    1    2    0    0 -0.25815275477E+03 -0.43130075146E+03 -0.89868838191E+03  0.14069620349E+04  0.95876909471E+03 0.  0.
         23    2    4    4    0    0 -0.44656175033E+03 -0.24211847377E+03 -0.98576783683E+03  0.11127300623E+04  0.91603554616E+02 0.  0.
         23    2    4    4    0    0  0.18840899556E+03 -0.18918227769E+03  0.87079454915E+02  0.29423197264E+03  0.87759549088E+02 0.  0.
          3    1    3    3  502    0  0.20710852601E+03  0.39519642773E+03 -0.52584722978E+02  0.44926530149E+03  0.00000000000E+00 0. -1.
         -4    1    3    3    0  502  0.51044228759E+02  0.36104323737E+02  0.11370285941E+01  0.62532618018E+02  0.00000000000E+00 0.  1.
         13    1    5    5    0    0 -0.30799947673E+03 -0.17888944989E+03 -0.77250939676E+03  0.85066790290E+03  0.00000000000E+00 0.  1.
        -13    1    5    5    0    0 -0.13856227360E+03 -0.63229023881E+02 -0.21325844007E+03  0.26206215940E+03  0.00000000000E+00 0. -1.
          4    1    6    6  503    0  0.32811140467E+01 -0.48238458407E+02  0.16508185017E+02  0.51090456559E+02  0.00000000000E+00 0. -1.
         -4    1    6    6    0  503  0.18512788151E+03 -0.14094381928E+03  0.70571269897E+02  0.24314151608E+03  0.00000000000E+00 0.  1.
<mgrwt>
<rscale>  0 0.16669977E+04</rscale>
<asrwt>0</asrwt>
<pdfrwt beam="1">  1        1 0.74509528E-01 0.16669977E+04</pdfrwt>
<pdfrwt beam="2">  1       -2 0.22068431E+00 0.16669977E+04</pdfrwt>
<totfact> 0.37806179E+00</totfact>
</mgrwt>
</event>
<event>
12    5  0.5297412E-008  0.2784074E+04  0.7818608E-02  0.8308230E-01
          1   -1    0    0  501    0  0.00000000000E+00  0.00000000000E+00  0.22662252464E+04  0.22662252464E+04  0.00000000000E+00 0. -1.
         -2   -1    0    0    0  501 -0.00000000000E+00 -0.00000000000E+00 -0.85506353650E+03  0.85506353650E+03  0.00000000000E+00 0.  1.
        -24    2    1    2    0    0  0.32123987665E+03  0.11995331118E+04  0.49130582629E+03  0.13378252110E+04  0.79499281655E+02 0.  0.
        254    2    1    2    0    0 -0.32123987665E+03 -0.11995331118E+04  0.91985588361E+03  0.17834635718E+04  0.89024306845E+03 0.  0.
         23    2    4    4    0    0 -0.46202111595E+03 -0.11252394000E+04  0.48624915292E+03  0.13131941466E+04  0.91724637094E+02 0.  0.
         23    2    4    4    0    0  0.14078123929E+03 -0.74293711773E+02  0.43360673069E+03  0.47026942526E+03  0.88315471380E+02 0.  0.
          1    1    3    3  502    0  0.11726873252E+03  0.50208351024E+03  0.24219941444E+03  0.56964933357E+03  0.00000000000E+00 0. -1.
         -2    1    3    3    0  502  0.20397114414E+03  0.69744960153E+03  0.24910641185E+03  0.76817587747E+03  0.00000000000E+00 0.  1.
         13    1    5    5    0    0 -0.42031173710E+03 -0.10085643655E+04  0.40631954668E+03  0.11657442300E+04  0.00000000000E+00 0.  1.
        -13    1    5    5    0    0 -0.41709378852E+02 -0.11667503451E+03  0.79929606240E+02  0.14744991664E+03  0.00000000000E+00 0. -1.
          3    1    6    6  503    0  0.63291748200E+02 -0.53605533708E+02  0.11542468843E+03  0.14213464509E+03  0.00000000000E+00 0. -1.
         -3    1    6    6    0  503  0.77489491094E+02 -0.20688178065E+02  0.31818204226E+03  0.32813478017E+03  0.00000000000E+00 0.  1.
<mgrwt>
<rscale>  0 0.27840737E+04</rscale>
<asrwt>0</asrwt>
<pdfrwt beam="1">  1        1 0.34865004E+00 0.27840737E+04</pdfrwt>
<pdfrwt beam="2">  1       -2 0.13154824E+00 0.27840737E+04</pdfrwt>
<totfact> 0.63051868E-01</totfact>
</mgrwt>
</event>
<event>
12    5  0.5297412E-008  0.2567540E+04  0.7818608E-02  0.8379311E-01
          1   -1    0    0  501    0  0.00000000000E+00  0.00000000000E+00  0.82369812194E+03  0.82369812194E+03  0.00000000000E+00 0. -1.
         -2   -1    0    0    0  501 -0.00000000000E+00 -0.00000000000E+00 -0.20008131217E+04  0.20008131217E+04  0.00000000000E+00 0.  1.
        -24    2    1    2    0    0  0.37628061151E+03 -0.79017213680E+03 -0.12963655333E+04  0.15661377969E+04  0.79151110873E+02 0.  0.
        254    2    1    2    0    0 -0.37628061151E+03  0.79017213680E+03  0.11925053361E+03  0.12583734468E+04  0.89628340237E+03 0.  0.
         23    2    4    4    0    0 -0.59999396936E+03  0.40143093853E+03  0.27149009933E+03  0.77618856564E+03  0.87305519437E+02 0.  0.
         23    2    4    4    0    0  0.22371335785E+03  0.38874119827E+03 -0.15223956572E+03  0.48218488111E+03  0.90321583751E+02 0.  0.
          3    1    3    3  502    0  0.10735238526E+03 -0.21933474883E+03 -0.30085932728E+03  0.38749013081E+03  0.00000000000E+00 0. -1.
         -4    1    3    3    0  502  0.26892822624E+03 -0.57083738797E+03 -0.99550620606E+03  0.11786476660E+04  0.00000000000E+00 0.  1.
         13    1    5    5    0    0 -0.46825368344E+03  0.31939970939E+03  0.17401649754E+03  0.59292447060E+03  0.00000000000E+00 0.  1.
        -13    1    5    5    0    0 -0.13174028592E+03  0.82031229142E+02  0.97473601787E+02  0.18326409505E+03  0.00000000000E+00 0. -1.
          1    1    6    6  503    0  0.28752384892E+02  0.12771217712E+03 -0.56739705685E+02  0.14267618590E+03  0.00000000000E+00 0. -1.
         -1    1    6    6    0  503  0.19496097296E+03  0.26102902115E+03 -0.95499860036E+02  0.33950869522E+03  0.00000000000E+00 0.  1.
<mgrwt>
<rscale>  0 0.25675405E+04</rscale>
<asrwt>0</asrwt>
<pdfrwt beam="1">  1        1 0.12672279E+00 0.25675405E+04</pdfrwt>
<pdfrwt beam="2">  1       -2 0.30781740E+00 0.25675405E+04</pdfrwt>
<totfact> 0.46491783E-01</totfact>
</mgrwt>
</event>
<event>
12    5  0.5297412E-008  0.1464353E+04  0.7818608E-02  0.8908510E-01
         -2   -1    0    0    0  501 -0.00000000000E+00  0.00000000000E+00  0.30223392584E+03  0.30223392584E+03  0.00000000000E+00 0.  1.
          1   -1    0    0  501    0  0.00000000000E+00 -0.00000000000E+00 -0.17737341262E+04  0.17737341262E+04  0.00000000000E+00 0. -1.
        -24    2    1    2    0    0  0.40381349546E+03 -0.17099454012E+03 -0.47967327176E+03  0.65513643192E+03  0.82539838381E+02 0.  0.
        254    2    1    2    0    0 -0.40381349546E+03  0.17099454012E+03 -0.99182692861E+03  0.14208316201E+04  0.91800727916E+03 0.  0.
         23    2    4    4    0    0 -0.58145738192E+03 -0.17666581732E+03 -0.64395380170E+03  0.89014100458E+03  0.91493230972E+02 0.  0.
         23    2    4    4    0    0  0.17764388646E+03  0.34766035744E+03 -0.34787312691E+03  0.53069061555E+03  0.90508245355E+02 0.  0.
          3    1    3    3  502    0  0.73007534857E+02 -0.10381330371E+02 -0.47649151673E+02  0.87797003487E+02  0.00000000000E+00 0. -1.
         -2    1    3    3    0  502  0.33080596060E+03 -0.16061320975E+03 -0.43202412008E+03  0.56733942843E+03  0.00000000000E+00 0.  1.
         13    1    5    5    0    0 -0.26552699962E+03 -0.45341453408E+02 -0.24010722224E+03  0.36084887848E+03  0.00000000000E+00 0.  1.
        -13    1    5    5    0    0 -0.31593038230E+03 -0.13132436391E+03 -0.40384657946E+03  0.52929212611E+03  0.00000000000E+00 0. -1.
          3    1    6    6  503    0  0.10286565383E+03  0.23676865025E+03 -0.17394883999E+03  0.31128593835E+03  0.00000000000E+00 0. -1.
         -3    1    6    6    0  503  0.74778232630E+02  0.11089170719E+03 -0.17392428692E+03  0.21940467720E+03  0.00000000000E+00 0.  1.
<mgrwt>
<rscale>  0 0.14643533E+04</rscale>
<asrwt>0</asrwt>
<pdfrwt beam="1">  1        1 0.27288217E+00 0.14643533E+04</pdfrwt>
<pdfrwt beam="2">  1       -2 0.46497528E-01 0.14643533E+04</pdfrwt>
<totfact> 0.15854660E+01</totfact>
</mgrwt>
</event>
<event>
12    5  0.5297412E-008  0.1854371E+04  0.7818608E-02  0.8677908E-01
          1   -1    0    0  501    0  0.00000000000E+00  0.00000000000E+00  0.29160716060E+04  0.29160716060E+04  0.00000000000E+00 0. -1.
         -2   -1    0    0    0  501 -0.00000000000E+00 -0.00000000000E+00 -0.29480517485E+03  0.29480517485E+03  0.00000000000E+00 0.  1.
        -24    2    1    2    0    0  0.63198390152E+03 -0.24698273389E+03  0.13043132700E+04  0.14723968493E+04  0.79468564980E+02 0.  0.
        254    2    1    2    0    0 -0.63198390152E+03  0.24698273389E+03  0.13169531611E+04  0.17384799316E+04  0.90969375135E+03 0.  0.
         23    2    4    4    0    0 -0.31943886903E+02 -0.26371186654E+03  0.12691779381E+03  0.30843205263E+03  0.91966538689E+02 0.  0.
         23    2    4    4    0    0 -0.60004001462E+03  0.51069460043E+03  0.11900353673E+04  0.14300478789E+04  0.89419050137E+02 0.  0.
          3    1    3    3  502    0  0.54732522270E+03 -0.22908776671E+03  0.11821137004E+04  0.13226635645E+04  0.00000000000E+00 0. -1.
         -4    1    3    3    0  502  0.84658678818E+02 -0.17894967179E+02  0.12219956965E+03  0.14973328479E+03  0.00000000000E+00 0.  1.
         13    1    5    5    0    0 -0.53024601163E+02 -0.13029643129E+03  0.34717979233E+02  0.14489343125E+03  0.00000000000E+00 0.  1.
        -13    1    5    5    0    0  0.21080714260E+02 -0.13341543525E+03  0.92199814575E+02  0.16353862139E+03  0.00000000000E+00 0. -1.
          3    1    6    6  503    0 -0.57434831162E+03  0.49586457695E+03  0.11690423103E+04  0.13937064199E+04  0.00000000000E+00 0. -1.
         -3    1    6    6    0  503 -0.25691702996E+02  0.14830023480E+02  0.20993057073E+02  0.36341459031E+02  0.00000000000E+00 0.  1.
<mgrwt>
<rscale>  0 0.18543711E+04</rscale>
<asrwt>0</asrwt>
<pdfrwt beam="1">  1        1 0.44862638E+00 0.18543711E+04</pdfrwt>
<pdfrwt beam="2">  1       -2 0.45354644E-01 0.18543711E+04</pdfrwt>
<totfact> 0.26223869E+00</totfact>
</mgrwt>
</event>
<event>
12    5  0.5297412E-008  0.2655181E+04  0.7818608E-02  0.8349696E-01
          1   -1    0    0  501    0  0.00000000000E+00  0.00000000000E+00  0.54893840931E+03  0.54893840931E+03  0.00000000000E+00 0. -1.
         -2   -1    0    0    0  501 -0.00000000000E+00 -0.00000000000E+00 -0.32107353463E+04  0.32107353463E+04  0.00000000000E+00 0.  1.
        -24    2    1    2    0    0 -0.64939853394E+03 -0.34834425145E+03  0.11242117058E+03  0.74959220390E+03  0.78662438032E+02 0.  0.
        254    2    1    2    0    0  0.64939853394E+03  0.34834425145E+03 -0.27742181076E+04  0.30100815517E+04  0.90622440170E+03 0.  0.
         23    2    4    4    0    0 -0.19208669834E+03  0.20900957064E+03 -0.54802034231E+03  0.62436357173E+03  0.94452495063E+02 0.  0.
         23    2    4    4    0    0  0.84148523228E+03  0.13933468081E+03 -0.22261977653E+04  0.23857179800E+04  0.90455738223E+02 0.  0.
          1    1    3    3  502    0 -0.56884802875E+03 -0.33289313617E+03  0.99809414967E+02  0.66660921029E+03  0.00000000000E+00 0. -1.
         -2    1    3    3    0  502 -0.80550505191E+02 -0.15451115272E+02  0.12611755609E+02  0.82982993614E+02  0.00000000000E+00 0.  1.
         13    1    5    5    0    0 -0.22524838800E+02 -0.78528128656E+01 -0.41188488821E+02  0.47597548721E+02  0.00000000000E+00 0. -1.
        -13    1    5    5    0    0 -0.16956185954E+03  0.21686238351E+03 -0.50683185349E+03  0.57676602301E+03  0.00000000000E+00 0.  1.
          2    1    6    6  503    0  0.61825016294E+03  0.13975334590E+03 -0.16050626762E+04  0.17256855033E+04  0.00000000000E+00 0. -1.
         -2    1    6    6    0  503  0.22323506934E+03 -0.41866509230E+00 -0.62113508905E+03  0.66003247671E+03  0.00000000000E+00 0.  1.
<mgrwt>
<rscale>  0 0.26551806E+04</rscale>
<asrwt>0</asrwt>
<pdfrwt beam="1">  1        1 0.84452065E-01 0.26551806E+04</pdfrwt>
<pdfrwt beam="2">  1       -2 0.49395927E+00 0.26551806E+04</pdfrwt>
<totfact> 0.53580255E-02</totfact>
</mgrwt>
</event>
<event>
12    5  0.5297412E-008  0.1856145E+04  0.7818608E-02  0.8676999E-01
         -2   -1    0    0    0  501 -0.00000000000E+00  0.00000000000E+00  0.32432237110E+03  0.32432237110E+03  0.00000000000E+00 0.  1.
          1   -1    0    0  501    0  0.00000000000E+00 -0.00000000000E+00 -0.26557485325E+04  0.26557485325E+04  0.00000000000E+00 0. -1.
        -24    2    1    2    0    0  0.50025669694E+03  0.45953101390E+03 -0.11790731394E+04  0.13631238953E+04  0.80422448744E+02 0.  0.
        254    2    1    2    0    0 -0.50025669694E+03 -0.45953101390E+03 -0.11523530220E+04  0.16169470083E+04  0.90839122896E+03 0.  0.
         23    2    4    4    0    0 -0.15333390050E+03 -0.13005503696E+03 -0.11050388567E+04  0.11269901250E+04  0.92575749408E+02 0.  0.
         23    2    4    4    0    0 -0.34692279645E+03 -0.32947597694E+03 -0.47314165297E+02  0.48995688330E+03  0.94388935714E+02 0.  0.
          3    1    3    3  502    0  0.24422539949E+03  0.17441109917E+03 -0.54890498624E+03  0.62558929114E+03  0.00000000000E+00 0. -1.
         -4    1    3    3    0  502  0.25603129745E+03  0.28511991472E+03 -0.63016815319E+03  0.73753460416E+03  0.00000000000E+00 0.  1.
         13    1    5    5    0    0  0.61644804136E+01  0.41252087067E+01 -0.10959986854E+02  0.13234027259E+02  0.00000000000E+00 0.  1.
        -13    1    5    5    0    0 -0.15949838091E+03 -0.13418024566E+03 -0.10940788699E+04  0.11137560978E+04  0.00000000000E+00 0. -1.
          4    1    6    6  503    0 -0.32654253699E+03 -0.27604334822E+03 -0.58851524961E+02  0.43161726164E+03  0.00000000000E+00 0. -1.
         -4    1    6    6    0  503 -0.20380259458E+02 -0.53432628719E+02  0.11537359664E+02  0.58339621660E+02  0.00000000000E+00 0.  1.
<mgrwt>
<rscale>  0 0.18561451E+04</rscale>
<asrwt>0</asrwt>
<pdfrwt beam="1">  1        1 0.40857669E+00 0.18561451E+04</pdfrwt>
<pdfrwt beam="2">  1       -2 0.49895750E-01 0.18561451E+04</pdfrwt>
<totfact> 0.33100331E+00</totfact>
</mgrwt>
</event>
<event>
12    5  0.5297412E-008  0.1148859E+04  0.7818608E-02  0.9158837E-01
         -2   -1    0    0    0  501 -0.00000000000E+00  0.00000000000E+00  0.10514465957E+03  0.10514465957E+03  0.00000000000E+00 0.  1.
          1   -1    0    0  501    0  0.00000000000E+00 -0.00000000000E+00 -0.31382412181E+04  0.31382412181E+04  0.00000000000E+00 0. -1.
        -24    2    1    2    0    0  0.31625209670E+02 -0.21313773507E+02 -0.14488114926E+02  0.97281456564E+02  0.88313903148E+02 0.  0.
        254    2    1    2    0    0 -0.31625209670E+02  0.21313773507E+02 -0.30186084436E+04  0.31461044211E+04  0.88573227435E+03 0.  0.
         23    2    4    4    0    0 -0.31706434122E+03  0.31137868573E+03 -0.18512004941E+04  0.19059559415E+04  0.90765077970E+02 0.  0.
         23    2    4    4    0    0  0.28543913155E+03 -0.29006491222E+03 -0.11674079495E+04  0.12401484796E+04  0.97538605850E+02 0.  0.
          1    1    3    3  502    0  0.51936073160E+02  0.15326033807E+02 -0.10890511366E+02  0.55234466100E+02  0.00000000000E+00 0. -1.
         -2    1    3    3    0  502 -0.20310863490E+02 -0.36639807314E+02 -0.35976035594E+01  0.42046990464E+02  0.00000000000E+00 0.  1.
         13    1    5    5    0    0 -0.20085379154E+02  0.47794877442E+02 -0.31651448135E+03  0.32073227101E+03  0.00000000000E+00 0. -1.
        -13    1    5    5    0    0 -0.29697896207E+03  0.26358380829E+03 -0.15346860127E+04  0.15852236705E+04  0.00000000000E+00 0.  1.
          2    1    6    6  503    0  0.27233702661E+02  0.20058059400E+01 -0.54938156824E+02  0.61350622599E+02  0.00000000000E+00 0. -1.
         -2    1    6    6    0  503  0.25820542889E+03 -0.29207071816E+03 -0.11124697927E+04  0.11787978570E+04  0.00000000000E+00 0.  1.
<mgrwt>
<rscale>  0 0.11488591E+04</rscale>
<asrwt>0</asrwt>
<pdfrwt beam="1">  1        1 0.48280634E+00 0.11488591E+04</pdfrwt>
<pdfrwt beam="2">  1       -2 0.16176102E-01 0.11488591E+04</pdfrwt>
<totfact> 0.12957989E+01</totfact>
</mgrwt>
</event>
<event>
12    5  0.5297412E-008  0.2782816E+04  0.7818608E-02  0.8308623E-01
          1   -1    0    0  501    0  0.00000000000E+00  0.00000000000E+00  0.33809402029E+04  0.33809402029E+04  0.00000000000E+00 0. -1.
         -2   -1    0    0    0  501 -0.00000000000E+00 -0.00000000000E+00 -0.57262674023E+03  0.57262674023E+03  0.00000000000E+00 0.  1.
        -24    2    1    2    0    0  0.11125637930E+04  0.54623630997E+03  0.12166790013E+04  0.17386852740E+04  0.80909764414E+02 0.  0.
        254    2    1    2    0    0 -0.11125637930E+04 -0.54623630997E+03  0.15916344614E+04  0.22148816691E+04  0.91445516554E+03 0.  0.
         23    2    4    4    0    0 -0.52786338683E+03 -0.44308386576E+03  0.14341318397E+04  0.15937405869E+04  0.91169389021E+02 0.  0.
         23    2    4    4    0    0 -0.58470040617E+03 -0.10315244421E+03  0.15750262169E+03  0.62114108222E+03  0.92163856613E+02 0.  0.
          3    1    3    3  502    0  0.42837734165E+03  0.21784055261E+03  0.52667348861E+03  0.71298430334E+03  0.00000000000E+00 0. -1.
         -4    1    3    3    0  502  0.68418645135E+03  0.32839575736E+03  0.69000551265E+03  0.10257009706E+04  0.00000000000E+00 0.  1.
         13    1    5    5    0    0 -0.49773366124E+03 -0.38636889615E+03  0.12769678698E+04  0.14239616083E+04  0.00000000000E+00 0.  1.
        -13    1    5    5    0    0 -0.30129725592E+02 -0.56714969602E+02  0.15716396991E+03  0.16977897861E+03  0.00000000000E+00 0. -1.
          4    1    6    6  503    0 -0.30996320263E+03 -0.46482748829E+02  0.12984401000E+03  0.33925992963E+03  0.00000000000E+00 0.  1.
         -4    1    6    6    0  503 -0.27473720354E+03 -0.56669695383E+02  0.27658611684E+02  0.28188115259E+03  0.00000000000E+00 0. -1.
<mgrwt>
<rscale>  0 0.27828164E+04</rscale>
<asrwt>0</asrwt>
<pdfrwt beam="1">  1        1 0.52014463E+00 0.27828164E+04</pdfrwt>
<pdfrwt beam="2">  1       -2 0.88096424E-01 0.27828164E+04</pdfrwt>
<totfact> 0.26203288E-01</totfact>
</mgrwt>
</event>
<event>
12    5  0.5297412E-008  0.1679748E+04  0.7818608E-02  0.8773000E-01
         -2   -1    0    0    0  501 -0.00000000000E+00  0.00000000000E+00  0.48580887533E+03  0.48580887533E+03  0.00000000000E+00 0.  1.
          1   -1    0    0  501    0  0.00000000000E+00 -0.00000000000E+00 -0.14519878509E+04  0.14519878509E+04  0.00000000000E+00 0. -1.
        -24    2    1    2    0    0  0.54137621179E+03  0.13151883114E+02 -0.61512025071E+03  0.82299609501E+03  0.75421978492E+02 0.  0.
        254    2    1    2    0    0 -0.54137621179E+03 -0.13151883114E+02 -0.35105872480E+03  0.11148006312E+04  0.90899782413E+03 0.  0.
         23    2    4    4    0    0 -0.53633004375E+03  0.31702926530E+03 -0.43127951547E+03  0.76305482366E+03  0.89962061790E+02 0.  0.
         23    2    4    4    0    0 -0.50461680456E+01 -0.33018114841E+03  0.80220790668E+02  0.35174580752E+03  0.90800238266E+02 0.  0.
          1    1    3    3  502    0  0.38575871605E+03  0.16631473522E+02 -0.48631059165E+03  0.62095441417E+03  0.00000000000E+00 0. -1.
         -2    1    3    3    0  502  0.15561749574E+03 -0.34795904081E+01 -0.12880965906E+03  0.20204168084E+03  0.00000000000E+00 0.  1.
         13    1    5    5    0    0 -0.20315285545E+03  0.72781688018E+02 -0.13265545627E+03  0.25330954752E+03  0.00000000000E+00 0.  1.
        -13    1    5    5    0    0 -0.33317718830E+03  0.24424757728E+03 -0.29862405920E+03  0.50974527614E+03  0.00000000000E+00 0. -1.
          3    1    6    6  503    0 -0.29869713573E+02 -0.30674896124E+03  0.69180578280E+02  0.31586876614E+03  0.00000000000E+00 0. -1.
         -3    1    6    6    0  503  0.24823545527E+02 -0.23432187170E+02  0.11040212388E+02  0.35877041373E+02  0.00000000000E+00 0.  1.
<mgrwt>
<rscale>  0 0.16797483E+04</rscale>
<asrwt>0</asrwt>
<pdfrwt beam="1">  1        1 0.22338274E+00 0.16797483E+04</pdfrwt>
<pdfrwt beam="2">  1       -2 0.74739828E-01 0.16797483E+04</pdfrwt>
<totfact> 0.95086493E+00</totfact>
</mgrwt>
</event>
<event>
12    5  0.5297412E-008  0.1374004E+04  0.7818608E-02  0.8972854E-01
         -2   -1    0    0    0  501 -0.00000000000E+00  0.00000000000E+00  0.49351263667E+03  0.49351263667E+03  0.00000000000E+00 0.  1.
          1   -1    0    0  501    0  0.00000000000E+00 -0.00000000000E+00 -0.95635137006E+03  0.95635137006E+03  0.00000000000E+00 0. -1.
        -24    2    1    2    0    0  0.33275805218E+03  0.17011359133E+03 -0.95076361834E+02  0.39381015670E+03  0.79877216372E+02 0.  0.
        254    2    1    2    0    0 -0.33275805218E+03 -0.17011359133E+03 -0.36776237156E+03  0.10560538500E+04  0.91669734208E+03 0.  0.
         23    2    4    4    0    0 -0.56170732451E+02 -0.45655211809E+03 -0.43816209660E+03  0.64163384077E+03  0.90072054547E+02 0.  0.
         23    2    4    4    0    0 -0.27658731973E+03  0.28643852676E+03  0.70399725037E+02  0.41442000926E+03  0.90775810346E+02 0.  0.
          1    1    3    3  502    0  0.28315839310E+03  0.15244542745E+03 -0.10863392836E+03  0.33944014837E+03  0.00000000000E+00 0. -1.
         -2    1    3    3    0  502  0.49599659086E+02  0.17668163885E+02  0.13557566530E+02  0.54370008339E+02  0.00000000000E+00 0.  1.
         13    1    5    5    0    0  0.14310965547E+02 -0.34896089940E+02 -0.60016388620E+02  0.70883762111E+02  0.00000000000E+00 0. -1.
        -13    1    5    5    0    0 -0.70481697998E+02 -0.42165602815E+03 -0.37814570798E+03  0.57075007866E+03  0.00000000000E+00 0.  1.
          3    1    6    6  503    0 -0.80652567788E+02  0.43480546945E+02 -0.98332306814E+01  0.92152520742E+02  0.00000000000E+00 0. -1.
         -3    1    6    6    0  503 -0.19593475194E+03  0.24295797981E+03  0.80232955719E+02  0.32226748852E+03  0.00000000000E+00 0.  1.
<mgrwt>
<rscale>  0 0.13740036E+04</rscale>
<asrwt>0</asrwt>
<pdfrwt beam="1">  1        1 0.14713098E+00 0.13740036E+04</pdfrwt>
<pdfrwt beam="2">  1       -2 0.75925022E-01 0.13740036E+04</pdfrwt>
<totfact> 0.21803118E+01</totfact>
</mgrwt>
</event>
<event>
12    5  0.5297412E-008  0.1547924E+04  0.7818608E-02  0.8853195E-01
          1   -1    0    0  501    0  0.00000000000E+00  0.00000000000E+00  0.38537348569E+03  0.38537348569E+03  0.00000000000E+00 0. -1.
         -2   -1    0    0    0  501 -0.00000000000E+00 -0.00000000000E+00 -0.15543817933E+04  0.15543817933E+04  0.00000000000E+00 0.  1.
        -24    2    1    2    0    0  0.35413186079E+03  0.78514248598E+02 -0.83905623174E+03  0.91752988666E+03  0.79195143996E+02 0.  0.
        254    2    1    2    0    0 -0.35413186079E+03 -0.78514248598E+02 -0.32995207591E+03  0.10222253924E+04  0.89694064371E+03 0.  0.
         23    2    4    4    0    0 -0.32705086709E+03 -0.45224997463E+03 -0.10653627768E+03  0.57545711778E+03  0.91151559063E+02 0.  0.
         23    2    4    4    0    0 -0.27080993704E+02  0.37373572603E+03 -0.22341579824E+03  0.44676827459E+03  0.96309392833E+02 0.  0.
          3    1    3    3  502    0  0.63386472739E+02 -0.38680492568E+01 -0.93180529720E+02  0.11276266160E+03  0.00000000000E+00 0. -1.
         -4    1    3    3    0  502  0.29074538805E+03  0.82382297855E+02 -0.74587570201E+03  0.80476722506E+03  0.00000000000E+00 0.  1.
         13    1    5    5    0    0 -0.31132325239E+03 -0.45165309843E+03 -0.97031163088E+02  0.55707067362E+03  0.00000000000E+00 0. -1.
        -13    1    5    5    0    0 -0.15727614700E+02 -0.59687620424E+00 -0.95051145879E+01  0.18386444156E+02  0.00000000000E+00 0.  1.
          4    1    6    6  503    0 -0.13949115250E+02  0.37276030224E+03 -0.21046756110E+03  0.42830061291E+03  0.00000000000E+00 0. -1.
         -4    1    6    6    0  503 -0.13131878455E+02  0.97542379842E+00 -0.12948237136E+02  0.18467661689E+02  0.00000000000E+00 0.  1.
<mgrwt>
<rscale>  0 0.15479245E+04</rscale>
<asrwt>0</asrwt>
<pdfrwt beam="1">  1        1 0.59288229E-01 0.15479245E+04</pdfrwt>
<pdfrwt beam="2">  1       -2 0.23913566E+00 0.15479245E+04</pdfrwt>
<totfact> 0.39824392E+00</totfact>
</mgrwt>
</event>
<event>
12    5  0.5297412E-008  0.1631935E+04  0.7818608E-02  0.8801166E-01
          1   -1    0    0  501    0  0.00000000000E+00  0.00000000000E+00  0.10553155652E+04  0.10553155652E+04  0.00000000000E+00 0. -1.
         -2   -1    0    0    0  501 -0.00000000000E+00 -0.00000000000E+00 -0.63090395509E+03  0.63090395509E+03  0.00000000000E+00 0.  1.
        -24    2    1    2    0    0 -0.14221220156E+03 -0.12539215194E+02  0.72855504515E+03  0.74717359602E+03  0.84228181634E+02 0.  0.
        254    2    1    2    0    0  0.14221220156E+03  0.12539215194E+02 -0.30414343503E+03  0.93904592427E+03  0.87688224787E+03 0.  0.
         23    2    4    4    0    0  0.36345340724E+03  0.15435915804E+03  0.12782445346E+03  0.42504808106E+03  0.91660522621E+02 0.  0.
         23    2    4    4    0    0 -0.22124120568E+03 -0.14181994285E+03 -0.43196788850E+03  0.51399784321E+03  0.92395664697E+02 0.  0.
          1    1    3    3  502    0 -0.14304913134E+03  0.81645771013E+00  0.71016850028E+03  0.72443289500E+03  0.00000000000E+00 0. -1.
         -2    1    3    3    0  502  0.83692977707E+00 -0.13355672904E+02  0.18386544874E+02  0.22740701013E+02  0.00000000000E+00 0.  1.
         13    1    5    5    0    0  0.97547541897E+02  0.77385585641E+01  0.57009223183E+02  0.11324954634E+03  0.00000000000E+00 0.  1.
        -13    1    5    5    0    0  0.26590586534E+03  0.14662059948E+03  0.70815230281E+02  0.31179853472E+03  0.00000000000E+00 0. -1.
          1    1    6    6  503    0 -0.22212999808E+03 -0.12336815557E+03 -0.36643041799E+03  0.44590659233E+03  0.00000000000E+00 0. -1.
         -1    1    6    6    0  503  0.88879240779E+00 -0.18451787276E+02 -0.65537470509E+02  0.68091250879E+02  0.00000000000E+00 0.  1.
<mgrwt>
<rscale>  0 0.16319348E+04</rscale>
<asrwt>0</asrwt>
<pdfrwt beam="1">  1        1 0.16235624E+00 0.16319348E+04</pdfrwt>
<pdfrwt beam="2">  1       -2 0.97062146E-01 0.16319348E+04</pdfrwt>
<totfact> 0.10195394E+01</totfact>
</mgrwt>
</event>
<event>
12    5  0.5297412E-008  0.1328062E+04  0.7818608E-02  0.9007603E-01
         -2   -1    0    0    0  501 -0.00000000000E+00  0.00000000000E+00  0.15166348477E+03  0.15166348477E+03  0.00000000000E+00 0.  1.
          1   -1    0    0  501    0  0.00000000000E+00 -0.00000000000E+00 -0.29073405381E+04  0.29073405381E+04  0.00000000000E+00 0. -1.
        -24    2    1    2    0    0 -0.32434778721E+03  0.13722264318E+03 -0.75329985736E+03  0.83527943683E+03  0.78737040910E+02 0.  0.
        254    2    1    2    0    0  0.32434778721E+03 -0.13722264318E+03 -0.20023771960E+04  0.22237245861E+04  0.90078025000E+03 0.  0.
         23    2    4    4    0    0 -0.22819139849E+02 -0.34648424067E+03 -0.28970371072E+03  0.46133373867E+03  0.91260814484E+02 0.  0.
         23    2    4    4    0    0  0.34716692706E+03  0.20926159749E+03 -0.17126734853E+04  0.17623908474E+04  0.91955099886E+02 0.  0.
          1    1    3    3  502    0 -0.19464556131E+03  0.75782654784E+02 -0.53177665534E+03  0.57132855388E+03  0.00000000000E+00 0. -1.
         -2    1    3    3    0  502 -0.12970222590E+03  0.61439988395E+02 -0.22152320202E+03  0.26395088295E+03  0.00000000000E+00 0.  1.
         13    1    5    5    0    0 -0.16260793681E+02 -0.55494600684E+01 -0.21356634159E+02  0.27410139379E+02  0.00000000000E+00 0. -1.
        -13    1    5    5    0    0 -0.65583461680E+01 -0.34093478060E+03 -0.26834707656E+03  0.43392359929E+03  0.00000000000E+00 0.  1.
          3    1    6    6  503    0  0.13949228663E+02  0.98181681084E+01 -0.22832285275E+02  0.28500713258E+02  0.00000000000E+00 0. -1.
         -3    1    6    6    0  503  0.33321769840E+03  0.19944342938E+03 -0.16898412000E+04  0.17338901341E+04  0.00000000000E+00 0.  1.
<mgrwt>
<rscale>  0 0.13280623E+04</rscale>
<asrwt>0</asrwt>
<pdfrwt beam="1">  1        1 0.44728316E+00 0.13280623E+04</pdfrwt>
<pdfrwt beam="2">  1       -2 0.23332844E-01 0.13280623E+04</pdfrwt>
<totfact> 0.98457280E+00</totfact>
</mgrwt>
</event>
<event>
12    5  0.5297412E-008  0.1120913E+04  0.7818608E-02  0.9185045E-01
          1   -1    0    0  501    0  0.00000000000E+00  0.00000000000E+00  0.17510755472E+04  0.17510755472E+04  0.00000000000E+00 0. -1.
         -2   -1    0    0    0  501 -0.00000000000E+00 -0.00000000000E+00 -0.17938213076E+03  0.17938213076E+03  0.00000000000E+00 0.  1.
        -24    2    1    2    0    0  0.19211440182E+02  0.77513633150E+02 -0.33369446369E+01  0.11226545851E+03  0.78834987259E+02 0.  0.
        254    2    1    2    0    0 -0.19211440182E+02 -0.77513633150E+02  0.15750303611E+04  0.18181922195E+04  0.90483416482E+03 0.  0.
         23    2    4    4    0    0  0.18277509279E+02 -0.29986593239E+03  0.15410932694E+04  0.15727800303E+04  0.91732840543E+02 0.  0.
         23    2    4    4    0    0 -0.37488949461E+02  0.22235229924E+03  0.33937091711E+02  0.24541218917E+03  0.90716316559E+02 0.  0.
          1    1    3    3  502    0  0.25294539136E+02  0.72808545698E+01 -0.27190205152E+02  0.37843517405E+02  0.00000000000E+00 0. -1.
         -2    1    3    3    0  502 -0.60830989537E+01  0.70232778581E+02  0.23853260515E+02  0.74421941101E+02  0.00000000000E+00 0.  1.
         13    1    5    5    0    0  0.24112487013E+02 -0.51270549594E+02  0.16649243705E+03  0.17586873765E+03  0.00000000000E+00 0.  1.
        -13    1    5    5    0    0 -0.58349777341E+01 -0.24859538280E+03  0.13746008323E+04  0.13969112927E+04  0.00000000000E+00 0. -1.
          1    1    6    6  503    0 -0.46513638435E+02  0.17465416369E+03 -0.84889907953E+01  0.18094103575E+03  0.00000000000E+00 0. -1.
         -1    1    6    6    0  503  0.90246889738E+01  0.47698135553E+02  0.42426082507E+02  0.64471153419E+02  0.00000000000E+00 0.  1.
<mgrwt>
<rscale>  0 0.11209133E+04</rscale>
<asrwt>0</asrwt>
<pdfrwt beam="1">  1        1 0.26939623E+00 0.11209133E+04</pdfrwt>
<pdfrwt beam="2">  1       -2 0.27597252E-01 0.11209133E+04</pdfrwt>
<totfact> 0.46041148E+01</totfact>
</mgrwt>
</event>
<event>
12    5  0.5297412E-008  0.1092784E+04  0.7818608E-02  0.9212254E-01
          1   -1    0    0  501    0  0.00000000000E+00  0.00000000000E+00  0.22332955168E+04  0.22332955168E+04  0.00000000000E+00 0. -1.
         -2   -1    0    0    0  501 -0.00000000000E+00 -0.00000000000E+00 -0.13367878619E+03  0.13367878619E+03  0.00000000000E+00 0.  1.
        -24    2    1    2    0    0 -0.16920916885E+00  0.12173977333E+03  0.12349481473E+03  0.19114947819E+03  0.80414878623E+02 0.  0.
        254    2    1    2    0    0  0.16920916885E+00 -0.12173977333E+03  0.19761219159E+04  0.21758248248E+04  0.90240525304E+03 0.  0.
         23    2    4    4    0    0 -0.82772433706E+02 -0.18229242893E+03  0.20194713805E+04  0.20316657901E+04  0.96537145084E+02 0.  0.
         23    2    4    4    0    0  0.82941642875E+02  0.60552655593E+02 -0.43349464667E+02  0.14415903469E+03  0.91415047859E+02 0.  0.
          1    1    3    3  502    0 -0.28369048055E+02  0.21086193470E+02  0.57608499030E+02  0.67588235686E+02  0.00000000000E+00 0. -1.
         -2    1    3    3    0  502  0.28199838887E+02  0.10065357986E+03  0.65886315702E+02  0.12356124251E+03  0.00000000000E+00 0.  1.
         13    1    5    5    0    0 -0.97494947295E+02 -0.17808702053E+03  0.17456978324E+04  0.17574644160E+04  0.00000000000E+00 0. -1.
        -13    1    5    5    0    0  0.14722513589E+02 -0.42054084025E+01  0.27377354816E+03  0.27420137406E+03  0.00000000000E+00 0.  1.
          1    1    6    6  503    0  0.25275754369E+02  0.29740188415E+02  0.27504911063E+02  0.47747907792E+02  0.00000000000E+00 0. -1.
         -1    1    6    6    0  503  0.57665888506E+02  0.30812467178E+02 -0.70854375730E+02  0.96411126903E+02  0.00000000000E+00 0.  1.
<mgrwt>
<rscale>  0 0.10927840E+04</rscale>
<asrwt>0</asrwt>
<pdfrwt beam="1">  1        1 0.34358390E+00 0.10927840E+04</pdfrwt>
<pdfrwt beam="2">  1       -2 0.20565969E-01 0.10927840E+04</pdfrwt>
<totfact> 0.37024351E+01</totfact>
</mgrwt>
</event>
<event>
12    5  0.5297412E-008  0.1237900E+04  0.7818608E-02  0.9080315E-01
          1   -1    0    0  501    0  0.00000000000E+00  0.00000000000E+00  0.13928528827E+04  0.13928528827E+04  0.00000000000E+00 0. -1.
         -2   -1    0    0    0  501 -0.00000000000E+00 -0.00000000000E+00 -0.27504631968E+03  0.27504631968E+03  0.00000000000E+00 0.  1.
        -24    2    1    2    0    0  0.76216304882E+02 -0.26370849494E+03  0.15781729525E+03  0.32611444717E+03  0.78059198955E+02 0.  0.
        254    2    1    2    0    0 -0.76216304882E+02  0.26370849494E+03  0.95998926781E+03  0.13417847552E+04  0.89635698227E+03 0.  0.
         23    2    4    4    0    0  0.69777174763E+02 -0.26849661239E+03  0.86250889376E+02  0.30439885474E+03  0.90885432630E+02 0.  0.
         23    2    4    4    0    0 -0.14599347965E+03  0.53220510733E+03  0.87373837844E+03  0.10373859005E+04  0.90522816138E+02 0.  0.
          1    1    3    3  502    0 -0.52748892308E+01 -0.12030687462E+03  0.64548012371E+02  0.13663094247E+03  0.00000000000E+00 0. -1.
         -2    1    3    3    0  502  0.81491194113E+02 -0.14340162032E+03  0.93269282879E+02  0.18948350471E+03  0.00000000000E+00 0.  1.
         13    1    5    5    0    0  0.49126338488E+02 -0.43565641793E+02  0.12949535367E+02  0.66925725579E+02  0.00000000000E+00 0.  1.
        -13    1    5    5    0    0  0.20650836275E+02 -0.22493097060E+03  0.73301354009E+02  0.23747312916E+03  0.00000000000E+00 0. -1.
          2    1    6    6  503    0 -0.10970750198E+03  0.31350894665E+03  0.59285218509E+03  0.67955670035E+03  0.00000000000E+00 0. -1.
         -2    1    6    6    0  503 -0.36285977666E+02  0.21869616068E+03  0.28088619334E+03  0.35782920015E+03  0.00000000000E+00 0.  1.
<mgrwt>
<rscale>  0 0.12378999E+04</rscale>
<asrwt>0</asrwt>
<pdfrwt beam="1">  1        1 0.21428506E+00 0.12378999E+04</pdfrwt>
<pdfrwt beam="2">  1       -2 0.42314819E-01 0.12378999E+04</pdfrwt>
<totfact> 0.35622287E+01</totfact>
</mgrwt>
</event>
<event>
12    5  0.5297412E-008  0.1394976E+04  0.7818608E-02  0.8957463E-01
         -2   -1    0    0    0  501 -0.00000000000E+00  0.00000000000E+00  0.40273759917E+03  0.40273759917E+03  0.00000000000E+00 0.  1.
          1   -1    0    0  501    0  0.00000000000E+00 -0.00000000000E+00 -0.12079571931E+04  0.12079571931E+04  0.00000000000E+00 0. -1.
        -24    2    1    2    0    0 -0.28171506744E+03 -0.20798566483E+03 -0.41919795981E+03  0.55208852614E+03  0.80333026728E+02 0.  0.
        254    2    1    2    0    0  0.28171506744E+03  0.20798566483E+03 -0.38602163407E+03  0.10586062661E+04  0.92141907329E+03 0.  0.
         23    2    4    4    0    0 -0.14197227586E+03  0.64439894276E+02 -0.54592217450E+03  0.57498611116E+03  0.90936133269E+02 0.  0.
         23    2    4    4    0    0  0.42368734330E+03  0.14354577056E+03  0.15990054043E+03  0.48362015492E+03  0.90575484014E+02 0.  0.
          1    1    3    3  502    0 -0.17887627001E+03 -0.84787454121E+02 -0.25013846005E+03  0.31899040980E+03  0.00000000000E+00 0. -1.
         -2    1    3    3    0  502 -0.10283879743E+03 -0.12319821071E+03 -0.16905949976E+03  0.23309811633E+03  0.00000000000E+00 0.  1.
         13    1    5    5    0    0 -0.12565607602E+03  0.57891746772E+02 -0.53835081471E+03  0.55584395606E+03  0.00000000000E+00 0. -1.
        -13    1    5    5    0    0 -0.16316199841E+02  0.65481475043E+01 -0.75713597835E+01  0.19142155103E+02  0.00000000000E+00 0.  1.
          2    1    6    6  503    0  0.32626440072E+03  0.14880837069E+03  0.13232228298E+03  0.38223235988E+03  0.00000000000E+00 0. -1.
         -2    1    6    6    0  503  0.97422942573E+02 -0.52626001326E+01  0.27578257446E+02  0.10138779504E+03  0.00000000000E+00 0.  1.
<mgrwt>
<rscale>  0 0.13949764E+04</rscale>
<asrwt>0</asrwt>
<pdfrwt beam="1">  1        1 0.18583956E+00 0.13949764E+04</pdfrwt>
<pdfrwt beam="2">  1       -2 0.61959632E-01 0.13949764E+04</pdfrwt>
<totfact> 0.21819672E+01</totfact>
</mgrwt>
</event>
<event>
12    5  0.5297412E-008  0.1506368E+04  0.7818608E-02  0.8880229E-01
         -2   -1    0    0    0  501 -0.00000000000E+00  0.00000000000E+00  0.27544369893E+03  0.27544369893E+03  0.00000000000E+00 0.  1.
          1   -1    0    0  501    0  0.00000000000E+00 -0.00000000000E+00 -0.20595358111E+04  0.20595358111E+04  0.00000000000E+00 0. -1.
        -24    2    1    2    0    0 -0.13567941240E+03  0.42204574472E+03 -0.28216928844E+03  0.53197417529E+03  0.82737550451E+02 0.  0.
        254    2    1    2    0    0  0.13567941240E+03 -0.42204574472E+03 -0.15019228237E+04  0.18030053347E+04  0.89360201155E+03 0.  0.
         23    2    4    4    0    0  0.87253589559E+02 -0.86772448876E+01  0.89761414372E+02  0.15479824083E+03  0.90647120109E+02 0.  0.
         23    2    4    4    0    0  0.48425822838E+02 -0.41336849984E+03 -0.15916842381E+04  0.16482070939E+04  0.99545635873E+02 0.  0.
          1    1    3    3  502    0 -0.12724637109E+02  0.78472360321E+01  0.16334057134E+01  0.15038733894E+02  0.00000000000E+00 0. -1.
         -2    1    3    3    0  502 -0.12295477529E+03  0.41419850869E+03 -0.28380269415E+03  0.51693544140E+03  0.00000000000E+00 0.  1.
         13    1    5    5    0    0  0.49515824581E+02  0.31641495911E+02  0.79125604604E+02  0.98558928826E+02  0.00000000000E+00 0. -1.
        -13    1    5    5    0    0  0.37737764978E+02 -0.40318740799E+02  0.10635809768E+02  0.56239312003E+02  0.00000000000E+00 0.  1.
          1    1    6    6  503    0  0.62917362228E+02 -0.35411954897E+03 -0.12334938312E+04  0.12848604131E+04  0.00000000000E+00 0. -1.
         -1    1    6    6    0  503 -0.14491539389E+02 -0.59248950869E+02 -0.35819040682E+03  0.36334668077E+03  0.00000000000E+00 0.  1.
<mgrwt>
<rscale>  0 0.15063680E+04</rscale>
<asrwt>0</asrwt>
<pdfrwt beam="1">  1        1 0.31685166E+00 0.15063680E+04</pdfrwt>
<pdfrwt beam="2">  1       -2 0.42375954E-01 0.15063680E+04</pdfrwt>
<totfact> 0.12174575E+01</totfact>
</mgrwt>
</event>
<event>
12    5  0.5297412E-008  0.2633076E+04  0.7818608E-02  0.8357052E-01
          1   -1    0    0  501    0  0.00000000000E+00  0.00000000000E+00  0.17330399577E+04  0.17330399577E+04  0.00000000000E+00 0. -1.
         -2   -1    0    0    0  501 -0.00000000000E+00 -0.00000000000E+00 -0.10001340849E+04  0.10001340849E+04  0.00000000000E+00 0.  1.
        -24    2    1    2    0    0  0.44531394604E+02 -0.21658166510E+02  0.15235498755E+04  0.15264148106E+04  0.79283224269E+02 0.  0.
        254    2    1    2    0    0 -0.44531394604E+02  0.21658166510E+02 -0.79064400269E+03  0.12067592320E+04  0.91032839342E+03 0.  0.
         23    2    4    4    0    0 -0.21901570169E+03 -0.34240830675E+03 -0.64497755013E+03  0.76795297331E+03  0.92435939557E+02 0.  0.
         23    2    4    4    0    0  0.17448430708E+03  0.36406647326E+03 -0.14566645256E+03  0.43880625874E+03  0.91340281053E+02 0.  0.
          1    1    3    3  502    0  0.51627012990E+02 -0.38728281066E+02  0.14002815078E+04  0.14017680013E+04  0.00000000000E+00 0. -1.
         -2    1    3    3    0  502 -0.70956183858E+01  0.17070114556E+02  0.12326836768E+03  0.12464680935E+03  0.00000000000E+00 0.  1.
         13    1    5    5    0    0 -0.21113950650E+02  0.60786251642E-01 -0.27874514926E+02  0.34968431326E+02  0.00000000000E+00 0. -1.
        -13    1    5    5    0    0 -0.19790175104E+03 -0.34246909300E+03 -0.61710303521E+03  0.73298454198E+03  0.00000000000E+00 0.  1.
          1    1    6    6  503    0  0.26293897614E+02  0.46563501671E+02  0.11646707207E+02  0.54728187695E+02  0.00000000000E+00 0. -1.
         -1    1    6    6    0  503  0.14819040947E+03  0.31750297158E+03 -0.15731315977E+03  0.38407807105E+03  0.00000000000E+00 0.  1.
<mgrwt>
<rscale>  0 0.26330760E+04</rscale>
<asrwt>0</asrwt>
<pdfrwt beam="1">  1        1 0.26662153E+00 0.26330760E+04</pdfrwt>
<pdfrwt beam="2">  1       -2 0.15386678E+00 0.26330760E+04</pdfrwt>
<totfact> 0.97749170E-01</totfact>
</mgrwt>
</event>
<event>
12    5  0.5297412E-008  0.1709708E+04  0.7818608E-02  0.8755847E-01
         -2   -1    0    0    0  501 -0.00000000000E+00  0.00000000000E+00  0.39322503015E+03  0.39322503015E+03  0.00000000000E+00 0.  1.
          1   -1    0    0  501    0  0.00000000000E+00 -0.00000000000E+00 -0.18584151937E+04  0.18584151937E+04  0.00000000000E+00 0. -1.
        -24    2    1    2    0    0 -0.29784405398E+03  0.47342813720E+03 -0.87277930953E+03  0.10418903042E+04  0.10462505088E+03 0.  0.
        254    2    1    2    0    0  0.29784405398E+03 -0.47342813720E+03 -0.59241085398E+03  0.12097499196E+04  0.89425889232E+03 0.  0.
         23    2    4    4    0    0  0.53306741902E+03 -0.42358382250E+02 -0.21555357012E+03  0.58385902505E+03  0.92048431714E+02 0.  0.
         23    2    4    4    0    0 -0.23522336504E+03 -0.43106975495E+03 -0.37685728386E+03  0.62589089455E+03  0.92557195246E+02 0.  0.
          1    1    3    3  502    0 -0.18320472931E+03  0.37651508042E+03 -0.63041028399E+03  0.75679898572E+03  0.00000000000E+00 0. -1.
         -2    1    3    3    0  502 -0.11463932467E+03  0.96913056778E+02 -0.24236902554E+03  0.28509131849E+03  0.00000000000E+00 0.  1.
         13    1    5    5    0    0  0.35913191558E+03 -0.66837111811E+02 -0.12392459509E+03  0.38574633838E+03  0.00000000000E+00 0. -1.
        -13    1    5    5    0    0  0.17393550343E+03  0.24478729560E+02 -0.91628975035E+02  0.19811268668E+03  0.00000000000E+00 0.  1.
          4    1    6    6  503    0 -0.14383152503E+03 -0.18081017389E+03 -0.20474917667E+03  0.30871030421E+03  0.00000000000E+00 0. -1.
         -4    1    6    6    0  503 -0.91391840010E+02 -0.25025958106E+03 -0.17210810719E+03  0.31718059035E+03  0.00000000000E+00 0.  1.
<mgrwt>
<rscale>  0 0.17097080E+04</rscale>
<asrwt>0</asrwt>
<pdfrwt beam="1">  1        1 0.28591003E+00 0.17097080E+04</pdfrwt>
<pdfrwt beam="2">  1       -2 0.60496158E-01 0.17097080E+04</pdfrwt>
<totfact> 0.79000212E+00</totfact>
</mgrwt>
</event>
<event>
12    5  0.5297412E-008  0.1341275E+04  0.7818608E-02  0.8997459E-01
         -2   -1    0    0    0  501 -0.00000000000E+00  0.00000000000E+00  0.23288569972E+03  0.23288569972E+03  0.00000000000E+00 0.  1.
          1   -1    0    0  501    0  0.00000000000E+00 -0.00000000000E+00 -0.19312262093E+04  0.19312262093E+04  0.00000000000E+00 0. -1.
        -24    2    1    2    0    0  0.26709929157E+03 -0.25195863522E+03 -0.74341589691E+03  0.83293615063E+03  0.79311095191E+02 0.  0.
        254    2    1    2    0    0 -0.26709929157E+03  0.25195863522E+03 -0.95492461266E+03  0.13311757584E+04  0.85165879225E+03 0.  0.
         23    2    4    4    0    0  0.59755807354E+02 -0.19267551988E+03  0.42384546498E+01  0.22072201572E+03  0.89474193212E+02 0.  0.
         23    2    4    4    0    0 -0.32685509892E+03  0.44463415511E+03 -0.95916306731E+03  0.11104537427E+04  0.92627951057E+02 0.  0.
          1    1    3    3  502    0  0.10688306055E+03 -0.13211048009E+03 -0.41397791235E+03  0.44749846871E+03  0.00000000000E+00 0. -1.
         -2    1    3    3    0  502  0.16021623102E+03 -0.11984815513E+03 -0.32943798456E+03  0.38543768192E+03  0.00000000000E+00 0.  1.
         13    1    5    5    0    0  0.13734711760E+02 -0.14479000977E+03 -0.26002512600E+02  0.14774613327E+03  0.00000000000E+00 0. -1.
        -13    1    5    5    0    0  0.46021095594E+02 -0.47885510115E+02  0.30240967250E+02  0.72975882446E+02  0.00000000000E+00 0.  1.
          1    1    6    6  503    0 -0.15179169867E+03  0.25683730531E+03 -0.58493399209E+03  0.65662310063E+03  0.00000000000E+00 0. -1.
         -1    1    6    6    0  503 -0.17506340025E+03  0.18779684980E+03 -0.37422907522E+03  0.45383064203E+03  0.00000000000E+00 0.  1.
<mgrwt>
<rscale>  0 0.13412755E+04</rscale>
<asrwt>0</asrwt>
<pdfrwt beam="1">  1        1 0.29711173E+00 0.13412755E+04</pdfrwt>
<pdfrwt beam="2">  1       -2 0.35828568E-01 0.13412755E+04</pdfrwt>
<totfact> 0.20914189E+01</totfact>
</mgrwt>
</event>
<event>
12    5  0.5297412E-008  0.1616054E+04  0.7818608E-02  0.8810746E-01
          1   -1    0    0  501    0  0.00000000000E+00  0.00000000000E+00  0.20892857648E+04  0.20892857648E+04  0.00000000000E+00 0. -1.
         -2   -1    0    0    0  501 -0.00000000000E+00 -0.00000000000E+00 -0.31250290656E+03  0.31250290656E+03  0.00000000000E+00 0.  1.
        -24    2    1    2    0    0 -0.14817341944E+03  0.38319993443E+03  0.60183492977E+02  0.42283961768E+03  0.79835690508E+02 0.  0.
        254    2    1    2    0    0  0.14817341944E+03 -0.38319993443E+03  0.17165993652E+04  0.19789490536E+04  0.89483429989E+03 0.  0.
         23    2    4    4    0    0 -0.83989853241E+02 -0.44583920863E+03  0.16478585252E+04  0.17115960778E+04  0.91085231201E+02 0.  0.
         23    2    4    4    0    0  0.23216327268E+03  0.62639274207E+02  0.68740840059E+02  0.26735297580E+03  0.94492574946E+02 0.  0.
          1    1    3    3  502    0 -0.11350758751E+02  0.81998465838E+02 -0.13600037238E+02  0.83890101543E+02  0.00000000000E+00 0. -1.
         -2    1    3    3    0  502 -0.13682266069E+03  0.30120146859E+03  0.73783530215E+02  0.33894951613E+03  0.00000000000E+00 0.  1.
         13    1    5    5    0    0 -0.65079579552E+02 -0.13148537818E+03  0.47012006933E+03  0.49248008684E+03  0.00000000000E+00 0. -1.
        -13    1    5    5    0    0 -0.18910273689E+02 -0.31435383046E+03  0.11777384558E+04  0.12191159910E+04  0.00000000000E+00 0.  1.
          2    1    6    6  503    0  0.14010157341E+03 -0.88416421892E+01  0.51508595211E+02  0.14953180561E+03  0.00000000000E+00 0. -1.
         -2    1    6    6    0  503  0.92061699273E+02  0.71480916396E+02  0.17232244848E+02  0.11782117019E+03  0.00000000000E+00 0.  1.
<mgrwt>
<rscale>  0 0.16160543E+04</rscale>
<asrwt>0</asrwt>
<pdfrwt beam="1">  1        1 0.32142857E+00 0.16160543E+04</pdfrwt>
<pdfrwt beam="2">  1       -2 0.48077372E-01 0.16160543E+04</pdfrwt>
<totfact> 0.89420896E+00</totfact>
</mgrwt>
</event>
<event>
12    5  0.5297412E-008  0.1893901E+04  0.7818608E-02  0.8657898E-01
          1   -1    0    0  501    0  0.00000000000E+00  0.00000000000E+00  0.37065590222E+03  0.37065590222E+03  0.00000000000E+00 0. -1.
         -4   -1    0    0    0  501 -0.00000000000E+00 -0.00000000000E+00 -0.24192658039E+04  0.24192658039E+04  0.00000000000E+00 0.  1.
        -24    2    1    2    0    0 -0.11682942299E+03  0.71652459768E+03 -0.72004128606E+03  0.10257192273E+04  0.81141028431E+02 0.  0.
        254    2    1    2    0    0  0.11682942299E+03 -0.71652459768E+03 -0.13285686157E+04  0.17642024788E+04  0.90568162547E+03 0.  0.
         23    2    4    4    0    0  0.56215168125E+02 -0.60779257632E+03 -0.14442385731E+04  0.15705054961E+04  0.89947185532E+02 0.  0.
         23    2    4    4    0    0  0.60614254865E+02 -0.10873202135E+03  0.11566995743E+03  0.19369698280E+03  0.92963658132E+02 0.  0.
          3    1    3    3  502    0 -0.97068780312E+02  0.50971180698E+03 -0.56029808738E+03  0.76365071925E+03  0.00000000000E+00 0. -1.
         -4    1    3    3    0  502 -0.19760642678E+02  0.20681279069E+03 -0.15974319868E+03  0.26206850806E+03  0.00000000000E+00 0.  1.
         13    1    5    5    0    0 -0.28349994128E+00 -0.35284597657E+03 -0.75245051581E+03  0.83107288627E+03  0.00000000000E+00 0. -1.
        -13    1    5    5    0    0  0.56498668066E+02 -0.25494659975E+03 -0.69178805728E+03  0.73943260978E+03  0.00000000000E+00 0.  1.
          2    1    6    6  503    0  0.44500611664E+02 -0.67431499596E+01  0.63985295605E+02  0.78229742193E+02  0.00000000000E+00 0. -1.
         -2    1    6    6    0  503  0.16113643201E+02 -0.10198887139E+03  0.51684661823E+02  0.11546724060E+03  0.00000000000E+00 0.  1.
<mgrwt>
<rscale>  0 0.18939009E+04</rscale>
<asrwt>0</asrwt>
<pdfrwt beam="1">  1        1 0.57023984E-01 0.18939009E+04</pdfrwt>
<pdfrwt beam="2">  1       -4 0.37219474E+00 0.18939009E+04</pdfrwt>
<totfact> 0.31260203E-01</totfact>
</mgrwt>
</event>
<event>
12    5  0.5297412E-008  0.1289809E+04  0.7818608E-02  0.9037686E-01
          1   -1    0    0  501    0  0.00000000000E+00  0.00000000000E+00  0.23664836623E+04  0.23664836623E+04  0.00000000000E+00 0. -1.
         -2   -1    0    0    0  501 -0.00000000000E+00 -0.00000000000E+00 -0.17574674744E+03  0.17574674744E+03  0.00000000000E+00 0.  1.
        -24    2    1    2    0    0 -0.15272471882E+03 -0.26453132996E+03  0.39387053552E+03  0.50450481213E+03  0.78034879647E+02 0.  0.
        254    2    1    2    0    0  0.15272471882E+03  0.26453132996E+03  0.17968663794E+04  0.20377255976E+04  0.91120533454E+03 0.  0.
         23    2    4    4    0    0 -0.14950476008E+03 -0.27356520990E+03  0.46481777658E+03  0.56684871353E+03  0.89845986279E+02 0.  0.
         23    2    4    4    0    0  0.30222947890E+03  0.53809653986E+03  0.13320486028E+04  0.14708768841E+04  0.90745710077E+02 0.  0.
          1    1    3    3  502    0 -0.35034396651E+01  0.55672810306E+01  0.64562027568E+01  0.92169008673E+01  0.00000000000E+00 0. -1.
         -2    1    3    3    0  502 -0.14922127915E+03 -0.27009861099E+03  0.38741433276E+03  0.49528791126E+03  0.00000000000E+00 0.  1.
         13    1    5    5    0    0 -0.10312062651E+03 -0.25240138768E+03  0.40535286429E+03  0.48851946604E+03  0.00000000000E+00 0.  1.
        -13    1    5    5    0    0 -0.46384133574E+02 -0.21163822222E+02  0.59464912294E+02  0.78329247492E+02  0.00000000000E+00 0. -1.
          2    1    6    6  503    0  0.15765379131E+02  0.51885967046E+01  0.60351074579E+02  0.62591700071E+02  0.00000000000E+00 0. -1.
         -2    1    6    6    0  503  0.28646409977E+03  0.53290794315E+03  0.12716975282E+04  0.14082851840E+04  0.00000000000E+00 0.  1.
<mgrwt>
<rscale>  0 0.12898090E+04</rscale>
<asrwt>0</asrwt>
<pdfrwt beam="1">  1        1 0.36407439E+00 0.12898090E+04</pdfrwt>
<pdfrwt beam="2">  1       -2 0.27037963E-01 0.12898090E+04</pdfrwt>
<totfact> 0.18048594E+01</totfact>
</mgrwt>
</event>
<event>
12    5  0.5297412E-008  0.2560032E+04  0.7818608E-02  0.8381905E-01
         -2   -1    0    0    0  501 -0.00000000000E+00  0.00000000000E+00  0.10547135582E+04  0.10547135582E+04  0.00000000000E+00 0.  1.
          1   -1    0    0  501    0  0.00000000000E+00 -0.00000000000E+00 -0.15534467613E+04  0.15534467613E+04  0.00000000000E+00 0. -1.
        -24    2    1    2    0    0 -0.97484539735E+03 -0.53866698131E+03 -0.90832360728E+02  0.11203119871E+04  0.79766943636E+02 0.  0.
        254    2    1    2    0    0  0.97484539735E+03  0.53866698131E+03 -0.40790084243E+03  0.14878483323E+04  0.89823376541E+03 0.  0.
         23    2    4    4    0    0  0.17076540679E+03  0.31138728717E+03  0.22986767511E+03  0.43263034582E+03  0.90592501304E+02 0.  0.
         23    2    4    4    0    0  0.80407999055E+03  0.22727969414E+03 -0.63776851754E+03  0.10552179865E+04  0.92388454603E+02 0.  0.
          1    1    3    3  502    0 -0.81547820246E+03 -0.42982717362E+03 -0.50828798518E+02  0.92322243508E+03  0.00000000000E+00 0. -1.
         -2    1    3    3    0  502 -0.15936719489E+03 -0.10883980769E+03 -0.40003562210E+02  0.19708955206E+03  0.00000000000E+00 0.  1.
         13    1    5    5    0    0  0.16980380314E+03  0.31595227005E+03  0.21766882310E+03  0.41956988103E+03  0.00000000000E+00 0.  1.
        -13    1    5    5    0    0  0.96160364730E+00 -0.45649828807E+01  0.12198852006E+02  0.13060464790E+02  0.00000000000E+00 0. -1.
          3    1    6    6  503    0  0.25886166482E+03  0.11747406087E+03 -0.20384372587E+03  0.34980248866E+03  0.00000000000E+00 0. -1.
         -3    1    6    6    0  503  0.54521832573E+03  0.10980563327E+03 -0.43392479167E+03  0.70541549787E+03  0.00000000000E+00 0.  1.
<mgrwt>
<rscale>  0 0.25600323E+04</rscale>
<asrwt>0</asrwt>
<pdfrwt beam="1">  1        1 0.23899181E+00 0.25600323E+04</pdfrwt>
<pdfrwt beam="2">  1       -2 0.16226362E+00 0.25600323E+04</pdfrwt>
<totfact> 0.11303546E+00</totfact>
</mgrwt>
</event>
<event>
12    5  0.5297412E-008  0.1642501E+04  0.7818608E-02  0.8794855E-01
         -4   -1    0    0    0  501 -0.00000000000E+00  0.00000000000E+00  0.48654282676E+03  0.48654282676E+03  0.00000000000E+00 0.  1.
          1   -1    0    0  501    0  0.00000000000E+00 -0.00000000000E+00 -0.13862141103E+04  0.13862141103E+04  0.00000000000E+00 0. -1.
        -24    2    1    2    0    0  0.10281661136E+03 -0.30080043996E+03  0.22102192876E+03  0.39533355826E+03  0.79911006997E+02 0.  0.
        254    2    1    2    0    0 -0.10281661136E+03  0.30080043996E+03 -0.11206932123E+04  0.14774233788E+04  0.90872130156E+03 0.  0.
         23    2    4    4    0    0  0.22905837675E+03  0.40560360728E+03 -0.98366746176E+03  0.10922903188E+04  0.92273718048E+02 0.  0.
         23    2    4    4    0    0 -0.33187498811E+03 -0.10480316731E+03 -0.13702575057E+03  0.38513306002E+03  0.91797091428E+02 0.  0.
          3    1    3    3  502    0  0.58100848078E+02 -0.76935855304E+02  0.41713643441E+02  0.10504695344E+03  0.00000000000E+00 0. -1.
         -4    1    3    3    0  502  0.44715763278E+02 -0.22386458466E+03  0.17930828532E+03  0.29028660482E+03  0.00000000000E+00 0.  1.
         13    1    5    5    0    0  0.60309115677E+02  0.48809684707E+02 -0.20760477802E+03  0.22162878561E+03  0.00000000000E+00 0. -1.
        -13    1    5    5    0    0  0.16874926107E+03  0.35679392257E+03 -0.77606268374E+03  0.87066153320E+03  0.00000000000E+00 0.  1.
          1    1    6    6  503    0 -0.17728976064E+03 -0.96511640077E+01 -0.81042888919E+02  0.19517365098E+03  0.00000000000E+00 0. -1.
         -1    1    6    6    0  503 -0.15458522747E+03 -0.95152003304E+02 -0.55982861646E+02  0.18995940904E+03  0.00000000000E+00 0.  1.
<mgrwt>
<rscale>  0 0.16425012E+04</rscale>
<asrwt>0</asrwt>
<pdfrwt beam="1">  1        1 0.21326371E+00 0.16425012E+04</pdfrwt>
<pdfrwt beam="2">  1       -4 0.74852743E-01 0.16425012E+04</pdfrwt>
<totfact> 0.59314214E+00</totfact>
</mgrwt>
</event>
<event>
12    5  0.5297412E-008  0.1876776E+04  0.7818608E-02  0.8666504E-01
         -4   -1    0    0    0  501 -0.00000000000E+00  0.00000000000E+00  0.89817173488E+03  0.89817173488E+03  0.00000000000E+00 0.  1.
          1   -1    0    0  501    0  0.00000000000E+00 -0.00000000000E+00 -0.98040454225E+03  0.98040454225E+03  0.00000000000E+00 0. -1.
        -24    2    1    2    0    0 -0.11491009068E+03  0.35238402174E+03  0.59086596560E+03  0.70226126976E+03  0.81666847549E+02 0.  0.
        254    2    1    2    0    0  0.11491009068E+03 -0.35238402174E+03 -0.67309877297E+03  0.11763150074E+04  0.89066054740E+03 0.  0.
         23    2    4    4    0    0  0.28138335762E+02 -0.30343627998E+03 -0.87613977726E+03  0.93208438631E+03  0.91077175833E+02 0.  0.
         23    2    4    4    0    0  0.86771754920E+02 -0.48947741761E+02  0.20304100429E+03  0.24423062107E+03  0.92183121940E+02 0.  0.
          3    1    3    3  502    0 -0.15479691604E+02  0.14257855492E+03  0.17795737293E+03  0.22855435186E+03  0.00000000000E+00 0. -1.
         -4    1    3    3    0  502 -0.99430399078E+02  0.20980546682E+03  0.41290859266E+03  0.47370691790E+03  0.00000000000E+00 0.  1.
         13    1    5    5    0    0  0.16789940899E+02 -0.14253525585E+03 -0.54743623412E+03  0.56593695029E+03  0.00000000000E+00 0.  1.
        -13    1    5    5    0    0  0.11348394863E+02 -0.16090102412E+03 -0.32870354314E+03  0.36614743602E+03  0.00000000000E+00 0. -1.
          1    1    6    6  503    0  0.20997742852E+02 -0.11617349652E+02 -0.35251763418E+01  0.24254790992E+02  0.00000000000E+00 0. -1.
         -1    1    6    6    0  503  0.65774012068E+02 -0.37330392108E+02  0.20656618063E+03  0.21997583008E+03  0.00000000000E+00 0.  1.
<mgrwt>
<rscale>  0 0.18767756E+04</rscale>
<asrwt>0</asrwt>
<pdfrwt beam="1">  1        1 0.15083147E+00 0.18767756E+04</pdfrwt>
<pdfrwt beam="2">  1       -4 0.13818027E+00 0.18767756E+04</pdfrwt>
<totfact> 0.26351157E+00</totfact>
</mgrwt>
</event>
<event>
12    5  0.5297412E-008  0.1607707E+04  0.7818608E-02  0.8815827E-01
         -4   -1    0    0    0  501 -0.00000000000E+00  0.00000000000E+00  0.22485857680E+04  0.22485857680E+04  0.00000000000E+00 0.  1.
          3   -1    0    0  501    0  0.00000000000E+00 -0.00000000000E+00 -0.28737187859E+03  0.28737187859E+03  0.00000000000E+00 0. -1.
        -24    2    1    2    0    0 -0.14120155043E+03 -0.48228020425E+03  0.33876480862E+03  0.61131856402E+03  0.80104418754E+02 0.  0.
        254    2    1    2    0    0  0.14120155043E+03  0.48228020425E+03  0.16224490808E+04  0.19246390826E+04  0.90518644772E+03 0.  0.
         23    2    4    4    0    0 -0.50245924160E+02 -0.33604596169E+02 -0.82589725643E+02  0.13067687053E+03  0.81249368806E+02 0.  0.
         23    2    4    4    0    0  0.19144747459E+03  0.51588480042E+03  0.17050388064E+04  0.17939622120E+04  0.91399255733E+02 0.  0.
          3    1    3    3  502    0 -0.13315544282E+03 -0.36592677926E+03  0.28688533178E+03  0.48366928093E+03  0.00000000000E+00 0. -1.
         -4    1    3    3    0  502 -0.80461076051E+01 -0.11635342499E+03  0.51879476841E+02  0.12764928309E+03  0.00000000000E+00 0.  1.
         13    1    5    5    0    0 -0.31647731884E+01  0.13039401077E+02  0.10055096920E+02  0.16767431046E+02  0.00000000000E+00 0.  1.
        -13    1    5    5    0    0 -0.47081150972E+02 -0.46643997247E+02 -0.92644822564E+02  0.11390943949E+03  0.00000000000E+00 0. -1.
          1    1    6    6  503    0  0.14880050268E+03  0.37741170675E+03  0.11187437557E+04  0.11900288975E+04  0.00000000000E+00 0. -1.
         -1    1    6    6    0  503  0.42646971909E+02  0.13847309367E+03  0.58629505076E+03  0.60393331455E+03  0.00000000000E+00 0.  1.
<mgrwt>
<rscale>  0 0.16077068E+04</rscale>
<asrwt>0</asrwt>
<pdfrwt beam="1">  1        3 0.44211060E-01 0.16077068E+04</pdfrwt>
<pdfrwt beam="2">  1       -4 0.34593626E+00 0.16077068E+04</pdfrwt>
<totfact> 0.17720438E-01</totfact>
</mgrwt>
</event>
<event>
12    5  0.5297412E-008  0.1816787E+04  0.7818608E-02  0.8697423E-01
          1   -1    0    0  501    0  0.00000000000E+00  0.00000000000E+00  0.30621063204E+04  0.30621063204E+04  0.00000000000E+00 0. -1.
         -2   -1    0    0    0  501 -0.00000000000E+00 -0.00000000000E+00 -0.26948063816E+03  0.26948063816E+03  0.00000000000E+00 0.  1.
        -24    2    1    2    0    0 -0.47686572499E+03  0.40293053296E+02  0.19852244443E+04  0.20435981800E+04  0.78440915104E+02 0.  0.
        254    2    1    2    0    0  0.47686572499E+03 -0.40293053296E+02  0.80740123790E+03  0.12879887785E+04  0.88203961639E+03 0.  0.
         23    2    4    4    0    0  0.71330784442E+03 -0.12125490960E+03  0.52434441693E+03  0.89818113728E+03  0.91002493306E+02 0.  0.
         23    2    4    4    0    0 -0.23644211944E+03  0.80961856306E+02  0.28305682097E+03  0.38980764126E+03  0.96794293559E+02 0.  0.
          1    1    3    3  502    0 -0.23673935977E+03  0.25437696973E+02  0.82390366091E+03  0.85761870511E+03  0.00000000000E+00 0. -1.
         -2    1    3    3    0  502 -0.24012636522E+03  0.14855356324E+02  0.11613207834E+04  0.11859794749E+04  0.00000000000E+00 0.  1.
         13    1    5    5    0    0  0.43424794484E+03 -0.71188974976E+02  0.26336529304E+03  0.51283567089E+03  0.00000000000E+00 0.  1.
        -13    1    5    5    0    0  0.27905989958E+03 -0.50065934626E+02  0.26097912389E+03  0.38534546639E+03  0.00000000000E+00 0. -1.
          3    1    6    6  503    0 -0.57205541031E+02  0.42526835237E+02  0.30010737620E+02  0.77341127561E+02  0.00000000000E+00 0. -1.
         -3    1    6    6    0  503 -0.17923657840E+03  0.38435021068E+02  0.25304608335E+03  0.31246651370E+03  0.00000000000E+00 0.  1.
<mgrwt>
<rscale>  0 0.18167866E+04</rscale>
<asrwt>0</asrwt>
<pdfrwt beam="1">  1        1 0.47109325E+00 0.18167866E+04</pdfrwt>
<pdfrwt beam="2">  1       -2 0.41458562E-01 0.18167866E+04</pdfrwt>
<totfact> 0.24637054E+00</totfact>
</mgrwt>
</event>
<event>
12    5  0.5297412E-008  0.2029312E+04  0.7818608E-02  0.8593037E-01
          1   -1    0    0  501    0  0.00000000000E+00  0.00000000000E+00  0.23069211867E+04  0.23069211867E+04  0.00000000000E+00 0. -1.
         -2   -1    0    0    0  501 -0.00000000000E+00 -0.00000000000E+00 -0.44627759043E+03  0.44627759043E+03  0.00000000000E+00 0.  1.
        -24    2    1    2    0    0  0.78269320855E+02 -0.62035142921E+03  0.14613590498E+04  0.15915309742E+04  0.80240806158E+02 0.  0.
        254    2    1    2    0    0 -0.78269320855E+02  0.62035142921E+03  0.39928454650E+03  0.11616678030E+04  0.89391383988E+03 0.  0.
         23    2    4    4    0    0 -0.46759005460E+03  0.42931753899E+03  0.18045758636E+03  0.66643955154E+03  0.92858639598E+02 0.  0.
         23    2    4    4    0    0  0.38932073374E+03  0.19103389022E+03  0.21882696014E+03  0.49522825145E+03  0.96442737485E+02 0.  0.
          3    1    3    3  502    0 -0.53091488479E+01 -0.18388205133E+03  0.48802346795E+03  0.52154357549E+03  0.00000000000E+00 0. -1.
         -4    1    3    3    0  502  0.83578469703E+02 -0.43646937788E+03  0.97333558185E+03  0.10699873987E+04  0.00000000000E+00 0.  1.
         13    1    5    5    0    0 -0.13791696004E+03  0.17177627792E+03  0.92639003991E+02  0.23897732651E+03  0.00000000000E+00 0. -1.
        -13    1    5    5    0    0 -0.32967309456E+03  0.25754126106E+03  0.87818582369E+02  0.42746222503E+03  0.00000000000E+00 0.  1.
          1    1    6    6  503    0  0.31047786786E+03  0.11753205863E+03  0.13375624259E+03  0.35791203342E+03  0.00000000000E+00 0. -1.
         -1    1    6    6    0  503  0.78842865877E+02  0.73501831591E+02  0.85070717554E+02  0.13731621802E+03  0.00000000000E+00 0.  1.
<mgrwt>
<rscale>  0 0.20293124E+04</rscale>
<asrwt>0</asrwt>
<pdfrwt beam="1">  1        1 0.35491094E+00 0.20293124E+04</pdfrwt>
<pdfrwt beam="2">  1       -2 0.68658092E-01 0.20293124E+04</pdfrwt>
<totfact> 0.29020731E+00</totfact>
</mgrwt>
</event>
<event>
12    5  0.5297412E-008  0.1750569E+04  0.7818608E-02  0.8733037E-01
          3   -1    0    0  501    0  0.00000000000E+00  0.00000000000E+00  0.55575700745E+03  0.55575700745E+03  0.00000000000E+00 0. -1.
         -4   -1    0    0    0  501 -0.00000000000E+00 -0.00000000000E+00 -0.13785214926E+04  0.13785214926E+04  0.00000000000E+00 0.  1.
        -24    2    1    2    0    0  0.57537385209E+03 -0.60373673430E+02 -0.10072164419E+01  0.58397666033E+03  0.79546685733E+02 0.  0.
        254    2    1    2    0    0 -0.57537385209E+03  0.60373673430E+02 -0.82175726872E+03  0.13503018397E+04  0.90184810228E+03 0.  0.
         23    2    4    4    0    0 -0.76324380023E+03 -0.12013704867E+02 -0.82580416406E+03  0.11286875148E+04  0.96423861200E+02 0.  0.
         23    2    4    4    0    0  0.18786994814E+03  0.72387378297E+02  0.40468953350E+01  0.22161432494E+03  0.92528275168E+02 0.  0.
          1    1    3    3  502    0  0.42136682364E+03 -0.66665650471E+02 -0.27872252860E+02  0.42751745169E+03  0.00000000000E+00 0. -1.
         -2    1    3    3    0  502  0.15400702845E+03  0.62919770411E+01  0.26865036418E+02  0.15645920864E+03  0.00000000000E+00 0.  1.
         13    1    5    5    0    0 -0.32601920359E+03 -0.28969306788E+02 -0.41471952818E+03  0.52831811335E+03  0.00000000000E+00 0. -1.
        -13    1    5    5    0    0 -0.43722459664E+03  0.16955601920E+02 -0.41108463588E+03  0.60036940145E+03  0.00000000000E+00 0.  1.
          4    1    6    6  503    0  0.81349648246E+02  0.56964871197E+02  0.41527150725E+02  0.10764416411E+03  0.00000000000E+00 0. -1.
         -4    1    6    6    0  503  0.10652029989E+03  0.15422507100E+02 -0.37480255390E+02  0.11397016082E+03  0.00000000000E+00 0.  1.
<mgrwt>
<rscale>  0 0.17505690E+04</rscale>
<asrwt>0</asrwt>
<pdfrwt beam="1">  1        3 0.85501078E-01 0.17505690E+04</pdfrwt>
<pdfrwt beam="2">  1       -4 0.21208023E+00 0.17505690E+04</pdfrwt>
<totfact> 0.29795959E-01</totfact>
</mgrwt>
</event>
<event>
12    5  0.5297412E-008  0.2937402E+04  0.7818608E-02  0.8261836E-01
         -2   -1    0    0    0  501 -0.00000000000E+00  0.00000000000E+00  0.12146231591E+04  0.12146231591E+04  0.00000000000E+00 0.  1.
          1   -1    0    0  501    0  0.00000000000E+00 -0.00000000000E+00 -0.17759271616E+04  0.17759271616E+04  0.00000000000E+00 0. -1.
        -24    2    1    2    0    0  0.20064705482E+03 -0.24451072867E+03  0.10474373084E+04  0.10970257943E+04  0.79346966733E+02 0.  0.
        254    2    1    2    0    0 -0.20064705482E+03  0.24451072867E+03 -0.16087413109E+04  0.18935245264E+04  0.94728126223E+03 0.  0.
         23    2    4    4    0    0 -0.26161919582E+03  0.47982427704E+03 -0.15218047077E+04  0.16193961686E+04  0.88760588294E+02 0.  0.
         23    2    4    4    0    0  0.60972141001E+02 -0.23531354837E+03 -0.86936603209E+02  0.27412835784E+03  0.92186309022E+02 0.  0.
          1    1    3    3  502    0  0.86953988366E+02 -0.16686870912E+03  0.62633415647E+03  0.65398825505E+03  0.00000000000E+00 0. -1.
         -2    1    3    3    0  502  0.11369306645E+03 -0.77642019548E+02  0.42110315197E+03  0.44303753922E+03  0.00000000000E+00 0.  1.
         13    1    5    5    0    0 -0.24600432025E+03  0.45080703964E+03 -0.14772975265E+04  0.15640182525E+04  0.00000000000E+00 0. -1.
        -13    1    5    5    0    0 -0.15614875569E+02  0.29017237398E+02 -0.44507181207E+02  0.55377916034E+02  0.00000000000E+00 0.  1.
          3    1    6    6  503    0  0.64600923123E+02 -0.20684194826E+03 -0.10439786013E+03  0.24053229311E+03  0.00000000000E+00 0. -1.
         -3    1    6    6    0  503 -0.36287821222E+01 -0.28471600112E+02  0.17461256918E+02  0.33596064737E+02  0.00000000000E+00 0.  1.
<mgrwt>
<rscale>  0 0.29374017E+04</rscale>
<asrwt>0</asrwt>
<pdfrwt beam="1">  1        1 0.27321956E+00 0.29374017E+04</pdfrwt>
<pdfrwt beam="2">  1       -2 0.18686510E+00 0.29374017E+04</pdfrwt>
<totfact> 0.51767151E-01</totfact>
</mgrwt>
</event>
<event>
12    5  0.5297412E-008  0.2403197E+04  0.7818608E-02  0.8438308E-01
         -2   -1    0    0    0  501 -0.00000000000E+00  0.00000000000E+00  0.12022344674E+04  0.12022344674E+04  0.00000000000E+00 0.  1.
          1   -1    0    0  501    0  0.00000000000E+00 -0.00000000000E+00 -0.12009625040E+04  0.12009625040E+04  0.00000000000E+00 0. -1.
        -24    2    1    2    0    0 -0.72239025591E+03  0.22616892374E+03 -0.65867585098E+03  0.10066764028E+04  0.80891528609E+02 0.  0.
        254    2    1    2    0    0  0.72239025591E+03 -0.22616892374E+03  0.65994781437E+03  0.13965205686E+04  0.97043212891E+03 0.  0.
         23    2    4    4    0    0  0.44854241658E+03 -0.13545027151E+03 -0.17493058100E+03  0.50840262672E+03  0.91298670129E+02 0.  0.
         23    2    4    4    0    0  0.27384783933E+03 -0.90718652234E+02  0.83487839537E+03  0.88811794183E+03  0.92244406812E+02 0.  0.
          3    1    3    3  502    0 -0.69223781352E+03  0.23187934701E+03 -0.62413129674E+03  0.96046920700E+03  0.00000000000E+00 0. -1.
         -4    1    3    3    0  502 -0.30152442390E+02 -0.57104232677E+01 -0.34544554243E+02  0.46207195802E+02  0.00000000000E+00 0.  1.
         13    1    5    5    0    0  0.17220341607E+03 -0.14965519643E+02 -0.36446036569E+02  0.17665304092E+03  0.00000000000E+00 0. -1.
        -13    1    5    5    0    0  0.27633900050E+03 -0.12048475186E+03 -0.13848454443E+03  0.33174958580E+03  0.00000000000E+00 0.  1.
          2    1    6    6  503    0  0.85196076326E+00  0.43199617207E+01 -0.21639995391E+00  0.44084844732E+01  0.00000000000E+00 0. -1.
         -2    1    6    6    0  503  0.27299587857E+03 -0.95038613954E+02  0.83509479532E+03  0.88370945736E+03  0.00000000000E+00 0.  1.
<mgrwt>
<rscale>  0 0.24031966E+04</rscale>
<asrwt>0</asrwt>
<pdfrwt beam="1">  1        1 0.18476346E+00 0.24031966E+04</pdfrwt>
<pdfrwt beam="2">  1       -2 0.18495915E+00 0.24031966E+04</pdfrwt>
<totfact> 0.14059000E+00</totfact>
</mgrwt>
</event>
<event>
12    5  0.5297412E-008  0.2650607E+04  0.7818608E-02  0.8351212E-01
         -2   -1    0    0    0  501 -0.00000000000E+00  0.00000000000E+00  0.21417573859E+04  0.21417573859E+04  0.00000000000E+00 0.  1.
          1   -1    0    0  501    0  0.00000000000E+00 -0.00000000000E+00 -0.82008793184E+03  0.82008793184E+03  0.00000000000E+00 0. -1.
        -24    2    1    2    0    0 -0.12147407652E+03  0.82290954986E+03 -0.32920233644E+03  0.89820498100E+03  0.80386137273E+02 0.  0.
        254    2    1    2    0    0  0.12147407652E+03 -0.82290954986E+03  0.16508717905E+04  0.20636403367E+04  0.91722281492E+03 0.  0.
         23    2    4    4    0    0  0.46641399470E+03 -0.63710715824E+03  0.82893899006E+03  0.11484714737E+04  0.91647865383E+02 0.  0.
         23    2    4    4    0    0 -0.34493991818E+03 -0.18580239162E+03  0.82193280045E+03  0.91516886300E+03  0.91948047627E+02 0.  0.
          1    1    3    3  502    0 -0.81222509506E+02  0.67256455204E+03 -0.23934923048E+03  0.71849024130E+03  0.00000000000E+00 0. -1.
         -2    1    3    3    0  502 -0.40251567019E+02  0.15034499782E+03 -0.89853105954E+02  0.17971473970E+03  0.00000000000E+00 0.  1.
         13    1    5    5    0    0  0.10953701817E+03 -0.97559575369E+02  0.17968251234E+03  0.23195265538E+03  0.00000000000E+00 0.  1.
        -13    1    5    5    0    0  0.35687697654E+03 -0.53954758287E+03  0.64925647772E+03  0.91651881837E+03  0.00000000000E+00 0. -1.
          2    1    6    6  503    0 -0.32443905195E+03 -0.14244679256E+03  0.73186709406E+03  0.81313051259E+03  0.00000000000E+00 0. -1.
         -2    1    6    6    0  503 -0.20500866230E+02 -0.43355599065E+02  0.90065706389E+02  0.10203835041E+03  0.00000000000E+00 0.  1.
<mgrwt>
<rscale>  0 0.26506070E+04</rscale>
<asrwt>0</asrwt>
<pdfrwt beam="1">  1        1 0.12616738E+00 0.26506070E+04</pdfrwt>
<pdfrwt beam="2">  1       -2 0.32950113E+00 0.26506070E+04</pdfrwt>
<totfact> 0.34153661E-01</totfact>
</mgrwt>
</event>
<event>
12    5  0.5297412E-008  0.1702303E+04  0.7818608E-02  0.8760052E-01
         -2   -1    0    0    0  501 -0.00000000000E+00  0.00000000000E+00  0.50137784668E+03  0.50137784668E+03  0.00000000000E+00 0.  1.
          1   -1    0    0  501    0  0.00000000000E+00 -0.00000000000E+00 -0.14449366991E+04  0.14449366991E+04  0.00000000000E+00 0. -1.
        -24    2    1    2    0    0 -0.33430636715E+03 -0.45214757150E+03 -0.58480532615E+03  0.81614907489E+03  0.88903708718E+02 0.  0.
        254    2    1    2    0    0  0.33430636715E+03  0.45214757150E+03 -0.35875352631E+03  0.11301654709E+04  0.91234408285E+03 0.  0.
         23    2    4    4    0    0  0.17995208030E+03 -0.25026963483E+03 -0.68474837866E+00  0.32147648287E+03  0.91263458386E+02 0.  0.
         23    2    4    4    0    0  0.15435428685E+03  0.70241720633E+03 -0.35806877793E+03  0.80868898806E+03  0.92463247088E+02 0.  0.
          3    1    3    3  502    0 -0.23637939032E+03 -0.33731804263E+03 -0.47951507291E+03  0.63213399149E+03  0.00000000000E+00 0. -1.
         -4    1    3    3    0  502 -0.97926976830E+02 -0.11482952887E+03 -0.10529025324E+03  0.18401508340E+03  0.00000000000E+00 0.  1.
         13    1    5    5    0    0 -0.10799770593E+02 -0.10570950197E+02  0.85866336728E+00  0.15136622334E+02  0.00000000000E+00 0.  1.
        -13    1    5    5    0    0  0.19075185089E+03 -0.23969868463E+03 -0.15434117459E+01  0.30633986054E+03  0.00000000000E+00 0. -1.
          3    1    6    6  503    0  0.16251592278E+03  0.69248414382E+03 -0.34572977063E+03  0.79086964090E+03  0.00000000000E+00 0. -1.
         -3    1    6    6    0  503 -0.81616359328E+01  0.99330625078E+01 -0.12339007301E+02  0.17819347156E+02  0.00000000000E+00 0.  1.
<mgrwt>
<rscale>  0 0.17023034E+04</rscale>
<asrwt>0</asrwt>
<pdfrwt beam="1">  1        1 0.22229795E+00 0.17023034E+04</pdfrwt>
<pdfrwt beam="2">  1       -2 0.77135054E-01 0.17023034E+04</pdfrwt>
<totfact> 0.89482436E+00</totfact>
</mgrwt>
</event>
<event>
12    5  0.5297412E-008  0.1813507E+04  0.7818608E-02  0.8699149E-01
          1   -1    0    0  501    0  0.00000000000E+00  0.00000000000E+00  0.19109317276E+04  0.19109317276E+04  0.00000000000E+00 0. -1.
         -4   -1    0    0    0  501 -0.00000000000E+00 -0.00000000000E+00 -0.43026240289E+03  0.43026240289E+03  0.00000000000E+00 0.  1.
        -24    2    1    2    0    0 -0.47157343252E+03 -0.78958839657E+02  0.11780052635E+04  0.12739986967E+04  0.82220908460E+02 0.  0.
        254    2    1    2    0    0  0.47157343252E+03  0.78958839657E+02  0.30266406118E+03  0.10671954337E+04  0.90481189165E+03 0.  0.
         23    2    4    4    0    0  0.34354675339E+02  0.29278535722E+03 -0.19394820900E+03  0.36612330879E+03  0.97605636833E+02 0.  0.
         23    2    4    4    0    0  0.43721875718E+03 -0.21382651756E+03  0.49661227018E+03  0.70107212496E+03  0.89422347660E+02 0.  0.
          3    1    3    3  502    0 -0.36590107072E+03 -0.25655469405E+02  0.89201846618E+03  0.96448884943E+03  0.00000000000E+00 0. -1.
         -4    1    3    3    0  502 -0.10567236180E+03 -0.53303370252E+02  0.28598679735E+03  0.30950984732E+03  0.00000000000E+00 0.  1.
         13    1    5    5    0    0  0.26062754750E+02  0.13715823593E+02 -0.74788974922E+01  0.30386261858E+02  0.00000000000E+00 0.  1.
        -13    1    5    5    0    0  0.82919205889E+01  0.27906953363E+03 -0.18646931151E+03  0.33573704693E+03  0.00000000000E+00 0. -1.
          4    1    6    6  503    0  0.21051876964E+03 -0.11535921770E+03  0.30613358681E+03  0.38902914344E+03  0.00000000000E+00 0. -1.
         -4    1    6    6    0  503  0.22669998755E+03 -0.98467299867E+02  0.19047868338E+03  0.31204298152E+03  0.00000000000E+00 0.  1.
<mgrwt>
<rscale>  0 0.18135072E+04</rscale>
<asrwt>0</asrwt>
<pdfrwt beam="1">  1        1 0.29398949E+00 0.18135072E+04</pdfrwt>
<pdfrwt beam="2">  1       -4 0.66194217E-01 0.18135072E+04</pdfrwt>
<totfact> 0.33693623E+00</totfact>
</mgrwt>
</event>
<event>
12    5  0.5297412E-008  0.2710241E+04  0.7818608E-02  0.8331690E-01
          1   -1    0    0  501    0  0.00000000000E+00  0.00000000000E+00  0.15213677831E+04  0.15213677831E+04  0.00000000000E+00 0. -1.
         -2   -1    0    0    0  501 -0.00000000000E+00 -0.00000000000E+00 -0.12070399449E+04  0.12070399449E+04  0.00000000000E+00 0.  1.
        -24    2    1    2    0    0 -0.61179177526E+03 -0.10011344789E+03 -0.89975410666E+03  0.10954879058E+04  0.78894996531E+02 0.  0.
        254    2    1    2    0    0  0.61179177526E+03  0.10011344789E+03  0.12140819449E+04  0.16329198222E+04  0.89895511461E+03 0.  0.
         23    2    4    4    0    0 -0.37685588721E+02 -0.15516569089E+03  0.79096957662E+03  0.81188424131E+03  0.89591042633E+02 0.  0.
         23    2    4    4    0    0  0.64947736398E+03  0.25527913878E+03  0.42311236826E+03  0.82103558088E+03  0.89928103931E+02 0.  0.
          1    1    3    3  502    0 -0.17892505738E+03 -0.33845303729E+02 -0.32976565731E+03  0.37670289285E+03  0.00000000000E+00 0. -1.
         -2    1    3    3    0  502 -0.43286671788E+03 -0.66268144162E+02 -0.56998844935E+03  0.71878501290E+03  0.00000000000E+00 0.  1.
         13    1    5    5    0    0 -0.18716075177E+02  0.51081682786E+01  0.13312779388E+03  0.13453398959E+03  0.00000000000E+00 0. -1.
        -13    1    5    5    0    0 -0.18969513544E+02 -0.16027385917E+03  0.65784178275E+03  0.67735025172E+03  0.00000000000E+00 0.  1.
          3    1    6    6  503    0  0.73232396639E+02  0.12475802212E+01  0.54909357033E+02  0.91540034213E+02  0.00000000000E+00 0. -1.
         -3    1    6    6    0  503  0.57624496734E+03  0.25403155856E+03  0.36820301123E+03  0.72949554667E+03  0.00000000000E+00 0.  1.
<mgrwt>
<rscale>  0 0.27102411E+04</rscale>
<asrwt>0</asrwt>
<pdfrwt beam="1">  1        1 0.23405658E+00 0.27102411E+04</pdfrwt>
<pdfrwt beam="2">  1       -2 0.18569845E+00 0.27102411E+04</pdfrwt>
<totfact> 0.80280430E-01</totfact>
</mgrwt>
</event>
<event>
12    5  0.5297412E-008  0.2399059E+04  0.7818608E-02  0.8439856E-01
          1   -1    0    0  501    0  0.00000000000E+00  0.00000000000E+00  0.98655935158E+03  0.98655935158E+03  0.00000000000E+00 0. -1.
         -2   -1    0    0    0  501 -0.00000000000E+00 -0.00000000000E+00 -0.14584735122E+04  0.14584735122E+04  0.00000000000E+00 0.  1.
        -24    2    1    2    0    0 -0.90568971117E+03 -0.42452070645E+03 -0.43263928345E+03  0.10926677561E+04  0.79084717677E+02 0.  0.
        254    2    1    2    0    0  0.90568971117E+03  0.42452070645E+03 -0.39274877117E+02  0.13523651076E+04  0.90931687831E+03 0.  0.
         23    2    4    4    0    0  0.97259471185E+03  0.19286149866E+03  0.18528041917E+03  0.10123132399E+04  0.85517430087E+02 0.  0.
         23    2    4    4    0    0 -0.66905000675E+02  0.23165920779E+03 -0.22455529629E+03  0.34005186767E+03  0.84070945906E+02 0.  0.
          3    1    3    3  502    0 -0.83134377620E+03 -0.36450977746E+03 -0.39543974271E+03  0.99013758751E+03  0.00000000000E+00 0. -1.
         -4    1    3    3    0  502 -0.74345934972E+02 -0.60010928988E+02 -0.37199540738E+02  0.10253016861E+03  0.00000000000E+00 0.  1.
         13    1    5    5    0    0  0.85700397851E+03  0.19624824402E+03  0.15464502586E+03  0.89268374942E+03  0.00000000000E+00 0. -1.
        -13    1    5    5    0    0  0.11559073334E+03 -0.33867453578E+01  0.30635393313E+02  0.11962949052E+03  0.00000000000E+00 0.  1.
          3    1    6    6  503    0 -0.85563803634E+02  0.16176612916E+03 -0.15897145017E+03  0.24240744008E+03  0.00000000000E+00 0. -1.
         -3    1    6    6    0  503  0.18658802959E+02  0.69893078631E+02 -0.65583846117E+02  0.97644427592E+02  0.00000000000E+00 0.  1.
<mgrwt>
<rscale>  0 0.23990587E+04</rscale>
<asrwt>0</asrwt>
<pdfrwt beam="1">  1        1 0.15177836E+00 0.23990587E+04</pdfrwt>
<pdfrwt beam="2">  1       -2 0.22438054E+00 0.23990587E+04</pdfrwt>
<totfact> 0.11297090E+00</totfact>
</mgrwt>
</event>
<event>
12    5  0.5297412E-008  0.1092157E+04  0.7818608E-02  0.9212870E-01
         -2   -1    0    0    0  501 -0.00000000000E+00  0.00000000000E+00  0.41064762380E+03  0.41064762380E+03  0.00000000000E+00 0.  1.
          1   -1    0    0  501    0  0.00000000000E+00 -0.00000000000E+00 -0.72617441239E+03  0.72617441239E+03  0.00000000000E+00 0. -1.
        -24    2    1    2    0    0  0.15127462031E+03 -0.11482068897E+02 -0.77344620712E+02  0.19129736445E+03  0.87158720955E+02 0.  0.
        254    2    1    2    0    0 -0.15127462031E+03  0.11482068897E+02 -0.23818216787E+03  0.94552467174E+03  0.90236927647E+03 0.  0.
         23    2    4    4    0    0 -0.47523024479E+03  0.19962729329E+03 -0.82355955389E+02  0.52982279356E+03  0.90746059954E+02 0.  0.
         23    2    4    4    0    0  0.32395562448E+03 -0.18814522440E+03 -0.15582621249E+03  0.41570187818E+03  0.90445403012E+02 0.  0.
          3    1    3    3  502    0  0.13909057140E+03 -0.10581721163E+02 -0.95759535602E+02  0.16919825216E+03  0.00000000000E+00 0. -1.
         -4    1    3    3    0  502  0.12184048911E+02 -0.90034773360E+00  0.18414914890E+02  0.22099112296E+02  0.00000000000E+00 0.  1.
         13    1    5    5    0    0 -0.11625064753E+03  0.62451724103E+02 -0.59756017694E+02  0.14486273691E+03  0.00000000000E+00 0. -1.
        -13    1    5    5    0    0 -0.35897959726E+03  0.13717556919E+03 -0.22599937694E+02  0.38496005665E+03  0.00000000000E+00 0.  1.
          4    1    6    6  503    0  0.48852610550E+02 -0.16210705804E+02 -0.56487636125E+02  0.76421316236E+02  0.00000000000E+00 0. -1.
         -4    1    6    6    0  503  0.27510301393E+03 -0.17193451859E+03 -0.99338576360E+02  0.33928056194E+03  0.00000000000E+00 0.  1.
<mgrwt>
<rscale>  0 0.10921571E+04</rscale>
<asrwt>0</asrwt>
<pdfrwt beam="1">  1        1 0.11171914E+00 0.10921571E+04</pdfrwt>
<pdfrwt beam="2">  1       -2 0.63176558E-01 0.10921571E+04</pdfrwt>
<totfact> 0.52202976E+01</totfact>
</mgrwt>
</event>
<event>
12    5  0.5297412E-008  0.1726994E+04  0.7818608E-02  0.8746117E-01
         -2   -1    0    0    0  501 -0.00000000000E+00  0.00000000000E+00  0.41577097781E+03  0.41577097781E+03  0.00000000000E+00 0.  1.
          1   -1    0    0  501    0  0.00000000000E+00 -0.00000000000E+00 -0.17933602211E+04  0.17933602211E+04  0.00000000000E+00 0. -1.
        -24    2    1    2    0    0 -0.18909909266E+02  0.14186132991E+03  0.27370349433E+03  0.31920182552E+03  0.80585240686E+02 0.  0.
        254    2    1    2    0    0  0.18909909266E+02 -0.14186132991E+03 -0.16512927377E+04  0.18899293734E+04  0.90806558655E+03 0.  0.
         23    2    4    4    0    0 -0.20205732994E+03 -0.15385082824E+03 -0.54584781972E+02  0.27546832369E+03  0.91684551584E+02 0.  0.
         23    2    4    4    0    0  0.22096723920E+03  0.11989498332E+02 -0.15967079557E+04  0.16144610497E+04  0.89654428098E+02 0.  0.
          3    1    3    3  502    0  0.23816266041E+02  0.18922519766E+02  0.82282869292E+02  0.87725406020E+02  0.00000000000E+00 0. -1.
         -4    1    3    3    0  502 -0.42726175306E+02  0.12293881015E+03  0.19142062504E+03  0.23147641950E+03  0.00000000000E+00 0.  1.
         13    1    5    5    0    0 -0.18643558113E+03 -0.97025702596E+02 -0.51841863176E+02  0.21647122593E+03  0.00000000000E+00 0. -1.
        -13    1    5    5    0    0 -0.15621748805E+02 -0.56825125649E+02 -0.27429187952E+01  0.58997097761E+02  0.00000000000E+00 0.  1.
          2    1    6    6  503    0  0.21079195500E+03  0.26974858763E+02 -0.13048688862E+04  0.13220604001E+04  0.00000000000E+00 0. -1.
         -2    1    6    6    0  503  0.10175284207E+02 -0.14985360431E+02 -0.29183906949E+03  0.29240064966E+03  0.00000000000E+00 0.  1.
<mgrwt>
<rscale>  0 0.17269941E+04</rscale>
<asrwt>0</asrwt>
<pdfrwt beam="1">  1        1 0.27590157E+00 0.17269941E+04</pdfrwt>
<pdfrwt beam="2">  1       -2 0.63964767E-01 0.17269941E+04</pdfrwt>
<totfact> 0.77538609E+00</totfact>
</mgrwt>
</event>
<event>
12    5  0.5297412E-008  0.1818011E+04  0.7818608E-02  0.8696780E-01
          1   -1    0    0  501    0  0.00000000000E+00  0.00000000000E+00  0.10107863085E+04  0.10107863085E+04  0.00000000000E+00 0. -1.
         -2   -1    0    0    0  501 -0.00000000000E+00 -0.00000000000E+00 -0.81747318577E+03  0.81747318577E+03  0.00000000000E+00 0.  1.
        -24    2    1    2    0    0  0.52813752504E+02  0.25434349627E+03 -0.56271858646E+03  0.62491261227E+03  0.79897802718E+02 0.  0.
        254    2    1    2    0    0 -0.52813752504E+02 -0.25434349627E+03  0.75603170917E+03  0.12033468820E+04  0.89943308066E+03 0.  0.
         23    2    4    4    0    0 -0.39154668920E+03  0.29247754715E+02  0.60403809362E+03  0.72649883374E+03  0.93671211742E+02 0.  0.
         23    2    4    4    0    0  0.33873293670E+03 -0.28359125098E+03  0.15199361555E+03  0.47684804825E+03  0.95488229166E+02 0.  0.
          3    1    3    3  502    0  0.38999859061E+02  0.42002248170E+02 -0.93011627297E+02  0.10925356136E+03  0.00000000000E+00 0. -1.
         -4    1    3    3    0  502  0.13813893443E+02  0.21234124810E+03 -0.46970695916E+03  0.51565905090E+03  0.00000000000E+00 0.  1.
         13    1    5    5    0    0 -0.27725186943E+03  0.55444519208E+02  0.46920733137E+03  0.54781220653E+03  0.00000000000E+00 0. -1.
        -13    1    5    5    0    0 -0.11429481977E+03 -0.26196764494E+02  0.13483076225E+03  0.17868662722E+03  0.00000000000E+00 0.  1.
          1    1    6    6  503    0  0.30171288520E+03 -0.27273861098E+03  0.11328312162E+03  0.42219673217E+03  0.00000000000E+00 0. -1.
         -1    1    6    6    0  503  0.37020051502E+02 -0.10852640002E+02  0.38710493929E+02  0.54651316072E+02  0.00000000000E+00 0.  1.
<mgrwt>
<rscale>  0 0.18180107E+04</rscale>
<asrwt>0</asrwt>
<pdfrwt beam="1">  1        1 0.15550559E+00 0.18180107E+04</pdfrwt>
<pdfrwt beam="2">  1       -2 0.12576510E+00 0.18180107E+04</pdfrwt>
<totfact> 0.57875316E+00</totfact>
</mgrwt>
</event>
<event>
12    5  0.5297412E-008  0.2713217E+04  0.7818608E-02  0.8330729E-01
          1   -1    0    0  501    0  0.00000000000E+00  0.00000000000E+00  0.26576618927E+04  0.26576618927E+04  0.00000000000E+00 0. -1.
         -2   -1    0    0    0  501 -0.00000000000E+00 -0.00000000000E+00 -0.69248336652E+03  0.69248336652E+03  0.00000000000E+00 0.  1.
        -24    2    1    2    0    0  0.35917798772E+03  0.16024512653E+03 -0.53205195773E+03  0.66649281219E+03  0.80287331104E+02 0.  0.
        254    2    1    2    0    0 -0.35917798772E+03 -0.16024512653E+03  0.24972304839E+04  0.26836524470E+04  0.90063479791E+03 0.  0.
         23    2    4    4    0    0  0.16508179405E+03 -0.12534612672E+03  0.13753260157E+03  0.26448834229E+03  0.89862208411E+02 0.  0.
         23    2    4    4    0    0 -0.52425978177E+03 -0.34898999808E+02  0.23596978824E+04  0.24191641048E+04  0.90081134126E+02 0.  0.
          3    1    3    3  502    0  0.14525751320E+03  0.26231278794E+02 -0.17018509462E+03  0.22527936337E+03  0.00000000000E+00 0. -1.
         -4    1    3    3    0  502  0.21392047452E+03  0.13401384773E+03 -0.36186686312E+03  0.44121344883E+03  0.00000000000E+00 0.  1.
         13    1    5    5    0    0  0.68453711306E+02 -0.63042743119E+02  0.11299192004E+02  0.93744172040E+02  0.00000000000E+00 0.  1.
        -13    1    5    5    0    0  0.96628082747E+02 -0.62303383603E+02  0.12623340956E+03  0.17074417025E+03  0.00000000000E+00 0. -1.
          3    1    6    6  503    0 -0.40348987650E+03  0.62254333403E+01  0.16995000820E+04  0.17467522335E+04  0.00000000000E+00 0. -1.
         -3    1    6    6    0  503 -0.12076990528E+03 -0.41124433148E+02  0.66019780039E+03  0.67241187130E+03  0.00000000000E+00 0.  1.
<mgrwt>
<rscale>  0 0.27132170E+04</rscale>
<asrwt>0</asrwt>
<pdfrwt beam="1">  1        1 0.40887106E+00 0.27132170E+04</pdfrwt>
<pdfrwt beam="2">  1       -2 0.10653590E+00 0.27132170E+04</pdfrwt>
<totfact> 0.57216662E-01</totfact>
</mgrwt>
</event>
<event>
12    5  0.5297412E-008  0.1621668E+04  0.7818608E-02  0.8807346E-01
         -2   -1    0    0    0  501 -0.00000000000E+00  0.00000000000E+00  0.54686922448E+03  0.54686922448E+03  0.00000000000E+00 0.  1.
          1   -1    0    0  501    0  0.00000000000E+00 -0.00000000000E+00 -0.12022096416E+04  0.12022096416E+04  0.00000000000E+00 0. -1.
        -24    2    1    2    0    0 -0.41394661365E+03  0.17943909239E+03 -0.61886840616E+03  0.76975232784E+03  0.77268073823E+02 0.  0.
        254    2    1    2    0    0  0.41394661365E+03 -0.17943909239E+03 -0.36472010922E+02  0.97932653821E+03  0.86844693219E+03 0.  0.
         23    2    4    4    0    0  0.18932432842E+03 -0.16194444393E+03 -0.43715380419E+03  0.51125965875E+03  0.90627180818E+02 0.  0.
         23    2    4    4    0    0  0.22462228524E+03 -0.17494648468E+02  0.40068179327E+03  0.46806687946E+03  0.88201306351E+02 0.  0.
          3    1    3    3  502    0 -0.40228998677E+03  0.18714635525E+03 -0.59756948048E+03  0.74427835904E+03  0.00000000000E+00 0. -1.
         -4    1    3    3    0  502 -0.11656626881E+02 -0.77072628531E+01 -0.21298925682E+02  0.25473968795E+02  0.00000000000E+00 0.  1.
         13    1    5    5    0    0  0.86710848805E+02 -0.55013372214E+02 -0.10170253081E+03  0.14452905312E+03  0.00000000000E+00 0. -1.
        -13    1    5    5    0    0  0.10261347961E+03 -0.10693107171E+03 -0.33545127338E+03  0.36673060564E+03  0.00000000000E+00 0.  1.
          4    1    6    6  503    0  0.15651514073E+02  0.13290211597E+02  0.90463752363E+02  0.92764702925E+02  0.00000000000E+00 0. -1.
         -4    1    6    6    0  503  0.20897077116E+03 -0.30784860065E+02  0.31021804090E+03  0.37530217654E+03  0.00000000000E+00 0.  1.
<mgrwt>
<rscale>  0 0.16216676E+04</rscale>
<asrwt>0</asrwt>
<pdfrwt beam="1">  1        1 0.18495533E+00 0.16216676E+04</pdfrwt>
<pdfrwt beam="2">  1       -2 0.84133729E-01 0.16216676E+04</pdfrwt>
<totfact> 0.11030614E+01</totfact>
</mgrwt>
</event>
<event>
12    5  0.5297412E-008  0.1362967E+04  0.7818608E-02  0.8981070E-01
         -2   -1    0    0    0  501 -0.00000000000E+00  0.00000000000E+00  0.45249046805E+03  0.45249046805E+03  0.00000000000E+00 0.  1.
          1   -1    0    0  501    0  0.00000000000E+00 -0.00000000000E+00 -0.10263629583E+04  0.10263629583E+04  0.00000000000E+00 0. -1.
        -24    2    1    2    0    0 -0.27217477394E+03 -0.16237467554E+03 -0.42687132594E+03  0.53721527329E+03  0.77048543870E+02 0.  0.
        254    2    1    2    0    0  0.27217477394E+03  0.16237467554E+03 -0.14700116428E+03  0.94163815304E+03  0.87443034379E+03 0.  0.
         23    2    4    4    0    0 -0.10689768319E+03  0.32825446969E+03 -0.32488467783E+03  0.48288201432E+03  0.91906878582E+02 0.  0.
         23    2    4    4    0    0  0.37907245713E+03 -0.16587979415E+03  0.17788351355E+03  0.45875613872E+03  0.87192984558E+02 0.  0.
          3    1    3    3  502    0 -0.16210633549E+03 -0.74739862807E+02 -0.18282764566E+03  0.25551997792E+03  0.00000000000E+00 0. -1.
         -4    1    3    3    0  502 -0.11006843846E+03 -0.87634812732E+02 -0.24404368029E+03  0.28169529537E+03  0.00000000000E+00 0.  1.
         13    1    5    5    0    0 -0.11111672474E+03  0.32584828572E+03 -0.32923553397E+03  0.47636127955E+03  0.00000000000E+00 0. -1.
        -13    1    5    5    0    0  0.42190415461E+01  0.24061839629E+01  0.43508561431E+01  0.65207347753E+01  0.00000000000E+00 0.  1.
          2    1    6    6  503    0  0.30377588455E+03 -0.11173888530E+03  0.17020535162E+03  0.36569827487E+03  0.00000000000E+00 0. -1.
         -2    1    6    6    0  503  0.75296572586E+02 -0.54140908849E+02  0.76781619301E+01  0.93057863852E+02  0.00000000000E+00 0.  1.
<mgrwt>
<rscale>  0 0.13629666E+04</rscale>
<asrwt>0</asrwt>
<pdfrwt beam="1">  1        1 0.15790199E+00 0.13629666E+04</pdfrwt>
<pdfrwt beam="2">  1       -2 0.69613918E-01 0.13629666E+04</pdfrwt>
<totfact> 0.23281685E+01</totfact>
</mgrwt>
</event>
<event>
12    5  0.5297412E-008  0.1995738E+04  0.7818608E-02  0.8608616E-01
          1   -1    0    0  501    0  0.00000000000E+00  0.00000000000E+00  0.15036203927E+04  0.15036203927E+04  0.00000000000E+00 0. -1.
         -2   -1    0    0    0  501 -0.00000000000E+00 -0.00000000000E+00 -0.66222983921E+03  0.66222983921E+03  0.00000000000E+00 0.  1.
        -24    2    1    2    0    0 -0.21202522676E+02 -0.77218674232E+03  0.14597334841E+03  0.79121622882E+03  0.89403525267E+02 0.  0.
        254    2    1    2    0    0  0.21202522676E+02  0.77218674232E+03  0.69541720504E+03  0.13746340031E+04  0.89960638132E+03 0.  0.
         23    2    4    4    0    0  0.27445756401E+03  0.84827946482E+03  0.59607874358E+03  0.10771331696E+04  0.10000495797E+03 0.  0.
         23    2    4    4    0    0 -0.25325504134E+03 -0.76092722506E+02  0.99338461462E+02  0.29750083345E+03  0.93329510863E+02 0.  0.
          3    1    3    3  502    0  0.55513077510E+01 -0.17782342545E+02 -0.88502873544E+01  0.20624168114E+02  0.00000000000E+00 0. -1.
         -4    1    3    3    0  502 -0.26753830427E+02 -0.75440439977E+03  0.15482363577E+03  0.77059206071E+03  0.00000000000E+00 0.  1.
         13    1    5    5    0    0  0.53177140196E+02  0.31695181561E+03  0.22504699156E+03  0.39234221041E+03  0.00000000000E+00 0. -1.
        -13    1    5    5    0    0  0.22128042382E+03  0.53132764921E+03  0.37103175201E+03  0.68479095919E+03  0.00000000000E+00 0.  1.
          1    1    6    6  503    0 -0.51003109523E+02 -0.53085575772E+02  0.69016672148E+01  0.73939357222E+02  0.00000000000E+00 0. -1.
         -1    1    6    6    0  503 -0.20225193182E+03 -0.23007146735E+02  0.92436794247E+02  0.22356147623E+03  0.00000000000E+00 0.  1.
<mgrwt>
<rscale>  0 0.19957377E+04</rscale>
<asrwt>0</asrwt>
<pdfrwt beam="1">  1        1 0.23132621E+00 0.19957377E+04</pdfrwt>
<pdfrwt beam="2">  1       -2 0.10188151E+00 0.19957377E+04</pdfrwt>
<totfact> 0.41858477E+00</totfact>
</mgrwt>
</event>
<event>
12    5  0.5297412E-008  0.2392679E+04  0.7818608E-02  0.8442250E-01
          3   -1    0    0  501    0  0.00000000000E+00  0.00000000000E+00  0.87521730944E+03  0.87521730944E+03  0.00000000000E+00 0. -1.
         -4   -1    0    0    0  501 -0.00000000000E+00 -0.00000000000E+00 -0.16352829353E+04  0.16352829353E+04  0.00000000000E+00 0.  1.
        -24    2    1    2    0    0 -0.48142319953E+03  0.39081300858E+03 -0.11351178011E+04  0.12958982802E+04  0.79729702833E+02 0.  0.
        254    2    1    2    0    0  0.48142319953E+03 -0.39081300858E+03  0.37505217521E+03  0.12146019646E+04  0.97472595814E+03 0.  0.
         23    2    4    4    0    0  0.50743468067E+03  0.19800492706E+03  0.24243709287E+03  0.60349549873E+03  0.93462113745E+02 0.  0.
         23    2    4    4    0    0 -0.26011481134E+02 -0.58881793564E+03  0.13261508234E+03  0.61110646584E+03  0.92093398491E+02 0.  0.
          1    1    3    3  502    0 -0.86674296910E+02  0.34111101124E+02 -0.16706288368E+03  0.19127469270E+03  0.00000000000E+00 0. -1.
         -2    1    3    3    0  502 -0.39474890262E+03  0.35670190746E+03 -0.96805491739E+03  0.11046235875E+04  0.00000000000E+00 0.  1.
         13    1    5    5    0    0  0.48705743115E+03  0.20837484030E+03  0.23373961209E+03  0.57903300560E+03  0.00000000000E+00 0. -1.
        -13    1    5    5    0    0  0.20377249514E+02 -0.10369913241E+02  0.86974807823E+01  0.24462493134E+02  0.00000000000E+00 0.  1.
          3    1    6    6  503    0 -0.20136746589E+02 -0.54895155670E+03  0.14643824508E+03  0.56850458203E+03  0.00000000000E+00 0. -1.
         -3    1    6    6    0  503 -0.58747345454E+01 -0.39866378941E+02 -0.13823162747E+02  0.42601883810E+02  0.00000000000E+00 0.  1.
<mgrwt>
<rscale>  0 0.23926788E+04</rscale>
<asrwt>0</asrwt>
<pdfrwt beam="1">  1        3 0.13464882E+00 0.23926788E+04</pdfrwt>
<pdfrwt beam="2">  1       -4 0.25158199E+00 0.23926788E+04</pdfrwt>
<totfact> 0.53936039E-02</totfact>
</mgrwt>
</event>
<event>
12    5  0.5297412E-008  0.1538773E+04  0.7818608E-02  0.8859071E-01
         -2   -1    0    0    0  501 -0.00000000000E+00  0.00000000000E+00  0.54479277466E+03  0.54479277466E+03  0.00000000000E+00 0.  1.
          1   -1    0    0  501    0  0.00000000000E+00 -0.00000000000E+00 -0.10865699871E+04  0.10865699871E+04  0.00000000000E+00 0. -1.
        -24    2    1    2    0    0 -0.23810344638E+03  0.39043843858E+03 -0.12245977154E+02  0.46780873525E+03  0.97773326252E+02 0.  0.
        254    2    1    2    0    0  0.23810344638E+03 -0.39043843858E+03 -0.52953123531E+03  0.11635540265E+04  0.92968769918E+03 0.  0.
         23    2    4    4    0    0 -0.16330321858E+03  0.11216449563E+02 -0.55679994062E+03  0.58775659184E+03  0.92940235794E+02 0.  0.
         23    2    4    4    0    0  0.40140666496E+03 -0.40165488814E+03  0.27268705314E+02  0.57579743470E+03  0.91351757938E+02 0.  0.
          1    1    3    3  502    0 -0.71685368490E+02  0.46433913481E+02 -0.58663944186E+01  0.85611418398E+02  0.00000000000E+00 0. -1.
         -4    1    3    3    0  502 -0.16641807789E+03  0.34400452510E+03 -0.63795827351E+01  0.38219731685E+03  0.00000000000E+00 0.  1.
         13    1    5    5    0    0 -0.20492565824E+01  0.18021916738E+02 -0.13358276413E+03  0.13480854501E+03  0.00000000000E+00 0.  1.
        -13    1    5    5    0    0 -0.16125396200E+03 -0.68054671756E+01 -0.42321717649E+03  0.45294804683E+03  0.00000000000E+00 0. -1.
          3    1    6    6  503    0  0.35689618735E+03 -0.32041442874E+03  0.44091518595E+02  0.48164754406E+03  0.00000000000E+00 0. -1.
         -3    1    6    6    0  503  0.44510477613E+02 -0.81240459404E+02 -0.16822813281E+02  0.94149890643E+02  0.00000000000E+00 0.  1.
<mgrwt>
<rscale>  0 0.15387729E+04</rscale>
<asrwt>0</asrwt>
<pdfrwt beam="1">  1        1 0.16716461E+00 0.15387729E+04</pdfrwt>
<pdfrwt beam="2">  1       -2 0.83814273E-01 0.15387729E+04</pdfrwt>
<totfact> 0.13653059E+01</totfact>
</mgrwt>
</event>
<event>
12    5  0.5297412E-008  0.1357316E+04  0.7818608E-02  0.8985309E-01
         -2   -1    0    0    0  501 -0.00000000000E+00  0.00000000000E+00  0.53569057887E+03  0.53569057887E+03  0.00000000000E+00 0.  1.
          1   -1    0    0  501    0  0.00000000000E+00 -0.00000000000E+00 -0.85978094853E+03  0.85978094853E+03  0.00000000000E+00 0. -1.
        -24    2    1    2    0    0  0.38053403369E+02  0.19726801426E+02  0.29114364965E+03  0.30480421008E+03  0.79396306901E+02 0.  0.
        254    2    1    2    0    0 -0.38053403369E+02 -0.19726801426E+02 -0.61523401931E+03  0.10906673173E+04  0.89955827513E+03 0.  0.
         23    2    4    4    0    0  0.20678038511E+03  0.36765214559E+03 -0.26223092429E+03  0.50494751877E+03  0.90998413382E+02 0.  0.
         23    2    4    4    0    0 -0.24483378848E+03 -0.38737894702E+03 -0.35300309503E+03  0.58571979855E+03  0.91926409364E+02 0.  0.
          3    1    3    3  502    0 -0.13093316395E+02 -0.17951448372E+02  0.12440827874E+03  0.12637685410E+03  0.00000000000E+00 0. -1.
         -4    1    3    3    0  502  0.51146719764E+02  0.37678249799E+02  0.16673537090E+03  0.17842735598E+03  0.00000000000E+00 0.  1.
         13    1    5    5    0    0  0.12794735753E+03  0.18856015736E+03 -0.18888525274E+03  0.29597820519E+03  0.00000000000E+00 0.  1.
        -13    1    5    5    0    0  0.78833027582E+02  0.17909198823E+03 -0.73345671543E+02  0.20896931358E+03  0.00000000000E+00 0. -1.
          1    1    6    6  503    0 -0.23131514506E+03 -0.30179822081E+03 -0.27668807290E+03  0.47026072779E+03  0.00000000000E+00 0. -1.
         -1    1    6    6    0  503 -0.13518643424E+02 -0.85580726204E+02 -0.76315022123E+02  0.11545907075E+03  0.00000000000E+00 0.  1.
<mgrwt>
<rscale>  0 0.13573158E+04</rscale>
<asrwt>0</asrwt>
<pdfrwt beam="1">  1        1 0.13227399E+00 0.13573158E+04</pdfrwt>
<pdfrwt beam="2">  1       -2 0.82413935E-01 0.13573158E+04</pdfrwt>
<totfact> 0.21776904E+01</totfact>
</mgrwt>
</event>
<event>
12    5  0.5297412E-008  0.1707611E+04  0.7818608E-02  0.8757036E-01
          1   -1    0    0  501    0  0.00000000000E+00  0.00000000000E+00  0.25797016126E+04  0.25797016126E+04  0.00000000000E+00 0. -1.
         -2   -1    0    0    0  501 -0.00000000000E+00 -0.00000000000E+00 -0.28258447124E+03  0.28258447124E+03  0.00000000000E+00 0.  1.
        -24    2    1    2    0    0  0.43003405888E+03 -0.20019755905E+02  0.15724385536E+04  0.16322683768E+04  0.80043529027E+02 0.  0.
        254    2    1    2    0    0 -0.43003405888E+03  0.20019755905E+02  0.72467858769E+03  0.12300177070E+04  0.89579820364E+03 0.  0.
         23    2    4    4    0    0 -0.26450307859E+03  0.37622862330E+03  0.67785166452E+03  0.82439778031E+03  0.92946035432E+02 0.  0.
         23    2    4    4    0    0 -0.16553098029E+03 -0.35620886740E+03  0.46826923173E+02  0.40561992669E+03  0.89719014409E+02 0.  0.
          3    1    3    3  502    0  0.41981153146E+03 -0.63369138834E+01  0.14869158647E+04  0.15450568492E+04  0.00000000000E+00 0. -1.
         -4    1    3    3    0  502  0.10222527421E+02 -0.13682842021E+02  0.85522688899E+02  0.87211527616E+02  0.00000000000E+00 0.  1.
         13    1    5    5    0    0 -0.12925745822E+03  0.21490404950E+03  0.44257903985E+03  0.50869189841E+03  0.00000000000E+00 0. -1.
        -13    1    5    5    0    0 -0.13524562036E+03  0.16132457381E+03  0.23527262467E+03  0.31570588189E+03  0.00000000000E+00 0.  1.
          4    1    6    6  503    0 -0.87209229919E+02 -0.12300495576E+03 -0.16251662352E+02  0.15165680154E+03  0.00000000000E+00 0. -1.
         -4    1    6    6    0  503 -0.78321750374E+02 -0.23320391164E+03  0.63078585525E+02  0.25396312515E+03  0.00000000000E+00 0.  1.
<mgrwt>
<rscale>  0 0.17076107E+04</rscale>
<asrwt>0</asrwt>
<pdfrwt beam="1">  1        1 0.39687715E+00 0.17076107E+04</pdfrwt>
<pdfrwt beam="2">  1       -2 0.43474536E-01 0.17076107E+04</pdfrwt>
<totfact> 0.50044056E+00</totfact>
</mgrwt>
</event>
<event>
12    5  0.5297412E-008  0.1908851E+04  0.7818608E-02  0.8650463E-01
          1   -1    0    0  501    0  0.00000000000E+00  0.00000000000E+00  0.96678712209E+03  0.96678712209E+03  0.00000000000E+00 0. -1.
         -2   -1    0    0    0  501 -0.00000000000E+00 -0.00000000000E+00 -0.94222161757E+03  0.94222161757E+03  0.00000000000E+00 0.  1.
        -24    2    1    2    0    0 -0.41804395153E+03  0.58999782009E+03  0.13582737937E+03  0.74008388489E+03  0.80105596368E+02 0.  0.
        254    2    1    2    0    0  0.41804395153E+03 -0.58999782009E+03 -0.11126187485E+03  0.11689248548E+04  0.91167315317E+03 0.  0.
         23    2    4    4    0    0 -0.20484365076E+03 -0.19130039775E+03  0.20610152746E+03  0.35924661793E+03  0.89574156051E+02 0.  0.
         23    2    4    4    0    0  0.62288760229E+03 -0.39869742233E+03 -0.31736340231E+03  0.80967823685E+03  0.88942219701E+02 0.  0.
          3    1    3    3  502    0 -0.22040410674E+03  0.33633700599E+03  0.37726735156E+02  0.40388594729E+03  0.00000000000E+00 0. -1.
         -4    1    3    3    0  502 -0.19763984479E+03  0.25366081409E+03  0.98100644212E+02  0.33619793760E+03  0.00000000000E+00 0.  1.
         13    1    5    5    0    0 -0.89276001393E+00 -0.28653558485E+02  0.42703476115E+02  0.51433552343E+02  0.00000000000E+00 0.  1.
        -13    1    5    5    0    0 -0.20395089075E+03 -0.16264683927E+03  0.16339805135E+03  0.30781306559E+03  0.00000000000E+00 0. -1.
          3    1    6    6  503    0  0.38628969554E+03 -0.29247252299E+03 -0.18640787316E+03  0.51914140728E+03  0.00000000000E+00 0. -1.
         -3    1    6    6    0  503  0.23659790675E+03 -0.10622489935E+03 -0.13095552916E+03  0.29053682957E+03  0.00000000000E+00 0.  1.
<mgrwt>
<rscale>  0 0.19088507E+04</rscale>
<asrwt>0</asrwt>
<pdfrwt beam="1">  1        1 0.14873648E+00 0.19088507E+04</pdfrwt>
<pdfrwt beam="2">  1       -2 0.14495717E+00 0.19088507E+04</pdfrwt>
<totfact> 0.43185007E+00</totfact>
</mgrwt>
</event>
<event>
12    5  0.5297412E-008  0.1897897E+04  0.7818608E-02  0.8655904E-01
          1   -1    0    0  501    0  0.00000000000E+00  0.00000000000E+00  0.18323978390E+04  0.18323978390E+04  0.00000000000E+00 0. -1.
         -2   -1    0    0    0  501 -0.00000000000E+00 -0.00000000000E+00 -0.49143421380E+03  0.49143421380E+03  0.00000000000E+00 0.  1.
        -24    2    1    2    0    0 -0.38953605488E+03  0.62329972382E+03  0.53111057850E+03  0.91025340274E+03  0.79005865917E+02 0.  0.
        254    2    1    2    0    0  0.38953605488E+03 -0.62329972382E+03  0.80985304675E+03  0.14135786501E+04  0.89560133928E+03 0.  0.
         23    2    4    4    0    0  0.51693258864E+03 -0.60107199531E+03  0.92243984761E+03  0.12196586216E+04  0.90360588673E+02 0.  0.
         23    2    4    4    0    0 -0.12739653376E+03 -0.22227728504E+02 -0.11258680086E+03  0.19392002852E+03  0.90582785360E+02 0.  0.
          1    1    3    3  502    0 -0.17320786972E+03  0.26867859412E+03  0.27927605982E+03  0.42448117822E+03  0.00000000000E+00 0. -1.
         -2    1    3    3    0  502 -0.21632818516E+03  0.35462112970E+03  0.25183451867E+03  0.48577222452E+03  0.00000000000E+00 0.  1.
         13    1    5    5    0    0  0.96280233911E+02 -0.16895415563E+03  0.20854883636E+03  0.28514558964E+03  0.00000000000E+00 0. -1.
        -13    1    5    5    0    0  0.42065235473E+03 -0.43211783968E+03  0.71389101125E+03  0.93451303194E+03  0.00000000000E+00 0.  1.
          3    1    6    6  503    0  0.43953463939E+01 -0.21962276185E+02 -0.31574132368E+01  0.22619237465E+02  0.00000000000E+00 0. -1.
         -3    1    6    6    0  503 -0.13179188015E+03 -0.26545231863E+00 -0.10942938763E+03  0.17130079105E+03  0.00000000000E+00 0.  1.
<mgrwt>
<rscale>  0 0.18978967E+04</rscale>
<asrwt>0</asrwt>
<pdfrwt beam="1">  1        1 0.28190736E+00 0.18978967E+04</pdfrwt>
<pdfrwt beam="2">  1       -2 0.75605265E-01 0.18978967E+04</pdfrwt>
<totfact> 0.49906544E+00</totfact>
</mgrwt>
</event>
<event>
12    5  0.5297412E-008  0.1807043E+04  0.7818608E-02  0.8702563E-01
          3   -1    0    0  501    0  0.00000000000E+00  0.00000000000E+00  0.28145458430E+04  0.28145458430E+04  0.00000000000E+00 0. -1.
         -4   -1    0    0    0  501 -0.00000000000E+00 -0.00000000000E+00 -0.29004708971E+03  0.29004708971E+03  0.00000000000E+00 0.  1.
        -24    2    1    2    0    0 -0.95876589854E+02  0.32363053067E+01  0.21175606278E+04  0.21212775011E+04  0.80947082075E+02 0.  0.
        254    2    1    2    0    0  0.95876589854E+02 -0.32363053067E+01  0.40693812547E+03  0.98331543159E+03  0.89000438532E+03 0.  0.
         23    2    4    4    0    0 -0.97664021867E+02 -0.34824120244E+03  0.44018088478E+03  0.57673916447E+03  0.89770018731E+02 0.  0.
         23    2    4    4    0    0  0.19354061172E+03  0.34500489713E+03 -0.33242759310E+02  0.40657626713E+03  0.87822733475E+02 0.  0.
          3    1    3    3  502    0 -0.60101389487E+02  0.32290720882E+02  0.79766212094E+03  0.80057462292E+03  0.00000000000E+00 0. -1.
         -4    1    3    3    0  502 -0.35775200367E+02 -0.29054415575E+02  0.13198985069E+04  0.13207028782E+04  0.00000000000E+00 0.  1.
         13    1    5    5    0    0  0.97224632630E+01 -0.71151284552E+02  0.12044366369E+03  0.14022734294E+03  0.00000000000E+00 0.  1.
        -13    1    5    5    0    0 -0.10738648513E+03 -0.27708991788E+03  0.31973722109E+03  0.43651182153E+03  0.00000000000E+00 0. -1.
          2    1    6    6  503    0  0.14615376724E+03  0.21831772956E+03 -0.58051243180E+02  0.26906040503E+03  0.00000000000E+00 0. -1.
         -2    1    6    6    0  503  0.47386844479E+02  0.12668716757E+03  0.24808483870E+02  0.13751586210E+03  0.00000000000E+00 0.  1.
<mgrwt>
<rscale>  0 0.18070427E+04</rscale>
<asrwt>0</asrwt>
<pdfrwt beam="1">  1        3 0.43300703E+00 0.18070427E+04</pdfrwt>
<pdfrwt beam="2">  1       -4 0.44622631E-01 0.18070427E+04</pdfrwt>
<totfact> 0.79396238E-02</totfact>
</mgrwt>
</event>
<event>
12    5  0.5297412E-008  0.2055705E+04  0.7818608E-02  0.8581011E-01
          1   -1    0    0  501    0  0.00000000000E+00  0.00000000000E+00  0.15036343977E+04  0.15036343977E+04  0.00000000000E+00 0. -1.
         -2   -1    0    0    0  501 -0.00000000000E+00 -0.00000000000E+00 -0.70261819683E+03  0.70261819683E+03  0.00000000000E+00 0.  1.
        -24    2    1    2    0    0 -0.55816559568E+03  0.33280736022E+03 -0.22170316891E+03  0.69116716898E+03  0.79058137823E+02 0.  0.
        254    2    1    2    0    0  0.55816559568E+03 -0.33280736022E+03  0.10227193698E+04  0.15150854256E+04  0.90951600656E+03 0.  0.
         23    2    4    4    0    0  0.28825275757E+03  0.29807221671E+03  0.40831885484E+03  0.58924701921E+03  0.92471962295E+02 0.  0.
         23    2    4    4    0    0  0.26991283811E+03 -0.63087957693E+03  0.61440051497E+03  0.92583840636E+03  0.93950950721E+02 0.  0.
          3    1    3    3  502    0 -0.43131321042E+03  0.23215177137E+03 -0.13806584226E+03  0.50890834856E+03  0.00000000000E+00 0. -1.
         -4    1    3    3    0  502 -0.12685238525E+03  0.10065558885E+03 -0.83637326649E+02  0.18225882042E+03  0.00000000000E+00 0.  1.
         13    1    5    5    0    0  0.25745346563E+02  0.60973606917E+01  0.55067652694E+02  0.61093756230E+02  0.00000000000E+00 0.  1.
        -13    1    5    5    0    0  0.26250741100E+03  0.29197485602E+03  0.35325120214E+03  0.52815326298E+03  0.00000000000E+00 0. -1.
          1    1    6    6  503    0  0.24402696775E+03 -0.53084718291E+03  0.47893863401E+03  0.75546681445E+03  0.00000000000E+00 0. -1.
         -1    1    6    6    0  503  0.25885870366E+02 -0.10003239402E+03  0.13546188096E+03  0.17037159191E+03  0.00000000000E+00 0.  1.
<mgrwt>
<rscale>  0 0.20557051E+04</rscale>
<asrwt>0</asrwt>
<pdfrwt beam="1">  1        1 0.23132837E+00 0.20557051E+04</pdfrwt>
<pdfrwt beam="2">  1       -2 0.10809511E+00 0.20557051E+04</pdfrwt>
<totfact> 0.36123807E+00</totfact>
</mgrwt>
</event>
<event>
12    5  0.5297412E-008  0.1271720E+04  0.7818608E-02  0.9052297E-01
          1   -1    0    0  501    0  0.00000000000E+00  0.00000000000E+00  0.16092434731E+04  0.16092434731E+04  0.00000000000E+00 0. -1.
         -2   -1    0    0    0  501 -0.00000000000E+00 -0.00000000000E+00 -0.25124730040E+03  0.25124730040E+03  0.00000000000E+00 0.  1.
        -24    2    1    2    0    0 -0.20551402251E+03  0.77355754827E+02  0.65391869562E+03  0.69491141566E+03  0.84096901741E+02 0.  0.
        254    2    1    2    0    0  0.20551402251E+03 -0.77355754827E+02  0.70407747706E+03  0.11655793578E+04  0.90256867851E+03 0.  0.
         23    2    4    4    0    0 -0.49759369149E+02 -0.36447179548E+03  0.24343681058E+02  0.37950393542E+03  0.90082948841E+02 0.  0.
         23    2    4    4    0    0  0.25527339166E+03  0.28711604066E+03  0.67973379600E+03  0.78607542240E+03  0.90974782172E+02 0.  0.
          1    1    3    3  502    0 -0.40291198015E+02  0.14049744366E+02  0.25456837910E+03  0.25811980860E+03  0.00000000000E+00 0. -1.
         -2    1    3    3    0  502 -0.16522282450E+03  0.63306010461E+02  0.39935031652E+03  0.43679160706E+03  0.00000000000E+00 0.  1.
         13    1    5    5    0    0 -0.65875983626E+02 -0.18788418729E+03  0.33725176307E+02  0.20193439669E+03  0.00000000000E+00 0. -1.
        -13    1    5    5    0    0  0.16116614478E+02 -0.17658760820E+03 -0.93814952488E+01  0.17756953873E+03  0.00000000000E+00 0.  1.
          1    1    6    6  503    0  0.19614002758E+03  0.19870156273E+03  0.40914307902E+03  0.49532946668E+03  0.00000000000E+00 0. -1.
         -1    1    6    6    0  503  0.59133364080E+02  0.88414477925E+02  0.27059071698E+03  0.29074595573E+03  0.00000000000E+00 0.  1.
<mgrwt>
<rscale>  0 0.12717202E+04</rscale>
<asrwt>0</asrwt>
<pdfrwt beam="1">  1        1 0.24757591E+00 0.12717202E+04</pdfrwt>
<pdfrwt beam="2">  1       -2 0.38653432E-01 0.12717202E+04</pdfrwt>
<totfact> 0.30048831E+01</totfact>
</mgrwt>
</event>
<event>
12    5  0.5297412E-008  0.1603540E+04  0.7818608E-02  0.8818376E-01
          1   -1    0    0  501    0  0.00000000000E+00  0.00000000000E+00  0.25957345670E+04  0.25957345670E+04  0.00000000000E+00 0. -1.
         -2   -1    0    0    0  501 -0.00000000000E+00 -0.00000000000E+00 -0.24765051017E+03  0.24765051017E+03  0.00000000000E+00 0.  1.
        -24    2    1    2    0    0  0.47254296681E+03  0.22954893287E+03  0.11317394022E+04  0.12502498987E+04  0.79379887367E+02 0.  0.
        254    2    1    2    0    0 -0.47254296681E+03 -0.22954893287E+03  0.12163446546E+04  0.15931351785E+04  0.88464445406E+03 0.  0.
         23    2    4    4    0    0 -0.24252968589E+03  0.22699753176E+03  0.94613789080E+02  0.35713184949E+03  0.90790202529E+02 0.  0.
         23    2    4    4    0    0 -0.23001328092E+03 -0.45654646463E+03  0.11217308655E+04  0.12360033290E+04  0.89907234762E+02 0.  0.
          1    1    3    3  502    0  0.39549650129E+03  0.21456872021E+03  0.91297628271E+03  0.10178324572E+04  0.00000000000E+00 0. -1.
         -2    1    3    3    0  502  0.77046465520E+02  0.14980212659E+02  0.21876311954E+03  0.23241744145E+03  0.00000000000E+00 0.  1.
         13    1    5    5    0    0 -0.22543624069E+03  0.17137027168E+03  0.95748471334E+02  0.29892647657E+03  0.00000000000E+00 0. -1.
        -13    1    5    5    0    0 -0.17093445194E+02  0.55627260083E+02 -0.11346822542E+01  0.58205372920E+02  0.00000000000E+00 0.  1.
          1    1    6    6  503    0 -0.17789264235E+03 -0.41737395150E+03  0.99062009129E+03  0.10895755930E+04  0.00000000000E+00 0. -1.
         -1    1    6    6    0  503 -0.52120638569E+02 -0.39172513132E+02  0.13111077423E+03  0.14642773599E+03  0.00000000000E+00 0.  1.
<mgrwt>
<rscale>  0 0.16035398E+04</rscale>
<asrwt>0</asrwt>
<pdfrwt beam="1">  1        1 0.39934376E+00 0.16035398E+04</pdfrwt>
<pdfrwt beam="2">  1       -2 0.38100080E-01 0.16035398E+04</pdfrwt>
<totfact> 0.63805139E+00</totfact>
</mgrwt>
</event>
<event>
12    5  0.5297412E-008  0.1677893E+04  0.7818608E-02  0.8774074E-01
         -2   -1    0    0    0  501 -0.00000000000E+00  0.00000000000E+00  0.93477209123E+03  0.93477209123E+03  0.00000000000E+00 0.  1.
          1   -1    0    0  501    0  0.00000000000E+00 -0.00000000000E+00 -0.75294416341E+03  0.75294416341E+03  0.00000000000E+00 0. -1.
        -24    2    1    2    0    0 -0.33127592427E+03  0.38482973202E+03  0.39886280382E+03  0.65058418354E+03  0.79564960610E+02 0.  0.
        254    2    1    2    0    0  0.33127592427E+03 -0.38482973202E+03 -0.21703487600E+03  0.10371320711E+04  0.87789585649E+03 0.  0.
         23    2    4    4    0    0  0.62045747375E+03 -0.29278739849E+03 -0.98519730472E+02  0.69920494435E+03  0.92138371239E+02 0.  0.
         23    2    4    4    0    0 -0.28918154948E+03 -0.92042333527E+02 -0.11851514552E+03  0.33792712675E+03  0.89728164773E+02 0.  0.
          1    1    3    3  502    0 -0.27352044093E+02  0.22341957078E+02  0.56575763284E+02  0.66694185303E+02  0.00000000000E+00 0. -1.
         -2    1    3    3    0  502 -0.30392388018E+03  0.36248777494E+03  0.34228704054E+03  0.58388999824E+03  0.00000000000E+00 0.  1.
         13    1    5    5    0    0  0.37258463090E+03 -0.14758354738E+03 -0.19317630091E+02  0.40121488192E+03  0.00000000000E+00 0. -1.
        -13    1    5    5    0    0  0.24787284286E+03 -0.14520385111E+03 -0.79202100381E+02  0.29799006243E+03  0.00000000000E+00 0.  1.
          1    1    6    6  503    0 -0.11044457465E+03 -0.81098160941E+02 -0.59486443407E+02  0.14937721622E+03  0.00000000000E+00 0. -1.
         -1    1    6    6    0  503 -0.17873697483E+03 -0.10944172586E+02 -0.59028702117E+02  0.18854991053E+03  0.00000000000E+00 0.  1.
<mgrwt>
<rscale>  0 0.16778930E+04</rscale>
<asrwt>0</asrwt>
<pdfrwt beam="1">  1        1 0.11583756E+00 0.16778930E+04</pdfrwt>
<pdfrwt beam="2">  1       -2 0.14381109E+00 0.16778930E+04</pdfrwt>
<totfact> 0.68030721E+00</totfact>
</mgrwt>
</event>
<event>
12    5  0.5297412E-008  0.1958868E+04  0.7818608E-02  0.8626096E-01
         -2   -1    0    0    0  501 -0.00000000000E+00  0.00000000000E+00  0.57056842098E+03  0.57056842098E+03  0.00000000000E+00 0.  1.
          1   -1    0    0  501    0  0.00000000000E+00 -0.00000000000E+00 -0.16812902115E+04  0.16812902115E+04  0.00000000000E+00 0. -1.
        -24    2    1    2    0    0  0.18316487692E+03  0.55662327717E+03 -0.10211571655E+04  0.11801285058E+04  0.81009188804E+02 0.  0.
        254    2    1    2    0    0 -0.18316487692E+03 -0.55662327717E+03 -0.89564625019E+02  0.10717301267E+04  0.89286325808E+03 0.  0.
         23    2    4    4    0    0  0.26848135093E+03 -0.53567070030E+03 -0.76334946091E+02  0.61050442092E+03  0.88675188270E+02 0.  0.
         23    2    4    4    0    0 -0.45164622785E+03 -0.20952576868E+02 -0.13229678928E+02  0.46122570579E+03  0.90170958040E+02 0.  0.
          1    1    3    3  502    0  0.15225492591E+03  0.41157892422E+03 -0.82217832773E+03  0.93196350568E+03  0.00000000000E+00 0. -1.
         -2    1    3    3    0  502  0.30909951012E+02  0.14504435295E+03 -0.19897883778E+03  0.24816500011E+03  0.00000000000E+00 0.  1.
         13    1    5    5    0    0  0.68793442450E+02 -0.13722513131E+03 -0.59100218797E+02  0.16448741669E+03  0.00000000000E+00 0.  1.
        -13    1    5    5    0    0  0.19968790848E+03 -0.39844556899E+03 -0.17234727293E+02  0.44601700423E+03  0.00000000000E+00 0. -1.
          1    1    6    6  503    0 -0.44893084077E+03 -0.30358520109E+02 -0.18040144120E+02  0.45031765048E+03  0.00000000000E+00 0. -1.
         -1    1    6    6    0  503 -0.27153870747E+01  0.94059432409E+01  0.48104651911E+01  0.10908055307E+02  0.00000000000E+00 0.  1.
<mgrwt>
<rscale>  0 0.19588681E+04</rscale>
<asrwt>0</asrwt>
<pdfrwt beam="1">  1        1 0.25866003E+00 0.19588681E+04</pdfrwt>
<pdfrwt beam="2">  1       -2 0.87779757E-01 0.19588681E+04</pdfrwt>
<totfact> 0.44902091E+00</totfact>
</mgrwt>
</event>
<event>
12    5  0.5297412E-008  0.1358748E+04  0.7818608E-02  0.8984232E-01
         -2   -1    0    0    0  501 -0.00000000000E+00  0.00000000000E+00  0.20140327639E+03  0.20140327639E+03  0.00000000000E+00 0.  1.
          1   -1    0    0  501    0  0.00000000000E+00 -0.00000000000E+00 -0.22916653528E+04  0.22916653528E+04  0.00000000000E+00 0. -1.
        -24    2    1    2    0    0  0.30358864183E+03 -0.20277663966E+03 -0.78922682174E+03  0.87305878838E+03  0.77898926673E+02 0.  0.
        254    2    1    2    0    0 -0.30358864183E+03  0.20277663966E+03 -0.13010352546E+04  0.16200098408E+04  0.89356293641E+03 0.  0.
         23    2    4    4    0    0 -0.45943790350E+03 -0.13626281895E+03 -0.10585196144E+04  0.11655148138E+04  0.91160649506E+02 0.  0.
         23    2    4    4    0    0  0.15584926167E+03  0.33903945861E+03 -0.24251564023E+03  0.45449502701E+03  0.92277553926E+02 0.  0.
          3    1    3    3  502    0  0.17293606508E+03 -0.13844669383E+03 -0.55073160563E+03  0.59361576047E+03  0.00000000000E+00 0. -1.
         -4    1    3    3    0  502  0.13065257674E+03 -0.64329945824E+02 -0.23849521611E+03  0.27944302791E+03  0.00000000000E+00 0.  1.
         13    1    5    5    0    0 -0.26892322742E+03 -0.12413578999E+03 -0.67424864405E+03  0.73643779820E+03  0.00000000000E+00 0. -1.
        -13    1    5    5    0    0 -0.19051467607E+03 -0.12127028960E+02 -0.38427097034E+03  0.42907701556E+03  0.00000000000E+00 0.  1.
          2    1    6    6  503    0  0.64069797235E+02  0.64085630010E+02 -0.31434440714E+02  0.95916791828E+02  0.00000000000E+00 0.  1.
         -2    1    6    6    0  503  0.91779464434E+02  0.27495382860E+03 -0.21108119952E+03  0.35857823518E+03  0.00000000000E+00 0. -1.
<mgrwt>
<rscale>  0 0.13587478E+04</rscale>
<asrwt>0</asrwt>
<pdfrwt beam="1">  1        1 0.35256392E+00 0.13587478E+04</pdfrwt>
<pdfrwt beam="2">  1       -2 0.30985118E-01 0.13587478E+04</pdfrwt>
<totfact> 0.15671780E+01</totfact>
</mgrwt>
</event>
<event>
12    5  0.5297412E-008  0.1740975E+04  0.7818608E-02  0.8738334E-01
          1   -1    0    0  501    0  0.00000000000E+00  0.00000000000E+00  0.80894897509E+03  0.80894897509E+03  0.00000000000E+00 0. -1.
         -2   -1    0    0    0  501 -0.00000000000E+00 -0.00000000000E+00 -0.93670744583E+03  0.93670744583E+03  0.00000000000E+00 0.  1.
        -24    2    1    2    0    0 -0.54302958223E+03  0.30247826097E+03  0.98142442608E+02  0.63435203542E+03  0.79977123390E+02 0.  0.
        254    2    1    2    0    0  0.54302958223E+03 -0.30247826097E+03 -0.22590091335E+03  0.11113043855E+04  0.89308005746E+03 0.  0.
         23    2    4    4    0    0  0.58936840462E+03 -0.36117603607E+03  0.15268218766E+03  0.71378758612E+03  0.91529351995E+02 0.  0.
         23    2    4    4    0    0 -0.46338822393E+02  0.58697775098E+02 -0.37858310101E+03  0.39751679937E+03  0.95402967219E+02 0.  0.
          3    1    3    3  502    0 -0.44379303582E+03  0.27623043688E+03  0.66588294251E+02  0.52696253551E+03  0.00000000000E+00 0. -1.
         -4    1    3    3    0  502 -0.99236546408E+02  0.26247824098E+02  0.31554148357E+02  0.10738949991E+03  0.00000000000E+00 0.  1.
         13    1    5    5    0    0  0.21346857860E+03 -0.18346907418E+03  0.61649766106E+02  0.28815001109E+03  0.00000000000E+00 0.  1.
        -13    1    5    5    0    0  0.37589982602E+03 -0.17770696190E+03  0.91032421553E+02  0.42563757504E+03  0.00000000000E+00 0. -1.
          3    1    6    6  503    0 -0.39366486979E+01 -0.20684203783E+02 -0.15620893636E+03  0.15762158890E+03  0.00000000000E+00 0. -1.
         -3    1    6    6    0  503 -0.42402173695E+02  0.79381978882E+02 -0.22237416465E+03  0.23989521047E+03  0.00000000000E+00 0.  1.
<mgrwt>
<rscale>  0 0.17409750E+04</rscale>
<asrwt>0</asrwt>
<pdfrwt beam="1">  1        1 0.12445369E+00 0.17409750E+04</pdfrwt>
<pdfrwt beam="2">  1       -2 0.14410884E+00 0.17409750E+04</pdfrwt>
<totfact> 0.60062968E+00</totfact>
</mgrwt>
</event>
<event>
12    5  0.5297412E-008  0.1921586E+04  0.7818608E-02  0.8644186E-01
         -2   -1    0    0    0  501 -0.00000000000E+00  0.00000000000E+00  0.79457775914E+03  0.79457775914E+03  0.00000000000E+00 0.  1.
          1   -1    0    0  501    0  0.00000000000E+00 -0.00000000000E+00 -0.11617785733E+04  0.11617785733E+04  0.00000000000E+00 0. -1.
        -24    2    1    2    0    0  0.12949504268E+03  0.30534786362E+03  0.53701010269E+03  0.63560003442E+03  0.74841629269E+02 0.  0.
        254    2    1    2    0    0 -0.12949504268E+03 -0.30534786362E+03 -0.90421091687E+03  0.13207562980E+04  0.90376630427E+03 0.  0.
         23    2    4    4    0    0 -0.49704830351E+03 -0.62331780187E+02 -0.54074197728E+03  0.74245933589E+03  0.88891577840E+02 0.  0.
         23    2    4    4    0    0  0.36755326083E+03 -0.24301608344E+03 -0.36346893959E+03  0.57829696215E+03  0.90363101049E+02 0.  0.
          3    1    3    3  502    0  0.53793464225E+01  0.85652391797E+02  0.16666899237E+03  0.18746685736E+03  0.00000000000E+00 0. -1.
         -4    1    3    3    0  502  0.12411569626E+03  0.21969547183E+03  0.37034111031E+03  0.44813317707E+03  0.00000000000E+00 0.  1.
         13    1    5    5    0    0 -0.34843799750E+03 -0.23110496057E+01 -0.37510917555E+03  0.51197780483E+03  0.00000000000E+00 0.  1.
        -13    1    5    5    0    0 -0.14861030601E+03 -0.60020730582E+02 -0.16563280173E+03  0.23048153106E+03  0.00000000000E+00 0. -1.
          3    1    6    6  503    0  0.26485709521E+03 -0.14949943149E+03 -0.20102694844E+03  0.36456987657E+03  0.00000000000E+00 0. -1.
         -3    1    6    6    0  503  0.10269616562E+03 -0.93516651946E+02 -0.16244199115E+03  0.21372708559E+03  0.00000000000E+00 0.  1.
<mgrwt>
<rscale>  0 0.19215862E+04</rscale>
<asrwt>0</asrwt>
<pdfrwt beam="1">  1        1 0.17873516E+00 0.19215862E+04</pdfrwt>
<pdfrwt beam="2">  1       -2 0.12224273E+00 0.19215862E+04</pdfrwt>
<totfact> 0.47350081E+00</totfact>
</mgrwt>
</event>
<event>
12    5  0.5297412E-008  0.2512050E+04  0.7818608E-02  0.8398705E-01
          1   -1    0    0  501    0  0.00000000000E+00  0.00000000000E+00  0.11625238164E+04  0.11625238164E+04  0.00000000000E+00 0. -1.
         -2   -1    0    0    0  501 -0.00000000000E+00 -0.00000000000E+00 -0.13570459360E+04  0.13570459360E+04  0.00000000000E+00 0.  1.
        -24    2    1    2    0    0 -0.27305909667E+03 -0.47514180899E+03 -0.10352873434E+04  0.11741363658E+04  0.80344963345E+02 0.  0.
        254    2    1    2    0    0  0.27305909667E+03  0.47514180899E+03  0.84076522383E+03  0.13454333865E+04  0.89609364861E+03 0.  0.
         23    2    4    4    0    0  0.10694682858E+03  0.58439805809E+03  0.14892724891E+03  0.61953228737E+03  0.93178405151E+02 0.  0.
         23    2    4    4    0    0  0.16611226809E+03 -0.10925624910E+03  0.69183797492E+03  0.72590109917E+03  0.93607738184E+02 0.  0.
          1    1    3    3  502    0 -0.10439640235E+03 -0.22264423776E+03 -0.53689041023E+03  0.59052551006E+03  0.00000000000E+00 0. -1.
         -2    1    3    3    0  502 -0.16866269433E+03 -0.25249757123E+03 -0.49839693318E+03  0.58361085574E+03  0.00000000000E+00 0.  1.
         13    1    5    5    0    0  0.11626863406E+03  0.53354802949E+03  0.15457942171E+03  0.56752682109E+03  0.00000000000E+00 0.  1.
        -13    1    5    5    0    0 -0.93218054848E+01  0.50850028593E+02 -0.56521727967E+01  0.52005466277E+02  0.00000000000E+00 0. -1.
          3    1    6    6  503    0  0.14982670951E+03 -0.88225113058E+02  0.66774988394E+03  0.69001566718E+03  0.00000000000E+00 0. -1.
         -3    1    6    6    0  503  0.16285558588E+02 -0.21031136038E+02  0.24088090988E+02  0.35885431989E+02  0.00000000000E+00 0.  1.
<mgrwt>
<rscale>  0 0.25120495E+04</rscale>
<asrwt>0</asrwt>
<pdfrwt beam="1">  1        1 0.17884982E+00 0.25120495E+04</pdfrwt>
<pdfrwt beam="2">  1       -2 0.20877630E+00 0.25120495E+04</pdfrwt>
<totfact> 0.10337923E+00</totfact>
</mgrwt>
</event>
<event>
12    5  0.5297412E-008  0.1270562E+04  0.7818608E-02  0.9053241E-01
         -2   -1    0    0    0  501 -0.00000000000E+00  0.00000000000E+00  0.12608187781E+04  0.12608187781E+04  0.00000000000E+00 0.  1.
          1   -1    0    0  501    0  0.00000000000E+00 -0.00000000000E+00 -0.32009524766E+03  0.32009524766E+03  0.00000000000E+00 0. -1.
        -24    2    1    2    0    0  0.71752181935E+02 -0.28778341811E+03  0.35727936446E+03  0.47150619980E+03  0.81865015924E+02 0.  0.
        254    2    1    2    0    0 -0.71752181935E+02  0.28778341811E+03  0.58344416596E+03  0.11094078259E+04  0.89577394364E+03 0.  0.
         23    2    4    4    0    0  0.18457226747E+03  0.32622851195E+03  0.70868438896E+03  0.80706286504E+03  0.92870560708E+02 0.  0.
         23    2    4    4    0    0 -0.25632444940E+03 -0.38445093837E+02 -0.12524022300E+03  0.30234496089E+03  0.92450599323E+02 0.  0.
          3    1    3    3  502    0  0.64243396817E+02 -0.26165369139E+03  0.27557717790E+03  0.38539933736E+03  0.00000000000E+00 0. -1.
         -4    1    3    3    0  502  0.75087851186E+01 -0.26129726720E+02  0.81702186557E+02  0.86106862448E+02  0.00000000000E+00 0.  1.
         13    1    5    5    0    0  0.16033531608E+03  0.26626987533E+03  0.50138940866E+03  0.58991389135E+03  0.00000000000E+00 0. -1.
        -13    1    5    5    0    0  0.24236951388E+02  0.59958636622E+02  0.20729498030E+03  0.21714897370E+03  0.00000000000E+00 0.  1.
          3    1    6    6  503    0 -0.22841206574E+03 -0.55297153658E+02 -0.13126992676E+03  0.26918699941E+03  0.00000000000E+00 0. -1.
         -3    1    6    6    0  503 -0.27912383660E+02  0.16852059822E+02  0.60297037624E+01  0.33157961476E+02  0.00000000000E+00 0.  1.
<mgrwt>
<rscale>  0 0.12705622E+04</rscale>
<asrwt>0</asrwt>
<pdfrwt beam="1">  1        1 0.49245423E-01 0.12705622E+04</pdfrwt>
<pdfrwt beam="2">  1       -2 0.19397212E+00 0.12705622E+04</pdfrwt>
<totfact> 0.10085645E+01</totfact>
</mgrwt>
</event>
<event>
12    5  0.5297412E-008  0.1226366E+04  0.7818608E-02  0.9090087E-01
         -2   -1    0    0    0  501 -0.00000000000E+00  0.00000000000E+00  0.55307422652E+03  0.55307422652E+03  0.00000000000E+00 0.  1.
          1   -1    0    0  501    0  0.00000000000E+00 -0.00000000000E+00 -0.67982398808E+03  0.67982398808E+03  0.00000000000E+00 0. -1.
        -24    2    1    2    0    0 -0.13192324526E+03  0.13763518058E+03 -0.22456007046E+03  0.30605947805E+03  0.83054158732E+02 0.  0.
        254    2    1    2    0    0  0.13192324526E+03 -0.13763518058E+03  0.97810308907E+02  0.92683873656E+03  0.90172945027E+03 0.  0.
         23    2    4    4    0    0  0.82287896951E+02  0.37584642835E+03  0.63059562271E+02  0.40053435726E+03  0.91757437135E+02 0.  0.
         23    2    4    4    0    0  0.49635348306E+02 -0.51348160892E+03  0.34750746636E+02  0.52630437929E+03  0.98293716830E+02 0.  0.
          3    1    3    3  502    0 -0.56058789778E+02  0.79325431127E+02 -0.55693064519E+02  0.11196798368E+03  0.00000000000E+00 0. -1.
         -4    1    3    3    0  502 -0.75864455479E+02  0.58309749450E+02 -0.16886700595E+03  0.19409149436E+03  0.00000000000E+00 0.  1.
         13    1    5    5    0    0  0.67234634022E+02  0.10777792002E+03  0.18442638521E+02  0.12836162577E+03  0.00000000000E+00 0.  1.
        -13    1    5    5    0    0  0.15053262929E+02  0.26806850833E+03  0.44616923751E+02  0.27217273149E+03  0.00000000000E+00 0. -1.
          2    1    6    6  503    0  0.63476862270E+02 -0.33984119400E+03  0.58061762457E+02  0.35056029074E+03  0.00000000000E+00 0. -1.
         -2    1    6    6    0  503 -0.13841513964E+02 -0.17364041492E+03 -0.23311015822E+02  0.17574408856E+03  0.00000000000E+00 0.  1.
<mgrwt>
<rscale>  0 0.12263656E+04</rscale>
<asrwt>0</asrwt>
<pdfrwt beam="1">  1        1 0.10458831E+00 0.12263656E+04</pdfrwt>
<pdfrwt beam="2">  1       -2 0.85088342E-01 0.12263656E+04</pdfrwt>
<totfact> 0.29618174E+01</totfact>
</mgrwt>
</event>
<event>
12    5  0.5297412E-008  0.1557334E+04  0.7818608E-02  0.8847197E-01
         -2   -1    0    0    0  501 -0.00000000000E+00  0.00000000000E+00  0.46517163068E+03  0.46517163068E+03  0.00000000000E+00 0.  1.
          1   -1    0    0  501    0  0.00000000000E+00 -0.00000000000E+00 -0.13034379181E+04  0.13034379181E+04  0.00000000000E+00 0. -1.
        -24    2    1    2    0    0  0.39919192254E+03 -0.13865307772E+03  0.53059498528E+02  0.43329792453E+03  0.79705169459E+02 0.  0.
        254    2    1    2    0    0 -0.39919192254E+03  0.13865307772E+03 -0.89132578593E+03  0.13353116242E+04  0.90000922783E+03 0.  0.
         23    2    4    4    0    0 -0.96922542559E+02  0.18938490169E+02  0.17281307512E+03  0.21886389429E+03  0.91018677337E+02 0.  0.
         23    2    4    4    0    0 -0.30226937998E+03  0.11971458755E+03 -0.10641388611E+04  0.11164477299E+04  0.91463968576E+02 0.  0.
          1    1    3    3  502    0  0.71195818104E+02 -0.46463802326E+02 -0.13701444267E+02  0.86113059503E+02  0.00000000000E+00 0. -1.
         -2    1    3    3    0  502  0.32799610443E+03 -0.92189275390E+02  0.66760942794E+02  0.34718486502E+03  0.00000000000E+00 0.  1.
         13    1    5    5    0    0 -0.84857740830E+02  0.37917291886E+02  0.17298637618E+03  0.19637424359E+03  0.00000000000E+00 0. -1.
        -13    1    5    5    0    0 -0.12064801730E+02 -0.18978801717E+02 -0.17330105198E+00  0.22489650701E+02  0.00000000000E+00 0.  1.
          3    1    6    6  503    0 -0.30559586992E+03  0.10911316906E+03 -0.10460026781E+04  0.10951785800E+04  0.00000000000E+00 0. -1.
         -3    1    6    6    0  503  0.33264899487E+01  0.10601418490E+02 -0.18136182918E+02  0.21269149964E+02  0.00000000000E+00 0.  1.
<mgrwt>
<rscale>  0 0.15573341E+04</rscale>
<asrwt>0</asrwt>
<pdfrwt beam="1">  1        1 0.20052891E+00 0.15573341E+04</pdfrwt>
<pdfrwt beam="2">  1       -2 0.71564866E-01 0.15573341E+04</pdfrwt>
<totfact> 0.13454623E+01</totfact>
</mgrwt>
</event>
<event>
12    5  0.5297412E-008  0.2237010E+04  0.7818608E-02  0.8503180E-01
         -2   -1    0    0    0  501 -0.00000000000E+00  0.00000000000E+00  0.44294884810E+03  0.44294884810E+03  0.00000000000E+00 0.  1.
          1   -1    0    0  501    0  0.00000000000E+00 -0.00000000000E+00 -0.28243739332E+04  0.28243739332E+04  0.00000000000E+00 0. -1.
        -24    2    1    2    0    0 -0.72795419772E+03 -0.55158716503E+03 -0.12412851552E+04  0.15432404724E+04  0.81465357275E+02 0.  0.
        254    2    1    2    0    0  0.72795419772E+03  0.55158716503E+03 -0.11401399299E+04  0.17240823090E+04  0.91562821801E+03 0.  0.
         23    2    4    4    0    0  0.35842283846E+03  0.15082950685E+03  0.59181896451E+02  0.40361861691E+03  0.90493202980E+02 0.  0.
         23    2    4    4    0    0  0.36953135926E+03  0.40075765818E+03 -0.11993218264E+04  0.13204636920E+04  0.89952168930E+02 0.  0.
          1    1    3    3  502    0 -0.61039937189E+03 -0.42280407417E+03 -0.10118004657E+04  0.12550262391E+04  0.00000000000E+00 0. -1.
         -2    1    3    3    0  502 -0.11755482583E+03 -0.12878309086E+03 -0.22948468949E+03  0.28821423331E+03  0.00000000000E+00 0.  1.
         13    1    5    5    0    0  0.12127350320E+03  0.65299274173E+01  0.12054490534E+02  0.12204594738E+03  0.00000000000E+00 0. -1.
        -13    1    5    5    0    0  0.23714933526E+03  0.14429957943E+03  0.47127405917E+02  0.28157266953E+03  0.00000000000E+00 0.  1.
          2    1    6    6  503    0  0.15488063494E+02  0.47860985460E+02 -0.78698137173E+02  0.93402092238E+02  0.00000000000E+00 0.  1.
         -2    1    6    6    0  503  0.35404329577E+03  0.35289667272E+03 -0.11206236892E+04  0.12270615998E+04  0.00000000000E+00 0. -1.
<mgrwt>
<rscale>  0 0.22370098E+04</rscale>
<asrwt>0</asrwt>
<pdfrwt beam="1">  1        1 0.43451906E+00 0.22370098E+04</pdfrwt>
<pdfrwt beam="2">  1       -2 0.68145978E-01 0.22370098E+04</pdfrwt>
<totfact> 0.12609047E+00</totfact>
</mgrwt>
</event>
<event>
12    5  0.5297412E-008  0.1506575E+04  0.7818608E-02  0.8880092E-01
         -2   -1    0    0    0  501 -0.00000000000E+00  0.00000000000E+00  0.16585222684E+03  0.16585222684E+03  0.00000000000E+00 0.  1.
          1   -1    0    0  501    0  0.00000000000E+00 -0.00000000000E+00 -0.34213729574E+04  0.34213729574E+04  0.00000000000E+00 0. -1.
        -24    2    1    2    0    0  0.16718845704E+03  0.46291462255E+03 -0.11473601192E+04  0.12510524610E+04  0.80343570488E+02 0.  0.
        254    2    1    2    0    0 -0.16718845704E+03 -0.46291462255E+03 -0.21081606114E+04  0.23361727232E+04  0.87813432982E+03 0.  0.
         23    2    4    4    0    0 -0.42745891960E+03 -0.42172784785E+03 -0.18889556130E+04  0.19840116648E+04  0.87025699450E+02 0.  0.
         23    2    4    4    0    0  0.26027046256E+03 -0.41186774699E+02 -0.21920499838E+03  0.35216105843E+03  0.80805418557E+02 0.  0.
          1    1    3    3  502    0  0.44159541188E+02  0.21254521389E+03 -0.43900611608E+03  0.48974677435E+03  0.00000000000E+00 0. -1.
         -2    1    3    3    0  502  0.12302891585E+03  0.25036940866E+03 -0.70835400307E+03  0.76130568670E+03  0.00000000000E+00 0.  1.
         13    1    5    5    0    0 -0.33526087985E+03 -0.32248499994E+03 -0.15704226364E+04  0.16378716951E+04  0.00000000000E+00 0. -1.
        -13    1    5    5    0    0 -0.92198039747E+02 -0.99242847905E+02 -0.31853297664E+03  0.34613996967E+03  0.00000000000E+00 0.  1.
          3    1    6    6  503    0  0.25383975949E+03 -0.22613014459E+02 -0.21101509945E+03  0.33086756281E+03  0.00000000000E+00 0. -1.
         -3    1    6    6    0  503  0.64307030715E+01 -0.18573760240E+02 -0.81898989292E+01  0.21293495625E+02  0.00000000000E+00 0.  1.
<mgrwt>
<rscale>  0 0.15065754E+04</rscale>
<asrwt>0</asrwt>
<pdfrwt beam="1">  1        1 0.52636508E+00 0.15065754E+04</pdfrwt>
<pdfrwt beam="2">  1       -2 0.25515727E-01 0.15065754E+04</pdfrwt>
<totfact> 0.34158328E+00</totfact>
</mgrwt>
</event>
<event>
12    5  0.5297412E-008  0.1348702E+04  0.7818608E-02  0.8991811E-01
          1   -1    0    0  501    0  0.00000000000E+00  0.00000000000E+00  0.58750777265E+03  0.58750777265E+03  0.00000000000E+00 0. -1.
         -2   -1    0    0    0  501 -0.00000000000E+00 -0.00000000000E+00 -0.77403158825E+03  0.77403158825E+03  0.00000000000E+00 0.  1.
        -24    2    1    2    0    0 -0.18726647639E+03  0.20189885822E+03  0.20147238228E+03  0.35021315216E+03  0.78906583978E+02 0.  0.
        254    2    1    2    0    0  0.18726647639E+03 -0.20189885822E+03 -0.38799619788E+03  0.10113262087E+04  0.89241681336E+03 0.  0.
         23    2    4    4    0    0  0.44158328820E+03 -0.19303054013E+03  0.54076164802E+02  0.49328812897E+03  0.90290402223E+02 0.  0.
         23    2    4    4    0    0 -0.25431681181E+03 -0.88683180835E+01 -0.44207236269E+03  0.51803807977E+03  0.90442193714E+02 0.  0.
          1    1    3    3  502    0 -0.11082814986E+03  0.16294873442E+03  0.16488150973E+03  0.25694567734E+03  0.00000000000E+00 0. -1.
         -2    1    3    3    0  502 -0.76438326526E+02  0.38950123801E+02  0.36590872549E+02  0.93267474824E+02  0.00000000000E+00 0.  1.
         13    1    5    5    0    0  0.32461063018E+03 -0.96502583416E+02  0.38415895756E+02  0.34082340131E+03  0.00000000000E+00 0.  1.
        -13    1    5    5    0    0  0.11697265802E+03 -0.96527956718E+02  0.15660269046E+02  0.15246472766E+03  0.00000000000E+00 0. -1.
          4    1    6    6  503    0 -0.19435855040E+03 -0.40301762345E+01 -0.24952606502E+03  0.31631431450E+03  0.00000000000E+00 0.  1.
         -4    1    6    6    0  503 -0.59958261409E+02 -0.48381418490E+01 -0.19254629767E+03  0.20172376527E+03  0.00000000000E+00 0. -1.
<mgrwt>
<rscale>  0 0.13487024E+04</rscale>
<asrwt>0</asrwt>
<pdfrwt beam="1">  1        1 0.90385811E-01 0.13487024E+04</pdfrwt>
<pdfrwt beam="2">  1       -2 0.11908178E+00 0.13487024E+04</pdfrwt>
<totfact> 0.16363815E+01</totfact>
</mgrwt>
</event>
<event>
12    5  0.5297412E-008  0.1475940E+04  0.7818608E-02  0.8900612E-01
          1   -1    0    0  501    0  0.00000000000E+00  0.00000000000E+00  0.25505723853E+04  0.25505723853E+04  0.00000000000E+00 0. -1.
         -4   -1    0    0    0  501 -0.00000000000E+00 -0.00000000000E+00 -0.21352071043E+03  0.21352071043E+03  0.00000000000E+00 0.  1.
        -24    2    1    2    0    0 -0.93214049665E+02 -0.43729290072E+03  0.81721474015E+03  0.93498374922E+03  0.80254219255E+02 0.  0.
        254    2    1    2    0    0  0.93214049665E+02  0.43729290072E+03  0.15198369347E+04  0.18291093465E+04  0.91423342383E+03 0.  0.
         23    2    4    4    0    0  0.35770754749E+03  0.53438299540E+02  0.11970529552E+04  0.12542517651E+04  0.96960669187E+02 0.  0.
         23    2    4    4    0    0 -0.26449349782E+03  0.38385460118E+03  0.32278397952E+03  0.57485758139E+03  0.94713125821E+02 0.  0.
          1    1    3    3  502    0 -0.77514850454E+02 -0.27734922061E+03  0.59175645650E+03  0.65810853666E+03  0.00000000000E+00 0. -1.
         -2    1    3    3    0  502 -0.15699199212E+02 -0.15994368011E+03  0.22545828365E+03  0.27687521256E+03  0.00000000000E+00 0.  1.
         13    1    5    5    0    0  0.29101606544E+03  0.44798879803E+02  0.10783142247E+04  0.11177919561E+04  0.00000000000E+00 0. -1.
        -13    1    5    5    0    0  0.66691482048E+02  0.86394197375E+01  0.11873873047E+03  0.13645980897E+03  0.00000000000E+00 0.  1.
          3    1    6    6  503    0 -0.42959360914E+02  0.10855965545E+03  0.12009135695E+03  0.16748922203E+03  0.00000000000E+00 0.  1.
         -3    1    6    6    0  503 -0.22153413691E+03  0.27529494573E+03  0.20269262257E+03  0.40736835936E+03  0.00000000000E+00 0. -1.
<mgrwt>
<rscale>  0 0.14759404E+04</rscale>
<asrwt>0</asrwt>
<pdfrwt beam="1">  1        1 0.39239573E+00 0.14759404E+04</pdfrwt>
<pdfrwt beam="2">  1       -4 0.32849342E-01 0.14759404E+04</pdfrwt>
<totfact> 0.54560184E+00</totfact>
</mgrwt>
</event>
<event>
12    5  0.5297412E-008  0.1803537E+04  0.7818608E-02  0.8704421E-01
          1   -1    0    0  501    0  0.00000000000E+00  0.00000000000E+00  0.19071882745E+04  0.19071882745E+04  0.00000000000E+00 0. -1.
         -2   -1    0    0    0  501 -0.00000000000E+00 -0.00000000000E+00 -0.42637994625E+03  0.42637994625E+03  0.00000000000E+00 0.  1.
        -24    2    1    2    0    0 -0.10338249122E+03 -0.64772693106E+03  0.40368349388E+03  0.77807636462E+03  0.11047329647E+03 0.  0.
        254    2    1    2    0    0  0.10338249122E+03  0.64772693106E+03  0.10771248344E+04  0.15554918562E+04  0.91055965702E+03 0.  0.
         23    2    4    4    0    0  0.35638596354E+03  0.42256975840E+03  0.10658755025E+04  0.12045430444E+04  0.96214361863E+02 0.  0.
         23    2    4    4    0    0 -0.25300347232E+03  0.22515717266E+03  0.11249331920E+02  0.35094881171E+03  0.91279853024E+02 0.  0.
          1    1    3    3  502    0 -0.11894785083E+03 -0.47555758033E+03  0.32488026152E+03  0.58809079890E+03  0.00000000000E+00 0. -1.
         -2    1    3    3    0  502  0.15565359606E+02 -0.17216935073E+03  0.78803232361E+02  0.18998556571E+03  0.00000000000E+00 0.  1.
         13    1    5    5    0    0  0.16114614369E+03  0.20855989044E+03  0.40818878217E+03  0.48588413167E+03  0.00000000000E+00 0. -1.
        -13    1    5    5    0    0  0.19523981985E+03  0.21400986797E+03  0.65768672030E+03  0.71865891277E+03  0.00000000000E+00 0.  1.
          2    1    6    6  503    0 -0.21826660268E+03  0.14521449857E+03  0.22211409608E+02  0.26309866430E+03  0.00000000000E+00 0. -1.
         -2    1    6    6    0  503 -0.34736869642E+02  0.79942674093E+02 -0.10962077688E+02  0.87850147415E+02  0.00000000000E+00 0.  1.
<mgrwt>
<rscale>  0 0.18035375E+04</rscale>
<asrwt>0</asrwt>
<pdfrwt beam="1">  1        1 0.29341358E+00 0.18035375E+04</pdfrwt>
<pdfrwt beam="2">  1       -2 0.65596916E-01 0.18035375E+04</pdfrwt>
<totfact> 0.61082247E+00</totfact>
</mgrwt>
</event>
<event>
12    5  0.5297412E-008  0.2465028E+04  0.7818608E-02  0.8415551E-01
          1   -1    0    0  501    0  0.00000000000E+00  0.00000000000E+00  0.51651737272E+03  0.51651737272E+03  0.00000000000E+00 0. -1.
         -2   -1    0    0    0  501 -0.00000000000E+00 -0.00000000000E+00 -0.29410263152E+04  0.29410263152E+04  0.00000000000E+00 0.  1.
        -24    2    1    2    0    0 -0.64639765803E+03 -0.14796329556E+03 -0.22283738738E+04  0.23268443851E+04  0.93976601988E+02 0.  0.
        254    2    1    2    0    0  0.64639765803E+03  0.14796329556E+03 -0.19613506866E+03  0.11306993028E+04  0.89458866476E+03 0.  0.
         23    2    4    4    0    0  0.16606658285E+03  0.48407701858E+03 -0.10715999333E+03  0.53064003011E+03  0.90481531377E+02 0.  0.
         23    2    4    4    0    0  0.48033107519E+03 -0.33611372302E+03 -0.88975075324E+02  0.60005927273E+03  0.92001033501E+02 0.  0.
          1    1    3    3  502    0 -0.45749834010E+02 -0.11988876798E+02 -0.91542216316E+02  0.10303765257E+03  0.00000000000E+00 0. -1.
         -2    1    3    3    0  502 -0.60064782402E+03 -0.13597441876E+03 -0.21368316575E+04  0.22238067325E+04  0.00000000000E+00 0.  1.
         13    1    5    5    0    0  0.12592045421E+03  0.30497698495E+03 -0.10773970261E+03  0.34709475026E+03  0.00000000000E+00 0.  1.
        -13    1    5    5    0    0  0.40146128642E+02  0.17910003363E+03  0.57970927754E+00  0.18354527985E+03  0.00000000000E+00 0. -1.
          4    1    6    6  503    0  0.40647504445E+03 -0.31293987048E+03 -0.56392760470E+02  0.51607506016E+03  0.00000000000E+00 0. -1.
         -4    1    6    6    0  503  0.73856030740E+02 -0.23173852544E+02 -0.32582314854E+02  0.83984212562E+02  0.00000000000E+00 0.  1.
<mgrwt>
<rscale>  0 0.24650283E+04</rscale>
<asrwt>0</asrwt>
<pdfrwt beam="1">  1        1 0.79464211E-01 0.24650283E+04</pdfrwt>
<pdfrwt beam="2">  1       -2 0.45246559E+00 0.24650283E+04</pdfrwt>
<totfact> 0.11048344E-01</totfact>
</mgrwt>
</event>
<event>
12    5  0.5297412E-008  0.1575788E+04  0.7818608E-02  0.8835562E-01
          1   -1    0    0  501    0  0.00000000000E+00  0.00000000000E+00  0.55030700591E+03  0.55030700591E+03  0.00000000000E+00 0. -1.
         -2   -1    0    0    0  501 -0.00000000000E+00 -0.00000000000E+00 -0.11280557142E+04  0.11280557142E+04  0.00000000000E+00 0.  1.
        -24    2    1    2    0    0 -0.25730801812E+03 -0.34808941009E+03  0.12509357442E+03  0.45754882798E+03  0.79554220648E+02 0.  0.
        254    2    1    2    0    0  0.25730801812E+03  0.34808941009E+03 -0.70284228273E+03  0.12208138922E+04  0.89945852117E+03 0.  0.
         23    2    4    4    0    0  0.87610063456E+02  0.22885915265E+02  0.20239901606E+03  0.23980003744E+03  0.91320358722E+02 0.  0.
         23    2    4    4    0    0  0.16969795466E+03  0.32520349482E+03 -0.90524129879E+03  0.98101385473E+03  0.91496804715E+02 0.  0.
          1    1    3    3  502    0 -0.17326923485E+03 -0.19174255318E+03  0.10486565036E+03  0.27889825936E+03  0.00000000000E+00 0. -1.
         -2    1    3    3    0  502 -0.84038783261E+02 -0.15634685691E+03  0.20227924052E+02  0.17865056862E+03  0.00000000000E+00 0.  1.
         13    1    5    5    0    0  0.83109485391E+02 -0.54609843414E+01  0.19197469656E+03  0.20926369258E+03  0.00000000000E+00 0. -1.
        -13    1    5    5    0    0  0.45005780652E+01  0.28346899607E+02  0.10424319495E+02  0.30536344856E+02  0.00000000000E+00 0.  1.
          3    1    6    6  503    0  0.47370657166E+02  0.12956113832E+03 -0.23908222873E+03  0.27602604916E+03  0.00000000000E+00 0. -1.
         -3    1    6    6    0  503  0.12232729749E+03  0.19564235651E+03 -0.66615907006E+03  0.70498780557E+03  0.00000000000E+00 0.  1.
<mgrwt>
<rscale>  0 0.15757880E+04</rscale>
<asrwt>0</asrwt>
<pdfrwt beam="1">  1        1 0.84662617E-01 0.15757880E+04</pdfrwt>
<pdfrwt beam="2">  1       -2 0.17354703E+00 0.15757880E+04</pdfrwt>
<totfact> 0.65527893E+00</totfact>
</mgrwt>
</event>
<event>
12    5  0.5297412E-008  0.1455790E+04  0.7818608E-02  0.8914396E-01
         -2   -1    0    0    0  501 -0.00000000000E+00  0.00000000000E+00  0.31304737980E+03  0.31304737980E+03  0.00000000000E+00 0.  1.
          1   -1    0    0  501    0  0.00000000000E+00 -0.00000000000E+00 -0.16924947836E+04  0.16924947836E+04  0.00000000000E+00 0. -1.
        -24    2    1    2    0    0  0.28575589430E+03  0.11803839088E+03  0.12658249796E+02  0.31918822983E+03  0.78303268937E+02 0.  0.
        254    2    1    2    0    0 -0.28575589430E+03 -0.11803839088E+03 -0.13921056536E+04  0.16863539336E+04  0.90013440420E+03 0.  0.
         23    2    4    4    0    0  0.88146943501E+02  0.25442370079E+03 -0.94983563142E+03  0.99131581618E+03  0.89543383461E+02 0.  0.
         23    2    4    4    0    0 -0.37390283780E+03 -0.37246209167E+03 -0.44227002221E+03  0.69503811742E+03  0.94572037443E+02 0.  0.
          1    1    3    3  502    0  0.25574683090E+03  0.10756095101E+03 -0.13863210520E+02  0.27779126750E+03  0.00000000000E+00 0. -1.
         -2    1    3    3    0  502  0.30009063404E+02  0.10477439872E+02  0.26521460317E+02  0.41396962328E+02  0.00000000000E+00 0.  1.
         13    1    5    5    0    0  0.63546254881E+02  0.20650180150E+03 -0.85857681459E+03  0.88534471653E+03  0.00000000000E+00 0.  1.
        -13    1    5    5    0    0  0.24600688620E+02  0.47921899293E+02 -0.91258816827E+02  0.10597109965E+03  0.00000000000E+00 0. -1.
          4    1    6    6  503    0 -0.63338954398E+01  0.37446694317E+01  0.69734258157E+00  0.73910126012E+01  0.00000000000E+00 0.  1.
         -4    1    6    6    0  503 -0.36756894236E+03 -0.37620676110E+03 -0.44296736479E+03  0.68764710481E+03  0.00000000000E+00 0. -1.
<mgrwt>
<rscale>  0 0.14557899E+04</rscale>
<asrwt>0</asrwt>
<pdfrwt beam="1">  1        1 0.26038381E+00 0.14557899E+04</pdfrwt>
<pdfrwt beam="2">  1       -2 0.48161137E-01 0.14557899E+04</pdfrwt>
<totfact> 0.16783814E+01</totfact>
</mgrwt>
</event>
<event>
12    5  0.5297412E-008  0.1480972E+04  0.7818608E-02  0.8897206E-01
         -2   -1    0    0    0  501 -0.00000000000E+00  0.00000000000E+00  0.56999622795E+03  0.56999622795E+03  0.00000000000E+00 0.  1.
          1   -1    0    0  501    0  0.00000000000E+00 -0.00000000000E+00 -0.96197018363E+03  0.96197018363E+03  0.00000000000E+00 0. -1.
        -24    2    1    2    0    0 -0.40973177553E+03  0.16234102480E+03 -0.27180607488E+03  0.52399609724E+03  0.80365610622E+02 0.  0.
        254    2    1    2    0    0  0.40973177553E+03 -0.16234102480E+03 -0.12016788080E+03  0.10079703143E+04  0.89851494078E+03 0.  0.
         23    2    4    4    0    0 -0.49161432967E+01 -0.43435960475E+03  0.10392601063E+03  0.45556033090E+03  0.89678117171E+02 0.  0.
         23    2    4    4    0    0  0.41464791883E+03  0.27201857995E+03 -0.22409389143E+03  0.55240998345E+03  0.94930043747E+02 0.  0.
          3    1    3    3  502    0 -0.29027720862E+03  0.83188492187E+02 -0.21073704276E+03  0.36822721826E+03  0.00000000000E+00 0. -1.
         -4    1    3    3    0  502 -0.11945456692E+03  0.79152532612E+02 -0.61069032112E+02  0.15576887898E+03  0.00000000000E+00 0.  1.
         13    1    5    5    0    0  0.17881987929E+02 -0.13880303548E+03 -0.42226786234E+01  0.14001385348E+03  0.00000000000E+00 0. -1.
        -13    1    5    5    0    0 -0.22798131226E+02 -0.29555656927E+03  0.10814868925E+03  0.31554647742E+03  0.00000000000E+00 0.  1.
          2    1    6    6  503    0  0.30383221115E+03  0.24286014986E+03 -0.15576313103E+03  0.41899548675E+03  0.00000000000E+00 0. -1.
         -2    1    6    6    0  503  0.11081570767E+03  0.29158430091E+02 -0.68330760396E+02  0.13341449670E+03  0.00000000000E+00 0.  1.
<mgrwt>
<rscale>  0 0.14809718E+04</rscale>
<asrwt>0</asrwt>
<pdfrwt beam="1">  1        1 0.14799541E+00 0.14809718E+04</pdfrwt>
<pdfrwt beam="2">  1       -2 0.87691728E-01 0.14809718E+04</pdfrwt>
<totfact> 0.15449910E+01</totfact>
</mgrwt>
</event>
<event>
12    5  0.5937409E-008  0.1828201E+04  0.7818608E-02  0.8691445E-01
          1   -1    0    0  501    0  0.00000000000E+00  0.00000000000E+00  0.16403982406E+04  0.16403982406E+04  0.00000000000E+00 0. -1.
         -2   -1    0    0    0  501 -0.00000000000E+00 -0.00000000000E+00 -0.50937587328E+03  0.50937587328E+03  0.00000000000E+00 0.  1.
        -24    2    1    2    0    0 -0.58436748443E+02  0.16328748975E+03  0.12189333070E+04  0.12338220275E+04  0.80254164499E+02 0.  0.
        254    2    1    2    0    0  0.58436748443E+02 -0.16328748975E+03 -0.87910939701E+02  0.91595208630E+03  0.89507666331E+03 0.  0.
         23    2    4    4    0    0 -0.37394779708E+03 -0.22720924875E+03  0.47759341698E+02  0.44944053604E+03  0.90856166861E+02 0.  0.
         23    2    4    4    0    0  0.43238454553E+03  0.63921759002E+02 -0.13567028140E+03  0.46651155025E+03  0.90466650110E+02 0.  0.
          1    1    3    3  502    0 -0.32235442746E+02  0.12846227341E+03  0.10831191916E+04  0.10911869055E+04  0.00000000000E+00 0. -1.
         -2    1    3    3    0  502 -0.26201305697E+02  0.34825216337E+02  0.13581411536E+03  0.14263512206E+03  0.00000000000E+00 0.  1.
         13    1    5    5    0    0 -0.31910319986E+03 -0.16039960289E+03  0.59958767583E+02  0.36214629445E+03  0.00000000000E+00 0. -1.
        -13    1    5    5    0    0 -0.54844597222E+02 -0.66809645857E+02 -0.12199425885E+02  0.87294241597E+02  0.00000000000E+00 0.  1.
          1    1    6    6  503    0  0.34253394563E+03  0.54013732602E+02 -0.14453535141E+03  0.37568265202E+03  0.00000000000E+00 0. -1.
         -1    1    6    6    0  503  0.89850599893E+02  0.99080264002E+01  0.88650700125E+01  0.90828898235E+02  0.00000000000E+00 0.  1.
<mgrwt>
<rscale>  0 0.18282005E+04</rscale>
<asrwt>0</asrwt>
<pdfrwt beam="1">  1        1 0.25236896E+00 0.18282005E+04</pdfrwt>
<pdfrwt beam="2">  1       -2 0.78365520E-01 0.18282005E+04</pdfrwt>
<totfact> 0.62627865E+00</totfact>
</mgrwt>
</event>
<event>
12    5  0.5297412E-008  0.2138852E+04  0.7818608E-02  0.8544319E-01
          1   -1    0    0  501    0  0.00000000000E+00  0.00000000000E+00  0.40657182234E+03  0.40657182234E+03  0.00000000000E+00 0. -1.
         -2   -1    0    0    0  501 -0.00000000000E+00 -0.00000000000E+00 -0.28129630197E+04  0.28129630197E+04  0.00000000000E+00 0.  1.
        -24    2    1    2    0    0  0.24126072010E+03 -0.69401644751E+03 -0.17193015318E+04  0.18717626826E+04  0.87362566665E+02 0.  0.
        254    2    1    2    0    0 -0.24126072010E+03  0.69401644751E+03 -0.68708966551E+03  0.13477721594E+04  0.89695708975E+03 0.  0.
         23    2    4    4    0    0  0.15933532400E+03  0.34143583064E+03 -0.70678515817E+03  0.80630292335E+03  0.92806101453E+02 0.  0.
         23    2    4    4    0    0 -0.40059604410E+03  0.35258061686E+03  0.19695492661E+02  0.54146923610E+03  0.89502733354E+02 0.  0.
          3    1    3    3  502    0  0.68371623180E+01 -0.15502529418E+02 -0.15740812683E+02  0.23126789462E+02  0.00000000000E+00 0. -1.
         -4    1    3    3    0  502  0.23442355778E+03 -0.67851391809E+03 -0.17035607192E+04  0.18486358931E+04  0.00000000000E+00 0.  1.
         13    1    5    5    0    0 -0.10013297933E+02  0.45204036927E+02 -0.71560810893E+02  0.85232744563E+02  0.00000000000E+00 0.  1.
        -13    1    5    5    0    0  0.16934862193E+03  0.29623179372E+03 -0.63522434728E+03  0.72107017879E+03  0.00000000000E+00 0. -1.
          3    1    6    6  503    0 -0.36942074194E+03  0.28796275359E+03  0.60298369315E+01  0.46843419064E+03  0.00000000000E+00 0. -1.
         -3    1    6    6    0  503 -0.31175302160E+02  0.64617863270E+02  0.13665655730E+02  0.73035045457E+02  0.00000000000E+00 0.  1.
<mgrwt>
<rscale>  0 0.21388516E+04</rscale>
<asrwt>0</asrwt>
<pdfrwt beam="1">  1        1 0.62549511E-01 0.21388516E+04</pdfrwt>
<pdfrwt beam="2">  1       -2 0.43276354E+00 0.21388516E+04</pdfrwt>
<totfact> 0.21288067E-01</totfact>
</mgrwt>
</event>
<event>
12    5  0.5297412E-008  0.2083766E+04  0.7818608E-02  0.8568429E-01
         -2   -1    0    0    0  501 -0.00000000000E+00  0.00000000000E+00  0.32815478223E+03  0.32815478223E+03  0.00000000000E+00 0.  1.
          1   -1    0    0  501    0  0.00000000000E+00 -0.00000000000E+00 -0.33079503185E+04  0.33079503185E+04  0.00000000000E+00 0. -1.
        -24    2    1    2    0    0 -0.33899093457E+03  0.67426622781E+03 -0.55209699456E+03  0.93848310093E+03  0.79935221491E+02 0.  0.
        254    2    1    2    0    0  0.33899093457E+03 -0.67426622781E+03 -0.24276985417E+04  0.26976219998E+04  0.90216098605E+03 0.  0.
         23    2    4    4    0    0  0.18458938914E+03  0.44981727522E+02 -0.14757765011E+04  0.14907989224E+04  0.92024711371E+02 0.  0.
         23    2    4    4    0    0  0.15440154543E+03 -0.71924795533E+03 -0.95192204058E+03  0.12068230774E+04  0.95440610967E+02 0.  0.
          1    1    3    3  502    0 -0.88819506949E+02  0.26220557529E+03 -0.20353144506E+03  0.34360692318E+03  0.00000000000E+00 0. -1.
         -2    1    3    3    0  502 -0.25017142762E+03  0.41206065252E+03 -0.34856554950E+03  0.59487617774E+03  0.00000000000E+00 0.  1.
         13    1    5    5    0    0  0.20461729944E+02 -0.20889357525E+02 -0.11876603851E+03  0.12231279390E+03  0.00000000000E+00 0.  1.
        -13    1    5    5    0    0  0.16412765919E+03  0.65871085047E+02 -0.13570104626E+04  0.13684861285E+04  0.00000000000E+00 0. -1.
          1    1    6    6  503    0  0.16524853069E+03 -0.61563194116E+03 -0.82758122422E+03  0.10446054023E+04  0.00000000000E+00 0. -1.
         -1    1    6    6    0  503 -0.10846985261E+02 -0.10361601417E+03 -0.12434081636E+03  0.16221767503E+03  0.00000000000E+00 0.  1.
<mgrwt>
<rscale>  0 0.20837655E+04</rscale>
<asrwt>0</asrwt>
<pdfrwt beam="1">  1        1 0.50891545E+00 0.20837655E+04</pdfrwt>
<pdfrwt beam="2">  1       -2 0.50485350E-01 0.20837655E+04</pdfrwt>
<totfact> 0.10602477E+00</totfact>
</mgrwt>
</event>
<event>
12    5  0.5297412E-008  0.2497707E+04  0.7818608E-02  0.8403803E-01
         -2   -1    0    0    0  501 -0.00000000000E+00  0.00000000000E+00  0.10233559453E+04  0.10233559453E+04  0.00000000000E+00 0.  1.
          1   -1    0    0  501    0  0.00000000000E+00 -0.00000000000E+00 -0.15240391533E+04  0.15240391533E+04  0.00000000000E+00 0. -1.
        -24    2    1    2    0    0 -0.30919750788E+03  0.10101982321E+04 -0.45534547504E+03  0.11532130137E+04  0.80356618679E+02 0.  0.
        254    2    1    2    0    0  0.30919750788E+03 -0.10101982321E+04 -0.45337732893E+02  0.13941820849E+04  0.90861686580E+03 0.  0.
         23    2    4    4    0    0 -0.15173226629E+03 -0.97294716176E+02  0.25394533633E+03  0.32470071371E+03  0.91942249316E+02 0.  0.
         23    2    4    4    0    0  0.46092977417E+03 -0.91290351595E+03 -0.29928306922E+03  0.10694813712E+04  0.91492959765E+02 0.  0.
          3    1    3    3  502    0 -0.27785034285E+03  0.93011377772E+03 -0.39431776576E+03  0.10477590147E+04  0.00000000000E+00 0. -1.
         -4    1    3    3    0  502 -0.31347165032E+02  0.80084454399E+02 -0.61027709281E+02  0.10545399894E+03  0.00000000000E+00 0.  1.
         13    1    5    5    0    0 -0.53447275755E+02 -0.83259296750E+02  0.94158171887E+02  0.13658141570E+03  0.00000000000E+00 0. -1.
        -13    1    5    5    0    0 -0.98284990534E+02 -0.14035419426E+02  0.15978716444E+03  0.18811929801E+03  0.00000000000E+00 0.  1.
          4    1    6    6  503    0  0.16777229210E+03 -0.39667840006E+03 -0.16199203003E+03  0.46015509653E+03  0.00000000000E+00 0. -1.
         -4    1    6    6    0  503  0.29315748207E+03 -0.51622511589E+03 -0.13729103920E+03  0.60932627468E+03  0.00000000000E+00 0.  1.
<mgrwt>
<rscale>  0 0.24977066E+04</rscale>
<asrwt>0</asrwt>
<pdfrwt beam="1">  1        1 0.23446756E+00 0.24977066E+04</pdfrwt>
<pdfrwt beam="2">  1       -2 0.15743938E+00 0.24977066E+04</pdfrwt>
<totfact> 0.12928673E+00</totfact>
</mgrwt>
</event>
<event>
12    5  0.5297412E-008  0.2059644E+04  0.7818608E-02  0.8579232E-01
          1   -1    0    0  501    0  0.00000000000E+00  0.00000000000E+00  0.25621525320E+04  0.25621525320E+04  0.00000000000E+00 0. -1.
         -2   -1    0    0    0  501 -0.00000000000E+00 -0.00000000000E+00 -0.41392269323E+03  0.41392269323E+03  0.00000000000E+00 0.  1.
        -24    2    1    2    0    0  0.49172570879E+02 -0.42898532524E+03  0.18929724894E+04  0.19432299405E+04  0.79695702927E+02 0.  0.
        254    2    1    2    0    0 -0.49172570879E+02  0.42898532524E+03  0.25525734936E+03  0.10328452847E+04  0.90286583540E+03 0.  0.
         23    2    4    4    0    0 -0.45594244879E+03  0.33294855576E+03  0.11180222382E+03  0.58246634719E+03  0.89604971790E+02 0.  0.
         23    2    4    4    0    0  0.40676987791E+03  0.96036769488E+02  0.14345512554E+03  0.45037893751E+03  0.87046077686E+02 0.  0.
          1    1    3    3  502    0  0.46036050060E+02 -0.38141535563E+03  0.15471122576E+04  0.15940995355E+04  0.00000000000E+00 0. -1.
         -2    1    3    3    0  502  0.31365208185E+01 -0.47569969612E+02  0.34586023181E+03  0.34913040503E+03  0.00000000000E+00 0.  1.
         13    1    5    5    0    0 -0.41617044517E+03  0.32819425898E+03  0.92565240684E+02  0.53803125824E+03  0.00000000000E+00 0. -1.
        -13    1    5    5    0    0 -0.39772003619E+02  0.47542967734E+01  0.19236983134E+02  0.44435088948E+02  0.00000000000E+00 0.  1.
          1    1    6    6  503    0  0.26514210305E+03  0.42901352658E+02  0.51889777934E+02  0.27355695919E+03  0.00000000000E+00 0. -1.
         -1    1    6    6    0  503  0.14162777486E+03  0.53135416830E+02  0.91565347604E+02  0.17682197832E+03  0.00000000000E+00 0.  1.
<mgrwt>
<rscale>  0 0.20596437E+04</rscale>
<asrwt>0</asrwt>
<pdfrwt beam="1">  1        1 0.39417730E+00 0.20596437E+04</pdfrwt>
<pdfrwt beam="2">  1       -2 0.63680416E-01 0.20596437E+04</pdfrwt>
<totfact> 0.22695260E+00</totfact>
</mgrwt>
</event>
<event>
12    5  0.5297412E-008  0.1286839E+04  0.7818608E-02  0.9040068E-01
          1   -1    0    0  501    0  0.00000000000E+00  0.00000000000E+00  0.65389040186E+03  0.65389040186E+03  0.00000000000E+00 0. -1.
         -2   -1    0    0    0  501 -0.00000000000E+00 -0.00000000000E+00 -0.63311591503E+03  0.63311591503E+03  0.00000000000E+00 0.  1.
        -24    2    1    2    0    0 -0.15642004273E+03  0.33103118938E+02 -0.26606652792E+03  0.31979680043E+03  0.76912612963E+02 0.  0.
        254    2    1    2    0    0  0.15642004273E+03 -0.33103118938E+02  0.28684101475E+03  0.96720951646E+03  0.90975460138E+03 0.  0.
         23    2    4    4    0    0 -0.43371243870E+02  0.12572289900E+03 -0.28860486020E+03  0.33081661219E+03  0.91975830723E+02 0.  0.
         23    2    4    4    0    0  0.19979128660E+03 -0.15882601794E+03  0.57544587495E+03  0.63639290427E+03  0.93357974683E+02 0.  0.
          3    1    3    3  502    0 -0.35122866527E+02  0.44494572913E+01 -0.13020879757E+02  0.37722098734E+02  0.00000000000E+00 0. -1.
         -4    1    3    3    0  502 -0.12129717620E+03  0.28653661647E+02 -0.25304564816E+03  0.28207470169E+03  0.00000000000E+00 0.  1.
         13    1    5    5    0    0 -0.39828459606E+02  0.41316112847E+02 -0.44842150816E+02  0.72829567246E+02  0.00000000000E+00 0. -1.
        -13    1    5    5    0    0 -0.35427842644E+01  0.84406786151E+02 -0.24376270939E+03  0.25798704494E+03  0.00000000000E+00 0.  1.
          4    1    6    6  503    0  0.11379570115E+03 -0.52202766539E+02  0.19198828557E+03  0.22920316802E+03  0.00000000000E+00 0. -1.
         -4    1    6    6    0  503  0.85995585447E+02 -0.10662325140E+03  0.38345758938E+03  0.40718973625E+03  0.00000000000E+00 0.  1.
<mgrwt>
<rscale>  0 0.12868386E+04</rscale>
<asrwt>0</asrwt>
<pdfrwt beam="1">  1        1 0.10059852E+00 0.12868386E+04</pdfrwt>
<pdfrwt beam="2">  1       -2 0.97402448E-01 0.12868386E+04</pdfrwt>
<totfact> 0.22847771E+01</totfact>
</mgrwt>
</event>
<event>
12    5  0.5297412E-008  0.1357225E+04  0.7818608E-02  0.8985377E-01
         -2   -1    0    0    0  501 -0.00000000000E+00  0.00000000000E+00  0.52516331544E+03  0.52516331544E+03  0.00000000000E+00 0.  1.
          1   -1    0    0  501    0  0.00000000000E+00 -0.00000000000E+00 -0.87689818657E+03  0.87689818657E+03  0.00000000000E+00 0. -1.
        -24    2    1    2    0    0  0.19636915178E+03 -0.11975276252E+03 -0.36182376564E+03  0.43590156031E+03  0.78690310675E+02 0.  0.
        254    2    1    2    0    0 -0.19636915178E+03  0.11975276252E+03  0.10088894510E+02  0.96615994171E+03  0.93832919557E+03 0.  0.
         23    2    4    4    0    0  0.28872035355E+03  0.29643697896E+03 -0.87334765054E+02  0.43247038193E+03  0.90382216255E+02 0.  0.
         23    2    4    4    0    0 -0.48508950533E+03 -0.17668421644E+03  0.97423659564E+02  0.53368955977E+03  0.93829826041E+02 0.  0.
          3    1    3    3  502    0  0.11696024571E+03 -0.10458788589E+03 -0.19309666710E+03  0.24880644645E+03  0.00000000000E+00 0. -1.
         -4    1    3    3    0  502  0.79408906066E+02 -0.15164876633E+02 -0.16872709854E+03  0.18709511385E+03  0.00000000000E+00 0.  1.
         13    1    5    5    0    0  0.21975804263E+03  0.26619594590E+03 -0.51254364980E+02  0.34897118627E+03  0.00000000000E+00 0. -1.
        -13    1    5    5    0    0  0.68962310914E+02  0.30241033057E+02 -0.36080400073E+02  0.83499195663E+02  0.00000000000E+00 0.  1.
          1    1    6    6  503    0 -0.21715631110E+03 -0.12134220416E+03  0.71746094357E+02  0.25889823486E+03  0.00000000000E+00 0. -1.
         -1    1    6    6    0  503 -0.26793319423E+03 -0.55342012280E+02  0.25677565207E+02  0.27479132491E+03  0.00000000000E+00 0.  1.
<mgrwt>
<rscale>  0 0.13572248E+04</rscale>
<asrwt>0</asrwt>
<pdfrwt beam="1">  1        1 0.13490741E+00 0.13572248E+04</pdfrwt>
<pdfrwt beam="2">  1       -2 0.80794356E-01 0.13572248E+04</pdfrwt>
<totfact> 0.22039743E+01</totfact>
</mgrwt>
</event>
<event>
12    5  0.5297412E-008  0.1978134E+04  0.7818608E-02  0.8616912E-01
          1   -1    0    0  501    0  0.00000000000E+00  0.00000000000E+00  0.13758055372E+04  0.13758055372E+04  0.00000000000E+00 0. -1.
         -2   -1    0    0    0  501 -0.00000000000E+00 -0.00000000000E+00 -0.71104074585E+03  0.71104074585E+03  0.00000000000E+00 0.  1.
        -24    2    1    2    0    0 -0.69223524143E+03  0.18310871312E+03 -0.58634253096E+02  0.72284177318E+03  0.79648120646E+02 0.  0.
        254    2    1    2    0    0  0.69223524143E+03 -0.18310871312E+03  0.72339904445E+03  0.13640045099E+04  0.90801084527E+03 0.  0.
         23    2    4    4    0    0  0.31411388710E+03 -0.64699663842E+02 -0.17564995605E+03  0.37724511208E+03  0.92776004201E+02 0.  0.
         23    2    4    4    0    0  0.37812135433E+03 -0.11840904928E+03  0.89904900050E+03  0.98675939779E+03  0.91698103939E+02 0.  0.
          1    1    3    3  502    0  0.11537366947E+01  0.33251428109E+01 -0.25224107688E+01  0.43301546347E+01  0.00000000000E+00 0. -1.
         -2    1    3    3    0  502 -0.69338897812E+03  0.17978357031E+03 -0.56111842327E+02  0.71851161855E+03  0.00000000000E+00 0.  1.
         13    1    5    5    0    0  0.28604332875E+03 -0.32933983223E+02 -0.13318902282E+03  0.31724556573E+03  0.00000000000E+00 0.  1.
        -13    1    5    5    0    0  0.28070558348E+02 -0.31765680618E+02 -0.42460933237E+02  0.59999546352E+02  0.00000000000E+00 0. -1.
          4    1    6    6  503    0 -0.52230050336E+01  0.24449799727E+00  0.15332799439E+02  0.16199824058E+02  0.00000000000E+00 0. -1.
         -4    1    6    6    0  503  0.38334435936E+03 -0.11865354728E+03  0.88371620106E+03  0.97055957373E+03  0.00000000000E+00 0.  1.
<mgrwt>
<rscale>  0 0.19781343E+04</rscale>
<asrwt>0</asrwt>
<pdfrwt beam="1">  1        1 0.21166239E+00 0.19781343E+04</pdfrwt>
<pdfrwt beam="2">  1       -2 0.10939088E+00 0.19781343E+04</pdfrwt>
<totfact> 0.43396893E+00</totfact>
</mgrwt>
</event>
<event>
12    5  0.5297412E-008  0.1732636E+04  0.7818608E-02  0.8742967E-01
          1   -1    0    0  501    0  0.00000000000E+00  0.00000000000E+00  0.21035605507E+04  0.21035605507E+04  0.00000000000E+00 0. -1.
         -2   -1    0    0    0  501 -0.00000000000E+00 -0.00000000000E+00 -0.35677937950E+03  0.35677937950E+03  0.00000000000E+00 0.  1.
        -24    2    1    2    0    0  0.13130612070E+03 -0.38848751167E+03  0.13054249615E+04  0.13708508400E+04  0.83269749271E+02 0.  0.
        254    2    1    2    0    0 -0.13130612070E+03  0.38848751167E+03  0.44135620966E+03  0.10894890902E+04  0.90775951104E+03 0.  0.
         23    2    4    4    0    0 -0.78214989829E+02  0.26917803360E+03  0.71492470199E+03  0.77317648994E+03  0.90056408326E+02 0.  0.
         23    2    4    4    0    0 -0.53091130876E+02  0.11930947807E+03 -0.27356849233E+03  0.31631260029E+03  0.90335604125E+02 0.  0.
          1    1    3    3  502    0  0.78468693162E+02 -0.17865016860E+03  0.74421176973E+03  0.76936621758E+03  0.00000000000E+00 0. -1.
         -2    1    3    3    0  502  0.52837427543E+02 -0.20983734307E+03  0.56121319181E+03  0.60148462238E+03  0.00000000000E+00 0.  1.
         13    1    5    5    0    0 -0.54231193690E+02  0.25475111142E+03  0.58643397968E+03  0.64167278551E+03  0.00000000000E+00 0. -1.
        -13    1    5    5    0    0 -0.23983796139E+02  0.14426922182E+02  0.12849072231E+03  0.13150370443E+03  0.00000000000E+00 0.  1.
          2    1    6    6  503    0 -0.26160421714E+02 -0.85327921256E+01 -0.58945783161E+02  0.65052144916E+02  0.00000000000E+00 0. -1.
         -2    1    6    6    0  503 -0.26930709162E+02  0.12784227019E+03 -0.21462270917E+03  0.25126045538E+03  0.00000000000E+00 0.  1.
<mgrwt>
<rscale>  0 0.17326362E+04</rscale>
<asrwt>0</asrwt>
<pdfrwt beam="1">  1        1 0.32362469E+00 0.17326362E+04</pdfrwt>
<pdfrwt beam="2">  1       -2 0.54889137E-01 0.17326362E+04</pdfrwt>
<totfact> 0.65956859E+00</totfact>
</mgrwt>
</event>
<event>
12    5  0.5297412E-008  0.1124681E+04  0.7818608E-02  0.9181464E-01
         -4   -1    0    0    0  501 -0.00000000000E+00  0.00000000000E+00  0.10633092756E+03  0.10633092756E+03  0.00000000000E+00 0.  1.
          3   -1    0    0  501    0  0.00000000000E+00 -0.00000000000E+00 -0.29739887281E+04  0.29739887281E+04  0.00000000000E+00 0. -1.
        -24    2    1    2    0    0 -0.92046812855E+02 -0.93455330432E+02 -0.90521010680E+03  0.91816173490E+03  0.80056976260E+02 0.  0.
        254    2    1    2    0    0  0.92046812855E+02  0.93455330432E+02 -0.19624476938E+04  0.21621579208E+04  0.89806425665E+03 0.  0.
         23    2    4    4    0    0  0.27482577791E+03  0.41098105688E+03 -0.86006528241E+03  0.99645160176E+03  0.93642230477E+02 0.  0.
         23    2    4    4    0    0 -0.18277896506E+03 -0.31752572644E+03 -0.11023824113E+04  0.11657063190E+04  0.96920092378E+02 0.  0.
          3    1    3    3  502    0 -0.75798622154E+02 -0.10411915769E+03 -0.84839624781E+03  0.85811562357E+03  0.00000000000E+00 0. -1.
         -4    1    3    3    0  502 -0.16248190702E+02  0.10663827262E+02 -0.56813858993E+02  0.60046111337E+02  0.00000000000E+00 0.  1.
         13    1    5    5    0    0  0.17672291998E+03  0.21513876778E+03 -0.40570062250E+03  0.49204539927E+03  0.00000000000E+00 0.  1.
        -13    1    5    5    0    0  0.98102857928E+02  0.19584228910E+03 -0.45436465991E+03  0.50440620249E+03  0.00000000000E+00 0. -1.
          2    1    6    6  503    0 -0.11651005765E+03 -0.20736865959E+03 -0.56237301296E+03  0.61060605977E+03  0.00000000000E+00 0. -1.
         -2    1    6    6    0  503 -0.66268907403E+02 -0.11015706685E+03 -0.54000939838E+03  0.55510025923E+03  0.00000000000E+00 0.  1.
<mgrwt>
<rscale>  0 0.11246813E+04</rscale>
<asrwt>0</asrwt>
<pdfrwt beam="1">  1        3 0.45753668E+00 0.11246813E+04</pdfrwt>
<pdfrwt beam="2">  1       -4 0.16358606E-01 0.11246813E+04</pdfrwt>
<totfact> 0.43398187E-01</totfact>
</mgrwt>
</event>
<event>
12    5  0.5297412E-008  0.2246369E+04  0.7818608E-02  0.8499372E-01
          1   -1    0    0  501    0  0.00000000000E+00  0.00000000000E+00  0.16938190536E+04  0.16938190536E+04  0.00000000000E+00 0. -1.
         -2   -1    0    0    0  501 -0.00000000000E+00 -0.00000000000E+00 -0.74479243781E+03  0.74479243781E+03  0.00000000000E+00 0.  1.
        -24    2    1    2    0    0  0.25602986870E+03  0.22779957894E+03 -0.55144650107E+03  0.65318443735E+03  0.71503313377E+02 0.  0.
        254    2    1    2    0    0 -0.25602986870E+03 -0.22779957894E+03  0.15004731169E+04  0.17854270541E+04  0.90492333882E+03 0.  0.
         23    2    4    4    0    0 -0.17922091015E+03 -0.47290800460E+03  0.14055399887E+04  0.14967847864E+04  0.95183620225E+02 0.  0.
         23    2    4    4    0    0 -0.76808958550E+02  0.24510842565E+03  0.94933128153E+02  0.28864226764E+03  0.91237620583E+02 0.  0.
          1    1    3    3  502    0  0.18416200890E+01  0.23686594900E+02 -0.45016166196E+02  0.50900899417E+02  0.00000000000E+00 0. -1.
         -2    1    3    3    0  502  0.25418824861E+03  0.20411298404E+03 -0.50643033488E+03  0.60228353794E+03  0.00000000000E+00 0.  1.
         13    1    5    5    0    0 -0.82997066849E+02 -0.24356577143E+03  0.85039976425E+03  0.88847766272E+03  0.00000000000E+00 0. -1.
        -13    1    5    5    0    0 -0.96223843301E+02 -0.22934223317E+03  0.55514022448E+03  0.60830712372E+03  0.00000000000E+00 0.  1.
          2    1    6    6  503    0 -0.31737924820E+02  0.32368294581E+02  0.48290646526E+02  0.66234348399E+02  0.00000000000E+00 0. -1.
         -2    1    6    6    0  503 -0.45071033730E+02  0.21274013107E+03  0.46642481627E+02  0.22240791925E+03  0.00000000000E+00 0.  1.
<mgrwt>
<rscale>  0 0.22463692E+04</rscale>
<asrwt>0</asrwt>
<pdfrwt beam="1">  1        1 0.26058755E+00 0.22463692E+04</pdfrwt>
<pdfrwt beam="2">  1       -2 0.11458345E+00 0.22463692E+04</pdfrwt>
<totfact> 0.22831131E+00</totfact>
</mgrwt>
</event>
<event>
12    5  0.5297412E-008  0.3004683E+04  0.7818608E-02  0.8242395E-01
         -2   -1    0    0    0  501 -0.00000000000E+00  0.00000000000E+00  0.11417074915E+04  0.11417074915E+04  0.00000000000E+00 0.  1.
          1   -1    0    0  501    0  0.00000000000E+00 -0.00000000000E+00 -0.19768901469E+04  0.19768901469E+04  0.00000000000E+00 0. -1.
        -24    2    1    2    0    0  0.95462685784E+03  0.40836850231E+03 -0.13158381012E+04  0.16781164471E+04  0.81040915442E+02 0.  0.
        254    2    1    2    0    0 -0.95462685784E+03 -0.40836850231E+03  0.48065544575E+03  0.14404811914E+04  0.87514520727E+03 0.  0.
         23    2    4    4    0    0 -0.40254440996E+03 -0.57827066047E+03  0.47810154681E+03  0.85568372604E+03  0.84702958642E+02 0.  0.
         23    2    4    4    0    0 -0.55208244788E+03  0.16990215816E+03  0.25538989439E+01  0.58479746534E+03  0.91212830596E+02 0.  0.
          3    1    3    3  502    0  0.70478014723E+03  0.26206986042E+03 -0.95269112970E+03  0.12136787286E+04  0.00000000000E+00 0. -1.
         -4    1    3    3    0  502  0.24984671062E+03  0.14629864189E+03 -0.36314697149E+03  0.46443771846E+03  0.00000000000E+00 0.  1.
         13    1    5    5    0    0 -0.35752359660E+03 -0.53589122284E+03  0.40955991926E+03  0.76337530239E+03  0.00000000000E+00 0. -1.
        -13    1    5    5    0    0 -0.45020813367E+02 -0.42379437632E+02  0.68541627545E+02  0.92308423649E+02  0.00000000000E+00 0.  1.
          3    1    6    6  503    0 -0.40995173962E+03  0.14590454788E+03  0.36632945410E+02  0.43668127805E+03  0.00000000000E+00 0. -1.
         -3    1    6    6    0  503 -0.14213070826E+03  0.23997610276E+02 -0.34079046466E+02  0.14811618729E+03  0.00000000000E+00 0.  1.
<mgrwt>
<rscale>  0 0.30046832E+04</rscale>
<asrwt>0</asrwt>
<pdfrwt beam="1">  1        1 0.30413694E+00 0.30046832E+04</pdfrwt>
<pdfrwt beam="2">  1       -2 0.17564731E+00 0.30046832E+04</pdfrwt>
<totfact> 0.44927422E-01</totfact>
</mgrwt>
</event>
<event>
12    5  0.5297412E-008  0.2014573E+04  0.7818608E-02  0.8599837E-01
         -2   -1    0    0    0  501 -0.00000000000E+00  0.00000000000E+00  0.16920029871E+04  0.16920029871E+04  0.00000000000E+00 0.  1.
          1   -1    0    0  501    0  0.00000000000E+00 -0.00000000000E+00 -0.59965976721E+03  0.59965976721E+03  0.00000000000E+00 0. -1.
        -24    2    1    2    0    0  0.90954150971E+02 -0.19342733663E+02 -0.46688960225E+03  0.48277857841E+03  0.80264912342E+02 0.  0.
        254    2    1    2    0    0 -0.90954150971E+02  0.19342733663E+02  0.15592328221E+04  0.18088841759E+04  0.91225444327E+03 0.  0.
         23    2    4    4    0    0 -0.36434432446E+03 -0.30382187293E+03  0.79087400119E+03  0.92704348198E+03  0.94198803001E+02 0.  0.
         23    2    4    4    0    0  0.27339017349E+03  0.32316460659E+03  0.76835882090E+03  0.88184069387E+03  0.89945437949E+02 0.  0.
          1    1    3    3  502    0  0.71013109781E+02 -0.33289142275E+02 -0.20071112664E+03  0.21549010444E+03  0.00000000000E+00 0. -1.
         -2    1    3    3    0  502  0.19941041190E+02  0.13946408612E+02 -0.26617847561E+03  0.26728847397E+03  0.00000000000E+00 0.  1.
         13    1    5    5    0    0 -0.13039355042E+03 -0.16172386965E+03  0.29804666342E+03  0.36330276848E+03  0.00000000000E+00 0.  1.
        -13    1    5    5    0    0 -0.23395077404E+03 -0.14209800328E+03  0.49282733777E+03  0.56374071351E+03  0.00000000000E+00 0. -1.
          2    1    6    6  503    0  0.23454540479E+03  0.31518969050E+03  0.70550541401E+03  0.80752336009E+03  0.00000000000E+00 0. -1.
         -2    1    6    6    0  503  0.38844768705E+02  0.79749160869E+01  0.62853406891E+02  0.74317333780E+02  0.00000000000E+00 0.  1.
<mgrwt>
<rscale>  0 0.20145730E+04</rscale>
<asrwt>0</asrwt>
<pdfrwt beam="1">  1        1 0.92255349E-01 0.20145730E+04</pdfrwt>
<pdfrwt beam="2">  1       -2 0.26030815E+00 0.20145730E+04</pdfrwt>
<totfact> 0.15448698E+00</totfact>
</mgrwt>
</event>
<event>
12    5  0.5297412E-008  0.1995176E+04  0.7818608E-02  0.8608879E-01
         -4   -1    0    0    0  501 -0.00000000000E+00  0.00000000000E+00  0.29927484298E+03  0.29927484298E+03  0.00000000000E+00 0.  1.
          3   -1    0    0  501    0  0.00000000000E+00 -0.00000000000E+00 -0.33253110514E+04  0.33253110514E+04  0.00000000000E+00 0. -1.
        -24    2    1    2    0    0 -0.68780792143E+03  0.10858595868E+03 -0.51242799568E+03  0.86837610181E+03  0.81387690927E+02 0.  0.
        254    2    1    2    0    0  0.68780792143E+03 -0.10858595868E+03 -0.25136082128E+04  0.27562097926E+04  0.89083978710E+03 0.  0.
         23    2    4    4    0    0  0.47673267188E+03 -0.27373003530E+03 -0.58898639735E+03  0.81089453118E+03  0.91884665632E+02 0.  0.
         23    2    4    4    0    0  0.21107524955E+03  0.16514407662E+03 -0.19246218154E+04  0.19453152614E+04  0.90868073988E+02 0.  0.
          3    1    3    3  502    0 -0.15581462895E+03  0.28326898004E+02 -0.16052248724E+03  0.22549518987E+03  0.00000000000E+00 0. -1.
         -4    1    3    3    0  502 -0.53199329248E+03  0.80259060678E+02 -0.35190550844E+03  0.64288091194E+03  0.00000000000E+00 0.  1.
         13    1    5    5    0    0  0.36684500378E+03 -0.19282431213E+03 -0.38631149866E+03  0.56656248212E+03  0.00000000000E+00 0.  1.
        -13    1    5    5    0    0  0.10988766809E+03 -0.80905723172E+02 -0.20267489868E+03  0.24433204906E+03  0.00000000000E+00 0. -1.
          2    1    6    6  503    0  0.86064283972E+02  0.12107465199E+03 -0.11283921611E+04  0.11381278494E+04  0.00000000000E+00 0. -1.
         -2    1    6    6    0  503  0.12501096558E+03  0.44069424633E+02 -0.79622965431E+03  0.80718741200E+03  0.00000000000E+00 0.  1.
<mgrwt>
<rscale>  0 0.19951761E+04</rscale>
<asrwt>0</asrwt>
<pdfrwt beam="1">  1        3 0.51158630E+00 0.19951761E+04</pdfrwt>
<pdfrwt beam="2">  1       -4 0.46042285E-01 0.19951761E+04</pdfrwt>
<totfact> 0.29499592E-02</totfact>
</mgrwt>
</event>
<event>
12    5  0.5297412E-008  0.1444173E+04  0.7818608E-02  0.8922450E-01
          1   -1    0    0  501    0  0.00000000000E+00  0.00000000000E+00  0.12921037432E+04  0.12921037432E+04  0.00000000000E+00 0. -1.
         -2   -1    0    0    0  501 -0.00000000000E+00 -0.00000000000E+00 -0.40353468475E+03  0.40353468475E+03  0.00000000000E+00 0.  1.
        -24    2    1    2    0    0 -0.37859691766E+03  0.19306216618E+03  0.16957085722E+03  0.46471216401E+03  0.81206487971E+02 0.  0.
        254    2    1    2    0    0  0.37859691766E+03 -0.19306216618E+03  0.71899820128E+03  0.12309262640E+04  0.90421923660E+03 0.  0.
         23    2    4    4    0    0  0.18473213661E+03 -0.52788842655E+03  0.57777664345E+03  0.80900694333E+03  0.88736866395E+02 0.  0.
         23    2    4    4    0    0  0.19386478105E+03  0.33482626037E+03  0.14122155783E+03  0.42191932065E+03  0.91543469338E+02 0.  0.
          1    1    3    3  502    0 -0.33194657058E+03  0.17466670959E+03  0.11906436421E+03  0.39353946179E+03  0.00000000000E+00 0. -1.
         -2    1    3    3    0  502 -0.46650347082E+02  0.18395456596E+02  0.50506493007E+02  0.71172702226E+02  0.00000000000E+00 0.  1.
         13    1    5    5    0    0  0.73256597516E+02 -0.11812263087E+03  0.17739514284E+03  0.22536308861E+03  0.00000000000E+00 0.  1.
        -13    1    5    5    0    0  0.11147553910E+03 -0.40976579568E+03  0.40038150061E+03  0.58364385473E+03  0.00000000000E+00 0. -1.
          4    1    6    6  503    0  0.10624888097E+03  0.16314134253E+03  0.11829721899E+03  0.22781166426E+03  0.00000000000E+00 0. -1.
         -4    1    6    6    0  503  0.87615900073E+02  0.17168491784E+03  0.22924338840E+02  0.19410765639E+03  0.00000000000E+00 0.  1.
<mgrwt>
<rscale>  0 0.14441727E+04</rscale>
<asrwt>0</asrwt>
<pdfrwt beam="1">  1        1 0.19878519E+00 0.14441727E+04</pdfrwt>
<pdfrwt beam="2">  1       -2 0.62082260E-01 0.14441727E+04</pdfrwt>
<totfact> 0.18815455E+01</totfact>
</mgrwt>
</event>
<event>
12    5  0.5297412E-008  0.1614748E+04  0.7818608E-02  0.8811539E-01
          1   -1    0    0  501    0  0.00000000000E+00  0.00000000000E+00  0.20099243114E+04  0.20099243114E+04  0.00000000000E+00 0. -1.
         -2   -1    0    0    0  501 -0.00000000000E+00 -0.00000000000E+00 -0.32431689660E+03  0.32431689660E+03  0.00000000000E+00 0.  1.
        -24    2    1    2    0    0  0.53619071580E+03 -0.10670965491E+03  0.45998485092E+03  0.71899354678E+03  0.80487409392E+02 0.  0.
        254    2    1    2    0    0 -0.53619071580E+03  0.10670965491E+03  0.12256225639E+04  0.16152476612E+04  0.89888091751E+03 0.  0.
         23    2    4    4    0    0 -0.29210163756E+03 -0.42737724022E+02  0.12740423594E+04  0.13109652206E+04  0.91082361013E+02 0.  0.
         23    2    4    4    0    0 -0.24408907823E+03  0.14944737893E+03 -0.48419795466E+02  0.30428244063E+03  0.91265162596E+02 0.  0.
          3    1    3    3  502    0  0.44847570455E+03 -0.10785549922E+03  0.41469206439E+03  0.62026830852E+03  0.00000000000E+00 0. -1.
         -4    1    3    3    0  502  0.87715011248E+02  0.11458443139E+01  0.45292786532E+02  0.98725238259E+02  0.00000000000E+00 0.  1.
         13    1    5    5    0    0 -0.32237108150E+02 -0.11124787803E+02  0.59948093823E+02  0.68969312006E+02  0.00000000000E+00 0. -1.
        -13    1    5    5    0    0 -0.25986452941E+03 -0.31612936219E+02  0.12140942655E+04  0.12419959086E+04  0.00000000000E+00 0.  1.
          3    1    6    6  503    0 -0.48509779479E+01  0.34058345417E+02 -0.64244026871E+00  0.34408074766E+02  0.00000000000E+00 0. -1.
         -3    1    6    6    0  503 -0.23923810029E+03  0.11538903351E+03 -0.47777355197E+02  0.26987436587E+03  0.00000000000E+00 0.  1.
<mgrwt>
<rscale>  0 0.16147476E+04</rscale>
<asrwt>0</asrwt>
<pdfrwt beam="1">  1        1 0.30921912E+00 0.16147476E+04</pdfrwt>
<pdfrwt beam="2">  1       -2 0.49894909E-01 0.16147476E+04</pdfrwt>
<totfact> 0.93866766E+00</totfact>
</mgrwt>
</event>
<event>
12    5  0.5297412E-008  0.1120132E+04  0.7818608E-02  0.9185789E-01
         -4   -1    0    0    0  501 -0.00000000000E+00  0.00000000000E+00  0.14249644879E+03  0.14249644879E+03  0.00000000000E+00 0.  1.
          1   -1    0    0  501    0  0.00000000000E+00 -0.00000000000E+00 -0.22012734746E+04  0.22012734746E+04  0.00000000000E+00 0. -1.
        -24    2    1    2    0    0  0.60567141172E+02  0.12985040904E+03 -0.60827495819E+03  0.63000720151E+03  0.79882049754E+02 0.  0.
        254    2    1    2    0    0 -0.60567141172E+02 -0.12985040904E+03 -0.14505020676E+04  0.17137627219E+04  0.90138610562E+03 0.  0.
         23    2    4    4    0    0  0.16100184838E+03 -0.27604846348E+03 -0.13860713662E+04  0.14253933953E+04  0.91804954927E+02 0.  0.
         23    2    4    4    0    0 -0.22156898956E+03  0.14619805444E+03 -0.64430701442E+02  0.28836932661E+03  0.92405979164E+02 0.  0.
          3    1    3    3  502    0  0.49293808134E+02  0.85655608026E+02 -0.24974299412E+03  0.26858578857E+03  0.00000000000E+00 0. -1.
         -4    1    3    3    0  502  0.11273333038E+02  0.44194801017E+02 -0.35853196407E+03  0.36142141294E+03  0.00000000000E+00 0.  1.
         13    1    5    5    0    0  0.14095460529E+03 -0.15398957229E+03 -0.88094505168E+03  0.90534257229E+03  0.00000000000E+00 0.  1.
        -13    1    5    5    0    0  0.20047243099E+02 -0.12205889120E+03 -0.50512631451E+03  0.52005082299E+03  0.00000000000E+00 0. -1.
          3    1    6    6  503    0 -0.10423670019E+03  0.47554608404E+02  0.15293448206E+02  0.11558814821E+03  0.00000000000E+00 0. -1.
         -3    1    6    6    0  503 -0.11733228936E+03  0.98643446037E+02 -0.79724149648E+02  0.17278117840E+03  0.00000000000E+00 0.  1.
<mgrwt>
<rscale>  0 0.11201315E+04</rscale>
<asrwt>0</asrwt>
<pdfrwt beam="1">  1        1 0.33865747E+00 0.11201315E+04</pdfrwt>
<pdfrwt beam="2">  1       -4 0.21922530E-01 0.11201315E+04</pdfrwt>
<totfact> 0.21133239E+01</totfact>
</mgrwt>
</event>
<event>
12    5  0.5297412E-008  0.2379869E+04  0.7818608E-02  0.8447079E-01
         -2   -1    0    0    0  501 -0.00000000000E+00  0.00000000000E+00  0.74516387752E+03  0.74516387752E+03  0.00000000000E+00 0.  1.
          1   -1    0    0  501    0  0.00000000000E+00 -0.00000000000E+00 -0.19001777989E+04  0.19001777989E+04  0.00000000000E+00 0. -1.
        -24    2    1    2    0    0 -0.41089963728E+03  0.91564131032E+03 -0.34818979877E+03  0.10652573428E+04  0.79369700591E+02 0.  0.
        254    2    1    2    0    0  0.41089963728E+03 -0.91564131032E+03 -0.80682412258E+03  0.15800843336E+04  0.91567669802E+03 0.  0.
         23    2    4    4    0    0  0.41107191773E+03 -0.38305122262E+02 -0.64799933364E+02  0.42739482465E+03  0.89553899041E+02 0.  0.
         23    2    4    4    0    0 -0.17228045196E+00 -0.87733618806E+03 -0.74202418921E+03  0.11526895089E+04  0.91511693286E+02 0.  0.
          1    1    3    3  502    0 -0.83196015646E+02  0.11805916697E+03 -0.46745164292E+02  0.15180465840E+03  0.00000000000E+00 0. -1.
         -2    1    3    3    0  502 -0.32770362164E+03  0.79758214335E+03 -0.30144463448E+03  0.91345268442E+03  0.00000000000E+00 0.  1.
         13    1    5    5    0    0  0.30135121605E+02  0.10761888553E+02  0.14628056395E+02  0.35184141787E+02  0.00000000000E+00 0.  1.
        -13    1    5    5    0    0  0.38093679613E+03 -0.49067010815E+02 -0.79427989759E+02  0.39221068286E+03  0.00000000000E+00 0. -1.
          3    1    6    6  503    0  0.70453801000E+01 -0.82580335116E+03 -0.66786022261E+03  0.10620913751E+04  0.00000000000E+00 0. -1.
         -3    1    6    6    0  503 -0.72176605520E+01 -0.51532836902E+02 -0.74163966605E+02  0.90598133787E+02  0.00000000000E+00 0.  1.
<mgrwt>
<rscale>  0 0.23798688E+04</rscale>
<asrwt>0</asrwt>
<pdfrwt beam="1">  1        1 0.29233504E+00 0.23798688E+04</pdfrwt>
<pdfrwt beam="2">  1       -2 0.11464060E+00 0.23798688E+04</pdfrwt>
<totfact> 0.16321329E+00</totfact>
</mgrwt>
</event>
<event>
12    5  0.5297412E-008  0.1826898E+04  0.7818608E-02  0.8692125E-01
          1   -1    0    0  501    0  0.00000000000E+00  0.00000000000E+00  0.32792913496E+04  0.32792913496E+04  0.00000000000E+00 0. -1.
         -2   -1    0    0    0  501 -0.00000000000E+00 -0.00000000000E+00 -0.25444190790E+03  0.25444190790E+03  0.00000000000E+00 0.  1.
        -24    2    1    2    0    0 -0.20253953680E+03 -0.68804935782E+03  0.10045647822E+04  0.12390986763E+04  0.10854006216E+03 0.  0.
        254    2    1    2    0    0  0.20253953680E+03  0.68804935782E+03  0.20202846595E+04  0.22946345812E+04  0.81814642533E+03 0.  0.
         23    2    4    4    0    0  0.46345191698E+03  0.25792513112E+03  0.73427941517E+03  0.91076376118E+03  0.94927954419E+02 0.  0.
         23    2    4    4    0    0 -0.26091238018E+03  0.43012422670E+03  0.12860052443E+04  0.13838708201E+04  0.90591598175E+02 0.  0.
          3    1    3    3  502    0 -0.16607112057E+03 -0.51672329449E+03  0.67763563655E+03  0.86820080401E+03  0.00000000000E+00 0. -1.
         -4    1    3    3    0  502 -0.36468416229E+02 -0.17132606332E+03  0.32692914570E+03  0.37089787229E+03  0.00000000000E+00 0.  1.
         13    1    5    5    0    0  0.17358545924E+03  0.14856640635E+03  0.33167277816E+03  0.40275392057E+03  0.00000000000E+00 0.  1.
        -13    1    5    5    0    0  0.28986645773E+03  0.10935872476E+03  0.40260663701E+03  0.50800984062E+03  0.00000000000E+00 0. -1.
          1    1    6    6  503    0 -0.20065308940E+03  0.35787456627E+03  0.94712004712E+03  0.10321687125E+04  0.00000000000E+00 0. -1.
         -1    1    6    6    0  503 -0.60259290774E+02  0.72249660431E+02  0.33888519720E+03  0.35170210752E+03  0.00000000000E+00 0.  1.
<mgrwt>
<rscale>  0 0.18268981E+04</rscale>
<asrwt>0</asrwt>
<pdfrwt beam="1">  1        1 0.50450633E+00 0.18268981E+04</pdfrwt>
<pdfrwt beam="2">  1       -2 0.39144911E-01 0.18268981E+04</pdfrwt>
<totfact> 0.18981595E+00</totfact>
</mgrwt>
</event>
<event>
12    5  0.5297412E-008  0.1565204E+04  0.7818608E-02  0.8842215E-01
          1   -1    0    0  501    0  0.00000000000E+00  0.00000000000E+00  0.80060571235E+03  0.80060571235E+03  0.00000000000E+00 0. -1.
         -2   -1    0    0    0  501 -0.00000000000E+00 -0.00000000000E+00 -0.76500286269E+03  0.76500286269E+03  0.00000000000E+00 0.  1.
        -24    2    1    2    0    0 -0.16469739265E+03  0.48448883190E+03 -0.85620315974E+02  0.52505026263E+03  0.80574688323E+02 0.  0.
        254    2    1    2    0    0  0.16469739265E+03 -0.48448883190E+03  0.12122316563E+03  0.10405583124E+04  0.89789302606E+03 0.  0.
         23    2    4    4    0    0 -0.10766638506E+03 -0.38483908976E+03 -0.30886094419E+03  0.51345217002E+03  0.92438479937E+02 0.  0.
         23    2    4    4    0    0  0.27236377771E+03 -0.99649742143E+02  0.43008410982E+03  0.52710614239E+03  0.93575879911E+02 0.  0.
          3    1    3    3  502    0 -0.16272944734E+03  0.42167277874E+03 -0.55563174811E+02  0.45538562972E+03  0.00000000000E+00 0. -1.
         -4    1    3    3    0  502 -0.19679453100E+01  0.62816053163E+02 -0.30057141163E+02  0.69664632911E+02  0.00000000000E+00 0.  1.
         13    1    5    5    0    0 -0.63160620417E+02 -0.32393098718E+03 -0.27957656854E+03  0.43253162439E+03  0.00000000000E+00 0.  1.
        -13    1    5    5    0    0 -0.44505764647E+02 -0.60908102582E+02 -0.29284375647E+02  0.80920545624E+02  0.00000000000E+00 0. -1.
          3    1    6    6  503    0  0.23998578785E+02 -0.28712520970E+02  0.19933453434E+02  0.42399094448E+02  0.00000000000E+00 0. -1.
         -3    1    6    6    0  503  0.24836519892E+03 -0.70937221173E+02  0.41015065639E+03  0.48470704794E+03  0.00000000000E+00 0.  1.
<mgrwt>
<rscale>  0 0.15652037E+04</rscale>
<asrwt>0</asrwt>
<pdfrwt beam="1">  1        1 0.12317011E+00 0.15652037E+04</pdfrwt>
<pdfrwt beam="2">  1       -2 0.11769275E+00 0.15652037E+04</pdfrwt>
<totfact> 0.10369621E+01</totfact>
</mgrwt>
</event>
<event>
12    5  0.5297412E-008  0.2452682E+04  0.7818608E-02  0.8420040E-01
         -2   -1    0    0    0  501 -0.00000000000E+00  0.00000000000E+00  0.78772604210E+03  0.78772604210E+03  0.00000000000E+00 0.  1.
          1   -1    0    0  501    0  0.00000000000E+00 -0.00000000000E+00 -0.19091813232E+04  0.19091813232E+04  0.00000000000E+00 0. -1.
        -24    2    1    2    0    0  0.78714234586E+03 -0.67553447746E+03 -0.65721022133E+03  0.12305789563E+04  0.80370329048E+02 0.  0.
        254    2    1    2    0    0 -0.78714234586E+03  0.67553447746E+03 -0.46424505977E+03  0.14663284090E+04  0.92663672744E+03 0.  0.
         23    2    4    4    0    0 -0.10561460755E+03  0.37960815799E+03 -0.58213956924E+03  0.70862319227E+03  0.89462570979E+02 0.  0.
         23    2    4    4    0    0 -0.68152773832E+03  0.29592631947E+03  0.11789450947E+03  0.75770521673E+03  0.90363905681E+02 0.  0.
          1    1    3    3  502    0  0.31373890729E+03 -0.25307707875E+03 -0.29971940993E+03  0.50230651442E+03  0.00000000000E+00 0. -1.
         -2    1    3    3    0  502  0.47340343857E+03 -0.42245739871E+03 -0.35749081139E+03  0.72827244188E+03  0.00000000000E+00 0.  1.
         13    1    5    5    0    0 -0.73484620611E+02  0.35721511091E+03 -0.51892202676E+03  0.63425759340E+03  0.00000000000E+00 0. -1.
        -13    1    5    5    0    0 -0.32129986934E+02  0.22393047082E+02 -0.63217542482E+02  0.74365598871E+02  0.00000000000E+00 0.  1.
          4    1    6    6  503    0 -0.54566862836E+03  0.26745089688E+03  0.74319974921E+02  0.61221539746E+03  0.00000000000E+00 0. -1.
         -4    1    6    6    0  503 -0.13585910996E+03  0.28475422593E+02  0.43574534554E+02  0.14548981927E+03  0.00000000000E+00 0.  1.
<mgrwt>
<rscale>  0 0.24526817E+04</rscale>
<asrwt>0</asrwt>
<pdfrwt beam="1">  1        1 0.29372020E+00 0.24526817E+04</pdfrwt>
<pdfrwt beam="2">  1       -2 0.12118862E+00 0.24526817E+04</pdfrwt>
<totfact> 0.13946764E+00</totfact>
</mgrwt>
</event>
<event>
12    5  0.5297412E-008  0.1741366E+04  0.7818608E-02  0.8738117E-01
          1   -1    0    0  501    0  0.00000000000E+00  0.00000000000E+00  0.31669224721E+04  0.31669224721E+04  0.00000000000E+00 0. -1.
         -2   -1    0    0    0  501 -0.00000000000E+00 -0.00000000000E+00 -0.23937718050E+03  0.23937718050E+03  0.00000000000E+00 0.  1.
        -24    2    1    2    0    0  0.34081279330E+03  0.52243684191E+03  0.79279513870E+03  0.10119193656E+04  0.79768769671E+02 0.  0.
        254    2    1    2    0    0 -0.34081279330E+03 -0.52243684191E+03  0.21347501529E+04  0.23943802870E+04  0.88702036604E+03 0.  0.
         23    2    4    4    0    0  0.23751010187E+03 -0.31299124536E+03  0.12440832601E+04  0.13079636545E+04  0.93011801913E+02 0.  0.
         23    2    4    4    0    0 -0.57832289517E+03 -0.20944559655E+03  0.89066689277E+03  0.10864166325E+04  0.93213499511E+02 0.  0.
          3    1    3    3  502    0  0.10905620278E+03  0.17790625151E+03  0.32710111108E+03  0.38799359087E+03  0.00000000000E+00 0. -1.
         -4    1    3    3    0  502  0.23175659052E+03  0.34453059040E+03  0.46569402763E+03  0.62392577471E+03  0.00000000000E+00 0.  1.
         13    1    5    5    0    0  0.81958267372E+02 -0.58493326559E+02  0.23356333126E+03  0.25434318656E+03  0.00000000000E+00 0.  1.
        -13    1    5    5    0    0  0.15555183450E+03 -0.25449791880E+03  0.10105199289E+04  0.10536204680E+04  0.00000000000E+00 0. -1.
          3    1    6    6  503    0 -0.42759825981E+03 -0.16203571571E+03  0.58684149621E+03  0.74396154916E+03  0.00000000000E+00 0. -1.
         -3    1    6    6    0  503 -0.15072463537E+03 -0.47409880838E+02  0.30382539655E+03  0.34245508333E+03  0.00000000000E+00 0.  1.
<mgrwt>
<rscale>  0 0.17413661E+04</rscale>
<asrwt>0</asrwt>
<pdfrwt beam="1">  1        1 0.48721881E+00 0.17413661E+04</pdfrwt>
<pdfrwt beam="2">  1       -2 0.36827261E-01 0.17413661E+04</pdfrwt>
<totfact> 0.26160560E+00</totfact>
</mgrwt>
</event>
<event>
12    5  0.5297412E-008  0.2324423E+04  0.7818608E-02  0.8468353E-01
          1   -1    0    0  501    0  0.00000000000E+00  0.00000000000E+00  0.79373508371E+03  0.79373508371E+03  0.00000000000E+00 0. -1.
         -2   -1    0    0    0  501 -0.00000000000E+00 -0.00000000000E+00 -0.17017459932E+04  0.17017459932E+04  0.00000000000E+00 0.  1.
        -24    2    1    2    0    0 -0.55856755154E+03  0.63215085191E+03 -0.83995029415E+03  0.11930957225E+04  0.79677456621E+02 0.  0.
        254    2    1    2    0    0  0.55856755154E+03 -0.63215085191E+03 -0.68060615368E+02  0.13023853545E+04  0.98993078294E+03 0.  0.
         23    2    4    4    0    0  0.10630523354E+03  0.21674255757E+03 -0.20181005846E+03  0.32700723475E+03  0.89040962171E+02 0.  0.
         23    2    4    4    0    0  0.45226231800E+03 -0.84889340948E+03  0.13374944310E+03  0.97537811973E+03  0.91172024082E+02 0.  0.
          1    1    3    3  502    0 -0.17941101979E+03  0.26068648977E+03 -0.30629740941E+03  0.44041328657E+03  0.00000000000E+00 0. -1.
         -2    1    3    3    0  502 -0.37915653174E+03  0.37146436214E+03 -0.53365288473E+03  0.75268243589E+03  0.00000000000E+00 0.  1.
         13    1    5    5    0    0  0.64030198553E+02  0.19300824980E+03 -0.13356211687E+03  0.24329177931E+03  0.00000000000E+00 0. -1.
        -13    1    5    5    0    0  0.42275034983E+02  0.23734307771E+02 -0.68247941593E+02  0.83715455442E+02  0.00000000000E+00 0.  1.
          1    1    6    6  503    0  0.37571352901E+03 -0.75937261119E+03  0.10175719463E+03  0.85332405636E+03  0.00000000000E+00 0. -1.
         -1    1    6    6    0  503  0.76548788994E+02 -0.89520798295E+02  0.31992248469E+02  0.12205406337E+03  0.00000000000E+00 0.  1.
<mgrwt>
<rscale>  0 0.23244229E+04</rscale>
<asrwt>0</asrwt>
<pdfrwt beam="1">  1        1 0.12211309E+00 0.23244229E+04</pdfrwt>
<pdfrwt beam="2">  1       -2 0.26180708E+00 0.23244229E+04</pdfrwt>
<totfact> 0.96279370E-01</totfact>
</mgrwt>
</event>
<event>
12    5  0.5297412E-008  0.1470830E+04  0.7818608E-02  0.8904086E-01
         -2   -1    0    0    0  501 -0.00000000000E+00  0.00000000000E+00  0.45146859450E+03  0.45146859450E+03  0.00000000000E+00 0.  1.
          1   -1    0    0  501    0  0.00000000000E+00 -0.00000000000E+00 -0.11979465183E+04  0.11979465183E+04  0.00000000000E+00 0. -1.
        -24    2    1    2    0    0  0.21926424141E+03 -0.11757576095E+03  0.20261509256E+03  0.33082164609E+03  0.80555686737E+02 0.  0.
        254    2    1    2    0    0 -0.21926424141E+03  0.11757576095E+03 -0.94909301640E+03  0.13185934667E+04  0.88091447350E+03 0.  0.
         23    2    4    4    0    0  0.31616123982E+03 -0.50694277496E+02 -0.24614680229E+03  0.41417340970E+03  0.91779767310E+02 0.  0.
         23    2    4    4    0    0 -0.53542548123E+03  0.16827003845E+03 -0.70294621411E+03  0.90442005704E+03  0.94058534170E+02 0.  0.
          3    1    3    3  502    0  0.11990690243E+03 -0.83434287750E+02  0.71005319076E+02  0.16242136854E+03  0.00000000000E+00 0. -1.
         -4    1    3    3    0  502  0.99357338980E+02 -0.34141473202E+02  0.13160977349E+03  0.16840027755E+03  0.00000000000E+00 0.  1.
         13    1    5    5    0    0  0.46584044420E+01  0.11715120116E+02 -0.55230815262E+00  0.12619422157E+02  0.00000000000E+00 0.  1.
        -13    1    5    5    0    0  0.31150283538E+03 -0.62409397612E+02 -0.24559449414E+03  0.40155398754E+03  0.00000000000E+00 0. -1.
          4    1    6    6  503    0 -0.20920670551E+03  0.40349591574E+02 -0.20603720949E+03  0.29638972125E+03  0.00000000000E+00 0.  1.
         -4    1    6    6    0  503 -0.32621877572E+03  0.12792044687E+03 -0.49690900462E+03  0.60803033579E+03  0.00000000000E+00 0. -1.
<mgrwt>
<rscale>  0 0.14708300E+04</rscale>
<asrwt>0</asrwt>
<pdfrwt beam="1">  1        1 0.18429946E+00 0.14708300E+04</pdfrwt>
<pdfrwt beam="2">  1       -2 0.69456707E-01 0.14708300E+04</pdfrwt>
<totfact> 0.17242072E+01</totfact>
</mgrwt>
</event>
<event>
12    5  0.5297412E-008  0.2682298E+04  0.7818608E-02  0.8340772E-01
          1   -1    0    0  501    0  0.00000000000E+00  0.00000000000E+00  0.26977496236E+04  0.26977496236E+04  0.00000000000E+00 0. -1.
         -2   -1    0    0    0  501 -0.00000000000E+00 -0.00000000000E+00 -0.66673381730E+03  0.66673381730E+03  0.00000000000E+00 0.  1.
        -24    2    1    2    0    0 -0.50023822412E+02  0.11977873935E+04  0.90029180370E+03  0.15013698979E+04  0.79932568910E+02 0.  0.
        254    2    1    2    0    0  0.50023822412E+02 -0.11977873935E+04  0.11307240026E+04  0.18631135430E+04  0.86917103105E+03 0.  0.
         23    2    4    4    0    0  0.24817733259E+03 -0.48133088512E+02  0.56810739998E+02  0.27473909431E+03  0.91352762106E+02 0.  0.
         23    2    4    4    0    0 -0.19815351018E+03 -0.11496543050E+04  0.10739132626E+04  0.15883744487E+04  0.93133555062E+02 0.  0.
          1    1    3    3  502    0  0.40460240169E+01  0.67977627472E+03  0.53812633860E+03  0.86700179370E+03  0.00000000000E+00 0. -1.
         -2    1    3    3    0  502 -0.54069846429E+02  0.51801111881E+03  0.36216546510E+03  0.63436810419E+03  0.00000000000E+00 0.  1.
         13    1    5    5    0    0  0.93988698788E+02 -0.56733641058E+02  0.48691063072E+02  0.12009746521E+03  0.00000000000E+00 0.  1.
        -13    1    5    5    0    0  0.15418863380E+03  0.86005525460E+01  0.81196769266E+01  0.15464162910E+03  0.00000000000E+00 0. -1.
          3    1    6    6  503    0 -0.12616967336E+03 -0.93398559157E+03  0.88300125478E+03  0.12914871613E+04  0.00000000000E+00 0. -1.
         -3    1    6    6    0  503 -0.71983836813E+02 -0.21566871344E+03  0.19091200781E+03  0.29688728744E+03  0.00000000000E+00 0.  1.
<mgrwt>
<rscale>  0 0.26822982E+04</rscale>
<asrwt>0</asrwt>
<pdfrwt beam="1">  1        1 0.41503840E+00 0.26822982E+04</pdfrwt>
<pdfrwt beam="2">  1       -2 0.10257443E+00 0.26822982E+04</pdfrwt>
<totfact> 0.58872010E-01</totfact>
</mgrwt>
</event>
<event>
12    5  0.5297412E-008  0.1919762E+04  0.7818608E-02  0.8645082E-01
         -2   -1    0    0    0  501 -0.00000000000E+00  0.00000000000E+00  0.34028743275E+03  0.34028743275E+03  0.00000000000E+00 0.  1.
          1   -1    0    0  501    0  0.00000000000E+00 -0.00000000000E+00 -0.27076276130E+04  0.27076276130E+04  0.00000000000E+00 0. -1.
        -24    2    1    2    0    0 -0.59996107213E+03  0.42960085717E+03 -0.99994190386E+03  0.12455230082E+04  0.83268051585E+02 0.  0.
        254    2    1    2    0    0  0.59996107213E+03 -0.42960085717E+03 -0.13673982763E+04  0.18023920375E+04  0.91341602022E+03 0.  0.
         23    2    4    4    0    0  0.31139890840E+02 -0.41910426383E+03 -0.14966453091E+03  0.45536858389E+03  0.91340016537E+02 0.  0.
         23    2    4    4    0    0  0.56882118129E+03 -0.10496593346E+02 -0.12177337454E+04  0.13470234536E+04  0.89044904043E+02 0.  0.
          3    1    3    3  502    0 -0.17925539437E+03  0.17654216152E+03 -0.33210202763E+03  0.41664299821E+03  0.00000000000E+00 0. -1.
         -4    1    3    3    0  502 -0.42070567776E+03  0.25305869566E+03 -0.66783987623E+03  0.82888001003E+03  0.00000000000E+00 0.  1.
         13    1    5    5    0    0  0.60692116888E+02 -0.24879121164E+03 -0.73122641843E+02  0.26632221235E+03  0.00000000000E+00 0. -1.
        -13    1    5    5    0    0 -0.29552226048E+02 -0.17031305219E+03 -0.76541889065E+02  0.18904637154E+03  0.00000000000E+00 0.  1.
          1    1    6    6  503    0  0.55150653941E+03 -0.21609638775E+02 -0.11953543179E+04  0.13166238585E+04  0.00000000000E+00 0. -1.
         -1    1    6    6    0  503  0.17314641878E+02  0.11113045429E+02 -0.22379427513E+02  0.30399595028E+02  0.00000000000E+00 0.  1.
<mgrwt>
<rscale>  0 0.19197621E+04</rscale>
<asrwt>0</asrwt>
<pdfrwt beam="1">  1        1 0.41655809E+00 0.19197621E+04</pdfrwt>
<pdfrwt beam="2">  1       -2 0.52351914E-01 0.19197621E+04</pdfrwt>
<totfact> 0.27420950E+00</totfact>
</mgrwt>
</event>
<event>
12    5  0.5297412E-008  0.1777531E+04  0.7818608E-02  0.8718340E-01
         -2   -1    0    0    0  501 -0.00000000000E+00  0.00000000000E+00  0.60489761552E+03  0.60489761552E+03  0.00000000000E+00 0.  1.
          1   -1    0    0  501    0  0.00000000000E+00 -0.00000000000E+00 -0.13058481812E+04  0.13058481812E+04  0.00000000000E+00 0. -1.
        -24    2    1    2    0    0  0.27775864767E+03  0.10559333120E+02 -0.91166776616E+03  0.95651082085E+03  0.80706063426E+02 0.  0.
        254    2    1    2    0    0 -0.27775864767E+03 -0.10559333120E+02  0.21071720047E+03  0.95423497587E+03  0.88820115106E+03 0.  0.
         23    2    4    4    0    0  0.64352246999E+01  0.33993757678E+03 -0.13583327594E+03  0.37736295505E+03  0.91395583990E+02 0.  0.
         23    2    4    4    0    0 -0.28419387237E+03 -0.35049690990E+03  0.34655047642E+03  0.57687202082E+03  0.95235785102E+02 0.  0.
          3    1    3    3  502    0  0.15528322190E+03 -0.11688906604E+02 -0.62262272620E+03  0.64180103515E+03  0.00000000000E+00 0. -1.
         -4    1    3    3    0  502  0.12247542576E+03  0.22248239724E+02 -0.28904503996E+03  0.31470978570E+03  0.00000000000E+00 0.  1.
         13    1    5    5    0    0  0.24652014342E+02  0.32329179617E+03 -0.11192808462E+03  0.34300612737E+03  0.00000000000E+00 0.  1.
        -13    1    5    5    0    0 -0.18216789642E+02  0.16645780602E+02 -0.23905191318E+02  0.34356827687E+02  0.00000000000E+00 0. -1.
          2    1    6    6  503    0 -0.49346621680E+02 -0.11284064346E+03  0.12797729432E+03  0.17761274659E+03  0.00000000000E+00 0. -1.
         -2    1    6    6    0  503 -0.23484725069E+03 -0.23765626643E+03  0.21857318209E+03  0.39925927423E+03  0.00000000000E+00 0.  1.
<mgrwt>
<rscale>  0 0.17775314E+04</rscale>
<asrwt>0</asrwt>
<pdfrwt beam="1">  1        1 0.20089972E+00 0.17775314E+04</pdfrwt>
<pdfrwt beam="2">  1       -2 0.93061172E-01 0.17775314E+04</pdfrwt>
<totfact> 0.72669326E+00</totfact>
</mgrwt>
</event>
<event>
12    5  0.5297412E-008  0.2241823E+04  0.7818608E-02  0.8501219E-01
         -2   -1    0    0    0  501 -0.00000000000E+00  0.00000000000E+00  0.11474006800E+04  0.11474006800E+04  0.00000000000E+00 0.  1.
          1   -1    0    0  501    0  0.00000000000E+00 -0.00000000000E+00 -0.10950340421E+04  0.10950340421E+04  0.00000000000E+00 0. -1.
        -24    2    1    2    0    0 -0.66126103213E+03 -0.58134836495E+03 -0.31992051065E+03  0.94022888075E+03  0.80306544067E+02 0.  0.
        254    2    1    2    0    0  0.66126103213E+03  0.58134836495E+03  0.37228714857E+03  0.13022058413E+04  0.88425689602E+03 0.  0.
         23    2    4    4    0    0  0.19062523303E+03  0.34458268984E+03  0.59819544813E+03  0.72214613834E+03  0.92639307796E+02 0.  0.
         23    2    4    4    0    0  0.47063579910E+03  0.23676567511E+03 -0.22590829956E+03  0.58005970298E+03  0.88761809982E+02 0.  0.
          1    1    3    3  502    0 -0.47590697873E+03 -0.37731300525E+03 -0.19778348961E+03  0.63872597027E+03  0.00000000000E+00 0. -1.
         -2    1    3    3    0  502 -0.18535405340E+03 -0.20403535970E+03 -0.12213702104E+03  0.30150291048E+03  0.00000000000E+00 0.  1.
         13    1    5    5    0    0  0.11534114618E+03  0.25018085998E+03  0.34387633430E+03  0.44061885570E+03  0.00000000000E+00 0.  1.
        -13    1    5    5    0    0  0.75284086845E+02  0.94401829864E+02  0.25431911383E+03  0.28152728264E+03  0.00000000000E+00 0. -1.
          3    1    6    6  503    0  0.10293413662E+03  0.93194226010E+02 -0.71663239990E+02  0.15625690452E+03  0.00000000000E+00 0. -1.
         -3    1    6    6    0  503  0.36770166248E+03  0.14357144910E+03 -0.15424505957E+03  0.42380279847E+03  0.00000000000E+00 0.  1.
<mgrwt>
<rscale>  0 0.22418232E+04</rscale>
<asrwt>0</asrwt>
<pdfrwt beam="1">  1        1 0.16846677E+00 0.22418232E+04</pdfrwt>
<pdfrwt beam="2">  1       -2 0.17652318E+00 0.22418232E+04</pdfrwt>
<totfact> 0.19532035E+00</totfact>
</mgrwt>
</event>
<event>
12    5  0.5297412E-008  0.2786501E+04  0.7818608E-02  0.8307472E-01
          1   -1    0    0  501    0  0.00000000000E+00  0.00000000000E+00  0.13711916728E+04  0.13711916728E+04  0.00000000000E+00 0. -1.
         -2   -1    0    0    0  501 -0.00000000000E+00 -0.00000000000E+00 -0.14156638701E+04  0.14156638701E+04  0.00000000000E+00 0.  1.
        -24    2    1    2    0    0 -0.33622999167E+03 -0.11208362314E+04 -0.47733066778E+03  0.12662941905E+04  0.79573524397E+02 0.  0.
        254    2    1    2    0    0  0.33622999167E+03  0.11208362314E+04  0.43285847046E+03  0.15205613524E+04  0.86914665400E+03 0.  0.
         23    2    4    4    0    0  0.23539617516E+03  0.24492741931E+03  0.52090139050E+03  0.62996178108E+03  0.10056235372E+03 0.  0.
         23    2    4    4    0    0  0.10083381651E+03  0.87590881205E+03 -0.88042920034E+02  0.89059957133E+03  0.89623295599E+02 0.  0.
          1    1    3    3  502    0 -0.10039829128E+03 -0.25835849202E+03 -0.85486740159E+02  0.29006363101E+03  0.00000000000E+00 0. -1.
         -2    1    3    3    0  502 -0.23583170039E+03 -0.86247773933E+03 -0.39184392763E+03  0.97623055954E+03  0.00000000000E+00 0.  1.
         13    1    5    5    0    0  0.11941655234E+03  0.14725781606E+03  0.37157936177E+03  0.41715272918E+03  0.00000000000E+00 0. -1.
        -13    1    5    5    0    0  0.11597962282E+03  0.97669603256E+02  0.14932202872E+03  0.21280905190E+03  0.00000000000E+00 0.  1.
          3    1    6    6  503    0  0.93089443614E+02  0.71332578589E+03 -0.10481611711E+03  0.72697024681E+03  0.00000000000E+00 0. -1.
         -3    1    6    6    0  503  0.77443728998E+01  0.16258302615E+03  0.16773197080E+02  0.16362932453E+03  0.00000000000E+00 0.  1.
<mgrwt>
<rscale>  0 0.27865007E+04</rscale>
<asrwt>0</asrwt>
<pdfrwt beam="1">  1        1 0.21095257E+00 0.27865007E+04</pdfrwt>
<pdfrwt beam="2">  1       -2 0.21779444E+00 0.27865007E+04</pdfrwt>
<totfact> 0.62532576E-01</totfact>
</mgrwt>
</event>
<event>
12    5  0.5297412E-008  0.2106493E+04  0.7818608E-02  0.8558389E-01
         -2   -1    0    0    0  501 -0.00000000000E+00  0.00000000000E+00  0.78759766370E+03  0.78759766370E+03  0.00000000000E+00 0.  1.
          1   -1    0    0  501    0  0.00000000000E+00 -0.00000000000E+00 -0.14084955057E+04  0.14084955057E+04  0.00000000000E+00 0. -1.
        -24    2    1    2    0    0 -0.52453011434E+03 -0.44772703656E+03 -0.78616222418E+03  0.10488229552E+04  0.79920013388E+02 0.  0.
        254    2    1    2    0    0  0.52453011434E+03  0.44772703656E+03  0.16526438217E+03  0.11472702142E+04  0.90184549023E+03 0.  0.
         23    2    4    4    0    0  0.46468180340E+03  0.70002688807E+03  0.44237445356E+02  0.84699464000E+03  0.97345499065E+02 0.  0.
         23    2    4    4    0    0  0.59848310940E+02 -0.25229985151E+03  0.12102693682E+03  0.30027557419E+03  0.90999261688E+02 0.  0.
          3    1    3    3  502    0 -0.30548269488E+03 -0.21394205956E+03 -0.39579131367E+03  0.54382133619E+03  0.00000000000E+00 0. -1.
         -4    1    3    3    0  502 -0.21904741946E+03 -0.23378497700E+03 -0.39037091051E+03  0.50500161902E+03  0.00000000000E+00 0.  1.
         13    1    5    5    0    0  0.12652034787E+02  0.13985527707E+02 -0.13806641055E+02  0.23372896840E+02  0.00000000000E+00 0.  1.
        -13    1    5    5    0    0  0.45202976861E+03  0.68604136037E+03  0.58044086411E+02  0.82362174316E+03  0.00000000000E+00 0. -1.
          1    1    6    6  503    0  0.17350823155E+02 -0.77611349210E+01  0.30775967723E+02  0.36172454558E+02  0.00000000000E+00 0.  1.
         -1    1    6    6    0  503  0.42497487785E+02 -0.24453871659E+03  0.90250969092E+02  0.26410311963E+03  0.00000000000E+00 0. -1.
<mgrwt>
<rscale>  0 0.21064926E+04</rscale>
<asrwt>0</asrwt>
<pdfrwt beam="1">  1        1 0.21669162E+00 0.21064926E+04</pdfrwt>
<pdfrwt beam="2">  1       -2 0.12116887E+00 0.21064926E+04</pdfrwt>
<totfact> 0.31688153E+00</totfact>
</mgrwt>
</event>
<event>
12    5  0.5297412E-008  0.1557705E+04  0.7818608E-02  0.8846961E-01
         -2   -1    0    0    0  501 -0.00000000000E+00  0.00000000000E+00  0.15403246600E+04  0.15403246600E+04  0.00000000000E+00 0.  1.
          1   -1    0    0  501    0  0.00000000000E+00 -0.00000000000E+00 -0.39382016996E+03  0.39382016996E+03  0.00000000000E+00 0. -1.
        -24    2    1    2    0    0  0.41834166381E+03  0.27336647985E+03  0.52352916600E+03  0.72732104806E+03  0.71931490429E+02 0.  0.
        254    2    1    2    0    0 -0.41834166381E+03 -0.27336647985E+03  0.62297532404E+03  0.12068237819E+04  0.90475765054E+03 0.  0.
         23    2    4    4    0    0 -0.27290389134E+03  0.29975975611E+03  0.13966821780E+03  0.43735273932E+03  0.86242461933E+02 0.  0.
         23    2    4    4    0    0 -0.14543777247E+03 -0.57312623596E+03  0.48330710625E+03  0.76947104257E+03  0.94202433143E+02 0.  0.
          1    1    3    3  502    0  0.99854986264E+00  0.12881979195E+02  0.13951065123E+02  0.19015117877E+02  0.00000000000E+00 0. -1.
         -2    1    3    3    0  502  0.41734311395E+03  0.26048450065E+03  0.50957810087E+03  0.70830593018E+03  0.00000000000E+00 0.  1.
         13    1    5    5    0    0 -0.11255617918E+03  0.15596922623E+03  0.26818610055E+02  0.19420229362E+03  0.00000000000E+00 0.  1.
        -13    1    5    5    0    0 -0.16034771216E+03  0.14379052988E+03  0.11284960774E+03  0.24315044570E+03  0.00000000000E+00 0. -1.
          4    1    6    6  503    0 -0.13204328749E+03 -0.53877323792E+03  0.41838094494E+03  0.69480547404E+03  0.00000000000E+00 0. -1.
         -4    1    6    6    0  503 -0.13394484980E+02 -0.34352998032E+02  0.64926161309E+02  0.74665568530E+02  0.00000000000E+00 0.  1.
<mgrwt>
<rscale>  0 0.15577046E+04</rscale>
<asrwt>0</asrwt>
<pdfrwt beam="1">  1        1 0.60587719E-01 0.15577046E+04</pdfrwt>
<pdfrwt beam="2">  1       -2 0.23697302E+00 0.15577046E+04</pdfrwt>
<totfact> 0.39873845E+00</totfact>
</mgrwt>
</event>
<event>
12    5  0.5297412E-008  0.1366035E+04  0.7818608E-02  0.8978778E-01
          1   -1    0    0  501    0  0.00000000000E+00  0.00000000000E+00  0.98120066305E+03  0.98120066305E+03  0.00000000000E+00 0. -1.
         -2   -1    0    0    0  501 -0.00000000000E+00 -0.00000000000E+00 -0.47545073198E+03  0.47545073198E+03  0.00000000000E+00 0.  1.
        -24    2    1    2    0    0  0.21134483425E+03  0.85930175864E+02  0.46504241250E+03  0.52431915561E+03  0.81212667843E+02 0.  0.
        254    2    1    2    0    0 -0.21134483425E+03 -0.85930175864E+02  0.40707518568E+02  0.93233223943E+03  0.90307013489E+03 0.  0.
         23    2    4    4    0    0  0.28564736122E+03 -0.16577202022E+03 -0.16509328892E+03  0.38052349877E+03  0.92019353448E+02 0.  0.
         23    2    4    4    0    0 -0.49699219548E+03  0.79841844357E+02  0.20580080749E+03  0.55180874066E+03  0.93610637382E+02 0.  0.
          1    1    3    3  502    0  0.20360888624E+03  0.87944999609E+02  0.46617423555E+03  0.51624540618E+03  0.00000000000E+00 0. -1.
         -2    1    3    3    0  502  0.77359480148E+01 -0.20148237447E+01 -0.11318230444E+01  0.80737494272E+01  0.00000000000E+00 0.  1.
         13    1    5    5    0    0  0.27418276563E+03 -0.13752534975E+03 -0.16828828993E+03  0.34987191845E+03  0.00000000000E+00 0.  1.
        -13    1    5    5    0    0  0.11464595596E+02 -0.28246670469E+02  0.31950010126E+01  0.30651580322E+02  0.00000000000E+00 0. -1.
          2    1    6    6  503    0 -0.12441664247E+03  0.56141562546E+02  0.33008440072E+02  0.14043123970E+03  0.00000000000E+00 0.  1.
         -2    1    6    6    0  503 -0.37257555301E+03  0.23700281811E+02  0.17279236741E+03  0.41137750096E+03  0.00000000000E+00 0. -1.
<mgrwt>
<rscale>  0 0.13660345E+04</rscale>
<asrwt>0</asrwt>
<pdfrwt beam="1">  1        1 0.15095395E+00 0.13660345E+04</pdfrwt>
<pdfrwt beam="2">  1       -2 0.73146267E-01 0.13660345E+04</pdfrwt>
<totfact> 0.22645313E+01</totfact>
</mgrwt>
</event>
<event>
12    5  0.5297412E-008  0.1301403E+04  0.7818608E-02  0.9028453E-01
         -2   -1    0    0    0  501 -0.00000000000E+00  0.00000000000E+00  0.20476794335E+03  0.20476794335E+03  0.00000000000E+00 0.  1.
          1   -1    0    0  501    0  0.00000000000E+00 -0.00000000000E+00 -0.20677680329E+04  0.20677680329E+04  0.00000000000E+00 0. -1.
        -24    2    1    2    0    0 -0.64422421118E+02  0.27076033303E+03 -0.17498573655E+03  0.33747566504E+03  0.76212926820E+02 0.  0.
        254    2    1    2    0    0  0.64422421118E+02 -0.27076033303E+03 -0.16880143530E+04  0.19350603112E+04  0.90421487811E+03 0.  0.
         23    2    4    4    0    0 -0.21106366616E+03  0.20806293076E+03 -0.10042152568E+04  0.10508504700E+04  0.89444809393E+02 0.  0.
         23    2    4    4    0    0  0.27548608728E+03 -0.47882326378E+03 -0.68379909621E+03  0.88420984125E+03  0.95297099394E+02 0.  0.
          1    1    3    3  502    0 -0.47371058074E+02  0.24167785012E+03 -0.17764113164E+03  0.30365864393E+03  0.00000000000E+00 0. -1.
         -2    1    3    3    0  502 -0.17051363044E+02  0.29082482909E+02  0.26553950923E+01  0.33817021112E+02  0.00000000000E+00 0.  1.
         13    1    5    5    0    0 -0.14384516445E+03  0.94724246693E+02 -0.66494276436E+03  0.68688644922E+03  0.00000000000E+00 0.  1.
        -13    1    5    5    0    0 -0.67218501705E+02  0.11333868406E+03 -0.33927249245E+03  0.36396402076E+03  0.00000000000E+00 0. -1.
          3    1    6    6  503    0  0.27148621918E+03 -0.48233545408E+03 -0.66785066338E+03  0.86739654487E+03  0.00000000000E+00 0. -1.
         -3    1    6    6    0  503  0.39998680978E+01  0.35121902939E+01 -0.15948432831E+02  0.16813296382E+02  0.00000000000E+00 0.  1.
<mgrwt>
<rscale>  0 0.13014033E+04</rscale>
<asrwt>0</asrwt>
<pdfrwt beam="1">  1        1 0.31811814E+00 0.13014033E+04</pdfrwt>
<pdfrwt beam="2">  1       -2 0.31502762E-01 0.13014033E+04</pdfrwt>
<totfact> 0.21663710E+01</totfact>
</mgrwt>
</event>
<event>
12    5  0.5297412E-008  0.2291196E+04  0.7818608E-02  0.8481400E-01
          1   -1    0    0  501    0  0.00000000000E+00  0.00000000000E+00  0.22524999455E+04  0.22524999455E+04  0.00000000000E+00 0. -1.
         -2   -1    0    0    0  501 -0.00000000000E+00 -0.00000000000E+00 -0.58263941692E+03  0.58263941692E+03  0.00000000000E+00 0.  1.
        -24    2    1    2    0    0  0.31409431683E+03  0.44742017251E+03  0.15522637357E+04  0.16475253621E+04  0.77311466939E+02 0.  0.
        254    2    1    2    0    0 -0.31409431683E+03 -0.44742017251E+03  0.11759679288E+03  0.11876140003E+04  0.10477394511E+04 0.  0.
         23    2    4    4    0    0 -0.34026225260E+03 -0.76949143081E+03  0.84034706695E+02  0.85067514459E+03  0.93225034460E+02 0.  0.
         23    2    4    4    0    0  0.26167935767E+02  0.32207125830E+03  0.33562086180E+02  0.33693885574E+03  0.89368465319E+02 0.  0.
          3    1    3    3  502    0  0.21102252266E+03  0.25862416606E+03  0.10286606601E+04  0.10814618431E+04  0.00000000000E+00 0. -1.
         -4    1    3    3    0  502  0.10307179417E+03  0.18879600645E+03  0.52360307560E+03  0.56606351903E+03  0.00000000000E+00 0.  1.
         13    1    5    5    0    0 -0.27525761266E+03 -0.61886028135E+03  0.10455865696E+03  0.68533737232E+03  0.00000000000E+00 0.  1.
        -13    1    5    5    0    0 -0.65004639942E+02 -0.15063114947E+03 -0.20523950264E+02  0.16533777227E+03  0.00000000000E+00 0. -1.
          1    1    6    6  503    0 -0.16606828601E+01 -0.56834565388E+01 -0.15927471716E+01  0.61315894630E+01  0.00000000000E+00 0. -1.
         -1    1    6    6    0  503  0.27828618627E+02  0.32775471484E+03  0.35154833352E+02  0.33080726628E+03  0.00000000000E+00 0.  1.
<mgrwt>
<rscale>  0 0.22911964E+04</rscale>
<asrwt>0</asrwt>
<pdfrwt beam="1">  1        1 0.34653845E+00 0.22911964E+04</pdfrwt>
<pdfrwt beam="2">  1       -2 0.89636835E-01 0.22911964E+04</pdfrwt>
<totfact> 0.17006042E+00</totfact>
</mgrwt>
</event>
<event>
12    5  0.5297412E-008  0.1409154E+04  0.7818608E-02  0.8947219E-01
         -2   -1    0    0    0  501 -0.00000000000E+00  0.00000000000E+00  0.10229191138E+04  0.10229191138E+04  0.00000000000E+00 0.  1.
          1   -1    0    0  501    0  0.00000000000E+00 -0.00000000000E+00 -0.48530597850E+03  0.48530597850E+03  0.00000000000E+00 0. -1.
        -24    2    1    2    0    0 -0.13436185611E+03 -0.57121748021E+02  0.58212625955E+03  0.60544535189E+03  0.79856681576E+02 0.  0.
        254    2    1    2    0    0  0.13436185611E+03  0.57121748021E+02 -0.44513124199E+02  0.90277974046E+03  0.88978302922E+03 0.  0.
         23    2    4    4    0    0 -0.89709082001E+02 -0.35313223527E+03 -0.16824526695E+03  0.41081697601E+03  0.87829510671E+02 0.  0.
         23    2    4    4    0    0  0.22407093812E+03  0.41025398329E+03  0.12373214275E+03  0.49196276445E+03  0.90562698427E+02 0.  0.
          3    1    3    3  502    0 -0.10787114080E+02  0.90297599344E+00  0.41961528334E+01  0.11609689678E+02  0.00000000000E+00 0. -1.
         -4    1    3    3    0  502 -0.12357474203E+03 -0.58024724015E+02  0.57793010671E+03  0.59383566221E+03  0.00000000000E+00 0.  1.
         13    1    5    5    0    0  0.10360994040E+02 -0.14724076450E+02  0.35136092906E+01  0.18343774831E+02  0.00000000000E+00 0. -1.
        -13    1    5    5    0    0 -0.10007007604E+03 -0.33840815882E+03 -0.17175887624E+03  0.39247320117E+03  0.00000000000E+00 0.  1.
          3    1    6    6  503    0  0.50299221715E+02  0.15803894344E+03  0.13311424546E+02  0.16638363313E+03  0.00000000000E+00 0. -1.
         -3    1    6    6    0  503  0.17377171640E+03  0.25221503985E+03  0.11042071820E+03  0.32557913133E+03  0.00000000000E+00 0.  1.
<mgrwt>
<rscale>  0 0.14091540E+04</rscale>
<asrwt>0</asrwt>
<pdfrwt beam="1">  1        1 0.74662459E-01 0.14091540E+04</pdfrwt>
<pdfrwt beam="2">  1       -2 0.15737217E+00 0.14091540E+04</pdfrwt>
<totfact> 0.10358355E+01</totfact>
</mgrwt>
</event>
<event>
12    5  0.5297412E-008  0.1285507E+04  0.7818608E-02  0.9041138E-01
         -2   -1    0    0    0  501 -0.00000000000E+00  0.00000000000E+00  0.40776318081E+03  0.40776318081E+03  0.00000000000E+00 0.  1.
          1   -1    0    0  501    0  0.00000000000E+00 -0.00000000000E+00 -0.10131670774E+04  0.10131670774E+04  0.00000000000E+00 0. -1.
        -24    2    1    2    0    0 -0.10006438141E+03 -0.27023424170E+03 -0.34482976029E+03  0.45775746017E+03  0.87148740347E+02 0.  0.
        254    2    1    2    0    0  0.10006438141E+03  0.27023424170E+03 -0.26057413631E+03  0.96317279806E+03  0.88134189313E+03 0.  0.
         23    2    4    4    0    0 -0.12171837444E+03 -0.20285183530E+03 -0.34235735736E+03  0.42644292354E+03  0.93170688172E+02 0.  0.
         23    2    4    4    0    0  0.22178275584E+03  0.47308607701E+03  0.81783221053E+02  0.53672987452E+03  0.91610239102E+02 0.  0.
          3    1    3    3  502    0 -0.34520610300E+02 -0.62038089684E+02 -0.14669169596E+03  0.16296886442E+03  0.00000000000E+00 0. -1.
         -4    1    3    3    0  502 -0.65543771107E+02 -0.20819615202E+03 -0.19813806433E+03  0.29478859574E+03  0.00000000000E+00 0.  1.
         13    1    5    5    0    0 -0.29169670830E+02 -0.29282229082E+02 -0.13929557011E+02  0.43615951152E+02  0.00000000000E+00 0. -1.
        -13    1    5    5    0    0 -0.92548703607E+02 -0.17356960622E+03 -0.32842780035E+03  0.38282697239E+03  0.00000000000E+00 0.  1.
          1    1    6    6  503    0  0.24849662629E+02  0.98582172219E+02 -0.14753641283E+02  0.10273081496E+03  0.00000000000E+00 0. -1.
         -1    1    6    6    0  503  0.19693309322E+03  0.37450390479E+03  0.96536862336E+02  0.43399905955E+03  0.00000000000E+00 0.  1.
<mgrwt>
<rscale>  0 0.12855073E+04</rscale>
<asrwt>0</asrwt>
<pdfrwt beam="1">  1        1 0.15587186E+00 0.12855073E+04</pdfrwt>
<pdfrwt beam="2">  1       -2 0.62732797E-01 0.12855073E+04</pdfrwt>
<totfact> 0.30020908E+01</totfact>
</mgrwt>
</event>
<event>
12    5  0.5297412E-008  0.2418022E+04  0.7818608E-02  0.8432787E-01
         -2   -1    0    0    0  501 -0.00000000000E+00  0.00000000000E+00  0.68954319045E+03  0.68954319045E+03  0.00000000000E+00 0.  1.
          1   -1    0    0  501    0  0.00000000000E+00 -0.00000000000E+00 -0.21198202164E+04  0.21198202164E+04  0.00000000000E+00 0. -1.
        -24    2    1    2    0    0  0.52651522955E+03  0.77901007448E+03 -0.11147603059E+04  0.14605344443E+04  0.79970870468E+02 0.  0.
        254    2    1    2    0    0 -0.52651522955E+03 -0.77901007448E+03 -0.31551672005E+03  0.13488289626E+04  0.91417382737E+03 0.  0.
         23    2    4    4    0    0  0.23742411568E+03 -0.29965959083E+03 -0.19692201255E+02  0.39548504233E+03  0.99270110462E+02 0.  0.
         23    2    4    4    0    0 -0.76393934524E+03 -0.47935048365E+03 -0.29582451880E+03  0.95334392028E+03  0.89287597314E+02 0.  0.
          3    1    3    3  502    0  0.30591454090E+03  0.50611670651E+03 -0.73703965741E+03  0.94496840346E+03  0.00000000000E+00 0. -1.
         -4    1    3    3    0  502  0.22060068865E+03  0.27289336797E+03 -0.37772064851E+03  0.51556604080E+03  0.00000000000E+00 0.  1.
         13    1    5    5    0    0  0.21928193070E+03 -0.30353374170E+03 -0.27265873680E+02  0.37544736695E+03  0.00000000000E+00 0. -1.
        -13    1    5    5    0    0  0.18142184981E+02  0.38741508623E+01  0.75736724250E+01  0.20037675384E+02  0.00000000000E+00 0.  1.
          1    1    6    6  503    0 -0.72702727623E+03 -0.45535925969E+03 -0.30074084978E+03  0.90904662944E+03  0.00000000000E+00 0. -1.
         -1    1    6    6    0  503 -0.36912069009E+02 -0.23991223956E+02  0.49163309814E+01  0.44297290839E+02  0.00000000000E+00 0.  1.
<mgrwt>
<rscale>  0 0.24180220E+04</rscale>
<asrwt>0</asrwt>
<pdfrwt beam="1">  1        1 0.32612619E+00 0.24180220E+04</pdfrwt>
<pdfrwt beam="2">  1       -2 0.10608357E+00 0.24180220E+04</pdfrwt>
<totfact> 0.13929398E+00</totfact>
</mgrwt>
</event>
<event>
12    5  0.5297412E-008  0.1865703E+04  0.7818608E-02  0.8672119E-01
          1   -1    0    0  501    0  0.00000000000E+00  0.00000000000E+00  0.98339681482E+03  0.98339681482E+03  0.00000000000E+00 0. -1.
         -2   -1    0    0    0  501 -0.00000000000E+00 -0.00000000000E+00 -0.88490427814E+03  0.88490427814E+03  0.00000000000E+00 0.  1.
        -24    2    1    2    0    0  0.25156363139E+03 -0.62039563660E+03  0.26334866686E+03  0.72436645697E+03  0.84730378779E+02 0.  0.
        254    2    1    2    0    0 -0.25156363139E+03  0.62039563660E+03 -0.16485613018E+03  0.11439346360E+04  0.91281646633E+03 0.  0.
         23    2    4    4    0    0 -0.40679847278E+03 -0.65166006763E+02 -0.38062209289E+02  0.42357628576E+03  0.90755342469E+02 0.  0.
         23    2    4    4    0    0  0.15523484139E+03  0.68556164337E+03 -0.12679392089E+03  0.72035835023E+03  0.93524496983E+02 0.  0.
          3    1    3    3  502    0  0.12483506500E+03 -0.31119981076E+03  0.86438990869E+02  0.34626697043E+03  0.00000000000E+00 0. -1.
         -4    1    3    3    0  502  0.12672856639E+03 -0.30919582584E+03  0.17690967599E+03  0.37809948653E+03  0.00000000000E+00 0.  1.
         13    1    5    5    0    0 -0.39444731031E+02 -0.89616210013E+00  0.23011277838E+02  0.45675034979E+02  0.00000000000E+00 0. -1.
        -13    1    5    5    0    0 -0.36735374175E+03 -0.64269844663E+02 -0.61073487127E+02  0.37790125078E+03  0.00000000000E+00 0.  1.
          1    1    6    6  503    0  0.48476862971E+02  0.18555744713E+03  0.68438481944E+01  0.19190729712E+03  0.00000000000E+00 0. -1.
         -1    1    6    6    0  503  0.10675797842E+03  0.50000419624E+03 -0.13363776909E+03  0.52845105312E+03  0.00000000000E+00 0.  1.
<mgrwt>
<rscale>  0 0.18657031E+04</rscale>
<asrwt>0</asrwt>
<pdfrwt beam="1">  1        1 0.15129182E+00 0.18657031E+04</pdfrwt>
<pdfrwt beam="2">  1       -2 0.13613912E+00 0.18657031E+04</pdfrwt>
<totfact> 0.49516775E+00</totfact>
</mgrwt>
</event>
<event>
12    5  0.5297412E-008  0.1671165E+04  0.7818608E-02  0.8777983E-01
          1   -1    0    0  501    0  0.00000000000E+00  0.00000000000E+00  0.18860349137E+04  0.18860349137E+04  0.00000000000E+00 0. -1.
         -2   -1    0    0    0  501 -0.00000000000E+00 -0.00000000000E+00 -0.37019362563E+03  0.37019362563E+03  0.00000000000E+00 0.  1.
        -24    2    1    2    0    0  0.33211119381E+03  0.18071554119E+03 -0.67351274841E+02  0.39274145277E+03  0.82180914004E+02 0.  0.
        254    2    1    2    0    0 -0.33211119381E+03 -0.18071554119E+03  0.15831925629E+04  0.18634870865E+04  0.90726483378E+03 0.  0.
         23    2    4    4    0    0  0.15892622614E+03 -0.36155600691E+03  0.97703959135E+03  0.10577516525E+04  0.90839989797E+02 0.  0.
         23    2    4    4    0    0 -0.49103741995E+03  0.18084046572E+03  0.60615297152E+03  0.80573543405E+03  0.89258853741E+02 0.  0.
          3    1    3    3  502    0  0.12232499747E+03  0.27909962476E+02 -0.40378887449E+02  0.13180601490E+03  0.00000000000E+00 0. -1.
         -4    1    3    3    0  502  0.20978619634E+03  0.15280557871E+03 -0.26972387392E+02  0.26093543788E+03  0.00000000000E+00 0.  1.
         13    1    5    5    0    0  0.42807449016E+02 -0.72305833768E+02  0.31492499085E+03  0.32594226659E+03  0.00000000000E+00 0.  1.
        -13    1    5    5    0    0  0.11611877713E+03 -0.28925017314E+03  0.66211460049E+03  0.73180938587E+03  0.00000000000E+00 0. -1.
          2    1    6    6  503    0 -0.28264701721E+03  0.10988669529E+03  0.41626097241E+03  0.51501225159E+03  0.00000000000E+00 0. -1.
         -2    1    6    6    0  503 -0.20839040274E+03  0.70953770431E+02  0.18989199911E+03  0.29072318246E+03  0.00000000000E+00 0.  1.
<mgrwt>
<rscale>  0 0.16711650E+04</rscale>
<asrwt>0</asrwt>
<pdfrwt beam="1">  1        1 0.29015921E+00 0.16711650E+04</pdfrwt>
<pdfrwt beam="2">  1       -2 0.56952867E-01 0.16711650E+04</pdfrwt>
<totfact> 0.86209238E+00</totfact>
</mgrwt>
</event>
<event>
12    5  0.5297412E-008  0.3170155E+04  0.7818608E-02  0.8196744E-01
         -2   -1    0    0    0  501 -0.00000000000E+00  0.00000000000E+00  0.14469426426E+04  0.14469426426E+04  0.00000000000E+00 0.  1.
          1   -1    0    0  501    0  0.00000000000E+00 -0.00000000000E+00 -0.17363995429E+04  0.17363995429E+04  0.00000000000E+00 0. -1.
        -24    2    1    2    0    0  0.95075263248E+03 -0.18904509523E+03  0.95851925928E+03  0.13654868039E+04  0.78271482803E+02 0.  0.
        254    2    1    2    0    0 -0.95075263248E+03  0.18904509523E+03 -0.12479761596E+04  0.18178553816E+04  0.89860173465E+03 0.  0.
         23    2    4    4    0    0 -0.24860916879E+03  0.41229875067E+03 -0.83447269778E+03  0.96753170560E+03  0.89309234646E+02 0.  0.
         23    2    4    4    0    0 -0.70214346369E+03 -0.22325365543E+03 -0.41350346180E+03  0.85032367605E+03  0.96008347877E+02 0.  0.
          1    1    3    3  502    0  0.14111851415E+03 -0.52876047831E+02  0.16946103665E+03  0.22677600052E+03  0.00000000000E+00 0. -1.
         -2    1    3    3    0  502  0.80963411833E+03 -0.13616904740E+03  0.78905822263E+03  0.11387108034E+04  0.00000000000E+00 0.  1.
         13    1    5    5    0    0 -0.22445487149E+03  0.29973329054E+03 -0.64552818020E+03  0.74627519470E+03  0.00000000000E+00 0.  1.
        -13    1    5    5    0    0 -0.24154297299E+02  0.11256546013E+03 -0.18894451758E+03  0.22125651090E+03  0.00000000000E+00 0. -1.
          3    1    6    6  503    0 -0.56295041976E+03 -0.20409915817E+03 -0.30029280115E+03  0.66988462282E+03  0.00000000000E+00 0.  1.
         -3    1    6    6    0  503 -0.13919304393E+03 -0.19154497260E+02 -0.11321066065E+03  0.18043905322E+03  0.00000000000E+00 0. -1.
<mgrwt>
<rscale>  0 0.31701549E+04</rscale>
<asrwt>0</asrwt>
<pdfrwt beam="1">  1        1 0.26713839E+00 0.31701549E+04</pdfrwt>
<pdfrwt beam="2">  1       -2 0.22260656E+00 0.31701549E+04</pdfrwt>
<totfact> 0.31570385E-01</totfact>
</mgrwt>
</event>
<event>
12    5  0.5297412E-008  0.2171184E+04  0.7818608E-02  0.8530519E-01
          1   -1    0    0  501    0  0.00000000000E+00  0.00000000000E+00  0.10424773223E+04  0.10424773223E+04  0.00000000000E+00 0. -1.
         -2   -1    0    0    0  501 -0.00000000000E+00 -0.00000000000E+00 -0.11304899093E+04  0.11304899093E+04  0.00000000000E+00 0.  1.
        -24    2    1    2    0    0 -0.10794507675E+03 -0.83714829159E+03 -0.34858507774E+03  0.91672038620E+03  0.79970671839E+02 0.  0.
        254    2    1    2    0    0  0.10794507675E+03  0.83714829159E+03  0.26057249070E+03  0.12562468454E+04  0.89319018807E+03 0.  0.
         23    2    4    4    0    0 -0.24218987822E+03  0.82569780011E+03  0.22193856311E+03  0.89329317665E+03  0.91011974130E+02 0.  0.
         23    2    4    4    0    0  0.35013495498E+03  0.11450491473E+02  0.38633927593E+02  0.36295366879E+03  0.86701700502E+02 0.  0.
          1    1    3    3  502    0 -0.45599688804E+01 -0.29268191635E+03 -0.14119725696E+03  0.32499255814E+03  0.00000000000E+00 0. -1.
         -4    1    3    3    0  502 -0.10338510787E+03 -0.54446637524E+03 -0.20738782078E+03  0.59172782807E+03  0.00000000000E+00 0.  1.
         13    1    5    5    0    0 -0.19935959037E+03  0.72171452900E+03  0.22155218413E+03  0.78083383504E+03  0.00000000000E+00 0. -1.
        -13    1    5    5    0    0 -0.42830287852E+02  0.10398327111E+03  0.38637898462E+00  0.11245934162E+03  0.00000000000E+00 0.  1.
          2    1    6    6  503    0  0.19751349070E+03 -0.31352874520E+02  0.78728246739E+00  0.19998800355E+03  0.00000000000E+00 0. -1.
         -2    1    6    6    0  503  0.15262146428E+03  0.42803365993E+02  0.37846645126E+02  0.16296566524E+03  0.00000000000E+00 0.  1.
<mgrwt>
<rscale>  0 0.21711841E+04</rscale>
<asrwt>0</asrwt>
<pdfrwt beam="1">  1        1 0.16038113E+00 0.21711841E+04</pdfrwt>
<pdfrwt beam="2">  1       -2 0.17392152E+00 0.21711841E+04</pdfrwt>
<totfact> 0.22472095E+00</totfact>
</mgrwt>
</event>
<event>
12    5  0.5297412E-008  0.2806926E+04  0.7818608E-02  0.8301121E-01
          1   -1    0    0  501    0  0.00000000000E+00  0.00000000000E+00  0.24974554675E+04  0.24974554675E+04  0.00000000000E+00 0. -1.
         -2   -1    0    0    0  501 -0.00000000000E+00 -0.00000000000E+00 -0.78868624754E+03  0.78868624754E+03  0.00000000000E+00 0.  1.
        -24    2    1    2    0    0  0.47492599278E+03 -0.30923497148E+03 -0.54356531821E+03  0.78921450278E+03  0.78837237674E+02 0.  0.
        254    2    1    2    0    0 -0.47492599278E+03  0.30923497148E+03  0.22523345382E+04  0.24969272122E+04  0.91676260027E+03 0.  0.
         23    2    4    4    0    0 -0.16858643160E+03  0.20387753497E+03  0.69414264394E+02  0.28819688454E+03  0.90838703055E+02 0.  0.
         23    2    4    4    0    0 -0.30633956118E+03  0.10535743651E+03  0.21829202738E+04  0.22087303277E+04  0.91676729412E+02 0.  0.
          3    1    3    3  502    0  0.60364807829E+02 -0.28453843522E+02 -0.10044394661E+03  0.12059236147E+03  0.00000000000E+00 0. -1.
         -4    1    3    3    0  502  0.41456118495E+03 -0.28078112795E+03 -0.44312137160E+03  0.66862214131E+03  0.00000000000E+00 0.  1.
         13    1    5    5    0    0 -0.10114505352E+03  0.17249686716E+03  0.24894888806E+02  0.20150743540E+03  0.00000000000E+00 0.  1.
        -13    1    5    5    0    0 -0.67441378086E+02  0.31380667805E+02  0.44519375588E+02  0.86689449144E+02  0.00000000000E+00 0. -1.
          2    1    6    6  503    0 -0.13351100859E+03  0.90720455576E+00  0.77848499071E+03  0.78985118421E+03  0.00000000000E+00 0. -1.
         -2    1    6    6    0  503 -0.17282855259E+03  0.10445023195E+03  0.14044352830E+04  0.14188791435E+04  0.00000000000E+00 0.  1.
<mgrwt>
<rscale>  0 0.28069263E+04</rscale>
<asrwt>0</asrwt>
<pdfrwt beam="1">  1        1 0.38422391E+00 0.28069263E+04</pdfrwt>
<pdfrwt beam="2">  1       -2 0.12133635E+00 0.28069263E+04</pdfrwt>
<totfact> 0.53453400E-01</totfact>
</mgrwt>
</event>
<event>
12    5  0.5297412E-008  0.1436872E+04  0.7818608E-02  0.8927553E-01
         -2   -1    0    0    0  501 -0.00000000000E+00  0.00000000000E+00  0.47411520142E+03  0.47411520142E+03  0.00000000000E+00 0.  1.
          1   -1    0    0  501    0  0.00000000000E+00 -0.00000000000E+00 -0.10886600673E+04  0.10886600673E+04  0.00000000000E+00 0. -1.
        -24    2    1    2    0    0  0.32540129549E+03  0.13359682909E+03 -0.47830872346E+03  0.59898971796E+03  0.79216989508E+02 0.  0.
        254    2    1    2    0    0 -0.32540129549E+03 -0.13359682909E+03 -0.13623614245E+03  0.96378555079E+03  0.88689806943E+03 0.  0.
         23    2    4    4    0    0  0.10317293048E+03  0.28214353630E+03 -0.17198360662E+03  0.35787875953E+03  0.90825199808E+02 0.  0.
         23    2    4    4    0    0 -0.42857422597E+03 -0.41574036539E+03  0.35747464171E+02  0.60590679126E+03  0.96587990542E+02 0.  0.
          3    1    3    3  502    0  0.26960425644E+03  0.14073711207E+03 -0.41051642559E+03  0.51089835141E+03  0.00000000000E+00 0. -1.
         -4    1    3    3    0  502  0.55797039055E+02 -0.71402829703E+01 -0.67792297873E+02  0.88091366541E+02  0.00000000000E+00 0.  1.
         13    1    5    5    0    0  0.87076914510E+02  0.11310079453E+03 -0.62397844525E+02  0.15578083889E+03  0.00000000000E+00 0.  1.
        -13    1    5    5    0    0  0.16096015973E+02  0.16904274177E+03 -0.10958576210E+03  0.20209792064E+03  0.00000000000E+00 0. -1.
          2    1    6    6  503    0 -0.92920517653E+02 -0.15101380941E+03  0.67748193077E+01  0.17744095190E+03  0.00000000000E+00 0. -1.
         -2    1    6    6    0  503 -0.33565370832E+03 -0.26472655598E+03  0.28972644863E+02  0.42846583936E+03  0.00000000000E+00 0.  1.
<mgrwt>
<rscale>  0 0.14368720E+04</rscale>
<asrwt>0</asrwt>
<pdfrwt beam="1">  1        1 0.16748616E+00 0.14368720E+04</pdfrwt>
<pdfrwt beam="2">  1       -2 0.72940802E-01 0.14368720E+04</pdfrwt>
<totfact> 0.18722746E+01</totfact>
</mgrwt>
</event>
<event>
12    5  0.5297412E-008  0.1757315E+04  0.7818608E-02  0.8729334E-01
         -4   -1    0    0    0  501 -0.00000000000E+00  0.00000000000E+00  0.65195853519E+03  0.65195853519E+03  0.00000000000E+00 0.  1.
          3   -1    0    0  501    0  0.00000000000E+00 -0.00000000000E+00 -0.11841838990E+04  0.11841838990E+04  0.00000000000E+00 0. -1.
        -24    2    1    2    0    0  0.26645451145E+03 -0.18271465038E+03  0.38898560308E+03  0.51181522140E+03  0.79135145895E+02 0.  0.
        254    2    1    2    0    0 -0.26645451145E+03  0.18271465038E+03 -0.92121096688E+03  0.13243272128E+04  0.89489120618E+03 0.  0.
         23    2    4    4    0    0 -0.56810977779E+03  0.15434575210E+03 -0.40915136647E+03  0.72258349009E+03  0.90281386007E+02 0.  0.
         23    2    4    4    0    0  0.30165526634E+03  0.28368898288E+02 -0.51205960041E+03  0.60174372270E+03  0.89943200603E+02 0.  0.
          1    1    3    3  502    0  0.59306930752E+02 -0.69868325401E+01  0.88288824614E+02  0.10658820017E+03  0.00000000000E+00 0. -1.
         -2    1    3    3    0  502  0.20714758070E+03 -0.17572781784E+03  0.30069677846E+03  0.40522702122E+03  0.00000000000E+00 0.  1.
         13    1    5    5    0    0 -0.63640671265E+02  0.28244422658E+01 -0.17090244386E+02  0.65955962326E+02  0.00000000000E+00 0. -1.
        -13    1    5    5    0    0 -0.50446910652E+03  0.15152130983E+03 -0.39206112209E+03  0.65662752777E+03  0.00000000000E+00 0.  1.
          4    1    6    6  503    0 -0.21900037446E+01  0.11211558750E+02 -0.23917024968E+02  0.26505079689E+02  0.00000000000E+00 0. -1.
         -4    1    6    6    0  503  0.30384527008E+03  0.17157339539E+02 -0.48814257545E+03  0.57523864301E+03  0.00000000000E+00 0.  1.
<mgrwt>
<rscale>  0 0.17573148E+04</rscale>
<asrwt>0</asrwt>
<pdfrwt beam="1">  1        3 0.18218214E+00 0.17573148E+04</pdfrwt>
<pdfrwt beam="2">  1       -4 0.10030131E+00 0.17573148E+04</pdfrwt>
<totfact> 0.34164910E-01</totfact>
</mgrwt>
</event>
<event>
12    5  0.5297412E-008  0.1750031E+04  0.7818608E-02  0.8733333E-01
          1   -1    0    0  501    0  0.00000000000E+00  0.00000000000E+00  0.15109155991E+04  0.15109155991E+04  0.00000000000E+00 0. -1.
         -2   -1    0    0    0  501 -0.00000000000E+00 -0.00000000000E+00 -0.50674723777E+03  0.50674723777E+03  0.00000000000E+00 0.  1.
        -24    2    1    2    0    0 -0.21648139270E+03  0.33122375629E+02 -0.31711047255E+03  0.39318243831E+03  0.77923634678E+02 0.  0.
        254    2    1    2    0    0  0.21648139270E+03 -0.33122375629E+02  0.13212788338E+04  0.16244803985E+04  0.91934624777E+03 0.  0.
         23    2    4    4    0    0 -0.12091233248E+03 -0.12908500599E+03 -0.51029805393E+02  0.20504756697E+03  0.90320168091E+02 0.  0.
         23    2    4    4    0    0  0.33739372518E+03  0.95962630365E+02  0.13723086392E+04  0.14194328316E+04  0.92277894192E+02 0.  0.
          1    1    3    3  502    0 -0.30025720024E+02  0.34805264816E+02 -0.60640666868E+02  0.76093631797E+02  0.00000000000E+00 0. -1.
         -2    1    3    3    0  502 -0.18645567267E+03 -0.16828891870E+01 -0.25646980569E+03  0.31708880651E+03  0.00000000000E+00 0.  1.
         13    1    5    5    0    0 -0.10499395887E+03 -0.13386496122E+03 -0.21929871990E+02  0.17153564798E+03  0.00000000000E+00 0. -1.
        -13    1    5    5    0    0 -0.15918373610E+02  0.47799552294E+01 -0.29099933402E+02  0.33511918990E+02  0.00000000000E+00 0.  1.
          2    1    6    6  503    0  0.28507032578E+03  0.11449120741E+03  0.11630841370E+04  0.12029705055E+04  0.00000000000E+00 0. -1.
         -2    1    6    6    0  503  0.52323399398E+02 -0.18528577040E+02  0.20922450221E+03  0.21646232609E+03  0.00000000000E+00 0.  1.
<mgrwt>
<rscale>  0 0.17500312E+04</rscale>
<asrwt>0</asrwt>
<pdfrwt beam="1">  1        1 0.23244855E+00 0.17500312E+04</pdfrwt>
<pdfrwt beam="2">  1       -2 0.77961114E-01 0.17500312E+04</pdfrwt>
<totfact> 0.78305497E+00</totfact>
</mgrwt>
</event>
<event>
12    5  0.5297412E-008  0.1960672E+04  0.7818608E-02  0.8625232E-01
         -2   -1    0    0    0  501 -0.00000000000E+00  0.00000000000E+00  0.88026727356E+03  0.88026727356E+03  0.00000000000E+00 0.  1.
          1   -1    0    0  501    0  0.00000000000E+00 -0.00000000000E+00 -0.10917808876E+04  0.10917808876E+04  0.00000000000E+00 0. -1.
        -24    2    1    2    0    0  0.45293640585E+03  0.19409496734E+03  0.51490672909E+03  0.71749007425E+03  0.82697175824E+02 0.  0.
        254    2    1    2    0    0 -0.45293640585E+03 -0.19409496734E+03 -0.72642034312E+03  0.12545580869E+04  0.89632875355E+03 0.  0.
         23    2    4    4    0    0 -0.48569986209E+03  0.25660769466E+03 -0.34070454882E+03  0.65277201124E+03  0.90993648596E+02 0.  0.
         23    2    4    4    0    0  0.32763456233E+02 -0.45070266199E+03 -0.38571579430E+03  0.60178607567E+03  0.95726032522E+02 0.  0.
          1    1    3    3  502    0  0.13550486555E+02 -0.79758489696E+01  0.20985809861E+02  0.26222777659E+02  0.00000000000E+00 0. -1.
         -2    1    3    3    0  502  0.43938591930E+03  0.20207081631E+03  0.49392091923E+03  0.69126729659E+03  0.00000000000E+00 0.  1.
         13    1    5    5    0    0 -0.26787084112E+03  0.90971926110E+02 -0.16326000332E+03  0.32662594439E+03  0.00000000000E+00 0.  1.
        -13    1    5    5    0    0 -0.21782902097E+03  0.16563576855E+03 -0.17744454549E+03  0.32614606686E+03  0.00000000000E+00 0. -1.
          1    1    6    6  503    0  0.26689057155E+02 -0.13627772568E+03 -0.17425334728E+03  0.22281865569E+03  0.00000000000E+00 0. -1.
         -1    1    6    6    0  503  0.60743990782E+01 -0.31442493631E+03 -0.21146244702E+03  0.37896741997E+03  0.00000000000E+00 0.  1.
<mgrwt>
<rscale>  0 0.19606723E+04</rscale>
<asrwt>0</asrwt>
<pdfrwt beam="1">  1        1 0.16796629E+00 0.19606723E+04</pdfrwt>
<pdfrwt beam="2">  1       -2 0.13542573E+00 0.19606723E+04</pdfrwt>
<totfact> 0.41080657E+00</totfact>
</mgrwt>
</event>
<event>
12    5  0.5297412E-008  0.1204680E+04  0.7818608E-02  0.9108770E-01
         -2   -1    0    0    0  501 -0.00000000000E+00  0.00000000000E+00  0.41778105524E+03  0.41778105524E+03  0.00000000000E+00 0.  1.
          1   -1    0    0  501    0  0.00000000000E+00 -0.00000000000E+00 -0.86842957590E+03  0.86842957590E+03  0.00000000000E+00 0. -1.
        -24    2    1    2    0    0  0.11829871411E+03  0.19404264543E+03 -0.26083325066E+03  0.35524244602E+03  0.80722219986E+02 0.  0.
        254    2    1    2    0    0 -0.11829871411E+03 -0.19404264543E+03 -0.18981526999E+03  0.93096818512E+03  0.88262381057E+03 0.  0.
         23    2    4    4    0    0  0.11861267964E+00 -0.41566974199E+03 -0.40669319859E+03  0.58850876516E+03  0.90343015337E+02 0.  0.
         23    2    4    4    0    0 -0.11841732679E+03  0.22162709656E+03  0.21687792860E+03  0.34245941996E+03  0.84268530243E+02 0.  0.
          3    1    3    3  502    0  0.12504368212E+03  0.18092005472E+03 -0.21687205754E+03  0.30887129679E+03  0.00000000000E+00 0. -1.
         -4    1    3    3    0  502 -0.67449680150E+01  0.13122590714E+02 -0.43961193124E+02  0.46371149236E+02  0.00000000000E+00 0.  1.
         13    1    5    5    0    0  0.25434298857E+02 -0.38292881235E+03 -0.36138747290E+03  0.52714541112E+03  0.00000000000E+00 0. -1.
        -13    1    5    5    0    0 -0.25315686178E+02 -0.32740929640E+02 -0.45305725686E+02  0.61363354050E+02  0.00000000000E+00 0.  1.
          2    1    6    6  503    0 -0.33428897833E+02  0.90123978854E+02  0.13511996030E+03  0.16582287673E+03  0.00000000000E+00 0.  1.
         -2    1    6    6    0  503 -0.84988428954E+02  0.13150311771E+03  0.81757968297E+02  0.17663654323E+03  0.00000000000E+00 0. -1.
<mgrwt>
<rscale>  0 0.12046799E+04</rscale>
<asrwt>0</asrwt>
<pdfrwt beam="1">  1        1 0.13360455E+00 0.12046799E+04</pdfrwt>
<pdfrwt beam="2">  1       -2 0.64274009E-01 0.12046799E+04</pdfrwt>
<totfact> 0.37482382E+01</totfact>
</mgrwt>
</event>
<event>
12    5  0.5297412E-008  0.1466818E+04  0.7818608E-02  0.8906823E-01
         -2   -1    0    0    0  501 -0.00000000000E+00  0.00000000000E+00  0.15124089975E+04  0.15124089975E+04  0.00000000000E+00 0.  1.
          1   -1    0    0  501    0  0.00000000000E+00 -0.00000000000E+00 -0.35565045686E+03  0.35565045686E+03  0.00000000000E+00 0. -1.
        -24    2    1    2    0    0 -0.13461573296E+03 -0.23883069440E+03  0.82715029748E+03  0.87478355234E+03  0.76858003359E+02 0.  0.
        254    2    1    2    0    0  0.13461573296E+03  0.23883069440E+03  0.32960824317E+03  0.99327590203E+03  0.89598768265E+03 0.  0.
         23    2    4    4    0    0  0.29751022995E+03  0.49919050605E+03  0.32773392510E+03  0.67323086044E+03  0.90148585834E+02 0.  0.
         23    2    4    4    0    0 -0.16289449699E+03 -0.26035981166E+03  0.18743180706E+01  0.32004504160E+03  0.90019258545E+02 0.  0.
          3    1    3    3  502    0 -0.18188138966E+02 -0.86478764079E+02  0.19281729890E+03  0.21210350254E+03  0.00000000000E+00 0. -1.
         -4    1    3    3    0  502 -0.11642759399E+03 -0.15235193032E+03  0.63433299858E+03  0.66268004980E+03  0.00000000000E+00 0.  1.
         13    1    5    5    0    0  0.26962372985E+03  0.38174639165E+03  0.25977921827E+03  0.53470786929E+03  0.00000000000E+00 0. -1.
        -13    1    5    5    0    0  0.27886500092E+02  0.11744411441E+03  0.67954706829E+02  0.13852299115E+03  0.00000000000E+00 0.  1.
          2    1    6    6  503    0 -0.12246492661E+03 -0.20901883947E+03 -0.35380342223E+02  0.24482300161E+03  0.00000000000E+00 0. -1.
         -2    1    6    6    0  503 -0.40429570381E+02 -0.51340972187E+02  0.37254660294E+02  0.75222039988E+02  0.00000000000E+00 0.  1.
<mgrwt>
<rscale>  0 0.14668183E+04</rscale>
<asrwt>0</asrwt>
<pdfrwt beam="1">  1        1 0.54715456E-01 0.14668183E+04</pdfrwt>
<pdfrwt beam="2">  1       -2 0.23267830E+00 0.14668183E+04</pdfrwt>
<totfact> 0.48881631E+00</totfact>
</mgrwt>
</event>
<event>
12    5  0.5297412E-008  0.1897646E+04  0.7818608E-02  0.8656029E-01
         -2   -1    0    0    0  501 -0.00000000000E+00  0.00000000000E+00  0.17227696852E+04  0.17227696852E+04  0.00000000000E+00 0.  1.
          1   -1    0    0  501    0  0.00000000000E+00 -0.00000000000E+00 -0.52256868505E+03  0.52256868505E+03  0.00000000000E+00 0. -1.
        -24    2    1    2    0    0  0.21254405455E+03 -0.10096754962E+03  0.12961202573E+04  0.13197045586E+04  0.79517163211E+02 0.  0.
        254    2    1    2    0    0 -0.21254405455E+03  0.10096754962E+03 -0.95919257243E+02  0.92563381162E+03  0.89007192300E+03 0.  0.
         23    2    4    4    0    0 -0.64425861628E+02  0.35473804302E+03  0.26117002464E+03  0.45440998531E+03  0.91043298297E+02 0.  0.
         23    2    4    4    0    0 -0.14811819292E+03 -0.25377049341E+03 -0.35708928189E+03  0.47122382631E+03  0.90557588575E+02 0.  0.
          1    1    3    3  502    0  0.22772351607E+02  0.93936100313E+01  0.73125730811E+02  0.77163413699E+02  0.00000000000E+00 0. -1.
         -2    1    3    3    0  502  0.18977170294E+03 -0.11036115965E+03  0.12229945265E+04  0.12425411449E+04  0.00000000000E+00 0.  1.
         13    1    5    5    0    0 -0.34580487519E+02  0.17736882680E+03  0.75318660772E+02  0.19577643244E+03  0.00000000000E+00 0. -1.
        -13    1    5    5    0    0 -0.29845374110E+02  0.17736921622E+03  0.18585136387E+03  0.25863355287E+03  0.00000000000E+00 0.  1.
          3    1    6    6  503    0 -0.27765374127E+02 -0.10004107907E+03 -0.74652244883E+02  0.12787529538E+03  0.00000000000E+00 0. -1.
         -3    1    6    6    0  503 -0.12035281879E+03 -0.15372941434E+03 -0.28243703700E+03  0.34334853093E+03  0.00000000000E+00 0.  1.
<mgrwt>
<rscale>  0 0.18976464E+04</rscale>
<asrwt>0</asrwt>
<pdfrwt beam="1">  1        1 0.80395183E-01 0.18976464E+04</pdfrwt>
<pdfrwt beam="2">  1       -2 0.26504149E+00 0.18976464E+04</pdfrwt>
<totfact> 0.17748352E+00</totfact>
</mgrwt>
</event>
<event>
12    5  0.5297412E-008  0.1351431E+04  0.7818608E-02  0.8989745E-01
          1   -1    0    0  501    0  0.00000000000E+00  0.00000000000E+00  0.87785529440E+03  0.87785529440E+03  0.00000000000E+00 0. -1.
         -2   -1    0    0    0  501 -0.00000000000E+00 -0.00000000000E+00 -0.52012159338E+03  0.52012159338E+03  0.00000000000E+00 0.  1.
        -24    2    1    2    0    0 -0.51964379102E+01  0.26418622485E+03 -0.16522785521E+03  0.32204762856E+03  0.81197700454E+02 0.  0.
        254    2    1    2    0    0  0.51964379102E+01 -0.26418622485E+03  0.52296155624E+03  0.10759292592E+04  0.90239327190E+03 0.  0.
         23    2    4    4    0    0 -0.14913864434E+03 -0.23289023559E+03 -0.18503666217E+03  0.34492245901E+03  0.90844588807E+02 0.  0.
         23    2    4    4    0    0  0.15433508225E+03 -0.31295989261E+02  0.70799821840E+03  0.73100680020E+03  0.91163085285E+02 0.  0.
          1    1    3    3  502    0 -0.14687128701E+02  0.10420553557E+03 -0.22876551334E+02  0.10769327738E+03  0.00000000000E+00 0. -1.
         -2    1    3    3    0  502  0.94906907907E+01  0.15998068928E+03 -0.14235130388E+03  0.21435435118E+03  0.00000000000E+00 0.  1.
         13    1    5    5    0    0 -0.50327087596E+02 -0.14549149337E+03 -0.66969447502E+02  0.16788536949E+03  0.00000000000E+00 0. -1.
        -13    1    5    5    0    0 -0.98811556748E+02 -0.87398742216E+02 -0.11806721467E+03  0.17703708952E+03  0.00000000000E+00 0.  1.
          4    1    6    6  503    0  0.10999829157E+03  0.20924585471E+02  0.48313514489E+03  0.49594055153E+03  0.00000000000E+00 0. -1.
         -4    1    6    6    0  503  0.44336790688E+02 -0.52220574732E+02  0.22486307352E+03  0.23506624867E+03  0.00000000000E+00 0.  1.
<mgrwt>
<rscale>  0 0.13514311E+04</rscale>
<asrwt>0</asrwt>
<pdfrwt beam="1">  1        1 0.13505466E+00 0.13514311E+04</pdfrwt>
<pdfrwt beam="2">  1       -2 0.80018707E-01 0.13514311E+04</pdfrwt>
<totfact> 0.22493052E+01</totfact>
</mgrwt>
</event>
<event>
12    5  0.5297412E-008  0.2165363E+04  0.7818608E-02  0.8532985E-01
          1   -1    0    0  501    0  0.00000000000E+00  0.00000000000E+00  0.15100984849E+04  0.15100984849E+04  0.00000000000E+00 0. -1.
         -2   -1    0    0    0  501 -0.00000000000E+00 -0.00000000000E+00 -0.77624015786E+03  0.77624015786E+03  0.00000000000E+00 0.  1.
        -24    2    1    2    0    0 -0.21033619216E+03  0.84082595013E+03  0.67663756281E+02  0.87240933162E+03  0.72732838734E+02 0.  0.
        254    2    1    2    0    0  0.21033619216E+03 -0.84082595013E+03  0.66619457080E+03  0.14139293112E+04  0.89674483478E+03 0.  0.
         23    2    4    4    0    0  0.15973275871E+03 -0.36103209499E+03  0.80753880787E+03  0.90355619825E+03  0.91848513120E+02 0.  0.
         23    2    4    4    0    0  0.50603433443E+02 -0.47979385514E+03 -0.14134423707E+03  0.51037311293E+03  0.87975395080E+02 0.  0.
          3    1    3    3  502    0 -0.36092065198E+02  0.80207471997E+02 -0.85832518633E+01  0.88371646737E+02  0.00000000000E+00 0. -1.
         -4    1    3    3    0  502 -0.17424412696E+03  0.76061847814E+03  0.76247008145E+02  0.78403768488E+03  0.00000000000E+00 0.  1.
         13    1    5    5    0    0  0.86391948778E+02 -0.11103856314E+03  0.22425809435E+03  0.26473538524E+03  0.00000000000E+00 0. -1.
        -13    1    5    5    0    0  0.73340809936E+02 -0.24999353185E+03  0.58328071352E+03  0.63882081301E+03  0.00000000000E+00 0.  1.
          2    1    6    6  503    0  0.10777697128E+02 -0.33051546525E+03 -0.61138624102E+02  0.33629535067E+03  0.00000000000E+00 0. -1.
         -2    1    6    6    0  503  0.39825736315E+02 -0.14927838990E+03 -0.80205612968E+02  0.17407776226E+03  0.00000000000E+00 0.  1.
<mgrwt>
<rscale>  0 0.21653629E+04</rscale>
<asrwt>0</asrwt>
<pdfrwt beam="1">  1        1 0.23232284E+00 0.21653629E+04</pdfrwt>
<pdfrwt beam="2">  1       -2 0.11942156E+00 0.21653629E+04</pdfrwt>
<totfact> 0.27772484E+00</totfact>
</mgrwt>
</event>
<event>
12    5  0.5297412E-008  0.2511013E+04  0.7818608E-02  0.8399073E-01
          1   -1    0    0  501    0  0.00000000000E+00  0.00000000000E+00  0.13422783432E+04  0.13422783432E+04  0.00000000000E+00 0. -1.
         -2   -1    0    0    0  501 -0.00000000000E+00 -0.00000000000E+00 -0.11743440192E+04  0.11743440192E+04  0.00000000000E+00 0.  1.
        -24    2    1    2    0    0  0.71415906064E+03 -0.72202096393E+03 -0.33507118993E+03  0.10724095522E+04  0.80325021981E+02 0.  0.
        254    2    1    2    0    0 -0.71415906064E+03  0.72202096393E+03  0.50300551394E+03  0.14442128101E+04  0.89520872294E+03 0.  0.
         23    2    4    4    0    0 -0.30415879779E+03  0.56120167111E+03 -0.13956576676E+03  0.66019151503E+03  0.94415800225E+02 0.  0.
         23    2    4    4    0    0 -0.41000026285E+03  0.16081929282E+03  0.64257128070E+03  0.78402129509E+03  0.88478697464E+02 0.  0.
          1    1    3    3  502    0  0.72663496362E+02 -0.11174761821E+03 -0.41874587478E+02  0.13971755421E+03  0.00000000000E+00 0. -1.
         -2    1    3    3    0  502  0.64149556427E+03 -0.61027334573E+03 -0.29319660245E+03  0.93269199802E+03  0.00000000000E+00 0.  1.
         13    1    5    5    0    0 -0.67040838212E+02  0.57975647649E+02 -0.11787091142E+02  0.89412444470E+02  0.00000000000E+00 0.  1.
        -13    1    5    5    0    0 -0.23711795958E+03  0.50322602347E+03 -0.12777867562E+03  0.57077907056E+03  0.00000000000E+00 0. -1.
          3    1    6    6  503    0 -0.12237943459E+03  0.48511757515E+02  0.12613148472E+03  0.18231639550E+03  0.00000000000E+00 0. -1.
         -3    1    6    6    0  503 -0.28762082825E+03  0.11230753530E+03  0.51643979598E+03  0.60170489960E+03  0.00000000000E+00 0.  1.
<mgrwt>
<rscale>  0 0.25110130E+04</rscale>
<asrwt>0</asrwt>
<pdfrwt beam="1">  1        1 0.20650436E+00 0.25110130E+04</pdfrwt>
<pdfrwt beam="2">  1       -2 0.18066831E+00 0.25110130E+04</pdfrwt>
<totfact> 0.11795946E+00</totfact>
</mgrwt>
</event>
<event>
12    5  0.5297412E-008  0.2013257E+04  0.7818608E-02  0.8600448E-01
         -2   -1    0    0    0  501 -0.00000000000E+00  0.00000000000E+00  0.84597923999E+03  0.84597923999E+03  0.00000000000E+00 0.  1.
          1   -1    0    0  501    0  0.00000000000E+00 -0.00000000000E+00 -0.11977842066E+04  0.11977842066E+04  0.00000000000E+00 0. -1.
        -24    2    1    2    0    0 -0.26193004712E+03 -0.47782350357E+03  0.45399611988E+03  0.71375881567E+03  0.80103183056E+02 0.  0.
        254    2    1    2    0    0  0.26193004712E+03  0.47782350357E+03 -0.80580108644E+03  0.13300046309E+04  0.90701393433E+03 0.  0.
         23    2    4    4    0    0  0.90082224463E+02  0.71146310945E+03 -0.70403696270E+03  0.10091769152E+04  0.92062142728E+02 0.  0.
         23    2    4    4    0    0  0.17184782266E+03 -0.23363960587E+03 -0.10176412375E+03  0.32082771564E+03  0.91952958925E+02 0.  0.
          3    1    3    3  502    0 -0.73526964841E+02 -0.10170686875E+03  0.14520329783E+03  0.19192316017E+03  0.00000000000E+00 0. -1.
         -4    1    3    3    0  502 -0.18840308228E+03 -0.37611663482E+03  0.30879282204E+03  0.52183565550E+03  0.00000000000E+00 0.  1.
         13    1    5    5    0    0  0.64740782480E+02  0.51359711594E+03 -0.56336016223E+03  0.76508041330E+03  0.00000000000E+00 0.  1.
        -13    1    5    5    0    0  0.25341441982E+02  0.19786599350E+03 -0.14067680046E+03  0.24409650193E+03  0.00000000000E+00 0. -1.
          3    1    6    6  503    0  0.26376826562E+02 -0.10797060446E+01 -0.24075801775E+02  0.35728797570E+02  0.00000000000E+00 0. -1.
         -3    1    6    6    0  503  0.14547099610E+03 -0.23255989983E+03 -0.77688321972E+02  0.28509891807E+03  0.00000000000E+00 0.  1.
<mgrwt>
<rscale>  0 0.20132566E+04</rscale>
<asrwt>0</asrwt>
<pdfrwt beam="1">  1        1 0.18427449E+00 0.20132566E+04</pdfrwt>
<pdfrwt beam="2">  1       -2 0.13015065E+00 0.20132566E+04</pdfrwt>
<totfact> 0.37751032E+00</totfact>
</mgrwt>
</event>
<event>
12    5  0.5297412E-008  0.2139918E+04  0.7818608E-02  0.8543860E-01
          1   -1    0    0  501    0  0.00000000000E+00  0.00000000000E+00  0.22588638474E+04  0.22588638474E+04  0.00000000000E+00 0. -1.
         -2   -1    0    0    0  501 -0.00000000000E+00 -0.00000000000E+00 -0.50680877921E+03  0.50680877921E+03  0.00000000000E+00 0.  1.
        -24    2    1    2    0    0  0.24276117852E+03  0.82688957832E+03  0.54819460368E+03  0.10245360023E+04  0.80481874032E+02 0.  0.
        254    2    1    2    0    0 -0.24276117852E+03 -0.82688957832E+03  0.12038604645E+04  0.17411366243E+04  0.91629545556E+03 0.  0.
         23    2    4    4    0    0  0.30407167247E+03 -0.36436536826E+03  0.73895231323E+03  0.88272277968E+03  0.89035279273E+02 0.  0.
         23    2    4    4    0    0 -0.54683285098E+03 -0.46252421006E+03  0.46490815128E+03  0.85841384460E+03  0.88203898260E+02 0.  0.
          3    1    3    3  502    0  0.69860785158E+02  0.14922882434E+03  0.12794972821E+03  0.20861664427E+03  0.00000000000E+00 0. -1.
         -2    1    3    3    0  502  0.17290039336E+03  0.67766075398E+03  0.42024487547E+03  0.81591935806E+03  0.00000000000E+00 0.  1.
         13    1    5    5    0    0  0.18190265763E+03 -0.22136169704E+03  0.52308132904E+03  0.59640896586E+03  0.00000000000E+00 0.  1.
        -13    1    5    5    0    0  0.12216901484E+03 -0.14300367122E+03  0.21587098419E+03  0.28631381382E+03  0.00000000000E+00 0. -1.
          3    1    6    6  503    0 -0.15510706530E+02 -0.81018134513E+01  0.30905449430E+02  0.35515745843E+02  0.00000000000E+00 0. -1.
         -3    1    6    6    0  503 -0.53132214445E+03 -0.45442239661E+03  0.43400270185E+03  0.82289809876E+03  0.00000000000E+00 0.  1.
<mgrwt>
<rscale>  0 0.21399178E+04</rscale>
<asrwt>0</asrwt>
<pdfrwt beam="1">  1        1 0.34751751E+00 0.21399178E+04</pdfrwt>
<pdfrwt beam="2">  1       -2 0.77970583E-01 0.21399178E+04</pdfrwt>
<totfact> 0.23414903E+00</totfact>
</mgrwt>
</event>
<event>
12    5  0.5297412E-008  0.1688964E+04  0.7818608E-02  0.8767684E-01
          1   -1    0    0  501    0  0.00000000000E+00  0.00000000000E+00  0.38182283926E+03  0.38182283926E+03  0.00000000000E+00 0. -1.
         -2   -1    0    0    0  501 -0.00000000000E+00 -0.00000000000E+00 -0.18677514641E+04  0.18677514641E+04  0.00000000000E+00 0.  1.
        -24    2    1    2    0    0 -0.21102002863E+03 -0.50733488750E+03 -0.60663522656E+03  0.82128079114E+03  0.67658696705E+02 0.  0.
        254    2    1    2    0    0  0.21102002863E+03  0.50733488750E+03 -0.87929339823E+03  0.14282935122E+04  0.98231732968E+03 0.  0.
         23    2    4    4    0    0 -0.95941756064E+01 -0.26365167343E+03 -0.75817463519E+02  0.28943930284E+03  0.91774556077E+02 0.  0.
         23    2    4    4    0    0  0.22061420424E+03  0.77098656093E+03 -0.80347593471E+03  0.11388542093E+04  0.91238304554E+02 0.  0.
          3    1    3    3  502    0 -0.15053146218E+03 -0.36798746812E+03 -0.48175451990E+03  0.62462942233E+03  0.00000000000E+00 0. -1.
         -4    1    3    3    0  502 -0.60488566454E+02 -0.13934741938E+03 -0.12488070666E+03  0.19665136881E+03  0.00000000000E+00 0.  1.
         13    1    5    5    0    0  0.19880380173E+01 -0.19285815129E+03 -0.11694281113E+02  0.19322260485E+03  0.00000000000E+00 0. -1.
        -13    1    5    5    0    0 -0.11582213624E+02 -0.70793522142E+02 -0.64123182406E+02  0.96216697987E+02  0.00000000000E+00 0.  1.
          1    1    6    6  503    0  0.55861688131E+02  0.35767896928E+03 -0.37153101627E+03  0.51873892212E+03  0.00000000000E+00 0. -1.
         -1    1    6    6    0  503  0.16475251611E+03  0.41330759165E+03 -0.43194491844E+03  0.62011528722E+03  0.00000000000E+00 0.  1.
<mgrwt>
<rscale>  0 0.16889644E+04</rscale>
<asrwt>0</asrwt>
<pdfrwt beam="1">  1        1 0.58741975E-01 0.16889644E+04</pdfrwt>
<pdfrwt beam="2">  1       -2 0.28734638E+00 0.16889644E+04</pdfrwt>
<totfact> 0.20222626E+00</totfact>
</mgrwt>
</event>
<event>
12    5  0.5297412E-008  0.1298503E+04  0.7818608E-02  0.9030753E-01
         -4   -1    0    0    0  501 -0.00000000000E+00  0.00000000000E+00  0.27590360715E+03  0.27590360715E+03  0.00000000000E+00 0.  1.
          1   -1    0    0  501    0  0.00000000000E+00 -0.00000000000E+00 -0.15278067058E+04  0.15278067058E+04  0.00000000000E+00 0. -1.
        -24    2    1    2    0    0  0.24799738533E+03 -0.27643846886E+03 -0.23224318311E+03  0.44479581474E+03  0.77365951858E+02 0.  0.
        254    2    1    2    0    0 -0.24799738533E+03  0.27643846886E+03 -0.10196599155E+04  0.13589144982E+04  0.81793724690E+03 0.  0.
         23    2    4    4    0    0  0.22163790451E+03  0.33363143606E+03 -0.39118940034E+03  0.56720231225E+03  0.90862644924E+02 0.  0.
         23    2    4    4    0    0 -0.46963528984E+03 -0.57192967194E+02 -0.62847051517E+03  0.79171218593E+03  0.89468742875E+02 0.  0.
          3    1    3    3  502    0  0.66499670416E+02 -0.79013889210E+02 -0.10736108705E+03  0.14896913729E+03  0.00000000000E+00 0. -1.
         -4    1    3    3    0  502  0.18149771492E+03 -0.19742457965E+03 -0.12488209607E+03  0.29582667745E+03  0.00000000000E+00 0.  1.
         13    1    5    5    0    0 -0.19232167151E+01  0.42022709815E+02 -0.54356070509E+02  0.68732738226E+02  0.00000000000E+00 0.  1.
        -13    1    5    5    0    0  0.22356112122E+03  0.29160872624E+03 -0.33683332983E+03  0.49846957402E+03  0.00000000000E+00 0. -1.
          4    1    6    6  503    0 -0.24587752672E+03  0.14008322393E+02 -0.33786040401E+03  0.41809286509E+03  0.00000000000E+00 0. -1.
         -4    1    6    6    0  503 -0.22375776312E+03 -0.71201289588E+02 -0.29061011116E+03  0.37361932084E+03  0.00000000000E+00 0.  1.
<mgrwt>
<rscale>  0 0.12985028E+04</rscale>
<asrwt>0</asrwt>
<pdfrwt beam="1">  1        1 0.23504719E+00 0.12985028E+04</pdfrwt>
<pdfrwt beam="2">  1       -4 0.42446708E-01 0.12985028E+04</pdfrwt>
<totfact> 0.16372180E+01</totfact>
</mgrwt>
</event>
<event>
12    5  0.5297412E-008  0.2196610E+04  0.7818608E-02  0.8519840E-01
          1   -1    0    0  501    0  0.00000000000E+00  0.00000000000E+00  0.98394304056E+03  0.98394304056E+03  0.00000000000E+00 0. -1.
         -2   -1    0    0    0  501 -0.00000000000E+00 -0.00000000000E+00 -0.12259591998E+04  0.12259591998E+04  0.00000000000E+00 0.  1.
        -24    2    1    2    0    0 -0.29853935530E+03  0.32194304474E+03  0.70403461606E+03  0.83353078983E+03  0.79597526702E+02 0.  0.
        254    2    1    2    0    0  0.29853935530E+03 -0.32194304474E+03 -0.94605077526E+03  0.13763714505E+04  0.89811649001E+03 0.  0.
         23    2    4    4    0    0  0.21834784176E+03 -0.29442424256E+03 -0.11071416739E+04  0.11705783682E+04  0.10064599033E+03 0.  0.
         23    2    4    4    0    0  0.80191513537E+02 -0.27518802184E+02  0.16109089863E+03  0.20579308232E+03  0.95982038903E+02 0.  0.
          1    1    3    3  502    0 -0.20696995341E+03  0.19026925004E+03  0.50431880932E+03  0.57738757396E+03  0.00000000000E+00 0. -1.
         -2    1    3    3    0  502 -0.91569401886E+02  0.13167379471E+03  0.19971580674E+03  0.25614321587E+03  0.00000000000E+00 0.  1.
         13    1    5    5    0    0  0.82162205930E+02 -0.14138412256E+03 -0.63868427833E+03  0.65928575411E+03  0.00000000000E+00 0. -1.
        -13    1    5    5    0    0  0.13618563583E+03 -0.15304012000E+03 -0.46845739556E+03  0.51129261406E+03  0.00000000000E+00 0.  1.
          1    1    6    6  503    0  0.75835922092E+02 -0.59123410655E+02  0.12140158186E+03  0.15487094254E+03  0.00000000000E+00 0. -1.
         -1    1    6    6    0  503  0.43555914452E+01  0.31604608470E+02  0.39689316767E+02  0.50922139771E+02  0.00000000000E+00 0.  1.
<mgrwt>
<rscale>  0 0.21966101E+04</rscale>
<asrwt>0</asrwt>
<pdfrwt beam="1">  1        1 0.15137585E+00 0.21966101E+04</pdfrwt>
<pdfrwt beam="2">  1       -2 0.18860911E+00 0.21966101E+04</pdfrwt>
<totfact> 0.19722807E+00</totfact>
</mgrwt>
</event>
<event>
12    5  0.5297412E-008  0.1955583E+04  0.7818608E-02  0.8627673E-01
          1   -1    0    0  501    0  0.00000000000E+00  0.00000000000E+00  0.17883445681E+04  0.17883445681E+04  0.00000000000E+00 0. -1.
         -2   -1    0    0    0  501 -0.00000000000E+00 -0.00000000000E+00 -0.53461507991E+03  0.53461507991E+03  0.00000000000E+00 0.  1.
        -24    2    1    2    0    0  0.15442037530E+03 -0.49758255213E+03  0.11589944447E+04  0.12732914836E+04  0.81049557748E+02 0.  0.
        254    2    1    2    0    0 -0.15442037530E+03  0.49758255213E+03  0.94735043449E+02  0.10496681644E+04  0.90630815862E+03 0.  0.
         23    2    4    4    0    0 -0.42042255168E+03  0.37720883183E+03 -0.21701681392E+03  0.61188761184E+03  0.90931442424E+02 0.  0.
         23    2    4    4    0    0  0.26600217638E+03  0.12037372030E+03  0.31175185737E+03  0.43778055255E+03  0.95997923122E+02 0.  0.
          1    1    3    3  502    0  0.14279743266E+03 -0.46629972526E+03  0.11223833773E+04  0.12237528289E+04  0.00000000000E+00 0. -1.
         -2    1    3    3    0  502  0.11622942646E+02 -0.31282826866E+02  0.36611067375E+02  0.49538654673E+02  0.00000000000E+00 0.  1.
         13    1    5    5    0    0 -0.12353074830E+03  0.12685384759E+03 -0.25557811758E+02  0.17889926262E+03  0.00000000000E+00 0. -1.
        -13    1    5    5    0    0 -0.29689180338E+03  0.25035498424E+03 -0.19145900216E+03  0.43298834922E+03  0.00000000000E+00 0.  1.
          4    1    6    6  503    0  0.26067636924E+03  0.97413166398E+02  0.25968930444E+03  0.38063109346E+03  0.00000000000E+00 0. -1.
         -4    1    6    6    0  503  0.53258071372E+01  0.22960553898E+02  0.52062552927E+02  0.57149459089E+02  0.00000000000E+00 0.  1.
<mgrwt>
<rscale>  0 0.19555828E+04</rscale>
<asrwt>0</asrwt>
<pdfrwt beam="1">  1        1 0.27512993E+00 0.19555828E+04</pdfrwt>
<pdfrwt beam="2">  1       -2 0.82248474E-01 0.19555828E+04</pdfrwt>
<totfact> 0.44044565E+00</totfact>
</mgrwt>
</event>
<event>
12    5  0.5297412E-008  0.1523919E+04  0.7818608E-02  0.8868701E-01
          3   -1    0    0  501    0  0.00000000000E+00  0.00000000000E+00  0.10373852866E+04  0.10373852866E+04  0.00000000000E+00 0. -1.
         -4   -1    0    0    0  501 -0.00000000000E+00 -0.00000000000E+00 -0.55965916850E+03  0.55965916850E+03  0.00000000000E+00 0.  1.
        -24    2    1    2    0    0  0.88052331190E+02  0.37008401161E+03 -0.21428845748E+03  0.44396460204E+03  0.80434048642E+02 0.  0.
        254    2    1    2    0    0 -0.88052331190E+02 -0.37008401161E+03  0.69201457555E+03  0.11530798530E+04  0.84023424472E+03 0.  0.
         23    2    4    4    0    0 -0.29641321487E+03 -0.34739988957E+03  0.77980951441E+03  0.90810993867E+03  0.89517063941E+02 0.  0.
         23    2    4    4    0    0  0.20836088368E+03 -0.22684122033E+02 -0.87794938852E+02  0.24496991435E+03  0.91506723316E+02 0.  0.
          3    1    3    3  502    0  0.30378696694E+02  0.37021282915E+02 -0.45861651480E+02  0.66307855326E+02  0.00000000000E+00 0. -1.
         -4    1    3    3    0  502  0.57673634496E+02  0.33306272869E+03 -0.16842680600E+03  0.37765674672E+03  0.00000000000E+00 0.  1.
         13    1    5    5    0    0 -0.13351907622E+03 -0.20666038826E+03  0.35582886410E+03  0.43260841452E+03  0.00000000000E+00 0. -1.
        -13    1    5    5    0    0 -0.16289413865E+03 -0.14073950132E+03  0.42398065030E+03  0.47550152415E+03  0.00000000000E+00 0.  1.
          3    1    6    6  503    0  0.18869682551E+02  0.21685754464E+02 -0.30908345377E+02  0.42209746270E+02  0.00000000000E+00 0. -1.
         -3    1    6    6    0  503  0.18949120112E+03 -0.44369876497E+02 -0.56886593476E+02  0.20276016808E+03  0.00000000000E+00 0.  1.
<mgrwt>
<rscale>  0 0.15239189E+04</rscale>
<asrwt>0</asrwt>
<pdfrwt beam="1">  1        3 0.15959774E+00 0.15239189E+04</pdfrwt>
<pdfrwt beam="2">  1       -4 0.86101411E-01 0.15239189E+04</pdfrwt>
<totfact> 0.71267119E-01</totfact>
</mgrwt>
</event>
<event>
12    5  0.5297412E-008  0.1523898E+04  0.7818608E-02  0.8868715E-01
         -2   -1    0    0    0  501 -0.00000000000E+00  0.00000000000E+00  0.40663608933E+03  0.40663608933E+03  0.00000000000E+00 0.  1.
          1   -1    0    0  501    0  0.00000000000E+00 -0.00000000000E+00 -0.14277285019E+04  0.14277285019E+04  0.00000000000E+00 0. -1.
        -24    2    1    2    0    0  0.31245780259E+03  0.33429472119E+03 -0.11200033698E+03  0.47770335224E+03  0.79205923011E+02 0.  0.
        254    2    1    2    0    0 -0.31245780259E+03 -0.33429472119E+03 -0.90909207561E+03  0.13566612390E+04  0.89704987401E+03 0.  0.
         23    2    4    4    0    0 -0.36992793194E+03  0.12053387043E+03 -0.77051746465E+03  0.86810756868E+03  0.92403997329E+02 0.  0.
         23    2    4    4    0    0  0.57470129351E+02 -0.45482859162E+03 -0.13857461096E+03  0.48855367032E+03  0.96487835784E+02 0.  0.
          3    1    3    3  502    0  0.20054701658E+03  0.20684620403E+03 -0.31069720443E+02  0.28977540529E+03  0.00000000000E+00 0. -1.
         -4    1    3    3    0  502  0.11191078600E+03  0.12744851716E+03 -0.80930616537E+02  0.18792794695E+03  0.00000000000E+00 0.  1.
         13    1    5    5    0    0 -0.68978730127E+02  0.35800388252E+02 -0.88102967153E+02  0.11748134248E+03  0.00000000000E+00 0. -1.
        -13    1    5    5    0    0 -0.30094920181E+03  0.84733482178E+02 -0.68241449749E+03  0.75062622620E+03  0.00000000000E+00 0.  1.
          3    1    6    6  503    0  0.50772912401E+02 -0.95679824435E+02 -0.45462940007E+02  0.11747083192E+03  0.00000000000E+00 0. -1.
         -3    1    6    6    0  503  0.66972169499E+01 -0.35914876719E+03 -0.93111670952E+02  0.37108283840E+03  0.00000000000E+00 0.  1.
<mgrwt>
<rscale>  0 0.15238975E+04</rscale>
<asrwt>0</asrwt>
<pdfrwt beam="1">  1        1 0.21965054E+00 0.15238975E+04</pdfrwt>
<pdfrwt beam="2">  1       -2 0.62559398E-01 0.15238975E+04</pdfrwt>
<totfact> 0.14746926E+01</totfact>
</mgrwt>
</event>
<event>
12    5  0.5297412E-008  0.1941772E+04  0.7818608E-02  0.8634339E-01
          1   -1    0    0  501    0  0.00000000000E+00  0.00000000000E+00  0.79730268204E+03  0.79730268204E+03  0.00000000000E+00 0. -1.
         -2   -1    0    0    0  501 -0.00000000000E+00 -0.00000000000E+00 -0.11822603343E+04  0.11822603343E+04  0.00000000000E+00 0.  1.
        -24    2    1    2    0    0  0.76218164184E+03 -0.21578419468E+03 -0.40687222701E+02  0.79717274977E+03  0.79657197072E+02 0.  0.
        254    2    1    2    0    0 -0.76218164184E+03  0.21578419468E+03 -0.34427042958E+03  0.11823902666E+04  0.80749052008E+03 0.  0.
         23    2    4    4    0    0 -0.41524767230E+03 -0.28047229168E+03 -0.78832036752E+02  0.51474962099E+03  0.87506265772E+02 0.  0.
         23    2    4    4    0    0 -0.34693396955E+03  0.49625648636E+03 -0.26543839283E+03  0.66764064560E+03  0.93020491238E+02 0.  0.
          3    1    3    3  502    0  0.11574336552E+03 -0.50442736345E+02  0.17174434624E+02  0.12742039678E+03  0.00000000000E+00 0. -1.
         -4    1    3    3    0  502  0.64643827632E+03 -0.16534145834E+03 -0.57861657324E+02  0.66975235298E+03  0.00000000000E+00 0.  1.
         13    1    5    5    0    0 -0.13419204275E+03 -0.99363280736E+02 -0.67795823611E+02  0.18021331692E+03  0.00000000000E+00 0.  1.
        -13    1    5    5    0    0 -0.28105562954E+03 -0.18110901094E+03 -0.11036213141E+02  0.33453630407E+03  0.00000000000E+00 0. -1.
          1    1    6    6  503    0 -0.15569393057E+03  0.24528694685E+03 -0.17600438122E+03  0.33968195201E+03  0.00000000000E+00 0. -1.
         -1    1    6    6    0  503 -0.19124003898E+03  0.25096953951E+03 -0.89434011607E+02  0.32795869359E+03  0.00000000000E+00 0.  1.
<mgrwt>
<rscale>  0 0.19417717E+04</rscale>
<asrwt>0</asrwt>
<pdfrwt beam="1">  1        1 0.12266195E+00 0.19417717E+04</pdfrwt>
<pdfrwt beam="2">  1       -2 0.18188621E+00 0.19417717E+04</pdfrwt>
<totfact> 0.31937451E+00</totfact>
</mgrwt>
</event>
<event>
12    5  0.5297412E-008  0.1888973E+04  0.7818608E-02  0.8660365E-01
         -2   -1    0    0    0  501 -0.00000000000E+00  0.00000000000E+00  0.81343042129E+03  0.81343042129E+03  0.00000000000E+00 0.  1.
          1   -1    0    0  501    0  0.00000000000E+00 -0.00000000000E+00 -0.10966574651E+04  0.10966574651E+04  0.00000000000E+00 0. -1.
        -24    2    1    2    0    0 -0.33976522627E+03  0.63078167440E+03  0.16027088089E+02  0.72140345068E+03  0.82705147105E+02 0.  0.
        254    2    1    2    0    0  0.33976522627E+03 -0.63078167440E+03 -0.29925413190E+03  0.11886844357E+04  0.90005095551E+03 0.  0.
         23    2    4    4    0    0  0.21910724763E+03 -0.85035875566E+03 -0.25619544749E+03  0.91920981006E+03  0.90512807402E+02 0.  0.
         23    2    4    4    0    0  0.12065797864E+03  0.21957708127E+03 -0.43058684409E+02  0.26947462566E+03  0.89387253800E+02 0.  0.
          1    1    3    3  502    0 -0.16396787434E+02  0.13946351189E+02 -0.11494519022E+02  0.24402444902E+02  0.00000000000E+00 0. -1.
         -2    1    3    3    0  502 -0.32336843884E+03  0.61683532321E+03  0.27521607111E+02  0.69700100577E+03  0.00000000000E+00 0.  1.
         13    1    5    5    0    0  0.20945570107E+03 -0.80546093475E+03 -0.26293022722E+03  0.87279511485E+03  0.00000000000E+00 0. -1.
        -13    1    5    5    0    0  0.96515465604E+01 -0.44897820916E+02  0.67347797291E+01  0.46414695216E+02  0.00000000000E+00 0.  1.
          1    1    6    6  503    0  0.85786461172E+02  0.18240433194E+03  0.17971890737E+01  0.20157848873E+03  0.00000000000E+00 0. -1.
         -1    1    6    6    0  503  0.34871517472E+02  0.37172749323E+02 -0.44855873483E+02  0.67896136922E+02  0.00000000000E+00 0.  1.
<mgrwt>
<rscale>  0 0.18889728E+04</rscale>
<asrwt>0</asrwt>
<pdfrwt beam="1">  1        1 0.16871653E+00 0.18889728E+04</pdfrwt>
<pdfrwt beam="2">  1       -2 0.12514314E+00 0.18889728E+04</pdfrwt>
<totfact> 0.50069951E+00</totfact>
</mgrwt>
</event>
<event>
12    5  0.5297412E-008  0.1330195E+04  0.7818608E-02  0.9005957E-01
          1   -1    0    0  501    0  0.00000000000E+00  0.00000000000E+00  0.10278386672E+04  0.10278386672E+04  0.00000000000E+00 0. -1.
         -2   -1    0    0    0  501 -0.00000000000E+00 -0.00000000000E+00 -0.43037381828E+03  0.43037381828E+03  0.00000000000E+00 0.  1.
        -24    2    1    2    0    0  0.19339478057E+03  0.14205326850E+03  0.44158402003E+03  0.50860552539E+03  0.78118253115E+02 0.  0.
        254    2    1    2    0    0 -0.19339478057E+03 -0.14205326850E+03  0.15588082890E+03  0.94960696009E+03  0.90546886948E+03 0.  0.
         23    2    4    4    0    0 -0.32716090385E+03 -0.46394919949E+03  0.70179082514E+02  0.57931123010E+03  0.91614851300E+02 0.  0.
         23    2    4    4    0    0  0.13376612328E+03  0.32189593099E+03  0.85701746384E+02  0.37029573000E+03  0.90905292461E+02 0.  0.
          1    1    3    3  502    0  0.11007428069E+03  0.12632343116E+03  0.29534041793E+03  0.33955841764E+03  0.00000000000E+00 0. -1.
         -2    1    3    3    0  502  0.83320499878E+02  0.15729837340E+02  0.14624360210E+03  0.16904710775E+03  0.00000000000E+00 0.  1.
         13    1    5    5    0    0 -0.21700927368E+02 -0.87253926661E+02  0.15845610596E+02  0.91297652442E+02  0.00000000000E+00 0. -1.
        -13    1    5    5    0    0 -0.30545997649E+03 -0.37669527283E+03  0.54333471919E+02  0.48801357765E+03  0.00000000000E+00 0.  1.
          2    1    6    6  503    0  0.10569405685E+03  0.23428058916E+03  0.10262434941E+03  0.27674967968E+03  0.00000000000E+00 0.  1.
         -2    1    6    6    0  503  0.28072066432E+02  0.87615341823E+02 -0.16922603025E+02  0.93546050316E+02  0.00000000000E+00 0. -1.
<mgrwt>
<rscale>  0 0.13301953E+04</rscale>
<asrwt>0</asrwt>
<pdfrwt beam="1">  1        1 0.15812902E+00 0.13301953E+04</pdfrwt>
<pdfrwt beam="2">  1       -2 0.66211357E-01 0.13301953E+04</pdfrwt>
<totfact> 0.25955862E+01</totfact>
</mgrwt>
</event>
<event>
12    5  0.5297412E-008  0.1875704E+04  0.7818608E-02  0.8667045E-01
         -2   -1    0    0    0  501 -0.00000000000E+00  0.00000000000E+00  0.35276447527E+03  0.35276447527E+03  0.00000000000E+00 0.  1.
          1   -1    0    0  501    0  0.00000000000E+00 -0.00000000000E+00 -0.24933535035E+04  0.24933535035E+04  0.00000000000E+00 0. -1.
        -24    2    1    2    0    0 -0.52498027191E+03 -0.27330050758E+03 -0.20865299863E+03  0.63256364679E+03  0.79392947240E+02 0.  0.
        254    2    1    2    0    0  0.52498027191E+03  0.27330050758E+03 -0.19319360296E+04  0.22135543320E+04  0.90396266783E+03 0.  0.
         23    2    4    4    0    0  0.62656954128E+02  0.85868524244E+02  0.63471118078E+02  0.15481478287E+03  0.92950184560E+02 0.  0.
         23    2    4    4    0    0  0.46232331778E+03  0.18743198334E+03 -0.19954071477E+04  0.20587395491E+04  0.88798916132E+02 0.  0.
          1    1    3    3  502    0 -0.80349431679E+02 -0.18994940725E+02 -0.49145295012E+02  0.96083812196E+02  0.00000000000E+00 0. -1.
         -2    1    3    3    0  502 -0.44463084023E+03 -0.25430556686E+03 -0.15950770362E+03  0.53647983460E+03  0.00000000000E+00 0.  1.
         13    1    5    5    0    0  0.50188126978E+01  0.83358994416E+02  0.37045389637E+02  0.91357929729E+02  0.00000000000E+00 0. -1.
        -13    1    5    5    0    0  0.57638141430E+02  0.25095298282E+01  0.26425728441E+02  0.63456853145E+02  0.00000000000E+00 0.  1.
          2    1    6    6  503    0  0.37471485140E+03  0.12686132804E+03 -0.16753956999E+04  0.17214690726E+04  0.00000000000E+00 0. -1.
         -2    1    6    6    0  503  0.87608466374E+02  0.60570655301E+02 -0.32001144777E+03  0.33727047657E+03  0.00000000000E+00 0.  1.
<mgrwt>
<rscale>  0 0.18757042E+04</rscale>
<asrwt>0</asrwt>
<pdfrwt beam="1">  1        1 0.38359283E+00 0.18757042E+04</pdfrwt>
<pdfrwt beam="2">  1       -2 0.54271460E-01 0.18757042E+04</pdfrwt>
<totfact> 0.36069292E+00</totfact>
</mgrwt>
</event>
<event>
12    5  0.5297412E-008  0.1683353E+04  0.7818608E-02  0.8770916E-01
         -4   -1    0    0    0  501 -0.00000000000E+00  0.00000000000E+00  0.26760584555E+03  0.26760584555E+03  0.00000000000E+00 0.  1.
          1   -1    0    0  501    0  0.00000000000E+00 -0.00000000000E+00 -0.26472502555E+04  0.26472502555E+04  0.00000000000E+00 0. -1.
        -24    2    1    2    0    0 -0.54351530065E+03  0.10659332423E+03 -0.11953110584E+04  0.13199019992E+04  0.81251107737E+02 0.  0.
        254    2    1    2    0    0  0.54351530065E+03 -0.10659332423E+03 -0.11843333516E+04  0.15949541018E+04  0.91348896021E+03 0.  0.
         23    2    4    4    0    0  0.43644009362E+03  0.14722326730E+03 -0.11030463708E+03  0.48253952614E+03  0.92318121584E+02 0.  0.
         23    2    4    4    0    0  0.10707520703E+03 -0.25381659153E+03 -0.10740287145E+04  0.11124145757E+04  0.89669094512E+02 0.  0.
          3    1    3    3  502    0 -0.54053386849E+03  0.10680910241E+03 -0.11572370182E+04  0.12817107956E+04  0.00000000000E+00 0. -1.
         -4    1    3    3    0  502 -0.29814321601E+01 -0.21577817708E+00 -0.38074040156E+02  0.38191203591E+02  0.00000000000E+00 0.  1.
         13    1    5    5    0    0  0.37873298303E+03  0.14616078441E+03 -0.69521098626E+02  0.41186749142E+03  0.00000000000E+00 0.  1.
        -13    1    5    5    0    0  0.57707110593E+02  0.10624828891E+01 -0.40783538458E+02  0.70672034724E+02  0.00000000000E+00 0. -1.
          2    1    6    6  503    0  0.33808504995E+01  0.76740481541E+01 -0.33238291794E+02  0.34279807563E+02  0.00000000000E+00 0. -1.
         -2    1    6    6    0  503  0.10369435653E+03 -0.26149063968E+03 -0.10407904227E+04  0.10781347681E+04  0.00000000000E+00 0.  1.
<mgrwt>
<rscale>  0 0.16833534E+04</rscale>
<asrwt>0</asrwt>
<pdfrwt beam="1">  1        1 0.40726930E+00 0.16833534E+04</pdfrwt>
<pdfrwt beam="2">  1       -4 0.41170127E-01 0.16833534E+04</pdfrwt>
<totfact> 0.29216647E+00</totfact>
</mgrwt>
</event>
<event>
12    5  0.5297412E-008  0.2259282E+04  0.7818608E-02  0.8494151E-01
         -2   -1    0    0    0  501 -0.00000000000E+00  0.00000000000E+00  0.14278518724E+04  0.14278518724E+04  0.00000000000E+00 0.  1.
          1   -1    0    0  501    0  0.00000000000E+00 -0.00000000000E+00 -0.89371228384E+03  0.89371228384E+03  0.00000000000E+00 0. -1.
        -24    2    1    2    0    0  0.86351909770E+03 -0.15535778116E+03 -0.75554117428E+02  0.88439706304E+03  0.81538139499E+02 0.  0.
        254    2    1    2    0    0 -0.86351909770E+03  0.15535778116E+03  0.60969370595E+03  0.14371670932E+04  0.96120838862E+03 0.  0.
         23    2    4    4    0    0 -0.85156647538E+03  0.37133163725E+03  0.18529181840E+03  0.95165121929E+03  0.90853389588E+02 0.  0.
         23    2    4    4    0    0 -0.11952622316E+02 -0.21597385609E+03  0.42440188755E+03  0.48551587387E+03  0.93920870610E+02 0.  0.
          1    1    3    3  502    0  0.80609856217E+03 -0.13913852077E+03 -0.50172935610E+02  0.81955582077E+03  0.00000000000E+00 0. -1.
         -2    1    3    3    0  502  0.57420535525E+02 -0.16219260395E+02 -0.25381181817E+02  0.64841242263E+02  0.00000000000E+00 0.  1.
         13    1    5    5    0    0 -0.70391288268E+03  0.26954593541E+03  0.13944585285E+03  0.76654647841E+03  0.00000000000E+00 0.  1.
        -13    1    5    5    0    0 -0.14765359270E+03  0.10178570184E+03  0.45845965550E+02  0.18510474088E+03  0.00000000000E+00 0. -1.
          3    1    6    6  503    0 -0.13447662166E+02 -0.22126871756E+03  0.42561288848E+03  0.47988229372E+03  0.00000000000E+00 0. -1.
         -3    1    6    6    0  503  0.14950398493E+01  0.52948614687E+01 -0.12110009289E+01  0.56335801560E+01  0.00000000000E+00 0.  1.
<mgrwt>
<rscale>  0 0.22592820E+04</rscale>
<asrwt>0</asrwt>
<pdfrwt beam="1">  1        1 0.13749420E+00 0.22592820E+04</pdfrwt>
<pdfrwt beam="2">  1       -2 0.21966952E+00 0.22592820E+04</pdfrwt>
<totfact> 0.14538672E+00</totfact>
</mgrwt>
</event>
<event>
12    5  0.5297412E-008  0.1146337E+04  0.7818608E-02  0.9161169E-01
         -2   -1    0    0    0  501 -0.00000000000E+00  0.00000000000E+00  0.43241656853E+03  0.43241656853E+03  0.00000000000E+00 0.  1.
          1   -1    0    0  501    0  0.00000000000E+00 -0.00000000000E+00 -0.75973569882E+03  0.75973569882E+03  0.00000000000E+00 0. -1.
        -24    2    1    2    0    0 -0.11482275436E+03  0.16374644532E+03 -0.17507825280E+02  0.21627211039E+03  0.80435927995E+02 0.  0.
        254    2    1    2    0    0  0.11482275436E+03 -0.16374644532E+03 -0.30981130500E+03  0.97588015696E+03  0.90352746099E+03 0.  0.
         23    2    4    4    0    0 -0.20449208705E+03  0.41884716139E+02  0.22050819822E+03  0.31712787595E+03  0.91514376508E+02 0.  0.
         23    2    4    4    0    0  0.31931484140E+03 -0.20563116146E+03 -0.53031950322E+03  0.65875228101E+03  0.92030699957E+02 0.  0.
          1    1    3    3  502    0 -0.51994390634E+02  0.17998974005E+02 -0.16898779326E+02  0.57558218052E+02  0.00000000000E+00 0. -1.
         -2    1    3    3    0  502 -0.62828363722E+02  0.14574747132E+03 -0.60904595357E+00  0.15871389234E+03  0.00000000000E+00 0.  1.
         13    1    5    5    0    0 -0.20423010319E+03  0.21499039326E+02  0.21163775851E+03  0.29489436171E+03  0.00000000000E+00 0. -1.
        -13    1    5    5    0    0 -0.26198386059E+00  0.20385676814E+02  0.88704397112E+01  0.22233514238E+02  0.00000000000E+00 0.  1.
          1    1    6    6  503    0  0.28708439600E+03 -0.16812734717E+03 -0.50056477853E+03  0.60104022561E+03  0.00000000000E+00 0. -1.
         -1    1    6    6    0  503  0.32230445403E+02 -0.37503814296E+02 -0.29754724695E+02  0.57712055407E+02  0.00000000000E+00 0.  1.
<mgrwt>
<rscale>  0 0.11463373E+04</rscale>
<asrwt>0</asrwt>
<pdfrwt beam="1">  1        1 0.11688241E+00 0.11463373E+04</pdfrwt>
<pdfrwt beam="2">  1       -2 0.66525627E-01 0.11463373E+04</pdfrwt>
<totfact> 0.43385578E+01</totfact>
</mgrwt>
</event>
<event>
12    5  0.5297412E-008  0.1887974E+04  0.7818608E-02  0.8660866E-01
         -2   -1    0    0    0  501 -0.00000000000E+00  0.00000000000E+00  0.60961451396E+03  0.60961451396E+03  0.00000000000E+00 0.  1.
          1   -1    0    0  501    0  0.00000000000E+00 -0.00000000000E+00 -0.14617627187E+04  0.14617627187E+04  0.00000000000E+00 0. -1.
        -24    2    1    2    0    0  0.12878800339E+03 -0.13601648827E+03 -0.11013446259E+04  0.11199312488E+04  0.78734886114E+02 0.  0.
        254    2    1    2    0    0 -0.12878800339E+03  0.13601648827E+03  0.24919642114E+03  0.95144598381E+03  0.89892367245E+03 0.  0.
         23    2    4    4    0    0 -0.42985816289E+03 -0.11307144968E+03  0.30054546949E+03  0.54412410900E+03  0.90444866197E+02 0.  0.
         23    2    4    4    0    0  0.30107015950E+03  0.24908793795E+03 -0.51349048351E+02  0.40732187481E+03  0.10288995655E+03 0.  0.
          3    1    3    3  502    0  0.83952532106E+02 -0.11342799028E+03 -0.95131515591E+03  0.96172473322E+03  0.00000000000E+00 0. -1.
         -4    1    3    3    0  502  0.44835471288E+02 -0.22588497991E+02 -0.15002946997E+03  0.15820651562E+03  0.00000000000E+00 0.  1.
         13    1    5    5    0    0 -0.50277756832E+02 -0.95696452076E+01  0.37944797716E+01  0.51320843896E+02  0.00000000000E+00 0. -1.
        -13    1    5    5    0    0 -0.37958040606E+03 -0.10350180448E+03  0.29675098972E+03  0.49280326510E+03  0.00000000000E+00 0.  1.
          4    1    6    6  503    0  0.64766324734E+02  0.60958854714E+02  0.31103644403E+02  0.94223646092E+02  0.00000000000E+00 0. -1.
         -4    1    6    6    0  503  0.23630383476E+03  0.18812908324E+03 -0.82452692754E+02  0.31309822872E+03  0.00000000000E+00 0.  1.
<mgrwt>
<rscale>  0 0.18879743E+04</rscale>
<asrwt>0</asrwt>
<pdfrwt beam="1">  1        1 0.22488657E+00 0.18879743E+04</pdfrwt>
<pdfrwt beam="2">  1       -2 0.93786849E-01 0.18879743E+04</pdfrwt>
<totfact> 0.54900571E+00</totfact>
</mgrwt>
</event>
<event>
12    5  0.5297412E-008  0.1329055E+04  0.7818608E-02  0.9006836E-01
         -2   -1    0    0    0  501 -0.00000000000E+00  0.00000000000E+00  0.47631143354E+03  0.47631143354E+03  0.00000000000E+00 0.  1.
          1   -1    0    0  501    0  0.00000000000E+00 -0.00000000000E+00 -0.92711817062E+03  0.92711817062E+03  0.00000000000E+00 0. -1.
        -24    2    1    2    0    0  0.19516072170E+03  0.22946853017E+03  0.27717071277E+02  0.31855450294E+03  0.99825956905E+02 0.  0.
        254    2    1    2    0    0 -0.19516072170E+03 -0.22946853017E+03 -0.47852380836E+03  0.10848751012E+04  0.92586469662E+03 0.  0.
         23    2    4    4    0    0  0.13988932494E+03 -0.48483463135E+03 -0.12489084121E+03  0.52784073154E+03  0.91566766188E+02 0.  0.
         23    2    4    4    0    0 -0.33505004664E+03  0.25536610118E+03 -0.35363296715E+03  0.55703436968E+03  0.88094461600E+02 0.  0.
          3    1    3    3  502    0 -0.10099748205E+02  0.22428079408E+01 -0.30983525889E+01  0.10799763424E+02  0.00000000000E+00 0. -1.
         -4    1    3    3    0  502  0.20526046990E+03  0.22722572223E+03  0.30815423865E+02  0.30775473952E+03  0.00000000000E+00 0.  1.
         13    1    5    5    0    0  0.40075672257E+02 -0.11431837475E+03 -0.70827641745E+02  0.14032571093E+03  0.00000000000E+00 0.  1.
        -13    1    5    5    0    0  0.99813652688E+02 -0.37051625660E+03 -0.54063199468E+02  0.38751502061E+03  0.00000000000E+00 0. -1.
          1    1    6    6  503    0 -0.26266105140E+03  0.21552926602E+03 -0.32332921033E+03  0.46902608742E+03  0.00000000000E+00 0. -1.
         -1    1    6    6    0  503 -0.72388995247E+02  0.39836835161E+02 -0.30303756816E+02  0.88008282256E+02  0.00000000000E+00 0.  1.
<mgrwt>
<rscale>  0 0.13290553E+04</rscale>
<asrwt>0</asrwt>
<pdfrwt beam="1">  1        1 0.14263356E+00 0.13290553E+04</pdfrwt>
<pdfrwt beam="2">  1       -2 0.73278682E-01 0.13290553E+04</pdfrwt>
<totfact> 0.24983007E+01</totfact>
</mgrwt>
</event>
<event>
12    5  0.5297412E-008  0.2302518E+04  0.7818608E-02  0.8476929E-01
         -2   -1    0    0    0  501 -0.00000000000E+00  0.00000000000E+00  0.87649319547E+03  0.87649319547E+03  0.00000000000E+00 0.  1.
          1   -1    0    0  501    0  0.00000000000E+00 -0.00000000000E+00 -0.15121594500E+04  0.15121594500E+04  0.00000000000E+00 0. -1.
        -24    2    1    2    0    0 -0.12986348030E+03 -0.47057103457E+03 -0.11273870536E+04  0.12316339569E+04  0.87286957163E+02 0.  0.
        254    2    1    2    0    0  0.12986348030E+03  0.47057103457E+03  0.49172079910E+03  0.11570186886E+04  0.92660740307E+03 0.  0.
         23    2    4    4    0    0 -0.34507454779E+03  0.22775756238E+03  0.44533537440E+03  0.61385442809E+03  0.86854547598E+02 0.  0.
         23    2    4    4    0    0  0.47493802809E+03  0.24281347218E+03  0.46385424704E+02  0.54316426052E+03  0.91385411757E+02 0.  0.
          3    1    3    3  502    0 -0.14051452064E+03 -0.40289007188E+03 -0.94764482663E+03  0.10392764108E+04  0.00000000000E+00 0. -1.
         -4    1    3    3    0  502  0.10651040340E+02 -0.67680962685E+02 -0.17974222700E+03  0.19235754609E+03  0.00000000000E+00 0.  1.
         13    1    5    5    0    0 -0.34901603659E+03  0.21738993283E+03  0.43654708737E+03  0.59970320675E+03  0.00000000000E+00 0. -1.
        -13    1    5    5    0    0  0.39414888034E+01  0.10367629550E+02  0.87882870355E+01  0.14151221343E+02  0.00000000000E+00 0.  1.
          2    1    6    6  503    0 -0.10486790479E+01 -0.33346182677E+01  0.44517371469E+01  0.56601563902E+01  0.00000000000E+00 0.  1.
         -2    1    6    6    0  503  0.47598670714E+03  0.24614809045E+03  0.41933687557E+02  0.53750410413E+03  0.00000000000E+00 0. -1.
<mgrwt>
<rscale>  0 0.23025182E+04</rscale>
<asrwt>0</asrwt>
<pdfrwt beam="1">  1        1 0.23263991E+00 0.23025182E+04</pdfrwt>
<pdfrwt beam="2">  1       -2 0.13484511E+00 0.23025182E+04</pdfrwt>
<totfact> 0.20142470E+00</totfact>
</mgrwt>
</event>
<event>
12    5  0.5297412E-008  0.1147309E+04  0.7818608E-02  0.9160270E-01
         -2   -1    0    0    0  501 -0.00000000000E+00  0.00000000000E+00  0.68742697725E+03  0.68742697725E+03  0.00000000000E+00 0.  1.
          1   -1    0    0  501    0  0.00000000000E+00 -0.00000000000E+00 -0.47871172565E+03  0.47871172565E+03  0.00000000000E+00 0. -1.
        -24    2    1    2    0    0  0.11003473936E+03  0.60126700644E+01 -0.14444606058E+03  0.19755787621E+03  0.77592873179E+02 0.  0.
        254    2    1    2    0    0 -0.11003473936E+03 -0.60126700644E+01  0.35316131218E+03  0.96858082669E+03  0.89514362498E+03 0.  0.
         23    2    4    4    0    0  0.31551016810E+03  0.17086583729E+02  0.41333916228E+03  0.52821624308E+03  0.91238801283E+02 0.  0.
         23    2    4    4    0    0 -0.42554490746E+03 -0.23099253793E+02 -0.60177850102E+02  0.44036458361E+03  0.93153363158E+02 0.  0.
          1    1    3    3  502    0  0.93762414562E+02 -0.20808069867E+02 -0.76737822797E+02  0.12293518456E+03  0.00000000000E+00 0. -1.
         -2    1    3    3    0  502  0.16272324799E+02  0.26820739932E+02 -0.67708237785E+02  0.74622691648E+02  0.00000000000E+00 0.  1.
         13    1    5    5    0    0  0.22451655886E+03  0.48789883438E+02  0.25854559556E+03  0.34588142898E+03  0.00000000000E+00 0.  1.
        -13    1    5    5    0    0  0.90993609235E+02 -0.31703299710E+02  0.15479356672E+03  0.18233481410E+03  0.00000000000E+00 0. -1.
          3    1    6    6  503    0 -0.84696549473E+02 -0.32671474364E+02 -0.38765629638E+02  0.98710206012E+02  0.00000000000E+00 0. -1.
         -3    1    6    6    0  503 -0.34084835799E+03  0.95722205712E+01 -0.21412220464E+02  0.34165437760E+03  0.00000000000E+00 0.  1.
<mgrwt>
<rscale>  0 0.11473088E+04</rscale>
<asrwt>0</asrwt>
<pdfrwt beam="1">  1        1 0.73647958E-01 0.11473088E+04</pdfrwt>
<pdfrwt beam="2">  1       -2 0.10575800E+00 0.11473088E+04</pdfrwt>
<totfact> 0.29530247E+01</totfact>
</mgrwt>
</event>
<event>
12    5  0.5297412E-008  0.2590114E+04  0.7818608E-02  0.8371567E-01
         -4   -1    0    0    0  501 -0.00000000000E+00  0.00000000000E+00  0.16163897055E+04  0.16163897055E+04  0.00000000000E+00 0.  1.
          3   -1    0    0  501    0  0.00000000000E+00 -0.00000000000E+00 -0.10376043608E+04  0.10376043608E+04  0.00000000000E+00 0. -1.
        -24    2    1    2    0    0  0.10267602382E+04  0.15885308662E+03 -0.22072695092E+03  0.10651874957E+04  0.80206760359E+02 0.  0.
        254    2    1    2    0    0 -0.10267602382E+04 -0.15885308662E+03  0.79951229565E+03  0.15888065706E+04  0.89756087153E+03 0.  0.
         23    2    4    4    0    0 -0.12869898137E+03  0.21691894418E+03 -0.73299829198E+02  0.27813601934E+03  0.91485103414E+02 0.  0.
         23    2    4    4    0    0 -0.89806125680E+03 -0.37577203081E+03  0.87281212485E+03  0.13106705513E+04  0.91310725327E+02 0.  0.
          3    1    3    3  502    0  0.68837035851E+03  0.70301689562E+02 -0.13389334145E+03  0.70478614126E+03  0.00000000000E+00 0. -1.
         -4    1    3    3    0  502  0.33838987966E+03  0.88551397062E+02 -0.86833609469E+02  0.36040135448E+03  0.00000000000E+00 0.  1.
         13    1    5    5    0    0 -0.13862707923E+03  0.16530178841E+03 -0.58339484680E+02  0.22348522058E+03  0.00000000000E+00 0. -1.
        -13    1    5    5    0    0  0.99280978612E+01  0.51617155771E+02 -0.14960344518E+02  0.54650798760E+02  0.00000000000E+00 0.  1.
          3    1    6    6  503    0 -0.88289347656E+03 -0.37757469124E+03  0.86864239368E+03  0.12948371120E+04  0.00000000000E+00 0. -1.
         -3    1    6    6    0  503 -0.15167780239E+02  0.18026604366E+01  0.41697311731E+01  0.15833439300E+02  0.00000000000E+00 0.  1.
<mgrwt>
<rscale>  0 0.25901143E+04</rscale>
<asrwt>0</asrwt>
<pdfrwt beam="1">  1        3 0.15963144E+00 0.25901143E+04</pdfrwt>
<pdfrwt beam="2">  1       -4 0.24867534E+00 0.25901143E+04</pdfrwt>
<totfact> 0.35643428E-02</totfact>
</mgrwt>
</event>
<event>
12    5  0.5297412E-008  0.1687108E+04  0.7818608E-02  0.8768751E-01
         -2   -1    0    0    0  501 -0.00000000000E+00  0.00000000000E+00  0.95528263256E+03  0.95528263256E+03  0.00000000000E+00 0.  1.
          1   -1    0    0  501    0  0.00000000000E+00 -0.00000000000E+00 -0.74489343979E+03  0.74489343979E+03  0.00000000000E+00 0. -1.
        -24    2    1    2    0    0  0.81795015843E+02 -0.13438209908E+03 -0.50545829805E+03  0.53608584516E+03  0.84563403090E+02 0.  0.
        254    2    1    2    0    0 -0.81795015843E+02  0.13438209908E+03  0.71584749082E+03  0.11640902272E+04  0.90438899472E+03 0.  0.
         23    2    4    4    0    0 -0.30323410449E+03  0.39872880417E+03  0.22346189022E+03  0.55603812690E+03  0.91146040957E+02 0.  0.
         23    2    4    4    0    0  0.22143908865E+03 -0.26434670510E+03  0.49238560061E+03  0.60805210030E+03  0.91484023268E+02 0.  0.
          1    1    3    3  502    0  0.31249712893E+02 -0.10111825055E+03 -0.21806570179E+03  0.24239244099E+03  0.00000000000E+00 0. -1.
         -2    1    3    3    0  502  0.50545302951E+02 -0.33263848528E+02 -0.28739259626E+03  0.29369340417E+03  0.00000000000E+00 0.  1.
         13    1    5    5    0    0 -0.17568345270E+03  0.29096693987E+03  0.12473658628E+03  0.36205752527E+03  0.00000000000E+00 0.  1.
        -13    1    5    5    0    0 -0.12755065179E+03  0.10776186431E+03  0.98725303935E+02  0.19398060163E+03  0.00000000000E+00 0. -1.
          2    1    6    6  503    0  0.13935486399E+03 -0.10261300777E+03  0.27523829919E+03  0.32512355932E+03  0.00000000000E+00 0. -1.
         -2    1    6    6    0  503  0.82084224665E+02 -0.16173369733E+03  0.21714730141E+03  0.28292854098E+03  0.00000000000E+00 0.  1.
<mgrwt>
<rscale>  0 0.16871085E+04</rscale>
<asrwt>0</asrwt>
<pdfrwt beam="1">  1        1 0.11459899E+00 0.16871085E+04</pdfrwt>
<pdfrwt beam="2">  1       -2 0.14696656E+00 0.16871085E+04</pdfrwt>
<totfact> 0.65290879E+00</totfact>
</mgrwt>
</event>
<event>
12    5  0.5297412E-008  0.1793880E+04  0.7818608E-02  0.8709561E-01
         -2   -1    0    0    0  501 -0.00000000000E+00  0.00000000000E+00  0.19562554634E+04  0.19562554634E+04  0.00000000000E+00 0.  1.
          1   -1    0    0  501    0  0.00000000000E+00 -0.00000000000E+00 -0.41124537515E+03  0.41124537515E+03  0.00000000000E+00 0. -1.
        -24    2    1    2    0    0 -0.48973981189E+03  0.27538792266E+03  0.11010567052E+03  0.57801848056E+03  0.79363177144E+02 0.  0.
        254    2    1    2    0    0  0.48973981189E+03 -0.27538792266E+03  0.14349044177E+04  0.17894823580E+04  0.90973228494E+03 0.  0.
         23    2    4    4    0    0 -0.13962514799E+03 -0.12522930136E+03 -0.66555313713E+01  0.20690240263E+03  0.87101941694E+02 0.  0.
         23    2    4    4    0    0  0.62936495989E+03 -0.15015862130E+03  0.14415599491E+04  0.15825799553E+04  0.88410202968E+02 0.  0.
          1    1    3    3  502    0 -0.38346828857E+03  0.17628897820E+03  0.86077778634E+02  0.43073787406E+03  0.00000000000E+00 0. -1.
         -2    1    3    3    0  502 -0.10627152332E+03  0.99098944459E+02  0.24027891890E+02  0.14728060650E+03  0.00000000000E+00 0.  1.
         13    1    5    5    0    0 -0.27518650710E+02 -0.77595637567E+02  0.13528512947E+02  0.83434883405E+02  0.00000000000E+00 0.  1.
        -13    1    5    5    0    0 -0.11210649728E+03 -0.47633663792E+02 -0.20184044318E+02  0.12346751923E+03  0.00000000000E+00 0. -1.
          2    1    6    6  503    0  0.29885191514E+03 -0.52943249285E+02  0.57810195015E+03  0.65292979683E+03  0.00000000000E+00 0.  1.
         -2    1    6    6    0  503  0.33051304474E+03 -0.97215372014E+02  0.86345799892E+03  0.92965015850E+03  0.00000000000E+00 0. -1.
<mgrwt>
<rscale>  0 0.17938796E+04</rscale>
<asrwt>0</asrwt>
<pdfrwt beam="1">  1        1 0.63268521E-01 0.17938796E+04</pdfrwt>
<pdfrwt beam="2">  1       -2 0.30096237E+00 0.17938796E+04</pdfrwt>
<totfact> 0.14995585E+00</totfact>
</mgrwt>
</event>
<event>
12    5  0.5297412E-008  0.1131471E+04  0.7818608E-02  0.9175050E-01
          1   -1    0    0  501    0  0.00000000000E+00  0.00000000000E+00  0.44567795106E+03  0.44567795106E+03  0.00000000000E+00 0. -1.
         -2   -1    0    0    0  501 -0.00000000000E+00 -0.00000000000E+00 -0.71813434805E+03  0.71813434805E+03  0.00000000000E+00 0.  1.
        -24    2    1    2    0    0  0.27669670470E+03  0.13385283463E+03 -0.20019116548E+03  0.37648183992E+03  0.84760989368E+02 0.  0.
        254    2    1    2    0    0 -0.27669670470E+03 -0.13385283463E+03 -0.72265231506E+02  0.78733045919E+03  0.72124152719E+03 0.  0.
         23    2    4    4    0    0 -0.50296698293E+03 -0.16108467433E+03 -0.18949555759E+02  0.53627418033E+03  0.91141936564E+02 0.  0.
         23    2    4    4    0    0  0.22627027822E+03  0.27231839706E+02 -0.53315675747E+02  0.25105627886E+03  0.90812344833E+02 0.  0.
          1    1    3    3  502    0  0.67397799291E+02  0.24373153566E+02 -0.92156703339E+02  0.11674490111E+03  0.00000000000E+00 0. -1.
         -2    1    3    3    0  502  0.20929890541E+03  0.10947968106E+03 -0.10803446214E+03  0.25973693881E+03  0.00000000000E+00 0.  1.
         13    1    5    5    0    0 -0.49056673967E+03 -0.17118937276E+03 -0.14985150046E+02  0.51979426905E+03  0.00000000000E+00 0. -1.
        -13    1    5    5    0    0 -0.12400243253E+02  0.10104698421E+02 -0.39644057125E+01  0.16479911273E+02  0.00000000000E+00 0.  1.
          3    1    6    6  503    0  0.11176993383E+03  0.47766511024E+02 -0.57908324413E+02  0.13463852242E+03  0.00000000000E+00 0. -1.
         -3    1    6    6    0  503  0.11450034440E+03 -0.20534671318E+02  0.45926486652E+01  0.11641775644E+03  0.00000000000E+00 0.  1.
<mgrwt>
<rscale>  0 0.11314710E+04</rscale>
<asrwt>0</asrwt>
<pdfrwt beam="1">  1        1 0.68565839E-01 0.11314710E+04</pdfrwt>
<pdfrwt beam="2">  1       -2 0.11048221E+00 0.11314710E+04</pdfrwt>
<totfact> 0.29310435E+01</totfact>
</mgrwt>
</event>
<event>
12    5  0.5297412E-008  0.1939696E+04  0.7818608E-02  0.8635346E-01
         -2   -1    0    0    0  501 -0.00000000000E+00  0.00000000000E+00  0.29390535135E+03  0.29390535135E+03  0.00000000000E+00 0.  1.
          1   -1    0    0  501    0  0.00000000000E+00 -0.00000000000E+00 -0.32003659856E+04  0.32003659856E+04  0.00000000000E+00 0. -1.
        -24    2    1    2    0    0 -0.14436348071E+03  0.66631853537E+01 -0.24795823564E+04  0.24851379657E+04  0.81834186406E+02 0.  0.
        254    2    1    2    0    0  0.14436348071E+03 -0.66631853537E+01 -0.42687827791E+03  0.10091333713E+04  0.90290635407E+03 0.  0.
         23    2    4    4    0    0 -0.25658413514E+03 -0.29994762163E+03 -0.13999079622E+03  0.42852614478E+03  0.90737200758E+02 0.  0.
         23    2    4    4    0    0  0.40094761585E+03  0.29328443628E+03 -0.28688748169E+03  0.58060722648E+03  0.89585562826E+02 0.  0.
          1    1    3    3  502    0 -0.10805720367E+03  0.14399233648E+02 -0.22442330431E+04  0.22468790909E+04  0.00000000000E+00 0. -1.
         -2    1    3    3    0  502 -0.36306277044E+02 -0.77360482943E+01 -0.23534931324E+03  0.23825887484E+03  0.00000000000E+00 0.  1.
         13    1    5    5    0    0 -0.22897295138E+00  0.39334816976E+01  0.40661323002E+01  0.56619907065E+01  0.00000000000E+00 0. -1.
        -13    1    5    5    0    0 -0.25635516219E+03 -0.30388110333E+03 -0.14405692852E+03  0.42286415407E+03  0.00000000000E+00 0.  1.
          2    1    6    6  503    0  0.38150469430E+02  0.66028225694E+02 -0.52064670321E+02  0.92335880359E+02  0.00000000000E+00 0. -1.
         -2    1    6    6    0  503  0.36279714642E+03  0.22725621059E+03 -0.23482281137E+03  0.48827134612E+03  0.00000000000E+00 0.  1.
<mgrwt>
<rscale>  0 0.19396955E+04</rscale>
<asrwt>0</asrwt>
<pdfrwt beam="1">  1        1 0.49236398E+00 0.19396955E+04</pdfrwt>
<pdfrwt beam="2">  1       -2 0.45216210E-01 0.19396955E+04</pdfrwt>
<totfact> 0.16192852E+00</totfact>
</mgrwt>
</event>
<event>
12    5  0.5297412E-008  0.1855978E+04  0.7818608E-02  0.8677084E-01
         -2   -1    0    0    0  501 -0.00000000000E+00  0.00000000000E+00  0.51155469492E+03  0.51155469492E+03  0.00000000000E+00 0.  1.
          1   -1    0    0  501    0  0.00000000000E+00 -0.00000000000E+00 -0.16834250509E+04  0.16834250509E+04  0.00000000000E+00 0. -1.
        -24    2    1    2    0    0 -0.53191388234E+03  0.15028434610E+03  0.66249148413E+02  0.56206556528E+03  0.77530555948E+02 0.  0.
        254    2    1    2    0    0  0.53191388234E+03 -0.15028434610E+03 -0.12381195044E+04  0.16329141806E+04  0.90991815617E+03 0.  0.
         23    2    4    4    0    0 -0.17133966950E+02  0.94914252544E+02  0.98605735745E+02  0.16438137345E+03  0.89419554106E+02 0.  0.
         23    2    4    4    0    0  0.54904784929E+03 -0.24519859864E+03 -0.13367252402E+04  0.14685328071E+04  0.90434198549E+02 0.  0.
          3    1    3    3  502    0 -0.42909134233E+03  0.10783337822E+03  0.81203898977E+02  0.44982384412E+03  0.00000000000E+00 0. -1.
         -4    1    3    3    0  502 -0.10282254000E+03  0.42450967875E+02 -0.14954750565E+02  0.11224172117E+03  0.00000000000E+00 0.  1.
         13    1    5    5    0    0 -0.20454754801E+02  0.37283790407E+02  0.97804354585E+02  0.10664975292E+03  0.00000000000E+00 0. -1.
        -13    1    5    5    0    0  0.33207878511E+01  0.57630462136E+02  0.80138116047E+00  0.57731620536E+02  0.00000000000E+00 0.  1.
          1    1    6    6  503    0  0.27605850094E+03 -0.79851068767E+02 -0.68565503710E+03  0.74344288216E+03  0.00000000000E+00 0. -1.
         -1    1    6    6    0  503  0.27298934835E+03 -0.16534752988E+03 -0.65107020306E+03  0.72508992495E+03  0.00000000000E+00 0.  1.
<mgrwt>
<rscale>  0 0.18559784E+04</rscale>
<asrwt>0</asrwt>
<pdfrwt beam="1">  1        1 0.25898847E+00 0.18559784E+04</pdfrwt>
<pdfrwt beam="2">  1       -2 0.78700721E-01 0.18559784E+04</pdfrwt>
<totfact> 0.57832525E+00</totfact>
</mgrwt>
</event>
<event>
12    5  0.5297412E-008  0.2053591E+04  0.7818608E-02  0.8581967E-01
          1   -1    0    0  501    0  0.00000000000E+00  0.00000000000E+00  0.10263495466E+04  0.10263495466E+04  0.00000000000E+00 0. -1.
         -2   -1    0    0    0  501 -0.00000000000E+00 -0.00000000000E+00 -0.10272411814E+04  0.10272411814E+04  0.00000000000E+00 0.  1.
        -24    2    1    2    0    0  0.63277578590E+03  0.38830541646E+03 -0.36032921244E+03  0.82926360379E+03  0.81576292962E+02 0.  0.
        254    2    1    2    0    0 -0.63277578590E+03 -0.38830541646E+03  0.35943757762E+03  0.12243271242E+04  0.90476253412E+03 0.  0.
         23    2    4    4    0    0 -0.17619740312E+03  0.24881010027E+02 -0.27210521258E+03  0.33824360842E+03  0.93289347705E+02 0.  0.
         23    2    4    4    0    0 -0.45657838277E+03 -0.41318642648E+03  0.63154279019E+03  0.88608351577E+03  0.84325906020E+02 0.  0.
          1    1    3    3  502    0  0.20079939624E+03  0.10460306990E+03 -0.14827117370E+03  0.27064098121E+03  0.00000000000E+00 0. -1.
         -2    1    3    3    0  502  0.43197638966E+03  0.28370234656E+03 -0.21205803874E+03  0.55862262258E+03  0.00000000000E+00 0.  1.
         13    1    5    5    0    0 -0.16787775677E+03 -0.59778518164E+01 -0.23994383204E+03  0.29290223362E+03  0.00000000000E+00 0. -1.
        -13    1    5    5    0    0 -0.83196463565E+01  0.30858861843E+02 -0.32161380541E+02  0.45341374793E+02  0.00000000000E+00 0.  1.
          1    1    6    6  503    0 -0.31537453745E+03 -0.23260391745E+03  0.41404817019E+03  0.57008908823E+03  0.00000000000E+00 0. -1.
         -1    1    6    6    0  503 -0.14120384532E+03 -0.18058250904E+03  0.21749462000E+03  0.31599442754E+03  0.00000000000E+00 0.  1.
<mgrwt>
<rscale>  0 0.20535905E+04</rscale>
<asrwt>0</asrwt>
<pdfrwt beam="1">  1        1 0.15789993E+00 0.20535905E+04</pdfrwt>
<pdfrwt beam="2">  1       -2 0.15803711E+00 0.20535905E+04</pdfrwt>
<totfact> 0.30433972E+00</totfact>
</mgrwt>
</event>
<event>
12    5  0.5297412E-008  0.1490915E+04  0.7818608E-02  0.8890517E-01
          1   -1    0    0  501    0  0.00000000000E+00  0.00000000000E+00  0.24003487757E+04  0.24003487757E+04  0.00000000000E+00 0. -1.
         -2   -1    0    0    0  501 -0.00000000000E+00 -0.00000000000E+00 -0.23151090118E+03  0.23151090118E+03  0.00000000000E+00 0.  1.
        -24    2    1    2    0    0  0.37345257854E+03  0.29097121483E+03  0.76719489948E+03  0.90494965671E+03  0.78833946442E+02 0.  0.
        254    2    1    2    0    0 -0.37345257854E+03 -0.29097121483E+03  0.14016429750E+04  0.17269100201E+04  0.89077725161E+03 0.  0.
         23    2    4    4    0    0 -0.36123237730E+03 -0.85307263004E+02  0.14473656632E+04  0.14969616430E+04  0.90888051620E+02 0.  0.
         23    2    4    4    0    0 -0.12220201245E+02 -0.20566395183E+03 -0.45722688260E+02  0.22994837713E+03  0.91316469052E+02 0.  0.
          1    1    3    3  502    0  0.29376552330E+03  0.26166596550E+03  0.65790668746E+03  0.76655624033E+03  0.00000000000E+00 0. -1.
         -2    1    3    3    0  502  0.79687055244E+02  0.29305249336E+02  0.10928821202E+03  0.13839341638E+03  0.00000000000E+00 0.  1.
         13    1    5    5    0    0 -0.26206354680E+03 -0.58419755770E+02  0.86877822864E+03  0.90932160481E+03  0.00000000000E+00 0. -1.
        -13    1    5    5    0    0 -0.99168830494E+02 -0.26887507233E+02  0.57858743461E+03  0.58764003819E+03  0.00000000000E+00 0.  1.
          3    1    6    6  503    0  0.37810716081E+02 -0.11654441221E+03 -0.16363416345E+02  0.12361234429E+03  0.00000000000E+00 0.  1.
         -3    1    6    6    0  503 -0.50030917326E+02 -0.89119539623E+02 -0.29359271915E+02  0.10633603283E+03  0.00000000000E+00 0. -1.
<mgrwt>
<rscale>  0 0.14909150E+04</rscale>
<asrwt>0</asrwt>
<pdfrwt beam="1">  1        1 0.36928441E+00 0.14909150E+04</pdfrwt>
<pdfrwt beam="2">  1       -2 0.35617064E-01 0.14909150E+04</pdfrwt>
<totfact> 0.10020328E+01</totfact>
</mgrwt>
</event>
<event>
12    5  0.5297412E-008  0.2307343E+04  0.7818608E-02  0.8475031E-01
          1   -1    0    0  501    0  0.00000000000E+00  0.00000000000E+00  0.11126262186E+04  0.11126262186E+04  0.00000000000E+00 0. -1.
         -2   -1    0    0    0  501 -0.00000000000E+00 -0.00000000000E+00 -0.11962313770E+04  0.11962313770E+04  0.00000000000E+00 0.  1.
        -24    2    1    2    0    0  0.69990237834E+02  0.51455782798E+03 -0.83963373965E+03  0.99062195559E+03  0.81723010230E+02 0.  0.
        254    2    1    2    0    0 -0.69990237834E+02 -0.51455782798E+03  0.75602858122E+03  0.13182356400E+04  0.94683556932E+03 0.  0.
         23    2    4    4    0    0 -0.34266796892E+03 -0.58779880397E+03  0.24716253100E+03  0.72960817433E+03  0.91159203859E+02 0.  0.
         23    2    4    4    0    0  0.27267773109E+03  0.73240975984E+02  0.50886605022E+03  0.58862746572E+03  0.88432181537E+02 0.  0.
          1    1    3    3  502    0  0.45123014489E+02  0.43038648645E+03 -0.64029977476E+03  0.77282107613E+03  0.00000000000E+00 0. -1.
         -2    1    3    3    0  502  0.24867223345E+02  0.84171341530E+02 -0.19933396489E+03  0.21780087946E+03  0.00000000000E+00 0.  1.
         13    1    5    5    0    0 -0.21633189006E+03 -0.42575644070E+03  0.20576944082E+03  0.52000874630E+03  0.00000000000E+00 0.  1.
        -13    1    5    5    0    0 -0.12633607886E+03 -0.16204236327E+03  0.41393090180E+02  0.20959942803E+03  0.00000000000E+00 0. -1.
          3    1    6    6  503    0  0.18367975457E+03  0.83452133270E+02  0.30190044638E+03  0.36310658258E+03  0.00000000000E+00 0. -1.
         -3    1    6    6    0  503  0.88997976513E+02 -0.10211157286E+02  0.20696560385E+03  0.22552088314E+03  0.00000000000E+00 0.  1.
<mgrwt>
<rscale>  0 0.23073434E+04</rscale>
<asrwt>0</asrwt>
<pdfrwt beam="1">  1        1 0.17117326E+00 0.23073434E+04</pdfrwt>
<pdfrwt beam="2">  1       -2 0.18403560E+00 0.23073434E+04</pdfrwt>
<totfact> 0.16717700E+00</totfact>
</mgrwt>
</event>
<event>
12    5  0.5297412E-008  0.1128800E+04  0.7818608E-02  0.9177568E-01
          1   -1    0    0  501    0  0.00000000000E+00  0.00000000000E+00  0.17157347103E+04  0.17157347103E+04  0.00000000000E+00 0. -1.
         -2   -1    0    0    0  501 -0.00000000000E+00 -0.00000000000E+00 -0.18566221301E+03  0.18566221301E+03  0.00000000000E+00 0.  1.
        -24    2    1    2    0    0 -0.79825634210E+02  0.32382509270E+02 -0.92260755645E+01  0.11759319389E+03  0.79512766237E+02 0.  0.
        254    2    1    2    0    0  0.79825634210E+02 -0.32382509270E+02  0.15392985728E+04  0.17838037294E+04  0.89727080076E+03 0.  0.
         23    2    4    4    0    0 -0.37959865098E+03  0.10345634713E+03  0.57441905256E+03  0.70271618731E+03  0.95154823194E+02 0.  0.
         23    2    4    4    0    0  0.45942428519E+03 -0.13583885640E+03  0.96487952027E+03  0.10810875421E+04  0.90746439480E+02 0.  0.
          3    1    3    3  502    0  0.13103677725E+02 -0.50139054029E+01 -0.10317903711E+02  0.17415646824E+02  0.00000000000E+00 0. -1.
         -4    1    3    3    0  502 -0.92929311934E+02  0.37396414673E+02  0.10918281468E+01  0.10017754706E+03  0.00000000000E+00 0.  1.
         13    1    5    5    0    0 -0.19079753863E+03  0.40402111319E+02  0.20415622583E+03  0.28233985884E+03  0.00000000000E+00 0.  1.
        -13    1    5    5    0    0 -0.18880111235E+03  0.63054235808E+02  0.37026282673E+03  0.42037632847E+03  0.00000000000E+00 0. -1.
          2    1    6    6  503    0  0.45857650061E+03 -0.12521466970E+03  0.92755659131E+03  0.10422726853E+04  0.00000000000E+00 0. -1.
         -2    1    6    6    0  503  0.84778458374E+00 -0.10624186701E+02  0.37322928957E+02  0.38814856791E+02  0.00000000000E+00 0.  1.
<mgrwt>
<rscale>  0 0.11287995E+04</rscale>
<asrwt>0</asrwt>
<pdfrwt beam="1">  1        1 0.26395918E+00 0.11287995E+04</pdfrwt>
<pdfrwt beam="2">  1       -2 0.28563419E-01 0.11287995E+04</pdfrwt>
<totfact> 0.45631968E+01</totfact>
</mgrwt>
</event>
<event>
12    5  0.5297412E-008  0.1270420E+04  0.7818608E-02  0.9053357E-01
          1   -1    0    0  501    0  0.00000000000E+00  0.00000000000E+00  0.33527191703E+03  0.33527191703E+03  0.00000000000E+00 0. -1.
         -2   -1    0    0    0  501 -0.00000000000E+00 -0.00000000000E+00 -0.12034757875E+04  0.12034757875E+04  0.00000000000E+00 0.  1.
        -24    2    1    2    0    0  0.64956259891E+02 -0.30852822367E+03 -0.17268423950E+03  0.36831686829E+03  0.80177854766E+02 0.  0.
        254    2    1    2    0    0 -0.64956259891E+02  0.30852822367E+03 -0.69551963097E+03  0.11704308362E+04  0.88699030708E+03 0.  0.
         23    2    4    4    0    0  0.21761195523E+03 -0.18115620025E+03 -0.40976070017E+02  0.30076559704E+03  0.92781324109E+02 0.  0.
         23    2    4    4    0    0 -0.28256821512E+03  0.48968442392E+03 -0.65454356096E+03  0.86966523920E+03  0.90855510910E+02 0.  0.
          3    1    3    3  502    0  0.46475478080E+02 -0.29755158824E+03 -0.14792039333E+03  0.33552549901E+03  0.00000000000E+00 0. -1.
         -4    1    3    3    0  502  0.18480781811E+02 -0.10976635431E+02 -0.24763846170E+02  0.32791369274E+02  0.00000000000E+00 0.  1.
         13    1    5    5    0    0  0.94704960828E+02 -0.29184805043E+02 -0.35404546492E+02  0.10523433072E+03  0.00000000000E+00 0. -1.
        -13    1    5    5    0    0  0.12290699440E+03 -0.15197139521E+03 -0.55715235245E+01  0.19553126632E+03  0.00000000000E+00 0.  1.
          3    1    6    6  503    0 -0.41166985479E+02  0.98891836099E+02 -0.17827647873E+03  0.20798273680E+03  0.00000000000E+00 0.  1.
         -3    1    6    6    0  503 -0.24140122964E+03  0.39079258782E+03 -0.47626708223E+03  0.66168250240E+03  0.00000000000E+00 0. -1.
<mgrwt>
<rscale>  0 0.12704198E+04</rscale>
<asrwt>0</asrwt>
<pdfrwt beam="1">  1        1 0.51580296E-01 0.12704198E+04</pdfrwt>
<pdfrwt beam="2">  1       -2 0.18515012E+00 0.12704198E+04</pdfrwt>
<totfact> 0.10881187E+01</totfact>
</mgrwt>
</event>
<event>
12    5  0.5297412E-008  0.2045463E+04  0.7818608E-02  0.8585655E-01
         -2   -1    0    0    0  501 -0.00000000000E+00  0.00000000000E+00  0.29851940605E+03  0.29851940605E+03  0.00000000000E+00 0.  1.
          1   -1    0    0  501    0  0.00000000000E+00 -0.00000000000E+00 -0.35038926109E+04  0.35038926109E+04  0.00000000000E+00 0. -1.
        -24    2    1    2    0    0 -0.41241465974E+03 -0.70981030777E+03 -0.10998635564E+04  0.13747888183E+04  0.80174359112E+02 0.  0.
        254    2    1    2    0    0  0.41241465974E+03  0.70981030777E+03 -0.21055096485E+04  0.24276231986E+04  0.88671697285E+03 0.  0.
         23    2    4    4    0    0 -0.14791255661E+03  0.31304626752E+03 -0.22287943118E+03  0.42165307568E+03  0.90774365190E+02 0.  0.
         23    2    4    4    0    0  0.56032721635E+03  0.39676404024E+03 -0.18826302173E+04  0.20059701229E+04  0.90726544778E+02 0.  0.
          3    1    3    3  502    0 -0.69786184244E+02 -0.18662278123E+03 -0.27852161058E+03  0.34245067023E+03  0.00000000000E+00 0. -1.
         -4    1    3    3    0  502 -0.34262847549E+03 -0.52318752654E+03 -0.82134194578E+03  0.10323381481E+04  0.00000000000E+00 0.  1.
         13    1    5    5    0    0 -0.15218945976E+03  0.26738398525E+03 -0.16944889635E+03  0.35123888695E+03  0.00000000000E+00 0.  1.
        -13    1    5    5    0    0  0.42769031487E+01  0.45662282271E+02 -0.53430534829E+02  0.70414188732E+02  0.00000000000E+00 0. -1.
          1    1    6    6  503    0  0.14970896941E+03  0.59750390519E+02 -0.45566875668E+03  0.48333932233E+03  0.00000000000E+00 0. -1.
         -1    1    6    6    0  503  0.41061824694E+03  0.33701364973E+03 -0.14269614606E+04  0.15226308006E+04  0.00000000000E+00 0.  1.
<mgrwt>
<rscale>  0 0.20454632E+04</rscale>
<asrwt>0</asrwt>
<pdfrwt beam="1">  1        1 0.53906042E+00 0.20454632E+04</pdfrwt>
<pdfrwt beam="2">  1       -2 0.45926061E-01 0.20454632E+04</pdfrwt>
<totfact> 0.90933541E-01</totfact>
</mgrwt>
</event>
<event>
12    5  0.5297412E-008  0.1302684E+04  0.7818608E-02  0.9027440E-01
          1   -1    0    0  501    0  0.00000000000E+00  0.00000000000E+00  0.92537949478E+03  0.92537949478E+03  0.00000000000E+00 0. -1.
         -2   -1    0    0    0  501 -0.00000000000E+00 -0.00000000000E+00 -0.45845642709E+03  0.45845642709E+03  0.00000000000E+00 0.  1.
        -24    2    1    2    0    0 -0.61727649253E+02 -0.18368298183E+03 -0.16213310410E+03  0.26495949231E+03  0.79791281620E+02 0.  0.
        254    2    1    2    0    0  0.61727649253E+02  0.18368298183E+03  0.62905617179E+03  0.11188764296E+04  0.90477790471E+03 0.  0.
         23    2    4    4    0    0 -0.10460819651E+03  0.50663487674E+03  0.48826321711E+03  0.71726710894E+03  0.91920418175E+02 0.  0.
         23    2    4    4    0    0  0.16633584576E+03 -0.32295189491E+03  0.14079295468E+03  0.40160932061E+03  0.97477434851E+02 0.  0.
          1    1    3    3  502    0 -0.11416320395E+02 -0.16253857130E+02  0.76253356932E+01  0.21275948566E+02  0.00000000000E+00 0. -1.
         -2    1    3    3    0  502 -0.50311328859E+02 -0.16742912470E+03 -0.16975843980E+03  0.24368354374E+03  0.00000000000E+00 0.  1.
         13    1    5    5    0    0 -0.38680689447E+02  0.29209750353E+03  0.33139979603E+03  0.44344444085E+03  0.00000000000E+00 0.  1.
        -13    1    5    5    0    0 -0.65927507062E+02  0.21453737321E+03  0.15686342108E+03  0.27382266809E+03  0.00000000000E+00 0. -1.
          2    1    6    6  503    0  0.43835153590E+02 -0.86158075152E+02 -0.67468989850E+01  0.96903329407E+02  0.00000000000E+00 0.  1.
         -2    1    6    6    0  503  0.12250069217E+03 -0.23679381976E+03  0.14753985366E+03  0.30470599121E+03  0.00000000000E+00 0. -1.
<mgrwt>
<rscale>  0 0.13026837E+04</rscale>
<asrwt>0</asrwt>
<pdfrwt beam="1">  1        1 0.14236608E+00 0.13026837E+04</pdfrwt>
<pdfrwt beam="2">  1       -2 0.70531758E-01 0.13026837E+04</pdfrwt>
<totfact> 0.27315395E+01</totfact>
</mgrwt>
</event>
<event>
12    5  0.5297412E-008  0.1455196E+04  0.7818608E-02  0.8914806E-01
          1   -1    0    0  501    0  0.00000000000E+00  0.00000000000E+00  0.71367880683E+03  0.71367880683E+03  0.00000000000E+00 0. -1.
         -2   -1    0    0    0  501 -0.00000000000E+00 -0.00000000000E+00 -0.74178867596E+03  0.74178867596E+03  0.00000000000E+00 0.  1.
        -24    2    1    2    0    0 -0.27585396569E+02 -0.41895925386E+03 -0.16071376384E+03  0.45714165390E+03  0.82835785379E+02 0.  0.
        254    2    1    2    0    0  0.27585396569E+02  0.41895925386E+03  0.13260389471E+03  0.99832582890E+03  0.89598150498E+03 0.  0.
         23    2    4    4    0    0 -0.67641842667E+02  0.40664735280E+03 -0.31794186000E+03  0.52866642421E+03  0.91998224589E+02 0.  0.
         23    2    4    4    0    0  0.95227239237E+02  0.12311901060E+02  0.45054575471E+03  0.46965940469E+03  0.91480431386E+02 0.  0.
          3    1    3    3  502    0  0.24089753300E+02 -0.16231455464E+03 -0.40228966492E+02  0.16895177007E+03  0.00000000000E+00 0. -1.
         -4    1    3    3    0  502 -0.51675149869E+02 -0.25664469922E+03 -0.12048479735E+03  0.28818988383E+03  0.00000000000E+00 0.  1.
         13    1    5    5    0    0 -0.28930047011E+02  0.35942874429E+03 -0.26059468400E+03  0.44489949334E+03  0.00000000000E+00 0. -1.
        -13    1    5    5    0    0 -0.38711795657E+02  0.47218608508E+02 -0.57347176001E+02  0.83766930872E+02  0.00000000000E+00 0.  1.
          2    1    6    6  503    0  0.58635867273E+02 -0.11460737134E+02  0.39260696340E+03  0.39712685774E+03  0.00000000000E+00 0.  1.
         -2    1    6    6    0  503  0.36591371964E+02  0.23772638194E+02  0.57938791307E+02  0.72532546949E+02  0.00000000000E+00 0. -1.
<mgrwt>
<rscale>  0 0.14551960E+04</rscale>
<asrwt>0</asrwt>
<pdfrwt beam="1">  1        1 0.10979674E+00 0.14551960E+04</pdfrwt>
<pdfrwt beam="2">  1       -2 0.11412134E+00 0.14551960E+04</pdfrwt>
<totfact> 0.13507663E+01</totfact>
</mgrwt>
</event>
<event>
12    5  0.5297412E-008  0.1159126E+04  0.7818608E-02  0.9149406E-01
          1   -1    0    0  501    0  0.00000000000E+00  0.00000000000E+00  0.15048362736E+04  0.15048362736E+04  0.00000000000E+00 0. -1.
         -2   -1    0    0    0  501 -0.00000000000E+00 -0.00000000000E+00 -0.22320909734E+03  0.22320909734E+03  0.00000000000E+00 0.  1.
        -24    2    1    2    0    0  0.64112153535E+02 -0.17422158254E+03  0.81396355179E+02  0.21794065586E+03  0.80057696600E+02 0.  0.
        254    2    1    2    0    0 -0.64112153535E+02  0.17422158254E+03  0.12002308211E+04  0.15101047151E+04  0.89744008081E+03 0.  0.
         23    2    4    4    0    0  0.18538945054E+03  0.43543209235E+03  0.39857489481E+03  0.62605170027E+03  0.95438091046E+02 0.  0.
         23    2    4    4    0    0 -0.24950160408E+03 -0.26121050980E+03  0.80165592631E+03  0.88405301486E+03  0.91736187100E+02 0.  0.
          1    1    3    3  502    0 -0.50265664005E+01 -0.87811003849E+02  0.16005566786E+02  0.89399199856E+02  0.00000000000E+00 0. -1.
         -2    1    3    3    0  502  0.69138719936E+02 -0.86410578693E+02  0.65390788393E+02  0.12854145600E+03  0.00000000000E+00 0.  1.
         13    1    5    5    0    0  0.10872276809E+03  0.35230176672E+03  0.32166360763E+03  0.48928994636E+03  0.00000000000E+00 0.  1.
        -13    1    5    5    0    0  0.76666682454E+02  0.83130325622E+02  0.76911287177E+02  0.13676175391E+03  0.00000000000E+00 0. -1.
          2    1    6    6  503    0 -0.20124746419E+03 -0.15041687540E+03  0.56424900103E+03  0.61765905920E+03  0.00000000000E+00 0. -1.
         -2    1    6    6    0  503 -0.48254139886E+02 -0.11079363440E+03  0.23740692528E+03  0.26639395566E+03  0.00000000000E+00 0.  1.
<mgrwt>
<rscale>  0 0.11591258E+04</rscale>
<asrwt>0</asrwt>
<pdfrwt beam="1">  1        1 0.23151327E+00 0.11591258E+04</pdfrwt>
<pdfrwt beam="2">  1       -2 0.34339862E-01 0.11591258E+04</pdfrwt>
<totfact> 0.44912578E+01</totfact>
</mgrwt>
</event>
<event>
12    5  0.5297412E-008  0.1916860E+04  0.7818608E-02  0.8646509E-01
         -2   -1    0    0    0  501 -0.00000000000E+00  0.00000000000E+00  0.45065577044E+03  0.45065577044E+03  0.00000000000E+00 0.  1.
          1   -1    0    0  501    0  0.00000000000E+00 -0.00000000000E+00 -0.20383360717E+04  0.20383360717E+04  0.00000000000E+00 0. -1.
        -24    2    1    2    0    0  0.54047357233E+03 -0.10569472879E+03 -0.12852565408E+04  0.14005014072E+04  0.78973146124E+02 0.  0.
        254    2    1    2    0    0 -0.54047357233E+03  0.10569472879E+03 -0.30242376043E+03  0.10884904349E+04  0.88885782774E+03 0.  0.
         23    2    4    4    0    0 -0.72772361407E+03 -0.25963109648E+02 -0.49091197678E+02  0.73554674614E+03  0.91451235748E+02 0.  0.
         23    2    4    4    0    0  0.18725004174E+03  0.13165783844E+03 -0.25333256275E+03  0.35294368877E+03  0.89417534857E+02 0.  0.
          3    1    3    3  502    0  0.32273716782E+03 -0.87205078030E+02 -0.69867630425E+03  0.77454023991E+03  0.00000000000E+00 0. -1.
         -4    1    3    3    0  502  0.21773640452E+03 -0.18489650763E+02 -0.58658023655E+03  0.62596116729E+03  0.00000000000E+00 0.  1.
         13    1    5    5    0    0 -0.18610650900E+02 -0.14420527605E+02 -0.90075307703E+01  0.25208005751E+02  0.00000000000E+00 0.  1.
        -13    1    5    5    0    0 -0.70911296317E+03 -0.11542582043E+02 -0.40083666907E+02  0.71033874039E+03  0.00000000000E+00 0. -1.
          3    1    6    6  503    0  0.14522804628E+03  0.49672113587E+02 -0.16387824446E+03  0.22453192045E+03  0.00000000000E+00 0. -1.
         -3    1    6    6    0  503  0.42021995460E+02  0.81985724855E+02 -0.89454318288E+02  0.12841176832E+03  0.00000000000E+00 0.  1.
<mgrwt>
<rscale>  0 0.19168598E+04</rscale>
<asrwt>0</asrwt>
<pdfrwt beam="1">  1        1 0.31359017E+00 0.19168598E+04</pdfrwt>
<pdfrwt beam="2">  1       -2 0.69331656E-01 0.19168598E+04</pdfrwt>
<totfact> 0.43714370E+00</totfact>
</mgrwt>
</event>
<event>
12    5  0.5297412E-008  0.1360594E+04  0.7818608E-02  0.8982847E-01
          1   -1    0    0  501    0  0.00000000000E+00  0.00000000000E+00  0.10038016955E+04  0.10038016955E+04  0.00000000000E+00 0. -1.
         -2   -1    0    0    0  501 -0.00000000000E+00 -0.00000000000E+00 -0.46105091794E+03  0.46105091794E+03  0.00000000000E+00 0.  1.
        -24    2    1    2    0    0  0.26997919757E+03 -0.22919083871E+03  0.21824780709E+02  0.36355997323E+03  0.79261121698E+02 0.  0.
        254    2    1    2    0    0 -0.26997919757E+03  0.22919083871E+03  0.52092599690E+03  0.11012926403E+04  0.90336281614E+03 0.  0.
         23    2    4    4    0    0  0.27320530542E+03  0.41923020418E+02 -0.39157746898E+02  0.29385926488E+03  0.91767422683E+02 0.  0.
         23    2    4    4    0    0 -0.54318450299E+03  0.18726781829E+03  0.56008374380E+03  0.80743337538E+03  0.90200973155E+02 0.  0.
          3    1    3    3  502    0  0.88295140619E+01  0.65277136309E+01 -0.97129040032E+00  0.11023373751E+02  0.00000000000E+00 0. -1.
         -4    1    3    3    0  502  0.26114968351E+03 -0.23571855234E+03  0.22796071109E+02  0.35253659948E+03  0.00000000000E+00 0.  1.
         13    1    5    5    0    0  0.16857897388E+03 -0.19777901508E+02 -0.25186653394E+02  0.17159371589E+03  0.00000000000E+00 0. -1.
        -13    1    5    5    0    0  0.10462633154E+03  0.61700921927E+02 -0.13971093505E+02  0.12226554899E+03  0.00000000000E+00 0.  1.
          1    1    6    6  503    0 -0.31327273378E+02 -0.31392797082E+01  0.11954411361E+02  0.33677308167E+02  0.00000000000E+00 0. -1.
         -1    1    6    6    0  503 -0.51185722961E+03  0.19040709800E+03  0.54812933244E+03  0.77375606721E+03  0.00000000000E+00 0.  1.
<mgrwt>
<rscale>  0 0.13605935E+04</rscale>
<asrwt>0</asrwt>
<pdfrwt beam="1">  1        1 0.15443103E+00 0.13605935E+04</pdfrwt>
<pdfrwt beam="2">  1       -2 0.70930910E-01 0.13605935E+04</pdfrwt>
<totfact> 0.23271108E+01</totfact>
</mgrwt>
</event>
<event>
12    5  0.5297412E-008  0.1245905E+04  0.7818608E-02  0.9073598E-01
         -2   -1    0    0    0  501 -0.00000000000E+00  0.00000000000E+00  0.23044295321E+03  0.23044295321E+03  0.00000000000E+00 0.  1.
          1   -1    0    0  501    0  0.00000000000E+00 -0.00000000000E+00 -0.16840169725E+04  0.16840169725E+04  0.00000000000E+00 0. -1.
        -24    2    1    2    0    0  0.24894751223E+01  0.11894148869E+02 -0.77536069336E+03  0.77953915026E+03  0.79683208421E+02 0.  0.
        254    2    1    2    0    0 -0.24894751223E+01 -0.11894148869E+02 -0.67821332596E+03  0.11349207755E+04  0.90990339203E+03 0.  0.
         23    2    4    4    0    0 -0.72037192749E+02 -0.27005858322E+02  0.20858451024E+03  0.24058993627E+03  0.91963829851E+02 0.  0.
         23    2    4    4    0    0  0.69547717627E+02  0.15111709453E+02 -0.88679783620E+03  0.89433083920E+03  0.91389271088E+02 0.  0.
          3    1    3    3  502    0 -0.34843905231E+02  0.50429578170E+01 -0.53914469642E+03  0.54029300646E+03  0.00000000000E+00 0. -1.
         -4    1    3    3    0  502  0.37333380353E+02  0.68511910518E+01 -0.23621599695E+03  0.23924614379E+03  0.00000000000E+00 0.  1.
         13    1    5    5    0    0 -0.14554627294E+02 -0.53546498607E+02  0.11374779110E+03  0.12656075486E+03  0.00000000000E+00 0.  1.
        -13    1    5    5    0    0 -0.57482565455E+02  0.26540640285E+02  0.94836719137E+02  0.11402918142E+03  0.00000000000E+00 0. -1.
          4    1    6    6  503    0  0.49715989682E+02 -0.27620067932E+02 -0.28062192331E+03  0.28632710599E+03  0.00000000000E+00 0. -1.
         -4    1    6    6    0  503  0.19831727945E+02  0.42731777385E+02 -0.60617591289E+03  0.60800373321E+03  0.00000000000E+00 0.  1.
<mgrwt>
<rscale>  0 0.12459050E+04</rscale>
<asrwt>0</asrwt>
<pdfrwt beam="1">  1        1 0.25907952E+00 0.12459050E+04</pdfrwt>
<pdfrwt beam="2">  1       -2 0.35452764E-01 0.12459050E+04</pdfrwt>
<totfact> 0.31633790E+01</totfact>
</mgrwt>
</event>
<event>
12    5  0.5297412E-008  0.2410386E+04  0.7818608E-02  0.8435625E-01
         -2   -1    0    0    0  501 -0.00000000000E+00  0.00000000000E+00  0.11152406137E+04  0.11152406137E+04  0.00000000000E+00 0.  1.
          1   -1    0    0  501    0  0.00000000000E+00 -0.00000000000E+00 -0.13024011378E+04  0.13024011378E+04  0.00000000000E+00 0. -1.
        -24    2    1    2    0    0  0.28612063967E+03  0.88101278754E+03  0.38043939502E+03  0.10046687833E+04  0.81096724232E+02 0.  0.
        254    2    1    2    0    0 -0.28612063967E+03 -0.88101278754E+03 -0.56759991919E+03  0.14129729682E+04  0.90347904692E+03 0.  0.
         23    2    4    4    0    0 -0.59615558654E+03 -0.45214752437E+03 -0.38945593761E+03  0.84757869994E+03  0.82914764060E+02 0.  0.
         23    2    4    4    0    0  0.31003494686E+03 -0.42886526317E+03 -0.17814398159E+03  0.56539426822E+03  0.88816204224E+02 0.  0.
          1    1    3    3  502    0  0.97891238327E+02  0.21864265555E+03  0.71942829249E+02  0.25012612028E+03  0.00000000000E+00 0. -1.
         -2    1    3    3    0  502  0.18822940135E+03  0.66237013199E+03  0.30849656577E+03  0.75454266306E+03  0.00000000000E+00 0.  1.
         13    1    5    5    0    0 -0.13474939289E+03 -0.75982356447E+02 -0.51585491402E+02  0.16306986324E+03  0.00000000000E+00 0.  1.
        -13    1    5    5    0    0 -0.46140619365E+03 -0.37616516793E+03 -0.33787044620E+03  0.68450883670E+03  0.00000000000E+00 0. -1.
          4    1    6    6  503    0  0.30529822017E+03 -0.38641592049E+03 -0.17472510139E+03  0.52254485731E+03  0.00000000000E+00 0. -1.
         -4    1    6    6    0  503  0.47367266917E+01 -0.42449342672E+02 -0.34188801980E+01  0.42849410904E+02  0.00000000000E+00 0.  1.
<mgrwt>
<rscale>  0 0.24103864E+04</rscale>
<asrwt>0</asrwt>
<pdfrwt beam="1">  1        1 0.20036940E+00 0.24103864E+04</pdfrwt>
<pdfrwt beam="2">  1       -2 0.17157548E+00 0.24103864E+04</pdfrwt>
<totfact> 0.14705392E+00</totfact>
</mgrwt>
</event>
<event>
12    5  0.5297412E-008  0.2210324E+04  0.7818608E-02  0.8514143E-01
         -2   -1    0    0    0  501 -0.00000000000E+00  0.00000000000E+00  0.83443741990E+03  0.83443741990E+03  0.00000000000E+00 0.  1.
          1   -1    0    0  501    0  0.00000000000E+00 -0.00000000000E+00 -0.14637198144E+04  0.14637198144E+04  0.00000000000E+00 0. -1.
        -24    2    1    2    0    0 -0.40406274282E+03 -0.54589107654E+03 -0.86804580125E+03  0.11050680572E+04  0.80050798304E+02 0.  0.
        254    2    1    2    0    0  0.40406274282E+03  0.54589107654E+03  0.23876340680E+03  0.11930891771E+04  0.95141476364E+03 0.  0.
         23    2    4    4    0    0  0.62234724290E+03  0.64828500168E+02  0.16313383708E+03  0.65253791719E+03  0.87602850389E+02 0.  0.
         23    2    4    4    0    0 -0.21828450008E+03  0.48106257637E+03  0.75629569714E+02  0.54055125989E+03  0.86061067842E+02 0.  0.
          3    1    3    3  502    0 -0.24129389543E+03 -0.37282889341E+03 -0.52258871034E+03  0.68580105563E+03  0.00000000000E+00 0. -1.
         -4    1    3    3    0  502 -0.16276884739E+03 -0.17306218313E+03 -0.34545709091E+03  0.41926700153E+03  0.00000000000E+00 0.  1.
         13    1    5    5    0    0  0.30115325658E+03 -0.21170153507E+01  0.48788515565E+02  0.30508701210E+03  0.00000000000E+00 0.  1.
        -13    1    5    5    0    0  0.32119398632E+03  0.66945515519E+02  0.11434532152E+03  0.34745090509E+03  0.00000000000E+00 0. -1.
          3    1    6    6  503    0 -0.70640186325E+02  0.15762143872E+03 -0.15769780153E+02  0.17344520701E+03  0.00000000000E+00 0. -1.
         -3    1    6    6    0  503 -0.14764431375E+03  0.32344113765E+03  0.91399349867E+02  0.36710605289E+03  0.00000000000E+00 0.  1.
<mgrwt>
<rscale>  0 0.22103236E+04</rscale>
<asrwt>0</asrwt>
<pdfrwt beam="1">  1        1 0.22518766E+00 0.22103236E+04</pdfrwt>
<pdfrwt beam="2">  1       -2 0.12837499E+00 0.22103236E+04</pdfrwt>
<totfact> 0.24856374E+00</totfact>
</mgrwt>
</event>
<event>
12    5  0.5297412E-008  0.1417709E+04  0.7818608E-02  0.8941099E-01
          1   -1    0    0  501    0  0.00000000000E+00  0.00000000000E+00  0.10259581456E+04  0.10259581456E+04  0.00000000000E+00 0. -1.
         -2   -1    0    0    0  501 -0.00000000000E+00 -0.00000000000E+00 -0.48976130634E+03  0.48976130634E+03  0.00000000000E+00 0.  1.
        -24    2    1    2    0    0  0.31420619616E+03 -0.98380141291E+01  0.42798000623E+03  0.53698730124E+03  0.79788192994E+02 0.  0.
        254    2    1    2    0    0 -0.31420619616E+03  0.98380141291E+01  0.10821683306E+03  0.97873215071E+03  0.92053431205E+03 0.  0.
         23    2    4    4    0    0 -0.21064420382E+03  0.34545231436E+02 -0.39390676878E+03  0.45707101166E+03  0.90482117501E+02 0.  0.
         23    2    4    4    0    0 -0.10356199233E+03 -0.24707217307E+02  0.50212360184E+03  0.52166113906E+03  0.93095110698E+02 0.  0.
          1    1    3    3  502    0  0.17976949971E+03 -0.64940413173E+01  0.30841609998E+03  0.35704304548E+03  0.00000000000E+00 0. -1.
         -2    1    3    3    0  502  0.13443669645E+03 -0.33439728118E+01  0.11956390625E+03  0.17994425577E+03  0.00000000000E+00 0.  1.
         13    1    5    5    0    0 -0.14192582029E+03  0.59308092945E+02 -0.21993716600E+03  0.26838916770E+03  0.00000000000E+00 0. -1.
        -13    1    5    5    0    0 -0.68718383537E+02 -0.24762861509E+02 -0.17396960278E+03  0.18868184396E+03  0.00000000000E+00 0.  1.
          2    1    6    6  503    0 -0.88382093242E+02 -0.25561710969E+02  0.21155799780E+03  0.23069803186E+03  0.00000000000E+00 0. -1.
         -2    1    6    6    0  503 -0.15179899088E+02  0.85449366263E+00  0.29056560404E+03  0.29096310719E+03  0.00000000000E+00 0.  1.
<mgrwt>
<rscale>  0 0.14177089E+04</rscale>
<asrwt>0</asrwt>
<pdfrwt beam="1">  1        1 0.15783971E+00 0.14177089E+04</pdfrwt>
<pdfrwt beam="2">  1       -2 0.75347894E-01 0.14177089E+04</pdfrwt>
<totfact> 0.19487653E+01</totfact>
</mgrwt>
</event>
<event>
12    5  0.5297412E-008  0.2154303E+04  0.7818608E-02  0.8537692E-01
         -2   -1    0    0    0  501 -0.00000000000E+00  0.00000000000E+00  0.65961378451E+03  0.65961378451E+03  0.00000000000E+00 0.  1.
          1   -1    0    0  501    0  0.00000000000E+00 -0.00000000000E+00 -0.17589925793E+04  0.17589925793E+04  0.00000000000E+00 0. -1.
        -24    2    1    2    0    0  0.22708841373E+03  0.63484406433E+03  0.18298684187E+03  0.70312969687E+03  0.79442133989E+02 0.  0.
        254    2    1    2    0    0 -0.22708841373E+03 -0.63484406433E+03 -0.12823656367E+04  0.17154766670E+04  0.91858719513E+03 0.  0.
         23    2    4    4    0    0  0.79772685219E+02 -0.76126554895E+03 -0.10447984056E+04  0.12984504276E+04  0.92091732895E+02 0.  0.
         23    2    4    4    0    0 -0.30686109895E+03  0.12642148462E+03 -0.23756723103E+03  0.41702623931E+03  0.85595380697E+02 0.  0.
          1    1    3    3  502    0  0.74945641326E+02  0.13441251088E+03  0.64284375274E+02  0.16678145322E+03  0.00000000000E+00 0. -1.
         -2    1    3    3    0  502  0.15214277241E+03  0.50043155346E+03  0.11870246660E+03  0.53634824365E+03  0.00000000000E+00 0.  1.
         13    1    5    5    0    0  0.79152974529E+02 -0.57045185284E+03 -0.84069635510E+03  0.10190440968E+04  0.00000000000E+00 0.  1.
        -13    1    5    5    0    0  0.61971068993E+00 -0.19081369611E+03 -0.20410205055E+03  0.27940633082E+03  0.00000000000E+00 0. -1.
          4    1    6    6  503    0 -0.27825731858E+03  0.13300145714E+03 -0.23465752303E+03  0.38753151622E+03  0.00000000000E+00 0. -1.
         -4    1    6    6    0  503 -0.28603780372E+02 -0.65799725260E+01 -0.29097079935E+01  0.29494723098E+02  0.00000000000E+00 0.  1.
<mgrwt>
<rscale>  0 0.21543034E+04</rscale>
<asrwt>0</asrwt>
<pdfrwt beam="1">  1        1 0.27061424E+00 0.21543034E+04</pdfrwt>
<pdfrwt beam="2">  1       -2 0.10147904E+00 0.21543034E+04</pdfrwt>
<totfact> 0.27854309E+00</totfact>
</mgrwt>
</event>
<event>
12    5  0.5297412E-008  0.1213581E+04  0.7818608E-02  0.9101051E-01
          1   -1    0    0  501    0  0.00000000000E+00  0.00000000000E+00  0.94618666761E+03  0.94618666761E+03  0.00000000000E+00 0. -1.
         -2   -1    0    0    0  501 -0.00000000000E+00 -0.00000000000E+00 -0.38913567884E+03  0.38913567884E+03  0.00000000000E+00 0.  1.
        -24    2    1    2    0    0 -0.64356569373E+02 -0.79601559114E+02  0.34275165256E+03  0.36654964047E+03  0.80011045222E+02 0.  0.
        254    2    1    2    0    0  0.64356569373E+02  0.79601559114E+02  0.21429933621E+03  0.96877270598E+03  0.93921146400E+03 0.  0.
         23    2    4    4    0    0 -0.20910035917E+03  0.44515805679E+02 -0.29917135258E+03  0.37897787246E+03  0.91739372413E+02 0.  0.
         23    2    4    4    0    0  0.27345692855E+03  0.35085753435E+02  0.51347068879E+03  0.58979483351E+03  0.90532290006E+02 0.  0.
          3    1    3    3  502    0 -0.26571488965E+02 -0.22429692499E+02  0.24330495533E+03  0.24577720891E+03  0.00000000000E+00 0. -1.
         -4    1    3    3    0  502 -0.37785080408E+02 -0.57171866615E+02  0.99446697229E+02  0.12077243155E+03  0.00000000000E+00 0.  1.
         13    1    5    5    0    0 -0.14429825512E+03  0.41020703460E+02 -0.26766592442E+03  0.30683828255E+03  0.00000000000E+00 0.  1.
        -13    1    5    5    0    0 -0.64802104055E+02  0.34951022196E+01 -0.31505428161E+02  0.72139589915E+02  0.00000000000E+00 0. -1.
          2    1    6    6  503    0  0.92020031610E+01  0.14788931627E+02  0.82413965138E+01  0.19269405215E+02  0.00000000000E+00 0. -1.
         -2    1    6    6    0  503  0.26425492539E+03  0.20296821807E+02  0.50522929227E+03  0.57052542830E+03  0.00000000000E+00 0.  1.
<mgrwt>
<rscale>  0 0.12135815E+04</rscale>
<asrwt>0</asrwt>
<pdfrwt beam="1">  1        1 0.14556718E+00 0.12135815E+04</pdfrwt>
<pdfrwt beam="2">  1       -2 0.59867028E-01 0.12135815E+04</pdfrwt>
<totfact> 0.37647338E+01</totfact>
</mgrwt>
</event>
<event>
12    5  0.5297412E-008  0.2231298E+04  0.7818608E-02  0.8505513E-01
          1   -1    0    0  501    0  0.00000000000E+00  0.00000000000E+00  0.27795692015E+04  0.27795692015E+04  0.00000000000E+00 0. -1.
         -2   -1    0    0    0  501 -0.00000000000E+00 -0.00000000000E+00 -0.44779323167E+03  0.44779323167E+03  0.00000000000E+00 0.  1.
        -24    2    1    2    0    0  0.29760577235E+03  0.66666529051E+03  0.18039119141E+04  0.19476696657E+04  0.79417427272E+02 0.  0.
        254    2    1    2    0    0 -0.29760577235E+03 -0.66666529051E+03  0.52786405573E+03  0.12796927674E+04  0.90882413720E+03 0.  0.
         23    2    4    4    0    0 -0.58181397860E+03 -0.43962427995E+03  0.52810040349E+03  0.90483535149E+03  0.89777301799E+02 0.  0.
         23    2    4    4    0    0  0.28420820626E+03 -0.22704101056E+03 -0.23634776109E+00  0.37485741593E+03  0.90532322604E+02 0.  0.
          3    1    3    3  502    0  0.25203277574E+03  0.58816015095E+03  0.16379834467E+04  0.17585342348E+04  0.00000000000E+00 0. -1.
         -4    1    3    3    0  502  0.45572996609E+02  0.78505139560E+02  0.16592846740E+03  0.18913543097E+03  0.00000000000E+00 0.  1.
         13    1    5    5    0    0 -0.50440842655E+03 -0.34780092647E+03  0.41619608726E+03  0.74068382477E+03  0.00000000000E+00 0. -1.
        -13    1    5    5    0    0 -0.77405552059E+02 -0.91823353483E+02  0.11190431623E+03  0.16415152672E+03  0.00000000000E+00 0.  1.
          4    1    6    6  503    0  0.25446278981E+03 -0.16475381113E+03  0.17313322489E+02  0.30363609933E+03  0.00000000000E+00 0. -1.
         -4    1    6    6    0  503  0.29745416451E+02 -0.62287199433E+02 -0.17549670250E+02  0.71221316605E+02  0.00000000000E+00 0.  1.
<mgrwt>
<rscale>  0 0.22312976E+04</rscale>
<asrwt>0</asrwt>
<pdfrwt beam="1">  1        1 0.42762602E+00 0.22312976E+04</pdfrwt>
<pdfrwt beam="2">  1       -2 0.68891268E-01 0.22312976E+04</pdfrwt>
<totfact> 0.13260370E+00</totfact>
</mgrwt>
</event>
<event>
12    5  0.5297412E-008  0.1149481E+04  0.7818608E-02  0.9158262E-01
          1   -1    0    0  501    0  0.00000000000E+00  0.00000000000E+00  0.62401268729E+03  0.62401268729E+03  0.00000000000E+00 0. -1.
         -2   -1    0    0    0  501 -0.00000000000E+00 -0.00000000000E+00 -0.52935917771E+03  0.52935917771E+03  0.00000000000E+00 0.  1.
        -24    2    1    2    0    0  0.60908863352E+02  0.68463123390E+02  0.21715403183E+03  0.24938868110E+03  0.81496943641E+02 0.  0.
        254    2    1    2    0    0 -0.60908863352E+02 -0.68463123390E+02 -0.12250052225E+03  0.90398318390E+03  0.89094451563E+03 0.  0.
         23    2    4    4    0    0  0.94891330210E+02 -0.32634397831E+03  0.23764798751E+03  0.42474622863E+03  0.91804335603E+02 0.  0.
         23    2    4    4    0    0 -0.15580019356E+03  0.25788085492E+03 -0.36014850976E+03  0.47923695528E+03  0.95837751294E+02 0.  0.
          1    1    3    3  502    0  0.42706957449E+02  0.41969698906E+02  0.20729111143E+03  0.21576594894E+03  0.00000000000E+00 0. -1.
         -2    1    3    3    0  502  0.18201905904E+02  0.26493424485E+02  0.98629203922E+01  0.33622732163E+02  0.00000000000E+00 0.  1.
         13    1    5    5    0    0  0.10337447974E+03 -0.24635626384E+03  0.15255730068E+03  0.30765471195E+03  0.00000000000E+00 0.  1.
        -13    1    5    5    0    0 -0.84831495292E+01 -0.79987714474E+02  0.85090686829E+02  0.11709151668E+03  0.00000000000E+00 0. -1.
          3    1    6    6  503    0 -0.81519391261E+02  0.12879220439E+03 -0.25443840480E+03  0.29660031170E+03  0.00000000000E+00 0. -1.
         -3    1    6    6    0  503 -0.74280802302E+02  0.12908865053E+03 -0.10571010495E+03  0.18263664358E+03  0.00000000000E+00 0.  1.
<mgrwt>
<rscale>  0 0.11494813E+04</rscale>
<asrwt>0</asrwt>
<pdfrwt beam="1">  1        1 0.96001952E-01 0.11494813E+04</pdfrwt>
<pdfrwt beam="2">  1       -2 0.81439874E-01 0.11494813E+04</pdfrwt>
<totfact> 0.37351593E+01</totfact>
</mgrwt>
</event>
<event>
12    5  0.5297412E-008  0.1097925E+04  0.7818608E-02  0.9207217E-01
         -2   -1    0    0    0  501 -0.00000000000E+00  0.00000000000E+00  0.40672501310E+03  0.40672501310E+03  0.00000000000E+00 0.  1.
          3   -1    0    0  501    0  0.00000000000E+00 -0.00000000000E+00 -0.74094198351E+03  0.74094198351E+03  0.00000000000E+00 0. -1.
        -24    2    1    2    0    0 -0.17511896451E+03  0.32951635892E+02 -0.57347739012E+02  0.20283959416E+03  0.78119624605E+02 0.  0.
        254    2    1    2    0    0  0.17511896451E+03 -0.32951635892E+02 -0.27686923140E+03  0.94482740245E+03  0.88560137030E+03 0.  0.
         23    2    4    4    0    0  0.52695427002E+02  0.21926283199E+03 -0.51308768110E+03  0.56737640162E+03  0.88340336767E+02 0.  0.
         23    2    4    4    0    0  0.12242353751E+03 -0.25221446788E+03  0.23621844970E+03  0.37745100083E+03  0.89835637153E+02 0.  0.
          3    1    3    3  502    0 -0.84528476339E+02  0.35157974015E+02 -0.64426678633E+02  0.11194616281E+03  0.00000000000E+00 0. -1.
         -4    1    3    3    0  502 -0.90590488172E+02 -0.22063381230E+01  0.70789396209E+01  0.90893431343E+02  0.00000000000E+00 0.  1.
         13    1    5    5    0    0  0.67150258251E+02  0.10811921179E+03 -0.22923849409E+03  0.26220070235E+03  0.00000000000E+00 0. -1.
        -13    1    5    5    0    0 -0.14454831250E+02  0.11114362020E+03 -0.28384918701E+03  0.30517569927E+03  0.00000000000E+00 0.  1.
          3    1    6    6  503    0  0.35626064145E+02 -0.35960937878E+02  0.79294826361E+01  0.51237507692E+02  0.00000000000E+00 0. -1.
         -3    1    6    6    0  503  0.86797473363E+02 -0.21625353000E+03  0.22828896707E+03  0.32621349314E+03  0.00000000000E+00 0.  1.
<mgrwt>
<rscale>  0 0.10979247E+04</rscale>
<asrwt>0</asrwt>
<pdfrwt beam="1">  1        3 0.11399107E+00 0.10979247E+04</pdfrwt>
<pdfrwt beam="2">  1       -2 0.62573079E-01 0.10979247E+04</pdfrwt>
<totfact> 0.62363980E+00</totfact>
</mgrwt>
</event>
<event>
12    5  0.5297412E-008  0.1479180E+04  0.7818608E-02  0.8898417E-01
          1   -1    0    0  501    0  0.00000000000E+00  0.00000000000E+00  0.23866152881E+04  0.23866152881E+04  0.00000000000E+00 0. -1.
         -2   -1    0    0    0  501 -0.00000000000E+00 -0.00000000000E+00 -0.22919202063E+03  0.22919202063E+03  0.00000000000E+00 0.  1.
        -24    2    1    2    0    0 -0.20673187554E+03  0.11097510772E+03  0.14819849752E+04  0.15024736893E+04  0.78065213881E+02 0.  0.
        254    2    1    2    0    0  0.20673187554E+03 -0.11097510772E+03  0.67543829225E+03  0.11133336194E+04  0.85337056338E+03 0.  0.
         23    2    4    4    0    0  0.82609257460E+02 -0.44860103462E+03  0.19184513592E+03  0.50367313146E+03  0.93887642935E+02 0.  0.
         23    2    4    4    0    0  0.12412261808E+03  0.33762592691E+03  0.48359315633E+03  0.60966048789E+03  0.91792585782E+02 0.  0.
          3    1    3    3  502    0 -0.38190097572E+02  0.21840833426E+02  0.51473969953E+03  0.51661636040E+03  0.00000000000E+00 0. -1.
         -4    1    3    3    0  502 -0.16854177797E+03  0.89134274290E+02  0.96724527565E+03  0.98585732895E+03  0.00000000000E+00 0.  1.
         13    1    5    5    0    0  0.45207242463E+02 -0.11743602333E+03  0.15980486027E+02  0.12684750797E+03  0.00000000000E+00 0.  1.
        -13    1    5    5    0    0  0.37402014998E+02 -0.33116501130E+03  0.17586464989E+03  0.37682562349E+03  0.00000000000E+00 0. -1.
          1    1    6    6  503    0  0.58261857926E+02  0.27131316357E+03  0.35117281162E+03  0.44757973640E+03  0.00000000000E+00 0. -1.
         -1    1    6    6    0  503  0.65860760159E+02  0.66312763335E+02  0.13242034471E+03  0.16208075149E+03  0.00000000000E+00 0.  1.
<mgrwt>
<rscale>  0 0.14791797E+04</rscale>
<asrwt>0</asrwt>
<pdfrwt beam="1">  1        1 0.36717157E+00 0.14791797E+04</pdfrwt>
<pdfrwt beam="2">  1       -2 0.35260313E-01 0.14791797E+04</pdfrwt>
<totfact> 0.10450805E+01</totfact>
</mgrwt>
</event>
<event>
12    5  0.5297412E-008  0.1476183E+04  0.7818608E-02  0.8900447E-01
          1   -1    0    0  501    0  0.00000000000E+00  0.00000000000E+00  0.14607505297E+04  0.14607505297E+04  0.00000000000E+00 0. -1.
         -2   -1    0    0    0  501 -0.00000000000E+00 -0.00000000000E+00 -0.37294464778E+03  0.37294464778E+03  0.00000000000E+00 0.  1.
        -24    2    1    2    0    0 -0.18208494840E+03 -0.27982378122E+03  0.75624222069E+03  0.83062408791E+03  0.81103650328E+02 0.  0.
        254    2    1    2    0    0  0.18208494840E+03  0.27982378122E+03  0.33156366125E+03  0.10030710896E+04  0.88586729950E+03 0.  0.
         23    2    4    4    0    0 -0.10962274693E+03 -0.20179305557E+03 -0.12077451630E+03  0.27505082318E+03  0.91262739533E+02 0.  0.
         23    2    4    4    0    0  0.29170769533E+03  0.48161683679E+03  0.45233817755E+03  0.72802026640E+03  0.91408557740E+02 0.  0.
          3    1    3    3  502    0 -0.93185469058E+02 -0.16077654570E+03  0.51269545082E+03  0.54533407612E+03  0.00000000000E+00 0. -1.
         -4    1    3    3    0  502 -0.88899479342E+02 -0.11904723552E+03  0.24354676987E+03  0.28529001179E+03  0.00000000000E+00 0.  1.
         13    1    5    5    0    0 -0.69802660297E+01  0.95957650230E+01 -0.86276981966E+01  0.14671059825E+02  0.00000000000E+00 0.  1.
        -13    1    5    5    0    0 -0.10264248090E+03 -0.21138882059E+03 -0.11214681810E+03  0.26037976336E+03  0.00000000000E+00 0. -1.
          4    1    6    6  503    0  0.23038946269E+03  0.34019920985E+03  0.37174044020E+03  0.55408100651E+03  0.00000000000E+00 0. -1.
         -4    1    6    6    0  503  0.61318232644E+02  0.14141762694E+03  0.80597737342E+02  0.17393925988E+03  0.00000000000E+00 0.  1.
<mgrwt>
<rscale>  0 0.14761830E+04</rscale>
<asrwt>0</asrwt>
<pdfrwt beam="1">  1        1 0.22473085E+00 0.14761830E+04</pdfrwt>
<pdfrwt beam="2">  1       -2 0.57376100E-01 0.14761830E+04</pdfrwt>
<totfact> 0.16858510E+01</totfact>
</mgrwt>
</event>
<event>
12    5  0.5297412E-008  0.2632144E+04  0.7818608E-02  0.8357364E-01
         -2   -1    0    0    0  501 -0.00000000000E+00  0.00000000000E+00  0.11311032245E+04  0.11311032245E+04  0.00000000000E+00 0.  1.
          1   -1    0    0  501    0  0.00000000000E+00 -0.00000000000E+00 -0.15312890501E+04  0.15312890501E+04  0.00000000000E+00 0. -1.
        -24    2    1    2    0    0 -0.78554071903E+03 -0.35060569878E+03 -0.96450553005E+03  0.12950570528E+04  0.83085950529E+02 0.  0.
        254    2    1    2    0    0  0.78554071903E+03  0.35060569878E+03  0.56431970445E+03  0.13673352219E+04  0.90063883043E+03 0.  0.
         23    2    4    4    0    0 -0.13319578268E+03 -0.37462167790E+02  0.28072772635E+03  0.32637677525E+03  0.92570041285E+02 0.  0.
         23    2    4    4    0    0  0.91873650171E+03  0.38806786657E+03  0.28359197810E+03  0.10409584466E+04  0.92177268951E+02 0.  0.
          3    1    3    3  502    0 -0.32418734272E+03 -0.18138803410E+03 -0.45119792673E+03  0.58444727835E+03  0.00000000000E+00 0. -1.
         -4    1    3    3    0  502 -0.46135337631E+03 -0.16921766468E+03 -0.51330760332E+03  0.71060977442E+03  0.00000000000E+00 0.  1.
         13    1    5    5    0    0 -0.20139195850E+02 -0.44914719891E+02  0.55004979798E+02  0.73813732292E+02  0.00000000000E+00 0. -1.
        -13    1    5    5    0    0 -0.11305658683E+03  0.74525521008E+01  0.22572274655E+03  0.25256304296E+03  0.00000000000E+00 0.  1.
          3    1    6    6  503    0  0.39644401968E+03  0.19760952887E+03  0.88007598204E+02  0.45162232449E+03  0.00000000000E+00 0. -1.
         -3    1    6    6    0  503  0.52229248203E+03  0.19045833771E+03  0.19558437990E+03  0.58933612213E+03  0.00000000000E+00 0.  1.
<mgrwt>
<rscale>  0 0.26321444E+04</rscale>
<asrwt>0</asrwt>
<pdfrwt beam="1">  1        1 0.23558293E+00 0.26321444E+04</pdfrwt>
<pdfrwt beam="2">  1       -2 0.17401588E+00 0.26321444E+04</pdfrwt>
<totfact> 0.95831351E-01</totfact>
</mgrwt>
</event>
<event>
12    5  0.5297412E-008  0.3779903E+04  0.7818608E-02  0.8050481E-01
         -2   -1    0    0    0  501 -0.00000000000E+00  0.00000000000E+00  0.14342949687E+04  0.14342949687E+04  0.00000000000E+00 0.  1.
          1   -1    0    0  501    0  0.00000000000E+00 -0.00000000000E+00 -0.24903641865E+04  0.24903641865E+04  0.00000000000E+00 0. -1.
        -24    2    1    2    0    0  0.17800510927E+04  0.52404314439E+02 -0.41945044762E+03  0.18312213368E+04  0.78133229902E+02 0.  0.
        254    2    1    2    0    0 -0.17800510927E+04 -0.52404314439E+02 -0.63661877021E+03  0.20934378183E+04  0.89770281028E+03 0.  0.
         23    2    4    4    0    0 -0.16317013859E+04  0.22653860023E+03 -0.43117877054E+03  0.17058193361E+04  0.10067435259E+03 0.  0.
         23    2    4    4    0    0 -0.14834970687E+03 -0.27894291467E+03 -0.20543999966E+03  0.38761848218E+03  0.90695695010E+02 0.  0.
          3    1    3    3  502    0  0.55503380971E+03  0.16975565278E+02 -0.16812683472E+03  0.58018732517E+03  0.00000000000E+00 0. -1.
         -4    1    3    3    0  502  0.12250172830E+04  0.35428749161E+02 -0.25132361289E+03  0.12510340117E+04  0.00000000000E+00 0.  1.
         13    1    5    5    0    0 -0.12724889800E+04  0.19776337913E+03 -0.37377778396E+03  0.13409132672E+04  0.00000000000E+00 0. -1.
        -13    1    5    5    0    0 -0.35921240589E+03  0.28775221102E+02 -0.57400986588E+02  0.36490606895E+03  0.00000000000E+00 0.  1.
          1    1    6    6  503    0 -0.19364136278E+02 -0.34019337528E+01 -0.31603088576E+02  0.37219593424E+02  0.00000000000E+00 0. -1.
         -1    1    6    6    0  503 -0.12898557059E+03 -0.27554098092E+03 -0.17383691109E+03  0.35039888876E+03  0.00000000000E+00 0.  1.
<mgrwt>
<rscale>  0 0.37799031E+04</rscale>
<asrwt>0</asrwt>
<pdfrwt beam="1">  1        1 0.38313295E+00 0.37799031E+04</pdfrwt>
<pdfrwt beam="2">  1       -2 0.22066077E+00 0.37799031E+04</pdfrwt>
<totfact> 0.94437304E-02</totfact>
</mgrwt>
</event>
<event>
12    5  0.5297412E-008  0.1638008E+04  0.7818608E-02  0.8797532E-01
         -4   -1    0    0    0  501 -0.00000000000E+00  0.00000000000E+00  0.88589290827E+03  0.88589290827E+03  0.00000000000E+00 0.  1.
          3   -1    0    0  501    0  0.00000000000E+00 -0.00000000000E+00 -0.75716561207E+03  0.75716561207E+03  0.00000000000E+00 0. -1.
        -24    2    1    2    0    0  0.47015657146E+03  0.28307130744E+03 -0.11419766217E+03  0.56616393864E+03  0.79523157509E+02 0.  0.
        254    2    1    2    0    0 -0.47015657146E+03 -0.28307130744E+03  0.24292495838E+03  0.10768945817E+04  0.89415481764E+03 0.  0.
         23    2    4    4    0    0  0.13996301461E+03  0.14389515241E+03 -0.11092084959E+03  0.24722665302E+03  0.92315344023E+02 0.  0.
         23    2    4    4    0    0 -0.61011958607E+03 -0.42696645985E+03  0.35384580797E+03  0.82966792869E+03  0.92713261888E+02 0.  0.
          1    1    3    3  502    0  0.36790294499E+03  0.23232320211E+03 -0.58125796997E+02  0.43898206734E+03  0.00000000000E+00 0. -1.
         -2    1    3    3    0  502  0.10225362647E+03  0.50748105329E+02 -0.56071865177E+02  0.12718187129E+03  0.00000000000E+00 0.  1.
         13    1    5    5    0    0 -0.26003600918E+00 -0.61646942151E+00  0.11534816493E+02  0.11554204637E+02  0.00000000000E+00 0. -1.
        -13    1    5    5    0    0  0.14022305062E+03  0.14451162183E+03 -0.12245566608E+03  0.23567244838E+03  0.00000000000E+00 0.  1.
          4    1    6    6  503    0 -0.57401556511E+02 -0.73718203171E+02  0.58924125446E+02  0.11045978783E+03  0.00000000000E+00 0. -1.
         -4    1    6    6    0  503 -0.55271802956E+03 -0.35324825668E+03  0.29492168252E+03  0.71920814085E+03  0.00000000000E+00 0.  1.
<mgrwt>
<rscale>  0 0.16380081E+04</rscale>
<asrwt>0</asrwt>
<pdfrwt beam="1">  1        3 0.11648702E+00 0.16380081E+04</pdfrwt>
<pdfrwt beam="2">  1       -4 0.13629122E+00 0.16380081E+04</pdfrwt>
<totfact> 0.51065029E-01</totfact>
</mgrwt>
</event>
<event>
12    5  0.5297412E-008  0.1207103E+04  0.7818608E-02  0.9106662E-01
         -2   -1    0    0    0  501 -0.00000000000E+00  0.00000000000E+00  0.12193016174E+03  0.12193016174E+03  0.00000000000E+00 0.  1.
          1   -1    0    0  501    0  0.00000000000E+00 -0.00000000000E+00 -0.29875636539E+04  0.29875636539E+04  0.00000000000E+00 0. -1.
        -24    2    1    2    0    0  0.51657737461E+02 -0.66491348774E+02 -0.12242717141E+04  0.12298048884E+04  0.80555646550E+02 0.  0.
        254    2    1    2    0    0 -0.51657737461E+02  0.66491348774E+02 -0.16413617780E+04  0.18796889273E+04  0.91218000174E+03 0.  0.
         23    2    4    4    0    0  0.37033441010E+03 -0.17093741869E+03 -0.65982753833E+03  0.78115004075E+03  0.91955583912E+02 0.  0.
         23    2    4    4    0    0 -0.42199214756E+03  0.23742876746E+03 -0.98153423971E+03  0.10985388865E+04  0.94490365857E+02 0.  0.
          3    1    3    3  502    0  0.86221349229E+01 -0.43459156456E+02 -0.96262773943E+03  0.96364682546E+03  0.00000000000E+00 0. -1.
         -4    1    3    3    0  502  0.43035602538E+02 -0.23032192318E+02 -0.26164397468E+03  0.26615806291E+03  0.00000000000E+00 0.  1.
         13    1    5    5    0    0  0.67924829442E+02 -0.71666199131E+01 -0.66317307472E+02  0.95200463056E+02  0.00000000000E+00 0.  1.
        -13    1    5    5    0    0  0.30240958066E+03 -0.16377079878E+03 -0.59351023086E+03  0.68594957770E+03  0.00000000000E+00 0. -1.
          1    1    6    6  503    0 -0.41479719916E+03  0.24585533997E+03 -0.96208576904E+03  0.10761554681E+04  0.00000000000E+00 0. -1.
         -1    1    6    6    0  503 -0.71949484020E+01 -0.84265725046E+01 -0.19448470667E+02  0.22383418371E+02  0.00000000000E+00 0.  1.
<mgrwt>
<rscale>  0 0.12071025E+04</rscale>
<asrwt>0</asrwt>
<pdfrwt beam="1">  1        1 0.45962518E+00 0.12071025E+04</pdfrwt>
<pdfrwt beam="2">  1       -2 0.18758486E-01 0.12071025E+04</pdfrwt>
<totfact> 0.12839450E+01</totfact>
</mgrwt>
</event>
<event>
12    5  0.5297412E-008  0.1500199E+04  0.7818608E-02  0.8884321E-01
         -2   -1    0    0    0  501 -0.00000000000E+00  0.00000000000E+00  0.40524698222E+03  0.40524698222E+03  0.00000000000E+00 0.  1.
          1   -1    0    0  501    0  0.00000000000E+00 -0.00000000000E+00 -0.13884101955E+04  0.13884101955E+04  0.00000000000E+00 0. -1.
        -24    2    1    2    0    0  0.34610625526E+03  0.25473627545E+03 -0.46828748526E+03  0.64060361438E+03  0.79998199719E+02 0.  0.
        254    2    1    2    0    0 -0.34610625526E+03 -0.25473627545E+03 -0.51487572804E+03  0.11530535633E+04  0.93795276782E+03 0.  0.
         23    2    4    4    0    0 -0.57131314128E+03 -0.43949233916E+03 -0.35448643658E+03  0.80852312398E+03  0.92178016401E+02 0.  0.
         23    2    4    4    0    0  0.22520688603E+03  0.18475606372E+03 -0.16038929145E+03  0.34453043936E+03  0.90130761892E+02 0.  0.
          3    1    3    3  502    0  0.34031586991E+03  0.25249031900E+03 -0.47122404460E+03  0.63373366071E+03  0.00000000000E+00 0. -1.
         -4    1    3    3    0  502  0.57903853437E+01  0.22459564448E+01  0.29365593415E+01  0.68699536787E+01  0.00000000000E+00 0.  1.
         13    1    5    5    0    0 -0.14414303089E+03 -0.13734678527E+03 -0.59164874503E+02  0.20770612690E+03  0.00000000000E+00 0. -1.
        -13    1    5    5    0    0 -0.42717011040E+03 -0.30214555389E+03 -0.29532156208E+03  0.60081699708E+03  0.00000000000E+00 0.  1.
          2    1    6    6  503    0  0.54562532564E+02  0.84649469141E+02 -0.21981133782E+02  0.10308138934E+03  0.00000000000E+00 0. -1.
         -2    1    6    6    0  503  0.17064435346E+03  0.10010659457E+03 -0.13840815767E+03  0.24144905002E+03  0.00000000000E+00 0.  1.
<mgrwt>
<rscale>  0 0.15001987E+04</rscale>
<asrwt>0</asrwt>
<pdfrwt beam="1">  1        1 0.21360156E+00 0.15001987E+04</pdfrwt>
<pdfrwt beam="2">  1       -2 0.62345691E-01 0.15001987E+04</pdfrwt>
<totfact> 0.15859790E+01</totfact>
</mgrwt>
</event>
<event>
12    5  0.5297412E-008  0.1857089E+04  0.7818608E-02  0.8676516E-01
          1   -1    0    0  501    0  0.00000000000E+00  0.00000000000E+00  0.17179978371E+04  0.17179978371E+04  0.00000000000E+00 0. -1.
         -2   -1    0    0    0  501 -0.00000000000E+00 -0.00000000000E+00 -0.50186019862E+03  0.50186019862E+03  0.00000000000E+00 0.  1.
        -24    2    1    2    0    0 -0.72959956997E+03  0.33500178212E+02  0.34734970595E+03  0.81218804240E+03  0.74564090204E+02 0.  0.
        254    2    1    2    0    0  0.72959956997E+03 -0.33500178212E+02  0.86878793255E+03  0.14076699933E+04  0.83264911214E+03 0.  0.
         23    2    4    4    0    0  0.65474662862E+03  0.28894190651E+03  0.75948041706E+03  0.10475444626E+04  0.91423871096E+02 0.  0.
         23    2    4    4    0    0  0.74852941348E+02 -0.32244208472E+03  0.10930751549E+03  0.36012553073E+03  0.90390287724E+02 0.  0.
          3    1    3    3  502    0 -0.49383227710E+03  0.35576091428E+02  0.27060022773E+03  0.56423440114E+03  0.00000000000E+00 0. -1.
         -4    1    3    3    0  502 -0.23576729288E+03 -0.20759132162E+01  0.76749478218E+02  0.24795364126E+03  0.00000000000E+00 0.  1.
         13    1    5    5    0    0  0.41303132837E+03  0.13645894815E+03  0.48078787982E+03  0.64836171087E+03  0.00000000000E+00 0.  1.
        -13    1    5    5    0    0  0.24171530025E+03  0.15248295836E+03  0.27869253724E+03  0.39918275173E+03  0.00000000000E+00 0. -1.
          3    1    6    6  503    0  0.53127643410E+02 -0.20696339084E+03  0.11467005701E+03  0.24249868786E+03  0.00000000000E+00 0. -1.
         -3    1    6    6    0  503  0.21725297938E+02 -0.11547869388E+03 -0.53625415209E+01  0.11762684287E+03  0.00000000000E+00 0.  1.
<mgrwt>
<rscale>  0 0.18570888E+04</rscale>
<asrwt>0</asrwt>
<pdfrwt beam="1">  1        1 0.26430736E+00 0.18570888E+04</pdfrwt>
<pdfrwt beam="2">  1       -2 0.77209262E-01 0.18570888E+04</pdfrwt>
<totfact> 0.57166491E+00</totfact>
</mgrwt>
</event>
<event>
12    5  0.5297412E-008  0.2852962E+04  0.7818608E-02  0.8287012E-01
         -2   -1    0    0    0  501 -0.00000000000E+00  0.00000000000E+00  0.84746191012E+03  0.84746191012E+03  0.00000000000E+00 0.  1.
          1   -1    0    0  501    0  0.00000000000E+00 -0.00000000000E+00 -0.24011093874E+04  0.24011093874E+04  0.00000000000E+00 0. -1.
        -24    2    1    2    0    0  0.11859873405E+04  0.47429960424E+03 -0.81169283717E+03  0.15155178696E+04  0.80144025344E+02 0.  0.
        254    2    1    2    0    0 -0.11859873405E+04 -0.47429960424E+03 -0.74195464011E+03  0.17330534279E+04  0.90633956640E+03 0.  0.
         23    2    4    4    0    0 -0.11541911906E+04 -0.52048461631E+03 -0.33708104328E+03  0.13132055559E+04  0.88451466861E+02 0.  0.
         23    2    4    4    0    0 -0.31796149859E+02  0.46185012075E+02 -0.40487359684E+03  0.41984787200E+03  0.95945587297E+02 0.  0.
          1    1    3    3  502    0  0.11572764415E+04  0.45793827534E+03 -0.80366689067E+03  0.14815116258E+04  0.00000000000E+00 0. -1.
         -2    1    3    3    0  502  0.28710898952E+02  0.16361328898E+02 -0.80259464995E+01  0.34006243826E+02  0.00000000000E+00 0.  1.
         13    1    5    5    0    0 -0.58001120290E+03 -0.22611473614E+03 -0.13429168957E+03  0.63684780543E+03  0.00000000000E+00 0.  1.
        -13    1    5    5    0    0 -0.57417998774E+03 -0.29436988017E+03 -0.20278935371E+03  0.67635775049E+03  0.00000000000E+00 0. -1.
          3    1    6    6  503    0 -0.29942289729E+02  0.73555995711E+02 -0.24249905496E+03  0.25517213186E+03  0.00000000000E+00 0. -1.
         -3    1    6    6    0  503 -0.18538601297E+01 -0.27370983637E+02 -0.16237454188E+03  0.16467574014E+03  0.00000000000E+00 0.  1.
<mgrwt>
<rscale>  0 0.28529625E+04</rscale>
<asrwt>0</asrwt>
<pdfrwt beam="1">  1        1 0.36940145E+00 0.28529625E+04</pdfrwt>
<pdfrwt beam="2">  1       -2 0.13037875E+00 0.28529625E+04</pdfrwt>
<totfact> 0.51809347E-01</totfact>
</mgrwt>
</event>
<event>
12    5  0.5297412E-008  0.1070975E+04  0.7818608E-02  0.9233952E-01
          1   -1    0    0  501    0  0.00000000000E+00  0.00000000000E+00  0.78147067713E+03  0.78147067713E+03  0.00000000000E+00 0. -1.
         -2   -1    0    0    0  501 -0.00000000000E+00 -0.00000000000E+00 -0.36693266470E+03  0.36693266470E+03  0.00000000000E+00 0.  1.
        -24    2    1    2    0    0 -0.43007611282E+02  0.83618486181E+02  0.16231265605E+03  0.20370732906E+03  0.79432812745E+02 0.  0.
        254    2    1    2    0    0  0.43007611282E+02 -0.83618486181E+02  0.25222535639E+03  0.94469601277E+03  0.90553366601E+03 0.  0.
         23    2    4    4    0    0 -0.15971567566E+03  0.22513222486E+03  0.43474885165E+03  0.52311942092E+03  0.91944270146E+02 0.  0.
         23    2    4    4    0    0  0.20272328695E+03 -0.30875071104E+03 -0.18252349526E+03  0.42157659185E+03  0.89377087875E+02 0.  0.
          3    1    3    3  502    0 -0.57332833684E+02  0.75980314738E+02  0.16148747110E+03  0.18745203484E+03  0.00000000000E+00 0. -1.
         -4    1    3    3    0  502  0.14325222402E+02  0.76381714432E+01  0.82518495034E+00  0.16255294217E+02  0.00000000000E+00 0.  1.
         13    1    5    5    0    0 -0.12580854351E+03  0.21727960686E+03  0.40864550303E+03  0.47961376578E+03  0.00000000000E+00 0. -1.
        -13    1    5    5    0    0 -0.33907132150E+02  0.78526179977E+01  0.26103348612E+02  0.43505655136E+02  0.00000000000E+00 0.  1.
          3    1    6    6  503    0  0.15865521038E+03 -0.25684543332E+03 -0.18385590868E+03  0.35347425303E+03  0.00000000000E+00 0. -1.
         -3    1    6    6    0  503  0.44068076565E+02 -0.51905277724E+02  0.13324134210E+01  0.68102338824E+02  0.00000000000E+00 0.  1.
<mgrwt>
<rscale>  0 0.10709755E+04</rscale>
<asrwt>0</asrwt>
<pdfrwt beam="1">  1        1 0.12022626E+00 0.10709755E+04</pdfrwt>
<pdfrwt beam="2">  1       -2 0.56451179E-01 0.10709755E+04</pdfrwt>
<totfact> 0.59127123E+01</totfact>
</mgrwt>
</event>
<event>
12    5  0.5297412E-008  0.1560074E+04  0.7818608E-02  0.8845459E-01
          1   -1    0    0  501    0  0.00000000000E+00  0.00000000000E+00  0.73612600174E+03  0.73612600174E+03  0.00000000000E+00 0. -1.
         -2   -1    0    0    0  501 -0.00000000000E+00 -0.00000000000E+00 -0.82656729688E+03  0.82656729688E+03  0.00000000000E+00 0.  1.
        -24    2    1    2    0    0 -0.10710744801E+03 -0.50218788551E+02  0.47673249873E+03  0.49793966757E+03  0.81707435678E+02 0.  0.
        254    2    1    2    0    0  0.10710744801E+03  0.50218788551E+02 -0.56717379388E+03  0.10647536311E+04  0.89331979170E+03 0.  0.
         23    2    4    4    0    0  0.41871387347E+03  0.32596373974E+02 -0.22421468770E+02  0.43060547594E+03  0.92382477877E+02 0.  0.
         23    2    4    4    0    0 -0.31160642545E+03  0.17622414577E+02 -0.54475232511E+03  0.63414815511E+03  0.89329015688E+02 0.  0.
          1    1    3    3  502    0 -0.51077082095E+02 -0.51792587890E+02  0.37304762220E+03  0.38007350460E+03  0.00000000000E+00 0. -1.
         -2    1    3    3    0  502 -0.56030365918E+02  0.15737993385E+01  0.10368487654E+03  0.11786616296E+03  0.00000000000E+00 0.  1.
         13    1    5    5    0    0  0.39805740139E+03  0.21174099017E+02 -0.40782386262E+02  0.40070093624E+03  0.00000000000E+00 0. -1.
        -13    1    5    5    0    0  0.20656472076E+02  0.11422274957E+02  0.18360917492E+02  0.29904539704E+02  0.00000000000E+00 0.  1.
          4    1    6    6  503    0 -0.19161647546E+03 -0.29637851186E+02 -0.35904299271E+03  0.40805287219E+03  0.00000000000E+00 0. -1.
         -4    1    6    6    0  503 -0.11998994999E+03  0.47260265763E+02 -0.18570933240E+03  0.22609528292E+03  0.00000000000E+00 0.  1.
<mgrwt>
<rscale>  0 0.15600739E+04</rscale>
<asrwt>0</asrwt>
<pdfrwt beam="1">  1        1 0.11325015E+00 0.15600739E+04</pdfrwt>
<pdfrwt beam="2">  1       -2 0.12716420E+00 0.15600739E+04</pdfrwt>
<totfact> 0.97591935E+00</totfact>
</mgrwt>
</event>
<event>
12    5  0.5297412E-008  0.1371124E+04  0.7818608E-02  0.8974990E-01
          1   -1    0    0  501    0  0.00000000000E+00  0.00000000000E+00  0.95071076898E+03  0.95071076898E+03  0.00000000000E+00 0. -1.
         -2   -1    0    0    0  501 -0.00000000000E+00 -0.00000000000E+00 -0.49436197624E+03  0.49436197624E+03  0.00000000000E+00 0.  1.
        -24    2    1    2    0    0 -0.22144146319E+03 -0.36620824989E+02  0.46964047672E+03  0.52644556288E+03  0.78774024026E+02 0.  0.
        254    2    1    2    0    0  0.22144146319E+03  0.36620824989E+02 -0.13291683975E+02  0.91862718233E+03  0.89068615394E+03 0.  0.
         23    2    4    4    0    0  0.23237021997E+03  0.40485023344E+02 -0.42712619767E+03  0.49486153874E+03  0.82560266101E+02 0.  0.
         23    2    4    4    0    0 -0.10928756775E+02 -0.38641983549E+01  0.41383451370E+03  0.42376564360E+03  0.90465165750E+02 0.  0.
          1    1    3    3  502    0 -0.12053170519E+03 -0.50504080556E+02  0.31761902418E+03  0.34345363388E+03  0.00000000000E+00 0. -1.
         -2    1    3    3    0  502 -0.10090975800E+03  0.13883255568E+02  0.15202145254E+03  0.18299192900E+03  0.00000000000E+00 0.  1.
         13    1    5    5    0    0  0.20323753044E+02  0.31720496597E+02 -0.63701657997E+02  0.74007743336E+02  0.00000000000E+00 0. -1.
        -13    1    5    5    0    0  0.21204646692E+03  0.87645267466E+01 -0.36342453968E+03  0.42085379540E+03  0.00000000000E+00 0.  1.
          1    1    6    6  503    0  0.29688645766E+02 -0.30144024235E+02  0.21572343841E+03  0.21983329994E+03  0.00000000000E+00 0. -1.
         -1    1    6    6    0  503 -0.40617402540E+02  0.26279825880E+02  0.19811107529E+03  0.20393234366E+03  0.00000000000E+00 0.  1.
<mgrwt>
<rscale>  0 0.13711240E+04</rscale>
<asrwt>0</asrwt>
<pdfrwt beam="1">  1        1 0.14626320E+00 0.13711240E+04</pdfrwt>
<pdfrwt beam="2">  1       -2 0.76055688E-01 0.13711240E+04</pdfrwt>
<totfact> 0.21951089E+01</totfact>
</mgrwt>
</event>
<event>
12    5  0.5297412E-008  0.1010516E+04  0.7818608E-02  0.9297085E-01
          1   -1    0    0  501    0  0.00000000000E+00  0.00000000000E+00  0.79301578026E+03  0.79301578026E+03  0.00000000000E+00 0. -1.
         -2   -1    0    0    0  501 -0.00000000000E+00 -0.00000000000E+00 -0.32191780062E+03  0.32191780062E+03  0.00000000000E+00 0.  1.
        -24    2    1    2    0    0  0.11145422747E+03  0.36579183499E+02  0.74589021149E+02  0.15914096904E+03  0.77474153512E+02 0.  0.
        254    2    1    2    0    0 -0.11145422747E+03 -0.36579183499E+02  0.39650895849E+03  0.95579261185E+03  0.86171925894E+03 0.  0.
         23    2    4    4    0    0 -0.18435069206E+03  0.38137000243E+03  0.18181069638E+03  0.47007770166E+03  0.92139350250E+02 0.  0.
         23    2    4    4    0    0  0.72896464584E+02 -0.41794918593E+03  0.21469826211E+03  0.48571491019E+03  0.99137347449E+02 0.  0.
          1    1    3    3  502    0  0.25915874163E+02 -0.12400407717E+02 -0.87819482513E+01  0.30042058189E+02  0.00000000000E+00 0. -1.
         -2    1    3    3    0  502  0.85538353311E+02  0.48979591216E+02  0.83370969400E+02  0.12909891085E+03  0.00000000000E+00 0.  1.
         13    1    5    5    0    0 -0.17503422849E+03  0.28078848072E+03  0.12178947874E+03  0.35257882690E+03  0.00000000000E+00 0.  1.
        -13    1    5    5    0    0 -0.93164635721E+01  0.10058152171E+03  0.60021217639E+02  0.11749887476E+03  0.00000000000E+00 0. -1.
          1    1    6    6  503    0  0.65094750413E+02 -0.13986067677E+03  0.10530476871E+03  0.18678177040E+03  0.00000000000E+00 0. -1.
         -1    1    6    6    0  503  0.78017141705E+01 -0.27808850916E+03  0.10939349340E+03  0.29893313979E+03  0.00000000000E+00 0.  1.
<mgrwt>
<rscale>  0 0.10105165E+04</rscale>
<asrwt>0</asrwt>
<pdfrwt beam="1">  1        1 0.12200243E+00 0.10105165E+04</pdfrwt>
<pdfrwt beam="2">  1       -2 0.49525816E-01 0.10105165E+04</pdfrwt>
<totfact> 0.75958661E+01</totfact>
</mgrwt>
</event>
<event>
12    5  0.5297412E-008  0.1606228E+04  0.7818608E-02  0.8816731E-01
         -4   -1    0    0    0  501 -0.00000000000E+00  0.00000000000E+00  0.23415434763E+04  0.23415434763E+04  0.00000000000E+00 0.  1.
          3   -1    0    0  501    0  0.00000000000E+00 -0.00000000000E+00 -0.27545595880E+03  0.27545595880E+03  0.00000000000E+00 0. -1.
        -24    2    1    2    0    0  0.90790285443E+02 -0.47054082279E+03  0.28457320827E+03  0.56307798013E+03  0.80145860797E+02 0.  0.
        254    2    1    2    0    0 -0.90790285443E+02  0.47054082279E+03  0.17815143093E+04  0.20539214550E+04  0.90285578437E+03 0.  0.
         23    2    4    4    0    0  0.82117885864E+02 -0.18987226313E+03  0.12141031892E+03  0.25660429098E+03  0.91161796398E+02 0.  0.
         23    2    4    4    0    0 -0.17290817131E+03  0.66041308592E+03  0.16601039903E+04  0.17973171640E+04  0.91438774989E+02 0.  0.
          3    1    3    3  502    0  0.50034369502E+02 -0.13358745981E+03  0.52919359998E+02  0.15214961785E+03  0.00000000000E+00 0. -1.
         -4    1    3    3    0  502  0.40755915941E+02 -0.33695336298E+03  0.23165384827E+03  0.41092836228E+03  0.00000000000E+00 0.  1.
         13    1    5    5    0    0 -0.19746839513E+02 -0.29693714687E+02  0.12699198265E+02  0.37853982608E+02  0.00000000000E+00 0. -1.
        -13    1    5    5    0    0  0.10186472538E+03 -0.16017854845E+03  0.10871112065E+03  0.21875030837E+03  0.00000000000E+00 0.  1.
          4    1    6    6  503    0 -0.57985526083E+02  0.98930056332E+02  0.31401881215E+03  0.33430119902E+03  0.00000000000E+00 0. -1.
         -4    1    6    6    0  503 -0.11492264522E+03  0.56148302959E+03  0.13460851782E+04  0.14630159650E+04  0.00000000000E+00 0.  1.
<mgrwt>
<rscale>  0 0.16062280E+04</rscale>
<asrwt>0</asrwt>
<pdfrwt beam="1">  1        3 0.42377841E-01 0.16062280E+04</pdfrwt>
<pdfrwt beam="2">  1       -4 0.36023745E+00 0.16062280E+04</pdfrwt>
<totfact> 0.15559858E-01</totfact>
</mgrwt>
</event>
<event>
12    5  0.5297412E-008  0.1485267E+04  0.7818608E-02  0.8894310E-01
          1   -1    0    0  501    0  0.00000000000E+00  0.00000000000E+00  0.11363264384E+04  0.11363264384E+04  0.00000000000E+00 0. -1.
         -2   -1    0    0    0  501 -0.00000000000E+00 -0.00000000000E+00 -0.48533967651E+03  0.48533967651E+03  0.00000000000E+00 0.  1.
        -24    2    1    2    0    0  0.10990836423E+03  0.21077968606E+03  0.63225960078E+03  0.68041934664E+03  0.81916786541E+02 0.  0.
        254    2    1    2    0    0 -0.10990836423E+03 -0.21077968606E+03  0.18727161142E+02  0.94124676830E+03  0.91054206256E+03 0.  0.
         23    2    4    4    0    0  0.33409504506E+03 -0.10292944580E+02 -0.20080591777E+03  0.40031445754E+03  0.90571543344E+02 0.  0.
         23    2    4    4    0    0 -0.44400340930E+03 -0.20048674148E+03  0.21953307891E+03  0.54093231076E+03  0.84136978277E+02 0.  0.
          3    1    3    3  502    0  0.17688822086E+02  0.10883299608E+03  0.34025628069E+03  0.35767562401E+03  0.00000000000E+00 0. -1.
         -4    1    3    3    0  502  0.92219542149E+02  0.10194668998E+03  0.29200332009E+03  0.32274372263E+03  0.00000000000E+00 0.  1.
         13    1    5    5    0    0  0.77086443913E+02 -0.24642070140E+02 -0.13682164910E+02  0.82077725922E+02  0.00000000000E+00 0.  1.
        -13    1    5    5    0    0  0.25700860115E+03  0.14349125560E+02 -0.18712375286E+03  0.31823673162E+03  0.00000000000E+00 0. -1.
          4    1    6    6  503    0 -0.48439453196E+02 -0.44142918872E+02  0.52495013724E+02  0.83968472526E+02  0.00000000000E+00 0. -1.
         -4    1    6    6    0  503 -0.39556395610E+03 -0.15634382261E+03  0.16703806518E+03  0.45696383823E+03  0.00000000000E+00 0.  1.
<mgrwt>
<rscale>  0 0.14852667E+04</rscale>
<asrwt>0</asrwt>
<pdfrwt beam="1">  1        1 0.17481945E+00 0.14852667E+04</pdfrwt>
<pdfrwt beam="2">  1       -2 0.74667643E-01 0.14852667E+04</pdfrwt>
<totfact> 0.16310042E+01</totfact>
</mgrwt>
</event>
<event>
12    5  0.5297412E-008  0.1610294E+04  0.7818608E-02  0.8814249E-01
         -2   -1    0    0    0  501 -0.00000000000E+00  0.00000000000E+00  0.24516419840E+03  0.24516419840E+03  0.00000000000E+00 0.  1.
          1   -1    0    0  501    0  0.00000000000E+00 -0.00000000000E+00 -0.26441934351E+04  0.26441934351E+04  0.00000000000E+00 0. -1.
        -24    2    1    2    0    0  0.10418638566E+03  0.53342706416E+03 -0.92648839124E+03  0.10771231321E+04  0.80089117739E+02 0.  0.
        254    2    1    2    0    0 -0.10418638566E+03 -0.53342706416E+03 -0.14725408454E+04  0.18122345014E+04  0.90576934754E+03 0.  0.
         23    2    4    4    0    0  0.16685147180E+03 -0.56339568742E+03 -0.43750120646E+03  0.73791303446E+03  0.88624074228E+02 0.  0.
         23    2    4    4    0    0 -0.27103785745E+03  0.29968623263E+02 -0.10350396389E+04  0.10743214669E+04  0.92195019250E+02 0.  0.
          1    1    3    3  502    0  0.71429242133E+02  0.48854508173E+03 -0.83792315677E+03  0.97257064020E+03  0.00000000000E+00 0. -1.
         -2    1    3    3    0  502  0.32757143522E+02  0.44881982425E+02 -0.88565234466E+02  0.10455249186E+03  0.00000000000E+00 0.  1.
         13    1    5    5    0    0 -0.87175547361E+01 -0.16949695346E+02 -0.64717338544E+01  0.20128866634E+02  0.00000000000E+00 0. -1.
        -13    1    5    5    0    0  0.17556902654E+03 -0.54644599207E+03 -0.43102947261E+03  0.71778416783E+03  0.00000000000E+00 0.  1.
          3    1    6    6  503    0 -0.10508377864E+03  0.26108960155E+02 -0.57834713512E+03  0.58839585913E+03  0.00000000000E+00 0. -1.
         -3    1    6    6    0  503 -0.16595407882E+03  0.38596631075E+01 -0.45669250382E+03  0.48592560781E+03  0.00000000000E+00 0.  1.
<mgrwt>
<rscale>  0 0.16102938E+04</rscale>
<asrwt>0</asrwt>
<pdfrwt beam="1">  1        1 0.40679897E+00 0.16102938E+04</pdfrwt>
<pdfrwt beam="2">  1       -2 0.37717571E-01 0.16102938E+04</pdfrwt>
<totfact> 0.60150837E+00</totfact>
</mgrwt>
</event>
<event>
12    5  0.5297412E-008  0.1291441E+04  0.7818608E-02  0.9036380E-01
          3   -1    0    0  501    0  0.00000000000E+00  0.00000000000E+00  0.36261754819E+04  0.36261754819E+04  0.00000000000E+00 0. -1.
         -4   -1    0    0    0  501 -0.00000000000E+00 -0.00000000000E+00 -0.11498484932E+03  0.11498484932E+03  0.00000000000E+00 0.  1.
        -24    2    1    2    0    0  0.16300902485E+03  0.20911091413E+03  0.35310507628E+03  0.44860971680E+03  0.79171753350E+02 0.  0.
        254    2    1    2    0    0 -0.16300902485E+03 -0.20911091413E+03  0.31580855563E+04  0.32925506145E+04  0.89279664593E+03 0.  0.
         23    2    4    4    0    0 -0.46755477648E+03 -0.51063557602E+01  0.10903129440E+04  0.11903484991E+04  0.97538145025E+02 0.  0.
         23    2    4    4    0    0  0.30454575163E+03 -0.20400455837E+03  0.20677726124E+04  0.21022021153E+04  0.95938430741E+02 0.  0.
          3    1    3    3  502    0  0.71657003570E+02  0.43697351987E+02  0.14480631878E+03  0.16737100911E+03  0.00000000000E+00 0. -1.
         -4    1    3    3    0  502  0.91352021278E+02  0.16541356214E+03  0.20829875750E+03  0.28123870770E+03  0.00000000000E+00 0.  1.
         13    1    5    5    0    0 -0.24737547333E+02  0.15693918633E+02  0.34592498757E+02  0.45330853735E+02  0.00000000000E+00 0. -1.
        -13    1    5    5    0    0 -0.44281722915E+03 -0.20800274394E+02  0.10557204452E+04  0.11450176454E+04  0.00000000000E+00 0.  1.
          3    1    6    6  503    0  0.35628351142E+02 -0.59637886651E+02  0.52022699494E+03  0.52484491347E+03  0.00000000000E+00 0. -1.
         -3    1    6    6    0  503  0.26891740049E+03 -0.14436667171E+03  0.15475456174E+04  0.15773572019E+04  0.00000000000E+00 0.  1.
<mgrwt>
<rscale>  0 0.12914414E+04</rscale>
<asrwt>0</asrwt>
<pdfrwt beam="1">  1        3 0.55787306E+00 0.12914414E+04</pdfrwt>
<pdfrwt beam="2">  1       -4 0.17689980E-01 0.12914414E+04</pdfrwt>
<totfact> 0.12028899E-01</totfact>
</mgrwt>
</event>
<event>
12    5  0.5297412E-008  0.1441427E+04  0.7818608E-02  0.8924366E-01
         -2   -1    0    0    0  501 -0.00000000000E+00  0.00000000000E+00  0.74977855463E+03  0.74977855463E+03  0.00000000000E+00 0.  1.
          1   -1    0    0  501    0  0.00000000000E+00 -0.00000000000E+00 -0.69277511880E+03  0.69277511880E+03  0.00000000000E+00 0. -1.
        -24    2    1    2    0    0  0.30443874493E+03  0.54060668982E+02  0.32562860503E+03  0.45669555892E+03  0.83254668166E+02 0.  0.
        254    2    1    2    0    0 -0.30443874493E+03 -0.54060668982E+02 -0.26862516921E+03  0.98585811452E+03  0.89674479930E+03 0.  0.
         23    2    4    4    0    0 -0.58074819569E+03  0.10195809164E+03 -0.69326534156E+02  0.60018900360E+03  0.88072427325E+02 0.  0.
         23    2    4    4    0    0  0.27630945075E+03 -0.15601876062E+03 -0.19929863505E+03  0.38566911092E+03  0.91279520936E+02 0.  0.
          3    1    3    3  502    0  0.27413240052E+02  0.31955124411E+02  0.37465314326E+02  0.56358366582E+02  0.00000000000E+00 0. -1.
         -4    1    3    3    0  502  0.27702550488E+03  0.22105544571E+02  0.28816329071E+03  0.40033719234E+03  0.00000000000E+00 0.  1.
         13    1    5    5    0    0 -0.20402722496E+03  0.44740468725E+02  0.16752181085E+02  0.20954582706E+03  0.00000000000E+00 0. -1.
        -13    1    5    5    0    0 -0.37672097073E+03  0.57217622916E+02 -0.86078715241E+02  0.39064317654E+03  0.00000000000E+00 0.  1.
          1    1    6    6  503    0  0.65570567479E+01 -0.17297118507E+02  0.59387335207E+01  0.19428171753E+02  0.00000000000E+00 0. -1.
         -1    1    6    6    0  503  0.26975239401E+03 -0.13872164212E+03 -0.20523736857E+03  0.36624093917E+03  0.00000000000E+00 0.  1.
<mgrwt>
<rscale>  0 0.14414270E+04</rscale>
<asrwt>0</asrwt>
<pdfrwt beam="1">  1        1 0.10658079E+00 0.14414270E+04</pdfrwt>
<pdfrwt beam="2">  1       -2 0.11535055E+00 0.14414270E+04</pdfrwt>
<totfact> 0.13782621E+01</totfact>
</mgrwt>
</event>
<event>
12    5  0.5297412E-008  0.1996418E+04  0.7818608E-02  0.8608297E-01
         -2   -1    0    0    0  501 -0.00000000000E+00  0.00000000000E+00  0.83970429237E+03  0.83970429237E+03  0.00000000000E+00 0.  1.
          1   -1    0    0  501    0  0.00000000000E+00 -0.00000000000E+00 -0.11866338923E+04  0.11866338923E+04  0.00000000000E+00 0. -1.
        -24    2    1    2    0    0  0.73322700028E+03 -0.36697976958E+02 -0.48619235838E+03  0.88416293842E+03  0.79953216806E+02 0.  0.
        254    2    1    2    0    0 -0.73322700028E+03  0.36697976958E+02  0.13926275844E+03  0.11421752463E+04  0.86382961388E+03 0.  0.
         23    2    4    4    0    0 -0.29027973805E+03 -0.19970360946E+03 -0.29799137756E+03  0.47014127434E+03  0.89944976443E+02 0.  0.
         23    2    4    4    0    0 -0.44294726223E+03  0.23640158642E+03  0.43725413600E+03  0.67203397191E+03  0.91381030719E+02 0.  0.
          1    1    3    3  502    0  0.48875701749E+03 -0.58512373465E+02 -0.30489562589E+03  0.57902371513E+03  0.00000000000E+00 0. -1.
         -2    1    3    3    0  502  0.24446998279E+03  0.21814396507E+02 -0.18129673248E+03  0.30513922329E+03  0.00000000000E+00 0.  1.
         13    1    5    5    0    0 -0.38138194507E+02  0.23977574791E+01 -0.16636466709E+02  0.41677849581E+02  0.00000000000E+00 0. -1.
        -13    1    5    5    0    0 -0.25214154354E+03 -0.20210136694E+03 -0.28135491085E+03  0.42846342476E+03  0.00000000000E+00 0.  1.
          1    1    6    6  503    0 -0.10194861942E+03  0.46248758042E+02  0.15068945870E+03  0.18772261874E+03  0.00000000000E+00 0. -1.
         -1    1    6    6    0  503 -0.34099864281E+03  0.19015282837E+03  0.28656467730E+03  0.48431135317E+03  0.00000000000E+00 0.  1.
<mgrwt>
<rscale>  0 0.19964184E+04</rscale>
<asrwt>0</asrwt>
<pdfrwt beam="1">  1        1 0.18255906E+00 0.19964184E+04</pdfrwt>
<pdfrwt beam="2">  1       -2 0.12918528E+00 0.19964184E+04</pdfrwt>
<totfact> 0.39256659E+00</totfact>
</mgrwt>
</event>
<event>
12    5  0.5297412E-008  0.1017977E+04  0.7818608E-02  0.9289045E-01
         -2   -1    0    0    0  501 -0.00000000000E+00  0.00000000000E+00  0.12233393853E+03  0.12233393853E+03  0.00000000000E+00 0.  1.
          1   -1    0    0  501    0  0.00000000000E+00 -0.00000000000E+00 -0.21177232522E+04  0.21177232522E+04  0.00000000000E+00 0. -1.
        -24    2    1    2    0    0  0.60943065224E+02  0.25263632086E+02 -0.18919706279E+03  0.21421895983E+03  0.75775496567E+02 0.  0.
        254    2    1    2    0    0 -0.60943065224E+02 -0.25263632086E+02 -0.18061922509E+04  0.20258382309E+04  0.91506162760E+03 0.  0.
         23    2    4    4    0    0 -0.78884205364E+02  0.29540381567E+03 -0.18125877871E+03  0.36686595268E+03  0.90828135551E+02 0.  0.
         23    2    4    4    0    0  0.17941140140E+02 -0.32066744775E+03 -0.16249334722E+04  0.16589722782E+04  0.92901745720E+02 0.  0.
          3    1    3    3  502    0  0.54447344439E+02  0.22456958885E+02 -0.19584527566E+03  0.20450965825E+03  0.00000000000E+00 0. -1.
         -4    1    3    3    0  502  0.64957207857E+01  0.28066732008E+01  0.66482128692E+01  0.97093015885E+01  0.00000000000E+00 0.  1.
         13    1    5    5    0    0 -0.48787028049E+02  0.24732476150E+03 -0.10809240197E+03  0.27428758470E+03  0.00000000000E+00 0.  1.
        -13    1    5    5    0    0 -0.30097177314E+02  0.48079054169E+02 -0.73166376744E+02  0.92578367980E+02  0.00000000000E+00 0. -1.
          4    1    6    6  503    0 -0.16652436372E+02 -0.71103682730E+02 -0.22521540431E+03  0.23675940462E+03  0.00000000000E+00 0. -1.
         -4    1    6    6    0  503  0.34593576512E+02 -0.24956376502E+03 -0.13997180679E+04  0.14222128736E+04  0.00000000000E+00 0.  1.
<mgrwt>
<rscale>  0 0.10179773E+04</rscale>
<asrwt>0</asrwt>
<pdfrwt beam="1">  1        1 0.32580353E+00 0.10179773E+04</pdfrwt>
<pdfrwt beam="2">  1       -2 0.18820609E-01 0.10179773E+04</pdfrwt>
<totfact> 0.52121591E+01</totfact>
</mgrwt>
</event>
<event>
12    5  0.5297412E-008  0.1923396E+04  0.7818608E-02  0.8643297E-01
         -2   -1    0    0    0  501 -0.00000000000E+00  0.00000000000E+00  0.11961007503E+04  0.11961007503E+04  0.00000000000E+00 0.  1.
          1   -1    0    0  501    0  0.00000000000E+00 -0.00000000000E+00 -0.77323193776E+03  0.77323193776E+03  0.00000000000E+00 0. -1.
        -24    2    1    2    0    0  0.31594953010E+03 -0.66192154402E+03  0.66048934439E+02  0.74066550559E+03  0.79111904378E+02 0.  0.
        254    2    1    2    0    0 -0.31594953010E+03  0.66192154402E+03  0.35681987809E+03  0.12286671825E+04  0.91887887332E+03 0.  0.
         23    2    4    4    0    0 -0.27426684650E+03 -0.73808718074E+02 -0.14544541766E+03  0.33220413196E+03  0.92386069392E+02 0.  0.
         23    2    4    4    0    0 -0.41682683603E+02  0.73573026210E+03  0.50226529576E+03  0.89646305050E+03  0.91318721583E+02 0.  0.
          1    1    3    3  502    0  0.31245214924E+03 -0.64915126638E+03  0.75528569471E+02  0.72438130637E+03  0.00000000000E+00 0. -1.
         -2    1    3    3    0  502  0.34973808690E+01 -0.12770277641E+02 -0.94796350325E+01  0.16284199222E+02  0.00000000000E+00 0.  1.
         13    1    5    5    0    0 -0.28283068803E+02 -0.40201643361E+02 -0.13130378679E+02  0.50877411040E+02  0.00000000000E+00 0.  1.
        -13    1    5    5    0    0 -0.24598377770E+03 -0.33607074713E+02 -0.13231503899E+03  0.28132672092E+03  0.00000000000E+00 0. -1.
          2    1    6    6  503    0 -0.33857220615E+02  0.47209440731E+03  0.26929836184E+03  0.54455582679E+03  0.00000000000E+00 0.  1.
         -2    1    6    6    0  503 -0.78254629882E+01  0.26363585479E+03  0.23296693392E+03  0.35190722371E+03  0.00000000000E+00 0. -1.
<mgrwt>
<rscale>  0 0.19233963E+04</rscale>
<asrwt>0</asrwt>
<pdfrwt beam="1">  1        1 0.11895876E+00 0.19233963E+04</pdfrwt>
<pdfrwt beam="2">  1       -2 0.18401550E+00 0.19233963E+04</pdfrwt>
<totfact> 0.32477128E+00</totfact>
</mgrwt>
</event>
<event>
12    5  0.5297412E-008  0.3354936E+04  0.7818608E-02  0.8149056E-01
         -2   -1    0    0    0  501 -0.00000000000E+00  0.00000000000E+00  0.30544157781E+04  0.30544157781E+04  0.00000000000E+00 0.  1.
          1   -1    0    0  501    0  0.00000000000E+00 -0.00000000000E+00 -0.92125606837E+03  0.92125606837E+03  0.00000000000E+00 0. -1.
        -24    2    1    2    0    0  0.96205198177E+02  0.12367113999E+04  0.21093633691E+04  0.24483587604E+04  0.79600689826E+02 0.  0.
        254    2    1    2    0    0 -0.96205198177E+02 -0.12367113999E+04  0.23796340646E+02  0.15273130861E+04  0.89073479245E+03 0.  0.
         23    2    4    4    0    0  0.29576939395E+03 -0.39515148926E+03 -0.24211155609E+03  0.55688910323E+03  0.88787577068E+02 0.  0.
         23    2    4    4    0    0 -0.39197459212E+03 -0.84155991062E+03  0.26590789674E+03  0.97042398290E+03  0.95647963928E+02 0.  0.
          3    1    3    3  502    0  0.27678113129E+02  0.54267714820E+03  0.85185941742E+03  0.10104103286E+04  0.00000000000E+00 0. -1.
         -4    1    3    3    0  502  0.68527085048E+02  0.69403425168E+03  0.12575039517E+04  0.14379484318E+04  0.00000000000E+00 0.  1.
         13    1    5    5    0    0  0.28122718056E+03 -0.39550253592E+03 -0.22649543655E+03  0.53554753830E+03  0.00000000000E+00 0. -1.
        -13    1    5    5    0    0  0.14542213387E+02  0.35104665795E+00 -0.15616119544E+02  0.21341564928E+02  0.00000000000E+00 0.  1.
          3    1    6    6  503    0 -0.32386540622E+03 -0.75659670646E+03  0.25158013418E+03  0.86059278494E+03  0.00000000000E+00 0. -1.
         -3    1    6    6    0  503 -0.68109185904E+02 -0.84963204161E+02  0.14327762555E+02  0.10983119796E+03  0.00000000000E+00 0.  1.
<mgrwt>
<rscale>  0 0.33549361E+04</rscale>
<asrwt>0</asrwt>
<pdfrwt beam="1">  1        1 0.14173170E+00 0.33549361E+04</pdfrwt>
<pdfrwt beam="2">  1       -2 0.46991011E+00 0.33549361E+04</pdfrwt>
<totfact> 0.32479984E-02</totfact>
</mgrwt>
</event>
<event>
12    5  0.5297412E-008  0.2647905E+04  0.7818608E-02  0.8352109E-01
          1   -1    0    0  501    0  0.00000000000E+00  0.00000000000E+00  0.13610867014E+04  0.13610867014E+04  0.00000000000E+00 0. -1.
         -2   -1    0    0    0  501 -0.00000000000E+00 -0.00000000000E+00 -0.12878316890E+04  0.12878316890E+04  0.00000000000E+00 0.  1.
        -24    2    1    2    0    0 -0.30543902930E+03  0.34621865488E+03 -0.10433683197E+04  0.11436898674E+04  0.79048748722E+02 0.  0.
        254    2    1    2    0    0  0.30543902930E+03 -0.34621865488E+03  0.11166233322E+04  0.15052285229E+04  0.89761065207E+03 0.  0.
         23    2    4    4    0    0  0.39724340978E+03  0.97961553482E+02  0.90301761782E+03  0.99558105438E+03  0.91334687698E+02 0.  0.
         23    2    4    4    0    0 -0.91804380482E+02 -0.44418020837E+03  0.21360571436E+03  0.50964746856E+03  0.91591698450E+02 0.  0.
          1    1    3    3  502    0 -0.21107185115E+03  0.28551954855E+03 -0.82561712684E+03  0.89873042625E+03  0.00000000000E+00 0. -1.
         -2    1    3    3    0  502 -0.94367178154E+02  0.60699106337E+02 -0.21775119289E+03  0.24495944119E+03  0.00000000000E+00 0.  1.
         13    1    5    5    0    0  0.36532151365E+03  0.10326311461E+03  0.87062220474E+03  0.94979266293E+03  0.00000000000E+00 0.  1.
        -13    1    5    5    0    0  0.31921896132E+02 -0.53015611227E+01  0.32395413080E+02  0.45788391450E+02  0.00000000000E+00 0. -1.
          3    1    6    6  503    0 -0.29553367456E+01  0.45469533712E-01  0.14503725036E+02  0.14801828356E+02  0.00000000000E+00 0. -1.
         -3    1    6    6    0  503 -0.88849043736E+02 -0.44422567790E+03  0.19910198932E+03  0.49484564021E+03  0.00000000000E+00 0.  1.
<mgrwt>
<rscale>  0 0.26479053E+04</rscale>
<asrwt>0</asrwt>
<pdfrwt beam="1">  1        1 0.20939795E+00 0.26479053E+04</pdfrwt>
<pdfrwt beam="2">  1       -2 0.19812795E+00 0.26479053E+04</pdfrwt>
<totfact> 0.86226050E-01</totfact>
</mgrwt>
</event>
<event>
12    5  0.5297412E-008  0.2354719E+04  0.7818608E-02  0.8456653E-01
          1   -1    0    0  501    0  0.00000000000E+00  0.00000000000E+00  0.10521519936E+04  0.10521519936E+04  0.00000000000E+00 0. -1.
         -2   -1    0    0    0  501 -0.00000000000E+00 -0.00000000000E+00 -0.13174665005E+04  0.13174665005E+04  0.00000000000E+00 0.  1.
        -24    2    1    2    0    0  0.22646589617E+02 -0.95764242413E+03 -0.42449658476E+03  0.10508676267E+04  0.80830302697E+02 0.  0.
        254    2    1    2    0    0 -0.22646589617E+02  0.95764242413E+03  0.15918207781E+03  0.13187508675E+04  0.89228528846E+03 0.  0.
         23    2    4    4    0    0 -0.99309552257E+02 -0.88177285834E+02  0.20988202673E+03  0.26500508926E+03  0.92410017219E+02 0.  0.
         23    2    4    4    0    0  0.76662962640E+02  0.10458197100E+04 -0.50699948924E+02  0.10537457782E+04  0.90518532099E+02 0.  0.
          3    1    3    3  502    0  0.43691012333E+02 -0.30849981968E+03 -0.14893509133E+03  0.34534432778E+03  0.00000000000E+00 0. -1.
         -4    1    3    3    0  502 -0.21044422716E+02 -0.64914260445E+03 -0.27556149343E+03  0.70552329890E+03  0.00000000000E+00 0.  1.
         13    1    5    5    0    0  0.98383507832E+01 -0.39488594675E+02  0.70465616041E+02  0.81372878157E+02  0.00000000000E+00 0. -1.
        -13    1    5    5    0    0 -0.10914790304E+03 -0.48688691159E+02  0.13941641069E+03  0.18363221111E+03  0.00000000000E+00 0.  1.
          4    1    6    6  503    0  0.59197525727E+02  0.10102066838E+04 -0.57183969352E+02  0.10135540920E+04  0.00000000000E+00 0.  1.
         -4    1    6    6    0  503  0.17465436913E+02  0.35613026198E+02  0.64840204277E+01  0.40191686235E+02  0.00000000000E+00 0. -1.
<mgrwt>
<rscale>  0 0.23547187E+04</rscale>
<asrwt>0</asrwt>
<pdfrwt beam="1">  1        1 0.16186954E+00 0.23547187E+04</pdfrwt>
<pdfrwt beam="2">  1       -2 0.20268715E+00 0.23547187E+04</pdfrwt>
<totfact> 0.13891018E+00</totfact>
</mgrwt>
</event>
<event>
12    5  0.5297412E-008  0.1630040E+04  0.7818608E-02  0.8802303E-01
          1   -1    0    0  501    0  0.00000000000E+00  0.00000000000E+00  0.12823171862E+04  0.12823171862E+04  0.00000000000E+00 0. -1.
         -2   -1    0    0    0  501 -0.00000000000E+00 -0.00000000000E+00 -0.51801378548E+03  0.51801378548E+03  0.00000000000E+00 0.  1.
        -24    2    1    2    0    0 -0.28182484243E+03 -0.55762051217E+02  0.80525116112E+03  0.85873308641E+03  0.80364376747E+02 0.  0.
        254    2    1    2    0    0  0.28182484243E+03  0.55762051217E+02 -0.40947760424E+02  0.94159788524E+03  0.89576515351E+03 0.  0.
         23    2    4    4    0    0 -0.16431003511E+03  0.88252764185E+02 -0.33722468799E+03  0.39671789275E+03  0.94224509625E+02 0.  0.
         23    2    4    4    0    0  0.44613487754E+03 -0.32490712968E+02  0.29627692757E+03  0.54487999248E+03  0.94985330534E+02 0.  0.
          3    1    3    3  502    0 -0.13384974055E+03  0.39671587886E+00  0.28360234057E+03  0.31360197386E+03  0.00000000000E+00 0. -1.
         -4    1    3    3    0  502 -0.14797510187E+03 -0.56158767096E+02  0.52164882055E+03  0.54513111255E+03  0.00000000000E+00 0.  1.
         13    1    5    5    0    0 -0.69951216425E+02  0.64622769957E+02 -0.89944374554E+02  0.13099337995E+03  0.00000000000E+00 0.  1.
        -13    1    5    5    0    0 -0.94358818684E+02  0.23629994228E+02 -0.24728031344E+03  0.26572451280E+03  0.00000000000E+00 0. -1.
          3    1    6    6  503    0  0.44209056788E+03 -0.27151467076E+02  0.30198898256E+03  0.53607706345E+03  0.00000000000E+00 0. -1.
         -3    1    6    6    0  503  0.40443096588E+01 -0.53392458921E+01 -0.57120549927E+01  0.88029290325E+01  0.00000000000E+00 0.  1.
<mgrwt>
<rscale>  0 0.16300405E+04</rscale>
<asrwt>0</asrwt>
<pdfrwt beam="1">  1        1 0.19727957E+00 0.16300405E+04</pdfrwt>
<pdfrwt beam="2">  1       -2 0.79694429E-01 0.16300405E+04</pdfrwt>
<totfact> 0.10903118E+01</totfact>
</mgrwt>
</event>
<event>
12    5  0.5297412E-008  0.1453287E+04  0.7818608E-02  0.8916125E-01
          1   -1    0    0  501    0  0.00000000000E+00  0.00000000000E+00  0.43033258761E+03  0.43033258761E+03  0.00000000000E+00 0. -1.
         -2   -1    0    0    0  501 -0.00000000000E+00 -0.00000000000E+00 -0.12269834343E+04  0.12269834343E+04  0.00000000000E+00 0.  1.
        -24    2    1    2    0    0  0.34072269256E+03 -0.22808005512E+03 -0.23882873418E+03  0.48118873667E+03  0.79943550436E+02 0.  0.
        254    2    1    2    0    0 -0.34072269256E+03  0.22808005512E+03 -0.55782211251E+03  0.11761272852E+04  0.95078778764E+03 0.  0.
         23    2    4    4    0    0 -0.47263558050E+01  0.10649715043E+01  0.25070607657E+03  0.26708256184E+03  0.91956975854E+02 0.  0.
         23    2    4    4    0    0 -0.33599633676E+03  0.22701508362E+03 -0.80852818908E+03  0.90904472341E+03  0.90637134312E+02 0.  0.
          1    1    3    3  502    0  0.62535361913E+02 -0.54211053647E+02 -0.85761893453E+02  0.11918310365E+03  0.00000000000E+00 0. -1.
         -2    1    3    3    0  502  0.27818733065E+03 -0.17386900147E+03 -0.15306684073E+03  0.36200563302E+03  0.00000000000E+00 0.  1.
         13    1    5    5    0    0 -0.59125418771E+01 -0.29441895724E+02  0.22550322910E+03  0.22749393335E+03  0.00000000000E+00 0. -1.
        -13    1    5    5    0    0  0.11861860721E+01  0.30506867228E+02  0.25202847465E+02  0.39588628491E+02  0.00000000000E+00 0.  1.
          3    1    6    6  503    0 -0.29849065219E+03  0.21868519932E+03 -0.67115226399E+03  0.76639757783E+03  0.00000000000E+00 0. -1.
         -3    1    6    6    0  503 -0.37505684567E+02  0.83298842981E+01 -0.13737592509E+03  0.14264714558E+03  0.00000000000E+00 0.  1.
<mgrwt>
<rscale>  0 0.14532872E+04</rscale>
<asrwt>0</asrwt>
<pdfrwt beam="1">  1        1 0.66205013E-01 0.14532872E+04</pdfrwt>
<pdfrwt beam="2">  1       -2 0.18876668E+00 0.14532872E+04</pdfrwt>
<totfact> 0.72865314E+00</totfact>
</mgrwt>
</event>
<event>
12    5  0.5297412E-008  0.2811992E+04  0.7818608E-02  0.8299555E-01
          1   -1    0    0  501    0  0.00000000000E+00  0.00000000000E+00  0.13123460109E+04  0.13123460109E+04  0.00000000000E+00 0. -1.
         -2   -1    0    0    0  501 -0.00000000000E+00 -0.00000000000E+00 -0.15063293945E+04  0.15063293945E+04  0.00000000000E+00 0.  1.
        -24    2    1    2    0    0  0.34932207441E+03 -0.11972208447E+04 -0.27567346840E+03  0.12797650209E+04  0.80243284703E+02 0.  0.
        254    2    1    2    0    0 -0.34932207441E+03  0.11972208447E+04  0.81690084762E+02  0.15389103846E+04  0.89789099512E+03 0.  0.
         23    2    4    4    0    0  0.24310375513E+03  0.92035841998E+02 -0.28663323817E+02  0.27686263724E+03  0.90891703672E+02 0.  0.
         23    2    4    4    0    0 -0.59242582954E+03  0.11051850027E+04  0.11035340858E+03  0.12620477473E+04  0.90467607641E+02 0.  0.
          3    1    3    3  502    0  0.11989171401E+03 -0.28739680808E+03 -0.66122232099E+02  0.31834430726E+03  0.00000000000E+00 0. -1.
         -4    1    3    3    0  502  0.22943036040E+03 -0.90982403663E+03 -0.20955123630E+03  0.96142071360E+03  0.00000000000E+00 0.  1.
         13    1    5    5    0    0  0.10676182223E+03  0.79979499630E+02 -0.40680353601E+02  0.13946217486E+03  0.00000000000E+00 0. -1.
        -13    1    5    5    0    0  0.13634193290E+03  0.12056342369E+02  0.12017029784E+02  0.13740046238E+03  0.00000000000E+00 0.  1.
          1    1    6    6  503    0 -0.34657411917E+03  0.55105433833E+03  0.54248205645E+02  0.65323607654E+03  0.00000000000E+00 0. -1.
         -1    1    6    6    0  503 -0.24585171036E+03  0.55413066439E+03  0.56105202934E+02  0.60881167080E+03  0.00000000000E+00 0.  1.
<mgrwt>
<rscale>  0 0.28119924E+04</rscale>
<asrwt>0</asrwt>
<pdfrwt beam="1">  1        1 0.20189939E+00 0.28119924E+04</pdfrwt>
<pdfrwt beam="2">  1       -2 0.23174298E+00 0.28119924E+04</pdfrwt>
<totfact> 0.56108021E-01</totfact>
</mgrwt>
</event>
<event>
12    5  0.5297412E-008  0.2143658E+04  0.7818608E-02  0.8542252E-01
         -2   -1    0    0    0  501 -0.00000000000E+00  0.00000000000E+00  0.50776093521E+03  0.50776093521E+03  0.00000000000E+00 0.  1.
          1   -1    0    0  501    0  0.00000000000E+00 -0.00000000000E+00 -0.22625164904E+04  0.22625164904E+04  0.00000000000E+00 0. -1.
        -24    2    1    2    0    0 -0.50275181016E+03  0.23101832005E+03 -0.15991242772E+04  0.16938955580E+04  0.77167743762E+02 0.  0.
        254    2    1    2    0    0  0.50275181016E+03 -0.23101832005E+03 -0.15563127799E+03  0.10763818676E+04  0.91008130593E+03 0.  0.
         23    2    4    4    0    0  0.43698933622E+03  0.10303457393E+03  0.26398007856E+03  0.52888319789E+03  0.91957336495E+02 0.  0.
         23    2    4    4    0    0  0.65762473933E+02 -0.33405289398E+03 -0.41961135656E+03  0.54749866972E+03  0.88119599608E+02 0.  0.
          1    1    3    3  502    0 -0.20405480073E+03  0.60441398325E+02 -0.54543662990E+03  0.58548496272E+03  0.00000000000E+00 0. -1.
         -2    1    3    3    0  502 -0.29869700942E+03  0.17057692172E+03 -0.10536876473E+04  0.11084105953E+04  0.00000000000E+00 0.  1.
         13    1    5    5    0    0  0.34721957718E+03  0.10596093302E+03  0.24237776251E+03  0.43650444885E+03  0.00000000000E+00 0. -1.
        -13    1    5    5    0    0  0.89769759040E+02 -0.29263590928E+01  0.21602316055E+02  0.92378749042E+02  0.00000000000E+00 0.  1.
          1    1    6    6  503    0  0.25444494703E+02 -0.20691499557E+03 -0.19055885462E+03  0.28244276372E+03  0.00000000000E+00 0. -1.
         -1    1    6    6    0  503  0.40317979230E+02 -0.12713789841E+03 -0.22905250193E+03  0.26505590600E+03  0.00000000000E+00 0.  1.
<mgrwt>
<rscale>  0 0.21436581E+04</rscale>
<asrwt>0</asrwt>
<pdfrwt beam="1">  1        1 0.34807946E+00 0.21436581E+04</pdfrwt>
<pdfrwt beam="2">  1       -2 0.78117068E-01 0.21436581E+04</pdfrwt>
<totfact> 0.23175533E+00</totfact>
</mgrwt>
</event>
<event>
12    5  0.5297412E-008  0.1667809E+04  0.7818608E-02  0.8779940E-01
          1   -1    0    0  501    0  0.00000000000E+00  0.00000000000E+00  0.89551631954E+03  0.89551631954E+03  0.00000000000E+00 0. -1.
         -2   -1    0    0    0  501 -0.00000000000E+00 -0.00000000000E+00 -0.77653185199E+03  0.77653185199E+03  0.00000000000E+00 0.  1.
        -24    2    1    2    0    0 -0.28922764185E+02 -0.40237461349E+02 -0.54060099281E+03  0.54832688630E+03  0.77183944132E+02 0.  0.
        254    2    1    2    0    0  0.28922764185E+02  0.40237461349E+02  0.65958546036E+03  0.11237212852E+04  0.90842774495E+03 0.  0.
         23    2    4    4    0    0  0.79680246337E+02 -0.41859271240E+03  0.26106968156E+03  0.50734703256E+03  0.87606120178E+02 0.  0.
         23    2    4    4    0    0 -0.50757482152E+02  0.45883017375E+03  0.39851577880E+03  0.61637425267E+03  0.89447990849E+02 0.  0.
          1    1    3    3  502    0  0.26142339208E+02 -0.12501879722E+02 -0.13579502047E+03  0.13885246300E+03  0.00000000000E+00 0. -1.
         -2    1    3    3    0  502 -0.55065103393E+02 -0.27735581627E+02 -0.40480597234E+03  0.40947442331E+03  0.00000000000E+00 0.  1.
         13    1    5    5    0    0  0.92910533068E+02 -0.40665713006E+03  0.25210391949E+03  0.48740001518E+03  0.00000000000E+00 0.  1.
        -13    1    5    5    0    0 -0.13230286731E+02 -0.11935582343E+02  0.89657620718E+01  0.19947017380E+02  0.00000000000E+00 0. -1.
          2    1    6    6  503    0  0.13641198730E+02  0.24169608114E+02  0.89952471558E+01  0.29174761877E+02  0.00000000000E+00 0. -1.
         -2    1    6    6    0  503 -0.64398680882E+02  0.43466056563E+03  0.38952053164E+03  0.58719949079E+03  0.00000000000E+00 0.  1.
<mgrwt>
<rscale>  0 0.16678093E+04</rscale>
<asrwt>0</asrwt>
<pdfrwt beam="1">  1        1 0.13777174E+00 0.16678093E+04</pdfrwt>
<pdfrwt beam="2">  1       -2 0.11946644E+00 0.16678093E+04</pdfrwt>
<totfact> 0.82382670E+00</totfact>
</mgrwt>
</event>
<event>
12    5  0.5297412E-008  0.2393697E+04  0.7818608E-02  0.8441867E-01
          1   -1    0    0  501    0  0.00000000000E+00  0.00000000000E+00  0.13123856071E+04  0.13123856071E+04  0.00000000000E+00 0. -1.
         -2   -1    0    0    0  501 -0.00000000000E+00 -0.00000000000E+00 -0.10914826635E+04  0.10914826635E+04  0.00000000000E+00 0.  1.
        -24    2    1    2    0    0  0.50364895566E+03 -0.28777737713E+02 -0.79763469490E+03  0.94711430666E+03  0.79460522535E+02 0.  0.
        254    2    1    2    0    0 -0.50364895566E+03  0.28777737713E+02  0.10185376385E+04  0.14567539639E+04  0.91116560604E+03 0.  0.
         23    2    4    4    0    0  0.20378861956E+03  0.28678584859E+02  0.17983166283E+02  0.22787085553E+03  0.96174164095E+02 0.  0.
         23    2    4    4    0    0 -0.70743757522E+03  0.99152854521E-01  0.10005544722E+04  0.12288831084E+04  0.92609446353E+02 0.  0.
          3    1    3    3  502    0  0.34290450415E+02  0.11177685088E+02 -0.32214536603E+02  0.48358577338E+02  0.00000000000E+00 0. -1.
         -4    1    3    3    0  502  0.46935850524E+03 -0.39955422802E+02 -0.76542015830E+03  0.89875572932E+03  0.00000000000E+00 0.  1.
         13    1    5    5    0    0 -0.44507622699E+01 -0.11505460543E+02 -0.72258317018E+01  0.14296767147E+02  0.00000000000E+00 0. -1.
        -13    1    5    5    0    0  0.20823938183E+03  0.40184045401E+02  0.25208997985E+02  0.21357408838E+03  0.00000000000E+00 0.  1.
          1    1    6    6  503    0 -0.21117230575E+03  0.23145781570E+02  0.36338898324E+03  0.42092876245E+03  0.00000000000E+00 0. -1.
         -1    1    6    6    0  503 -0.49626526947E+03 -0.23046628715E+02  0.63716548896E+03  0.80795434592E+03  0.00000000000E+00 0.  1.
<mgrwt>
<rscale>  0 0.23936968E+04</rscale>
<asrwt>0</asrwt>
<pdfrwt beam="1">  1        1 0.20190548E+00 0.23936968E+04</pdfrwt>
<pdfrwt beam="2">  1       -2 0.16792041E+00 0.23936968E+04</pdfrwt>
<totfact> 0.15382508E+00</totfact>
</mgrwt>
</event>
<event>
12    5  0.5297412E-008  0.3032767E+04  0.7818608E-02  0.8234435E-01
          1   -1    0    0  501    0  0.00000000000E+00  0.00000000000E+00  0.11119507729E+04  0.11119507729E+04  0.00000000000E+00 0. -1.
         -2   -1    0    0    0  501 -0.00000000000E+00 -0.00000000000E+00 -0.20679144001E+04  0.20679144001E+04  0.00000000000E+00 0.  1.
        -24    2    1    2    0    0  0.43447931304E+01  0.13296503770E+04 -0.83422463052E+03  0.15717358316E+04  0.80210897801E+02 0.  0.
        254    2    1    2    0    0 -0.43447931304E+01 -0.13296503770E+04 -0.12173899672E+03  0.16081293413E+04  0.89625364318E+03 0.  0.
         23    2    4    4    0    0  0.67836825059E+02 -0.14331940292E+04 -0.58845128827E+02  0.14390953464E+04  0.94264026621E+02 0.  0.
         23    2    4    4    0    0 -0.72181618190E+02  0.10354365219E+03 -0.62893867895E+02  0.16903399496E+03  0.93195380357E+02 0.  0.
          1    1    3    3  502    0 -0.55686298143E+01  0.65029150935E+03 -0.45444188664E+03  0.79336466086E+03  0.00000000000E+00 0. -1.
         -2    1    3    3    0  502  0.99134229447E+01  0.67935886761E+03 -0.37978274388E+03  0.77837117078E+03  0.00000000000E+00 0.  1.
         13    1    5    5    0    0  0.47473104998E+02 -0.73977354340E+03  0.15076788227E+02  0.74144851524E+03  0.00000000000E+00 0.  1.
        -13    1    5    5    0    0  0.20363720062E+02 -0.69342048576E+03 -0.73921917054E+02  0.69764683113E+03  0.00000000000E+00 0. -1.
          4    1    6    6  503    0 -0.45945540386E+01  0.50759431573E+01  0.21650198100E+02  0.22706963767E+02  0.00000000000E+00 0.  1.
         -4    1    6    6    0  503 -0.67587064151E+02  0.98467709031E+02 -0.84544065994E+02  0.14632703119E+03  0.00000000000E+00 0. -1.
<mgrwt>
<rscale>  0 0.30327671E+04</rscale>
<asrwt>0</asrwt>
<pdfrwt beam="1">  1        1 0.17106935E+00 0.30327671E+04</pdfrwt>
<pdfrwt beam="2">  1       -2 0.31814067E+00 0.30327671E+04</pdfrwt>
<totfact> 0.22738548E-01</totfact>
</mgrwt>
</event>
<event>
12    5  0.5297412E-008  0.1790944E+04  0.7818608E-02  0.8711130E-01
         -2   -1    0    0    0  501 -0.00000000000E+00  0.00000000000E+00  0.71002100772E+03  0.71002100772E+03  0.00000000000E+00 0.  1.
          1   -1    0    0  501    0  0.00000000000E+00 -0.00000000000E+00 -0.11293604917E+04  0.11293604917E+04  0.00000000000E+00 0. -1.
        -24    2    1    2    0    0  0.15901163253E+03  0.57853540272E+03  0.14386464886E+03  0.62219089571E+03  0.80228187236E+02 0.  0.
        254    2    1    2    0    0 -0.15901163253E+03 -0.57853540272E+03 -0.56320413282E+03  0.12171906037E+04  0.89686462690E+03 0.  0.
         23    2    4    4    0    0  0.31165225966E+03 -0.46421636894E+02 -0.41275184422E+02  0.33093849068E+03  0.92382598157E+02 0.  0.
         23    2    4    4    0    0 -0.47066389219E+03 -0.53211376583E+03 -0.52192894840E+03  0.88625211301E+03  0.91451743722E+02 0.  0.
          1    1    3    3  502    0  0.94357918993E+02  0.39431659492E+03  0.60645250110E+02  0.40995955931E+03  0.00000000000E+00 0. -1.
         -2    1    3    3    0  502  0.64653713538E+02  0.18421880781E+03  0.83219398752E+02  0.21223133640E+03  0.00000000000E+00 0.  1.
         13    1    5    5    0    0  0.19579307704E+03 -0.14285443638E+01  0.10992458555E+02  0.19610661360E+03  0.00000000000E+00 0. -1.
        -13    1    5    5    0    0  0.11585918262E+03 -0.44993092530E+02 -0.52267642977E+02  0.13483187708E+03  0.00000000000E+00 0.  1.
          1    1    6    6  503    0 -0.16032138387E+03 -0.21193430348E+03 -0.24438237989E+03  0.36102886687E+03  0.00000000000E+00 0. -1.
         -1    1    6    6    0  503 -0.31034250833E+03 -0.32017946235E+03 -0.27754656851E+03  0.52522324613E+03  0.00000000000E+00 0.  1.
<mgrwt>
<rscale>  0 0.17909435E+04</rscale>
<asrwt>0</asrwt>
<pdfrwt beam="1">  1        1 0.17374776E+00 0.17909435E+04</pdfrwt>
<pdfrwt beam="2">  1       -2 0.10923400E+00 0.17909435E+04</pdfrwt>
<totfact> 0.66694410E+00</totfact>
</mgrwt>
</event>
<event>
12    5  0.5297412E-008  0.1753529E+04  0.7818608E-02  0.8731410E-01
         -2   -1    0    0    0  501 -0.00000000000E+00  0.00000000000E+00  0.83535572394E+03  0.83535572394E+03  0.00000000000E+00 0.  1.
          1   -1    0    0  501    0  0.00000000000E+00 -0.00000000000E+00 -0.92022613530E+03  0.92022613530E+03  0.00000000000E+00 0. -1.
        -24    2    1    2    0    0 -0.55897943557E+01 -0.52105453881E+03 -0.40962112634E+03  0.67004571722E+03  0.98197341154E+02 0.  0.
        254    2    1    2    0    0  0.55897943557E+01  0.52105453881E+03  0.32475071499E+03  0.10855361420E+04  0.89520757958E+03 0.  0.
         23    2    4    4    0    0 -0.42084547362E+03  0.34876121887E+03  0.26033117737E+03  0.61236007453E+03  0.92017598934E+02 0.  0.
         23    2    4    4    0    0  0.42643526797E+03  0.17229331994E+03  0.64419537619E+02  0.47317606749E+03  0.90629400035E+02 0.  0.
          3    1    3    3  502    0  0.11371749101E+01 -0.48518565303E+03 -0.40729230329E+03  0.63347725405E+03  0.00000000000E+00 0. -1.
         -4    1    3    3    0  502 -0.67269692658E+01 -0.35868885774E+02 -0.23288230522E+01  0.36568463175E+02  0.00000000000E+00 0.  1.
         13    1    5    5    0    0 -0.56835215097E+02  0.12808109382E+02  0.36832186384E+02  0.68926767622E+02  0.00000000000E+00 0.  1.
        -13    1    5    5    0    0 -0.36401025852E+03  0.33595310949E+03  0.22349899099E+03  0.54343330691E+03  0.00000000000E+00 0. -1.
          4    1    6    6  503    0  0.31940728330E+03  0.11495459804E+03  0.86825295109E+01  0.33957467302E+03  0.00000000000E+00 0. -1.
         -4    1    6    6    0  503  0.10702798467E+03  0.57338721897E+02  0.55737008108E+02  0.13360139447E+03  0.00000000000E+00 0.  1.
<mgrwt>
<rscale>  0 0.17535292E+04</rscale>
<asrwt>0</asrwt>
<pdfrwt beam="1">  1        1 0.14157325E+00 0.17535292E+04</pdfrwt>
<pdfrwt beam="2">  1       -2 0.12851627E+00 0.17535292E+04</pdfrwt>
<totfact> 0.65017275E+00</totfact>
</mgrwt>
</event>
<event>
12    5  0.5297412E-008  0.1716168E+04  0.7818608E-02  0.8752196E-01
         -4   -1    0    0    0  501 -0.00000000000E+00  0.00000000000E+00  0.13294394832E+04  0.13294394832E+04  0.00000000000E+00 0.  1.
          3   -1    0    0  501    0  0.00000000000E+00 -0.00000000000E+00 -0.55384887897E+03  0.55384887897E+03  0.00000000000E+00 0. -1.
        -24    2    1    2    0    0  0.90283709387E+02 -0.56541288213E+03  0.54717978815E+03  0.79585439983E+03  0.78330260521E+02 0.  0.
        254    2    1    2    0    0 -0.90283709387E+02  0.56541288213E+03  0.22841081607E+03  0.10874339623E+04  0.89582266442E+03 0.  0.
         23    2    4    4    0    0  0.25616458557E+03 -0.29682244119E+02  0.27898000681E+03  0.39078748791E+03  0.91562470429E+02 0.  0.
         23    2    4    4    0    0 -0.34644829495E+03  0.59509512625E+03 -0.50569190736E+02  0.69664647443E+03  0.92706186003E+02 0.  0.
          3    1    3    3  502    0  0.18336961684E+02 -0.16699182026E+03  0.11456177467E+03  0.20333940201E+03  0.00000000000E+00 0. -1.
         -4    1    3    3    0  502  0.71946747703E+02 -0.39842106187E+03  0.43261801348E+03  0.59251499781E+03  0.00000000000E+00 0.  1.
         13    1    5    5    0    0  0.52885785678E+02 -0.32556247871E+02  0.11047260790E+03  0.12673205079E+03  0.00000000000E+00 0. -1.
        -13    1    5    5    0    0  0.20327879989E+03  0.28740037515E+01  0.16850739891E+03  0.26405543711E+03  0.00000000000E+00 0.  1.
          1    1    6    6  503    0 -0.19933821652E+03  0.25459474945E+03 -0.98580139978E+01  0.32349867303E+03  0.00000000000E+00 0. -1.
         -1    1    6    6    0  503 -0.14711007843E+03  0.34050037680E+03 -0.40711176739E+02  0.37314780140E+03  0.00000000000E+00 0.  1.
<mgrwt>
<rscale>  0 0.17161685E+04</rscale>
<asrwt>0</asrwt>
<pdfrwt beam="1">  1        3 0.85207520E-01 0.17161685E+04</pdfrwt>
<pdfrwt beam="2">  1       -4 0.20452915E+00 0.17161685E+04</pdfrwt>
<totfact> 0.33720483E-01</totfact>
</mgrwt>
</event>
<event>
12    5  0.5297412E-008  0.1688574E+04  0.7818608E-02  0.8767908E-01
          1   -1    0    0  501    0  0.00000000000E+00  0.00000000000E+00  0.68779272403E+03  0.68779272403E+03  0.00000000000E+00 0. -1.
         -2   -1    0    0    0  501 -0.00000000000E+00 -0.00000000000E+00 -0.10363890739E+04  0.10363890739E+04  0.00000000000E+00 0.  1.
        -24    2    1    2    0    0 -0.50509823402E+03  0.29126831098E+03  0.33857432507E+02  0.58921114586E+03  0.77858805994E+02 0.  0.
        254    2    1    2    0    0  0.50509823402E+03 -0.29126831098E+03 -0.38245378241E+03  0.11349706521E+04  0.89550322751E+03 0.  0.
         23    2    4    4    0    0  0.25035615567E+03 -0.41292466093E+03  0.15835905750E+03  0.51818828524E+03  0.10127451593E+03 0.  0.
         23    2    4    4    0    0  0.25474207835E+03  0.12165634995E+03 -0.54081283991E+03  0.61678236688E+03  0.90819415955E+02 0.  0.
          1    1    3    3  502    0 -0.38558667749E+03  0.25575062957E+03  0.39722007881E+02  0.46439563768E+03  0.00000000000E+00 0. -1.
         -2    1    3    3    0  502 -0.11951155653E+03  0.35517681409E+02 -0.58645753745E+01  0.12481550818E+03  0.00000000000E+00 0.  1.
         13    1    5    5    0    0  0.27462575269E+02 -0.72954549404E+02 -0.91872423557E+01  0.78491813212E+02  0.00000000000E+00 0.  1.
        -13    1    5    5    0    0  0.22289358040E+03 -0.33997011153E+03  0.16754629985E+03  0.43969647202E+03  0.00000000000E+00 0. -1.
          1    1    6    6  503    0  0.23649684326E+03  0.10057478403E+03 -0.41669777647E+03  0.48957438758E+03  0.00000000000E+00 0. -1.
         -1    1    6    6    0  503  0.18245235087E+02  0.21081565922E+02 -0.12411506344E+03  0.12720797930E+03  0.00000000000E+00 0.  1.
<mgrwt>
<rscale>  0 0.16885744E+04</rscale>
<asrwt>0</asrwt>
<pdfrwt beam="1">  1        1 0.10581426E+00 0.16885744E+04</pdfrwt>
<pdfrwt beam="2">  1       -2 0.15944447E+00 0.16885744E+04</pdfrwt>
<totfact> 0.59307857E+00</totfact>
</mgrwt>
</event>
<event>
12    5  0.5297412E-008  0.2361358E+04  0.7818608E-02  0.8454114E-01
         -2   -1    0    0    0  501 -0.00000000000E+00  0.00000000000E+00  0.15953121118E+04  0.15953121118E+04  0.00000000000E+00 0.  1.
          1   -1    0    0  501    0  0.00000000000E+00 -0.00000000000E+00 -0.87381204434E+03  0.87381204434E+03  0.00000000000E+00 0. -1.
        -24    2    1    2    0    0  0.99841883389E+03  0.13791640016E+03  0.16439800642E+03  0.10242960026E+04  0.79337854529E+02 0.  0.
        254    2    1    2    0    0 -0.99841883389E+03 -0.13791640016E+03  0.55710206100E+03  0.14448281535E+04  0.87252769894E+03 0.  0.
         23    2    4    4    0    0 -0.28745466272E+03  0.21157712882E+03 -0.13220429397E+03  0.39055724813E+03  0.87532417770E+02 0.  0.
         23    2    4    4    0    0 -0.71096417116E+03 -0.34949352899E+03  0.68930635496E+03  0.10542709053E+04  0.93424361851E+02 0.  0.
          1    1    3    3  502    0  0.26888769244E+03  0.34775766221E+02  0.80049561390E+02  0.28269750147E+03  0.00000000000E+00 0. -1.
         -2    1    3    3    0  502  0.72953114145E+03  0.10314063394E+03  0.84348445033E+02  0.74159850114E+03  0.00000000000E+00 0.  1.
         13    1    5    5    0    0 -0.27377208024E+03  0.16795827623E+03 -0.10819090307E+03  0.33891946828E+03  0.00000000000E+00 0.  1.
        -13    1    5    5    0    0 -0.13682582480E+02  0.43618852597E+02 -0.24013390896E+02  0.51637779847E+02  0.00000000000E+00 0. -1.
          2    1    6    6  503    0 -0.42236668480E+03 -0.18961348654E+03  0.34479452434E+03  0.57726090698E+03  0.00000000000E+00 0. -1.
         -2    1    6    6    0  503 -0.28859748636E+03 -0.15988004244E+03  0.34451183062E+03  0.47700999837E+03  0.00000000000E+00 0.  1.
<mgrwt>
<rscale>  0 0.23613580E+04</rscale>
<asrwt>0</asrwt>
<pdfrwt beam="1">  1        1 0.13443262E+00 0.23613580E+04</pdfrwt>
<pdfrwt beam="2">  1       -2 0.24543263E+00 0.23613580E+04</pdfrwt>
<totfact> 0.10336301E+00</totfact>
</mgrwt>
</event>
<event>
12    5  0.5297412E-008  0.1593510E+04  0.7818608E-02  0.8824545E-01
          1   -1    0    0  501    0  0.00000000000E+00  0.00000000000E+00  0.25930800381E+04  0.25930800381E+04  0.00000000000E+00 0. -1.
         -2   -1    0    0    0  501 -0.00000000000E+00 -0.00000000000E+00 -0.24481256995E+03  0.24481256995E+03  0.00000000000E+00 0.  1.
        -24    2    1    2    0    0  0.39103109747E+03  0.27356417437E+03  0.35349547841E+03  0.59916944442E+03  0.79386983711E+02 0.  0.
        254    2    1    2    0    0 -0.39103109747E+03 -0.27356417437E+03  0.19947719897E+04  0.22387231636E+04  0.89723098229E+03 0.  0.
         23    2    4    4    0    0  0.61507487246E+02  0.21953820961E+03  0.10391865394E+04  0.10683429489E+04  0.97302601815E+02 0.  0.
         23    2    4    4    0    0 -0.45253858472E+03 -0.49310238398E+03  0.95558545030E+03  0.11703802147E+04  0.93301459569E+02 0.  0.
          1    1    3    3  502    0  0.82571923506E+02  0.51622213579E+02  0.11425798957E+03  0.15012615917E+03  0.00000000000E+00 0. -1.
         -2    1    3    3    0  502  0.30845917397E+03  0.22194196079E+03  0.23923748884E+03  0.44904328525E+03  0.00000000000E+00 0.  1.
         13    1    5    5    0    0  0.25940845934E+02  0.20321779466E+03  0.79146171937E+03  0.81754636125E+03  0.00000000000E+00 0.  1.
        -13    1    5    5    0    0  0.35566641312E+02  0.16320414942E+02  0.24772482007E+03  0.25079658769E+03  0.00000000000E+00 0. -1.
          2    1    6    6  503    0 -0.27691742087E+03 -0.25627722744E+03  0.59575613538E+03  0.70518554163E+03  0.00000000000E+00 0. -1.
         -2    1    6    6    0  503 -0.17562116385E+03 -0.23682515653E+03  0.35982931492E+03  0.46519467305E+03  0.00000000000E+00 0.  1.
<mgrwt>
<rscale>  0 0.15935101E+04</rscale>
<asrwt>0</asrwt>
<pdfrwt beam="1">  1        1 0.39893537E+00 0.15935101E+04</pdfrwt>
<pdfrwt beam="2">  1       -2 0.37663474E-01 0.15935101E+04</pdfrwt>
<totfact> 0.65585400E+00</totfact>
</mgrwt>
</event>
<event>
12    5  0.5297412E-008  0.2042317E+04  0.7818608E-02  0.8587088E-01
         -2   -1    0    0    0  501 -0.00000000000E+00  0.00000000000E+00  0.26848731673E+03  0.26848731673E+03  0.00000000000E+00 0.  1.
          1   -1    0    0  501    0  0.00000000000E+00 -0.00000000000E+00 -0.38838513148E+04  0.38838513148E+04  0.00000000000E+00 0. -1.
        -24    2    1    2    0    0 -0.41100788166E+03 -0.70435408891E+03 -0.12706062516E+04  0.15116712321E+04  0.75282839523E+02 0.  0.
        254    2    1    2    0    0  0.41100788166E+03  0.70435408891E+03 -0.23447577465E+04  0.26406673995E+04  0.90010736227E+03 0.  0.
         23    2    4    4    0    0  0.58418388161E+03  0.49713480028E+03 -0.21787391242E+04  0.23118696253E+04  0.97073045035E+02 0.  0.
         23    2    4    4    0    0 -0.17317599995E+03  0.20721928863E+03 -0.16601862230E+03  0.32879777415E+03  0.87269884831E+02 0.  0.
          1    1    3    3  502    0 -0.17681805799E+03 -0.36040103943E+03 -0.57948827765E+03  0.70495404019E+03  0.00000000000E+00 0. -1.
         -4    1    3    3    0  502 -0.23418982367E+03 -0.34395304948E+03 -0.69111797399E+03  0.80671719191E+03  0.00000000000E+00 0.  1.
         13    1    5    5    0    0  0.30290604185E+03  0.30988812494E+03 -0.13050523821E+04  0.13751161552E+04  0.00000000000E+00 0.  1.
        -13    1    5    5    0    0  0.28127783976E+03  0.18724667533E+03 -0.87368674206E+03  0.93675347014E+03  0.00000000000E+00 0. -1.
          4    1    6    6  503    0 -0.80688236035E+02  0.80474856842E+02 -0.11954090391E+03  0.16515696088E+03  0.00000000000E+00 0. -1.
         -4    1    6    6    0  503 -0.92487763913E+02  0.12674443179E+03 -0.46477718391E+02  0.16364081328E+03  0.00000000000E+00 0.  1.
<mgrwt>
<rscale>  0 0.20423171E+04</rscale>
<asrwt>0</asrwt>
<pdfrwt beam="1">  1        1 0.59751561E+00 0.20423171E+04</pdfrwt>
<pdfrwt beam="2">  1       -2 0.41305740E-01 0.20423171E+04</pdfrwt>
<totfact> 0.54935368E-01</totfact>
</mgrwt>
</event>
<event>
12    5  0.5297412E-008  0.1746075E+04  0.7818608E-02  0.8735514E-01
          1   -1    0    0  501    0  0.00000000000E+00  0.00000000000E+00  0.26320639631E+04  0.26320639631E+04  0.00000000000E+00 0. -1.
         -2   -1    0    0    0  501 -0.00000000000E+00 -0.00000000000E+00 -0.28958041936E+03  0.28958041936E+03  0.00000000000E+00 0.  1.
        -24    2    1    2    0    0 -0.39564574296E+03  0.53995981821E+02  0.30375089208E+02  0.40862701954E+03  0.81254384979E+02 0.  0.
        254    2    1    2    0    0  0.39564574296E+03 -0.53995981821E+02  0.23121084546E+04  0.25130173629E+04  0.89997757796E+03 0.  0.
         23    2    4    4    0    0  0.52198906850E+03 -0.25587609379E+03  0.88809138386E+03  0.10663262065E+04  0.10198092753E+03 0.  0.
         23    2    4    4    0    0 -0.12634332554E+03  0.20188011196E+03  0.14240170707E+04  0.14466911564E+04  0.91501196553E+02 0.  0.
          1    1    3    3  502    0 -0.82387516585E+02  0.15490738701E+02 -0.26515904026E+02  0.87924735092E+02  0.00000000000E+00 0. -1.
         -2    1    3    3    0  502 -0.31325822637E+03  0.38505243120E+02  0.56890993234E+02  0.32070228445E+03  0.00000000000E+00 0.  1.
         13    1    5    5    0    0 -0.16240186656E+01  0.48849031786E+01  0.59883308993E+01  0.78968235797E+01  0.00000000000E+00 0. -1.
        -13    1    5    5    0    0  0.52361308716E+03 -0.26076099696E+03  0.88210305296E+03  0.10584293829E+04  0.00000000000E+00 0.  1.
          4    1    6    6  503    0 -0.40988400092E+02  0.12289232078E+03  0.94076598034E+03  0.94964372331E+03  0.00000000000E+00 0. -1.
         -4    1    6    6    0  503 -0.85354925448E+02  0.78987791187E+02  0.48325109036E+03  0.49704743314E+03  0.00000000000E+00 0.  1.
<mgrwt>
<rscale>  0 0.17460747E+04</rscale>
<asrwt>0</asrwt>
<pdfrwt beam="1">  1        1 0.40493290E+00 0.17460747E+04</pdfrwt>
<pdfrwt beam="2">  1       -2 0.44550835E-01 0.17460747E+04</pdfrwt>
<totfact> 0.43663021E+00</totfact>
</mgrwt>
</event>
<event>
12    5  0.5297412E-008  0.1310681E+04  0.7818608E-02  0.9021138E-01
         -2   -1    0    0    0  501 -0.00000000000E+00  0.00000000000E+00  0.15887470242E+03  0.15887470242E+03  0.00000000000E+00 0.  1.
          1   -1    0    0  501    0  0.00000000000E+00 -0.00000000000E+00 -0.27032053793E+04  0.27032053793E+04  0.00000000000E+00 0. -1.
        -24    2    1    2    0    0  0.21499924564E+02 -0.36817993012E+02 -0.13646195237E+04  0.13675166863E+04  0.78087331564E+02 0.  0.
        254    2    1    2    0    0 -0.21499924564E+02  0.36817993012E+02 -0.11797111531E+04  0.14945633954E+04  0.91661525557E+03 0.  0.
         23    2    4    4    0    0 -0.45243192755E+03  0.97343855707E+02 -0.56732517460E+03  0.73770396448E+03  0.90436774396E+02 0.  0.
         23    2    4    4    0    0  0.43093200299E+03 -0.60525862694E+02 -0.61238597854E+03  0.75685943095E+03  0.91944767392E+02 0.  0.
          3    1    3    3  502    0 -0.23666830884E+02 -0.36219773591E+02 -0.74240750627E+03  0.74366719455E+03  0.00000000000E+00 0. -1.
         -4    1    3    3    0  502  0.45166755448E+02 -0.59821942086E+00 -0.62221201748E+03  0.62384949175E+03  0.00000000000E+00 0.  1.
         13    1    5    5    0    0 -0.37117633814E+03  0.11389696639E+03 -0.45627301088E+03  0.59910721361E+03  0.00000000000E+00 0.  1.
        -13    1    5    5    0    0 -0.81255589412E+02 -0.16553110679E+02 -0.11105216372E+03  0.13859675087E+03  0.00000000000E+00 0. -1.
          1    1    6    6  503    0  0.16673569862E+02 -0.14463092139E+02 -0.66310933565E+02  0.69887973761E+02  0.00000000000E+00 0. -1.
         -1    1    6    6    0  503  0.41425843312E+03 -0.46062770555E+02 -0.54607504497E+03  0.68697145718E+03  0.00000000000E+00 0.  1.
<mgrwt>
<rscale>  0 0.13106807E+04</rscale>
<asrwt>0</asrwt>
<pdfrwt beam="1">  1        1 0.41587772E+00 0.13106807E+04</pdfrwt>
<pdfrwt beam="2">  1       -2 0.24442263E-01 0.13106807E+04</pdfrwt>
<totfact> 0.12657903E+01</totfact>
</mgrwt>
</event>
<event>
12    5  0.5297412E-008  0.1557803E+04  0.7818608E-02  0.8846899E-01
          1   -1    0    0  501    0  0.00000000000E+00  0.00000000000E+00  0.29202292666E+04  0.29202292666E+04  0.00000000000E+00 0. -1.
         -2   -1    0    0    0  501 -0.00000000000E+00 -0.00000000000E+00 -0.20775328271E+03  0.20775328271E+03  0.00000000000E+00 0.  1.
        -24    2    1    2    0    0 -0.13464044441E+03 -0.24506913719E+03  0.17639548155E+04  0.17877928357E+04  0.80496589403E+02 0.  0.
        254    2    1    2    0    0  0.13464044441E+03  0.24506913719E+03  0.94852116834E+03  0.13401897136E+04  0.90456018613E+03 0.  0.
         23    2    4    4    0    0  0.46378709216E+03  0.34972232019E+03  0.55105436369E+03  0.80577386770E+03  0.90589436593E+02 0.  0.
         23    2    4    4    0    0 -0.32914664776E+03 -0.10465318300E+03  0.39746680464E+03  0.53441584588E+03  0.91272290943E+02 0.  0.
          3    1    3    3  502    0 -0.14557715559E+03 -0.22733146267E+03  0.16531835004E+04  0.16750785021E+04  0.00000000000E+00 0. -1.
         -4    1    3    3    0  502  0.10936711179E+02 -0.17737674522E+02  0.11077131509E+03  0.11271433359E+03  0.00000000000E+00 0.  1.
         13    1    5    5    0    0  0.30393440698E+02  0.34251065618E+02  0.16321192421E+02  0.48613558351E+02  0.00000000000E+00 0. -1.
        -13    1    5    5    0    0  0.43339365147E+03  0.31547125457E+03  0.53473317127E+03  0.75716030935E+03  0.00000000000E+00 0.  1.
          4    1    6    6  503    0 -0.56013551167E+02  0.16416069347E+02  0.69885354448E+02  0.91054752833E+02  0.00000000000E+00 0. -1.
         -4    1    6    6    0  503 -0.27313309659E+03 -0.12106925235E+03  0.32758145020E+03  0.44336109305E+03  0.00000000000E+00 0.  1.
<mgrwt>
<rscale>  0 0.15578026E+04</rscale>
<asrwt>0</asrwt>
<pdfrwt beam="1">  1        1 0.44926601E+00 0.15578026E+04</pdfrwt>
<pdfrwt beam="2">  1       -2 0.31962046E-01 0.15578026E+04</pdfrwt>
<totfact> 0.52842373E+00</totfact>
</mgrwt>
</event>
<event>
12    5  0.5297412E-008  0.1398789E+04  0.7818608E-02  0.8954695E-01
         -2   -1    0    0    0  501 -0.00000000000E+00  0.00000000000E+00  0.21040015209E+04  0.21040015209E+04  0.00000000000E+00 0.  1.
          1   -1    0    0  501    0  0.00000000000E+00 -0.00000000000E+00 -0.23248688957E+03  0.23248688957E+03  0.00000000000E+00 0. -1.
        -24    2    1    2    0    0 -0.17862618145E+02  0.36448147114E+03  0.86312056875E+03  0.93997479832E+03  0.73550590489E+02 0.  0.
        254    2    1    2    0    0  0.17862618145E+02 -0.36448147114E+03  0.10083940625E+04  0.13965136121E+04  0.89455344586E+03 0.  0.
         23    2    4    4    0    0  0.37094764660E+03 -0.44735455049E+03  0.67400773313E+03  0.89451351668E+03  0.90220600949E+02 0.  0.
         23    2    4    4    0    0 -0.35308502845E+03  0.82873079355E+02  0.33438632941E+03  0.50200009543E+03  0.93020932655E+02 0.  0.
          3    1    3    3  502    0 -0.25917651929E+02  0.21923161766E+03  0.43494391267E+03  0.48776063190E+03  0.00000000000E+00 0. -1.
         -4    1    3    3    0  502  0.80550337834E+01  0.14524985347E+03  0.42817665608E+03  0.45221416642E+03  0.00000000000E+00 0.  1.
         13    1    5    5    0    0  0.33449880984E+03 -0.42989416654E+03  0.60133104218E+03  0.81135532937E+03  0.00000000000E+00 0.  1.
        -13    1    5    5    0    0  0.36448836754E+02 -0.17460383956E+02  0.72676690948E+02  0.83158187305E+02  0.00000000000E+00 0. -1.
          1    1    6    6  503    0 -0.17244917301E+03  0.36787877011E+02  0.10067711063E+03  0.20304665910E+03  0.00000000000E+00 0. -1.
         -1    1    6    6    0  503 -0.18063585544E+03  0.46085202344E+02  0.23370921879E+03  0.29895343633E+03  0.00000000000E+00 0.  1.
<mgrwt>
<rscale>  0 0.13987891E+04</rscale>
<asrwt>0</asrwt>
<pdfrwt beam="1">  1        1 0.35767215E-01 0.13987891E+04</pdfrwt>
<pdfrwt beam="2">  1       -2 0.32369253E+00 0.13987891E+04</pdfrwt>
<totfact> 0.23789906E+00</totfact>
</mgrwt>
</event>
<event>
12    5  0.5297412E-008  0.1720027E+04  0.7818608E-02  0.8750024E-01
         -2   -1    0    0    0  501 -0.00000000000E+00  0.00000000000E+00  0.53326962721E+03  0.53326962721E+03  0.00000000000E+00 0.  1.
          1   -1    0    0  501    0  0.00000000000E+00 -0.00000000000E+00 -0.13869596924E+04  0.13869596924E+04  0.00000000000E+00 0. -1.
        -24    2    1    2    0    0 -0.26841150004E+03 -0.39994513144E+03  0.12384273965E+03  0.50393769653E+03  0.81334717716E+02 0.  0.
        254    2    1    2    0    0  0.26841150004E+03  0.39994513144E+03 -0.97753280484E+03  0.14162916231E+04  0.90460529266E+03 0.  0.
         23    2    4    4    0    0  0.35949827484E+03  0.31863354244E+03 -0.11103767294E+04  0.12132508615E+04  0.90966080552E+02 0.  0.
         23    2    4    4    0    0 -0.91086774792E+02  0.81311588997E+02  0.13284392453E+03  0.20304076158E+03  0.93111049453E+02 0.  0.
          1    1    3    3  502    0 -0.19181751505E+03 -0.29820185250E+03  0.12678145457E+03  0.37655257420E+03  0.00000000000E+00 0. -1.
         -2    1    3    3    0  502 -0.76593984998E+02 -0.10174327894E+03 -0.29387149178E+01  0.12738512234E+03  0.00000000000E+00 0.  1.
         13    1    5    5    0    0  0.15953206778E+03  0.91635075130E+02 -0.47982536139E+03  0.51388699641E+03  0.00000000000E+00 0. -1.
        -13    1    5    5    0    0  0.19996620705E+03  0.22699846731E+03 -0.63055136797E+03  0.69936386508E+03  0.00000000000E+00 0.  1.
          4    1    6    6  503    0 -0.48180182578E+02  0.90317387652E+02  0.11920782480E+03  0.15712754691E+03  0.00000000000E+00 0. -1.
         -4    1    6    6    0  503 -0.42906592215E+02 -0.90057986548E+01  0.13636099727E+02  0.45913214663E+02  0.00000000000E+00 0.  1.
<mgrwt>
<rscale>  0 0.17200273E+04</rscale>
<asrwt>0</asrwt>
<pdfrwt beam="1">  1        1 0.21337841E+00 0.17200273E+04</pdfrwt>
<pdfrwt beam="2">  1       -2 0.82041481E-01 0.17200273E+04</pdfrwt>
<totfact> 0.85412901E+00</totfact>
</mgrwt>
</event>
<event>
12    5  0.5297412E-008  0.1230546E+04  0.7818608E-02  0.9086532E-01
         -2   -1    0    0    0  501 -0.00000000000E+00  0.00000000000E+00  0.14548234616E+03  0.14548234616E+03  0.00000000000E+00 0.  1.
          1   -1    0    0  501    0  0.00000000000E+00 -0.00000000000E+00 -0.26021106781E+04  0.26021106781E+04  0.00000000000E+00 0. -1.
        -24    2    1    2    0    0  0.10447472852E+03 -0.66618886062E+02 -0.18220589088E+02  0.14776407979E+03  0.78416761789E+02 0.  0.
        254    2    1    2    0    0 -0.10447472852E+03  0.66618886062E+02 -0.24384077429E+04  0.25998289445E+04  0.89326657572E+03 0.  0.
         23    2    4    4    0    0 -0.21518624960E+03  0.20186555256E+02 -0.24378461482E+04  0.24490593226E+04  0.89917206285E+02 0.  0.
         23    2    4    4    0    0  0.11071152108E+03  0.46432330807E+02 -0.56159466232E+00  0.15076962196E+03  0.91203954260E+02 0.  0.
          1    1    3    3  502    0 -0.10780928907E+02 -0.86958130732E+01 -0.12480685842E+02  0.18644385540E+02  0.00000000000E+00 0. -1.
         -2    1    3    3    0  502  0.11525565743E+03 -0.57923072989E+02 -0.57399032465E+01  0.12911969425E+03  0.00000000000E+00 0.  1.
         13    1    5    5    0    0 -0.47969183429E+00  0.12324420748E+02 -0.47436682180E+02  0.49013878313E+02  0.00000000000E+00 0. -1.
        -13    1    5    5    0    0 -0.21470655776E+03  0.78621345074E+01 -0.23904094660E+04  0.24000454442E+04  0.00000000000E+00 0.  1.
          1    1    6    6  503    0  0.90849367995E+02  0.30938273860E+02 -0.39998130036E+02  0.10397420286E+03  0.00000000000E+00 0. -1.
         -1    1    6    6    0  503  0.19862153081E+02  0.15494056946E+02  0.39436535374E+02  0.46795419092E+02  0.00000000000E+00 0.  1.
<mgrwt>
<rscale>  0 0.12305465E+04</rscale>
<asrwt>0</asrwt>
<pdfrwt beam="1">  1        1 0.40032468E+00 0.12305465E+04</pdfrwt>
<pdfrwt beam="2">  1       -2 0.22381902E-01 0.12305465E+04</pdfrwt>
<totfact> 0.17577779E+01</totfact>
</mgrwt>
</event>
<event>
12    5  0.5297412E-008  0.2824927E+04  0.7818608E-02  0.8295571E-01
         -2   -1    0    0    0  501 -0.00000000000E+00  0.00000000000E+00  0.12035760946E+04  0.12035760946E+04  0.00000000000E+00 0.  1.
          1   -1    0    0  501    0  0.00000000000E+00 -0.00000000000E+00 -0.16576042267E+04  0.16576042267E+04  0.00000000000E+00 0. -1.
        -24    2    1    2    0    0 -0.10228040662E+04 -0.40069406256E+03 -0.84176649983E+03  0.13862816250E+04  0.80758986204E+02 0.  0.
        254    2    1    2    0    0  0.10228040662E+04  0.40069406256E+03  0.38773836771E+03  0.14748986964E+04  0.90460004039E+03 0.  0.
         23    2    4    4    0    0  0.15110066569E+03  0.35435802571E+03 -0.17548784978E+03  0.43198508789E+03  0.86105221596E+02 0.  0.
         23    2    4    4    0    0  0.87170340055E+03  0.46336036849E+02  0.56322621749E+03  0.10429136085E+04  0.91821434546E+02 0.  0.
          3    1    3    3  502    0 -0.30512359120E+03 -0.12436267734E+03 -0.29962530503E+03  0.44535581823E+03  0.00000000000E+00 0. -1.
         -4    1    3    3    0  502 -0.71768047504E+03 -0.27633138522E+03 -0.54214119480E+03  0.94092580675E+03  0.00000000000E+00 0.  1.
         13    1    5    5    0    0  0.12695925272E+03  0.22988339435E+03 -0.84317400487E+02  0.27581597284E+03  0.00000000000E+00 0. -1.
        -13    1    5    5    0    0  0.24141412965E+02  0.12447463136E+03 -0.91170449291E+02  0.15616911505E+03  0.00000000000E+00 0.  1.
          3    1    6    6  503    0  0.21909875853E+03 -0.26137649671E+02  0.15680057039E+03  0.27069145091E+03  0.00000000000E+00 0. -1.
         -3    1    6    6    0  503  0.65260464202E+03  0.72473686521E+02  0.40642564709E+03  0.77222215757E+03  0.00000000000E+00 0.  1.
<mgrwt>
<rscale>  0 0.28249268E+04</rscale>
<asrwt>0</asrwt>
<pdfrwt beam="1">  1        1 0.25501604E+00 0.28249268E+04</pdfrwt>
<pdfrwt beam="2">  1       -2 0.18516555E+00 0.28249268E+04</pdfrwt>
<totfact> 0.64622636E-01</totfact>
</mgrwt>
</event>
<event>
12    5  0.5297412E-008  0.1959408E+04  0.7818608E-02  0.8625837E-01
          1   -1    0    0  501    0  0.00000000000E+00  0.00000000000E+00  0.79612216239E+03  0.79612216239E+03  0.00000000000E+00 0. -1.
         -2   -1    0    0    0  501 -0.00000000000E+00 -0.00000000000E+00 -0.12056193154E+04  0.12056193154E+04  0.00000000000E+00 0.  1.
        -24    2    1    2    0    0  0.56148862137E+03  0.47195548341E+03  0.72658380213E+02  0.74149119307E+03  0.80737221476E+02 0.  0.
        254    2    1    2    0    0 -0.56148862137E+03 -0.47195548341E+03 -0.48215553318E+03  0.12602502847E+04  0.90429274663E+03 0.  0.
         23    2    4    4    0    0  0.11153943669E+03  0.87390275167E+02  0.10909525748E+03  0.20029758596E+03  0.90217745525E+02 0.  0.
         23    2    4    4    0    0 -0.67302805806E+03 -0.55934575858E+03 -0.59125079065E+03  0.10599526987E+04  0.89932093770E+02 0.  0.
          3    1    3    3  502    0  0.53655444730E+03  0.42406998485E+03  0.69065529691E+02  0.68738349875E+03  0.00000000000E+00 0. -1.
         -4    1    3    3    0  502  0.24934174072E+02  0.47885498565E+02  0.35928505213E+01  0.54107694317E+02  0.00000000000E+00 0.  1.
         13    1    5    5    0    0  0.77331908568E+01  0.41605642852E+02 -0.82724428354E+00  0.42326304954E+02  0.00000000000E+00 0.  1.
        -13    1    5    5    0    0  0.10380624583E+03  0.45784632315E+02  0.10992250176E+03  0.15797128101E+03  0.00000000000E+00 0. -1.
          2    1    6    6  503    0 -0.38740844335E+03 -0.33793342104E+03 -0.29542620113E+03  0.59292574522E+03  0.00000000000E+00 0. -1.
         -2    1    6    6    0  503 -0.28561961472E+03 -0.22141233754E+03 -0.29582458952E+03  0.46702695349E+03  0.00000000000E+00 0.  1.
<mgrwt>
<rscale>  0 0.19594083E+04</rscale>
<asrwt>0</asrwt>
<pdfrwt beam="1">  1        1 0.12248033E+00 0.19594083E+04</pdfrwt>
<pdfrwt beam="2">  1       -2 0.18547989E+00 0.19594083E+04</pdfrwt>
<totfact> 0.30207035E+00</totfact>
</mgrwt>
</event>
<event>
12    5  0.5297412E-008  0.1666939E+04  0.7818608E-02  0.8780448E-01
          1   -1    0    0  501    0  0.00000000000E+00  0.00000000000E+00  0.24723593949E+04  0.24723593949E+04  0.00000000000E+00 0. -1.
         -2   -1    0    0    0  501 -0.00000000000E+00 -0.00000000000E+00 -0.28097500503E+03  0.28097500503E+03  0.00000000000E+00 0.  1.
        -24    2    1    2    0    0  0.22625598962E+03  0.53883830302E+03  0.79082845842E+03  0.98649885768E+03  0.78942104836E+02 0.  0.
        254    2    1    2    0    0 -0.22625598962E+03 -0.53883830302E+03  0.14005559314E+04  0.17668355422E+04  0.90477203016E+03 0.  0.
         23    2    4    4    0    0  0.11993608648E+02 -0.17727942344E+03 -0.84162480395E+02  0.21754992324E+03  0.93127897934E+02 0.  0.
         23    2    4    4    0    0 -0.23824959826E+03 -0.36155887959E+03  0.14847184118E+04  0.15492856190E+04  0.91703174920E+02 0.  0.
          1    1    3    3  502    0  0.24498550603E+02  0.10217755753E+03  0.10279674195E+03  0.14699524618E+03  0.00000000000E+00 0. -1.
         -2    1    3    3    0  502  0.20175743901E+03  0.43666074550E+03  0.68803171648E+03  0.83950361151E+03  0.00000000000E+00 0.  1.
         13    1    5    5    0    0 -0.13808478298E+02  0.34582191973E+00 -0.24998692035E+02  0.28560957077E+02  0.00000000000E+00 0. -1.
        -13    1    5    5    0    0  0.25802086946E+02 -0.17762524536E+03 -0.59163788360E+02  0.18898896616E+03  0.00000000000E+00 0.  1.
          1    1    6    6  503    0 -0.49452728317E+02 -0.15500367013E+03  0.53327356346E+03  0.55754139181E+03  0.00000000000E+00 0. -1.
         -1    1    6    6    0  503 -0.18879686995E+03 -0.20655520945E+03  0.95144484837E+03  0.99174422718E+03  0.00000000000E+00 0.  1.
<mgrwt>
<rscale>  0 0.16669387E+04</rscale>
<asrwt>0</asrwt>
<pdfrwt beam="1">  1        1 0.38036297E+00 0.16669387E+04</pdfrwt>
<pdfrwt beam="2">  1       -2 0.43226925E-01 0.16669387E+04</pdfrwt>
<totfact> 0.60301032E+00</totfact>
</mgrwt>
</event>
<event>
12    5  0.5297412E-008  0.1772390E+04  0.7818608E-02  0.8721121E-01
          1   -1    0    0  501    0  0.00000000000E+00  0.00000000000E+00  0.64681432613E+03  0.64681432613E+03  0.00000000000E+00 0. -1.
         -2   -1    0    0    0  501 -0.00000000000E+00 -0.00000000000E+00 -0.12141690935E+04  0.12141690935E+04  0.00000000000E+00 0.  1.
        -24    2    1    2    0    0 -0.43855848566E+03 -0.15751504460E+03 -0.68727364093E+03  0.83585256941E+03  0.95707500481E+02 0.  0.
        254    2    1    2    0    0  0.43855848566E+03  0.15751504460E+03  0.11991887361E+03  0.10251308502E+04  0.90518958739E+03 0.  0.
         23    2    4    4    0    0  0.57464889789E+03  0.25978914630E+03  0.34859960810E+03  0.72587891797E+03  0.87560038823E+02 0.  0.
         23    2    4    4    0    0 -0.13609041224E+03 -0.10227410170E+03 -0.22868073449E+03  0.29925193220E+03  0.90973888663E+02 0.  0.
          3    1    3    3  502    0  0.29134877213E+01 -0.41601453356E+01 -0.44194834433E+00  0.50980916287E+01  0.00000000000E+00 0. -1.
         -4    1    3    3    0  502 -0.44147197338E+03 -0.15335489927E+03 -0.68683169259E+03  0.83075447778E+03  0.00000000000E+00 0.  1.
         13    1    5    5    0    0  0.16127673893E+03  0.93524928392E+02  0.63659414410E+02  0.19700157308E+03  0.00000000000E+00 0. -1.
        -13    1    5    5    0    0  0.41337215896E+03  0.16626421791E+03  0.28494019369E+03  0.52887734489E+03  0.00000000000E+00 0.  1.
          4    1    6    6  503    0 -0.64015342146E+02 -0.63733763994E+01 -0.12545818466E+03  0.14099056725E+03  0.00000000000E+00 0.  1.
         -4    1    6    6    0  503 -0.72075070091E+02 -0.95900725300E+02 -0.10322254984E+03  0.15826136495E+03  0.00000000000E+00 0. -1.
<mgrwt>
<rscale>  0 0.17723904E+04</rscale>
<asrwt>0</asrwt>
<pdfrwt beam="1">  1        1 0.99509896E-01 0.17723904E+04</pdfrwt>
<pdfrwt beam="2">  1       -2 0.18679524E+00 0.17723904E+04</pdfrwt>
<totfact> 0.41356751E+00</totfact>
</mgrwt>
</event>
<event>
12    5  0.5297412E-008  0.1150292E+04  0.7818608E-02  0.9157514E-01
          3   -1    0    0  501    0  0.00000000000E+00  0.00000000000E+00  0.16038396338E+04  0.16038396338E+04  0.00000000000E+00 0. -1.
         -2   -1    0    0    0  501 -0.00000000000E+00 -0.00000000000E+00 -0.20625077552E+03  0.20625077552E+03  0.00000000000E+00 0.  1.
        -24    2    1    2    0    0 -0.11004830706E+03 -0.52630914177E+02  0.52504948981E+03  0.54448470203E+03  0.76850380475E+02 0.  0.
        254    2    1    2    0    0  0.11004830706E+03  0.52630914177E+02  0.87253936851E+03  0.12656057073E+04  0.90859903907E+03 0.  0.
         23    2    4    4    0    0  0.16503448970E+02 -0.31889116312E+03  0.28382821829E+02  0.33425383304E+03  0.94636687309E+02 0.  0.
         23    2    4    4    0    0  0.93544858088E+02  0.37152207730E+03  0.84415654668E+03  0.93135187427E+03  0.89647889110E+02 0.  0.
          1    1    3    3  502    0 -0.95759874859E+02 -0.69052691874E+02  0.38318984195E+03  0.40096469030E+03  0.00000000000E+00 0. -1.
         -2    1    3    3    0  502 -0.14288432199E+02  0.16421777697E+02  0.14185964786E+03  0.14352001174E+03  0.00000000000E+00 0.  1.
         13    1    5    5    0    0  0.13701645028E+02 -0.27450536523E+03 -0.10688516352E+02  0.27505485817E+03  0.00000000000E+00 0.  1.
        -13    1    5    5    0    0  0.28018039417E+01 -0.44385797888E+02  0.39071338181E+02  0.59198974879E+02  0.00000000000E+00 0. -1.
          4    1    6    6  503    0 -0.78984610790E+01  0.22198969788E+02  0.21645011034E+02  0.31995100402E+02  0.00000000000E+00 0. -1.
         -4    1    6    6    0  503  0.10144331917E+03  0.34932310751E+03  0.82251153564E+03  0.89935677387E+03  0.00000000000E+00 0.  1.
<mgrwt>
<rscale>  0 0.11502924E+04</rscale>
<asrwt>0</asrwt>
<pdfrwt beam="1">  1        3 0.24674455E+00 0.11502924E+04</pdfrwt>
<pdfrwt beam="2">  1       -2 0.31730890E-01 0.11502924E+04</pdfrwt>
<totfact> 0.28828187E+00</totfact>
</mgrwt>
</event>
<event>
12    5  0.5297412E-008  0.1153497E+04  0.7818608E-02  0.9154563E-01
         -2   -1    0    0    0  501 -0.00000000000E+00  0.00000000000E+00  0.41258530124E+03  0.41258530124E+03  0.00000000000E+00 0.  1.
          1   -1    0    0  501    0  0.00000000000E+00 -0.00000000000E+00 -0.80623111822E+03  0.80623111822E+03  0.00000000000E+00 0. -1.
        -24    2    1    2    0    0 -0.20023837322E+02 -0.13894299732E+03 -0.25822263298E+03  0.30520794458E+03  0.82260869709E+02 0.  0.
        254    2    1    2    0    0  0.20023837322E+02  0.13894299732E+03 -0.13542318400E+03  0.91360847487E+03  0.89254405831E+03 0.  0.
         23    2    4    4    0    0  0.41045488219E+03 -0.57062581398E+02  0.56397413222E+02  0.42777065830E+03  0.89876133527E+02 0.  0.
         23    2    4    4    0    0 -0.39043104487E+03  0.19600557872E+03 -0.19182059722E+03  0.48583781657E+03  0.91589599850E+02 0.  0.
          1    1    3    3  502    0 -0.23681930744E+02 -0.13994166037E+03 -0.19142310595E+03  0.23830087630E+03  0.00000000000E+00 0. -1.
         -2    1    3    3    0  502  0.36580934227E+01  0.99866304503E+00 -0.66799527028E+02  0.66907068285E+02  0.00000000000E+00 0.  1.
         13    1    5    5    0    0  0.37781750423E+03 -0.75136723664E+02  0.61570909767E+02  0.39010584548E+03  0.00000000000E+00 0. -1.
        -13    1    5    5    0    0  0.32637377961E+02  0.18074142266E+02 -0.51734965453E+01  0.37664812828E+02  0.00000000000E+00 0.  1.
          3    1    6    6  503    0 -0.21059544815E+03  0.13061084557E+03 -0.64737169319E+02  0.25612601753E+03  0.00000000000E+00 0. -1.
         -3    1    6    6    0  503 -0.17983559671E+03  0.65394733153E+02 -0.12708342791E+03  0.22971179904E+03  0.00000000000E+00 0.  1.
<mgrwt>
<rscale>  0 0.11534975E+04</rscale>
<asrwt>0</asrwt>
<pdfrwt beam="1">  1        1 0.12403556E+00 0.11534975E+04</pdfrwt>
<pdfrwt beam="2">  1       -2 0.63474662E-01 0.11534975E+04</pdfrwt>
<totfact> 0.43648519E+01</totfact>
</mgrwt>
</event>
<event>
12    5  0.5297412E-008  0.1591847E+04  0.7818608E-02  0.8825572E-01
          1   -1    0    0  501    0  0.00000000000E+00  0.00000000000E+00  0.16876675707E+04  0.16876675707E+04  0.00000000000E+00 0. -1.
         -2   -1    0    0    0  501 -0.00000000000E+00 -0.00000000000E+00 -0.37536689052E+03  0.37536689052E+03  0.00000000000E+00 0.  1.
        -24    2    1    2    0    0 -0.89745129971E+02  0.50512799074E+03  0.23914195387E+03  0.57174485425E+03  0.80590501196E+02 0.  0.
        254    2    1    2    0    0  0.89745129971E+02 -0.50512799074E+03  0.10731587263E+04  0.14912896069E+04  0.89948127528E+03 0.  0.
         23    2    4    4    0    0  0.33281886483E+02 -0.72235525337E+03  0.10032894806E+04  0.12400023174E+04  0.90062029432E+02 0.  0.
         23    2    4    4    0    0  0.56463243488E+02  0.21722726263E+03  0.69869245643E+02  0.25128728954E+03  0.88813337416E+02 0.  0.
          3    1    3    3  502    0  0.11140401223E+02  0.13106861142E+03  0.51394833407E+02  0.14122506272E+03  0.00000000000E+00 0. -1.
         -4    1    3    3    0  502 -0.10088553119E+03  0.37405937932E+03  0.18774712046E+03  0.43051979153E+03  0.00000000000E+00 0.  1.
         13    1    5    5    0    0  0.35053620227E+02 -0.11541886865E+03  0.14151733348E+03  0.18595006644E+03  0.00000000000E+00 0. -1.
        -13    1    5    5    0    0 -0.17717337434E+01 -0.60693638472E+03  0.86177214716E+03  0.10540522510E+04  0.00000000000E+00 0.  1.
          2    1    6    6  503    0  0.41370353474E+02  0.14674853144E+03  0.22918360501E+01  0.15248570470E+03  0.00000000000E+00 0.  1.
         -2    1    6    6    0  503  0.15092890014E+02  0.70478731192E+02  0.67577409593E+02  0.98801584839E+02  0.00000000000E+00 0. -1.
<mgrwt>
<rscale>  0 0.15918474E+04</rscale>
<asrwt>0</asrwt>
<pdfrwt beam="1">  1        1 0.25964116E+00 0.15918474E+04</pdfrwt>
<pdfrwt beam="2">  1       -2 0.57748753E-01 0.15918474E+04</pdfrwt>
<totfact> 0.11497470E+01</totfact>
</mgrwt>
</event>
<event>
12    5  0.5297412E-008  0.1214651E+04  0.7818608E-02  0.9100128E-01
          1   -1    0    0  501    0  0.00000000000E+00  0.00000000000E+00  0.11470626464E+04  0.11470626464E+04  0.00000000000E+00 0. -1.
         -2   -1    0    0    0  501 -0.00000000000E+00 -0.00000000000E+00 -0.32155571340E+03  0.32155571340E+03  0.00000000000E+00 0.  1.
        -24    2    1    2    0    0  0.19599613103E+03  0.98780673362E+02  0.36563044240E+03  0.43331124655E+03  0.76817388442E+02 0.  0.
        254    2    1    2    0    0 -0.19599613103E+03 -0.98780673362E+02  0.45987649063E+03  0.10353071133E+04  0.90122268467E+03 0.  0.
         23    2    4    4    0    0  0.25701218754E+03 -0.25992954650E+02 -0.11422653064E+03  0.29508479047E+03  0.85419172495E+02 0.  0.
         23    2    4    4    0    0 -0.45300831857E+03 -0.72787718712E+02  0.57410302127E+03  0.74022232281E+03  0.88432004781E+02 0.  0.
          1    1    3    3  502    0  0.18719409678E+03  0.10815454039E+03  0.35840705583E+03  0.41856260242E+03  0.00000000000E+00 0. -1.
         -2    1    3    3    0  502  0.88020342463E+01 -0.93738670305E+01  0.72233865679E+01  0.14748644124E+02  0.00000000000E+00 0.  1.
         13    1    5    5    0    0  0.16058662012E+03 -0.57597829299E+02 -0.70938059944E+02  0.18476412219E+03  0.00000000000E+00 0.  1.
        -13    1    5    5    0    0  0.96425567422E+02  0.31604874649E+02 -0.43288470695E+02  0.11032066828E+03  0.00000000000E+00 0. -1.
          3    1    6    6  503    0 -0.49446842758E+02 -0.97557264987E+01  0.26137621224E+02  0.56774463463E+02  0.00000000000E+00 0. -1.
         -3    1    6    6    0  503 -0.40356147581E+03 -0.63031992214E+02  0.54796540005E+03  0.68344785935E+03  0.00000000000E+00 0.  1.
<mgrwt>
<rscale>  0 0.12146515E+04</rscale>
<asrwt>0</asrwt>
<pdfrwt beam="1">  1        1 0.17647117E+00 0.12146515E+04</pdfrwt>
<pdfrwt beam="2">  1       -2 0.49470110E-01 0.12146515E+04</pdfrwt>
<totfact> 0.39196531E+01</totfact>
</mgrwt>
</event>
<event>
12    5  0.5297412E-008  0.1599754E+04  0.7818608E-02  0.8820699E-01
         -2   -1    0    0    0  501 -0.00000000000E+00  0.00000000000E+00  0.14601925881E+04  0.14601925881E+04  0.00000000000E+00 0.  1.
          1   -1    0    0  501    0  0.00000000000E+00 -0.00000000000E+00 -0.43816383933E+03  0.43816383933E+03  0.00000000000E+00 0. -1.
        -24    2    1    2    0    0 -0.27925242463E+03  0.46335939747E+03  0.26473394874E+03  0.60768492945E+03  0.80703543814E+02 0.  0.
        254    2    1    2    0    0  0.27925242463E+03 -0.46335939747E+03  0.75729480004E+03  0.12906714980E+04  0.89423355653E+03 0.  0.
         23    2    4    4    0    0 -0.96549680564E+02 -0.56817990007E+03  0.65562714629E+03  0.87764069797E+03  0.90862534250E+02 0.  0.
         23    2    4    4    0    0  0.37580210519E+03  0.10482050260E+03  0.10166765375E+03  0.41303080000E+03  0.89685951500E+02 0.  0.
          3    1    3    3  502    0 -0.79189956457E+02  0.12670368215E+03  0.11449957148E+03  0.18824192982E+03  0.00000000000E+00 0. -1.
         -4    1    3    3    0  502 -0.20006246817E+03  0.33665571532E+03  0.15023437726E+03  0.41944299963E+03  0.00000000000E+00 0.  1.
         13    1    5    5    0    0 -0.78937207280E+02 -0.55412011890E+03  0.63996124614E+03  0.85019443977E+03  0.00000000000E+00 0. -1.
        -13    1    5    5    0    0 -0.17612473284E+02 -0.14059781170E+02  0.15665900149E+02  0.27446258200E+02  0.00000000000E+00 0.  1.
          1    1    6    6  503    0  0.36949840699E+03  0.94913497550E+02  0.11178137312E+03  0.39753329441E+03  0.00000000000E+00 0. -1.
         -1    1    6    6    0  503  0.63036981983E+01  0.99070050450E+01 -0.10113719370E+02  0.15497505587E+02  0.00000000000E+00 0.  1.
<mgrwt>
<rscale>  0 0.15997545E+04</rscale>
<asrwt>0</asrwt>
<pdfrwt beam="1">  1        1 0.67409822E-01 0.15997545E+04</pdfrwt>
<pdfrwt beam="2">  1       -2 0.22464501E+00 0.15997545E+04</pdfrwt>
<totfact> 0.41125841E+00</totfact>
</mgrwt>
</event>
<event>
12    5  0.5297412E-008  0.1425657E+04  0.7818608E-02  0.8935454E-01
         -2   -1    0    0    0  501 -0.00000000000E+00  0.00000000000E+00  0.10558666293E+04  0.10558666293E+04  0.00000000000E+00 0.  1.
          1   -1    0    0  501    0  0.00000000000E+00 -0.00000000000E+00 -0.48123893694E+03  0.48123893694E+03  0.00000000000E+00 0. -1.
        -24    2    1    2    0    0 -0.25619716439E+03  0.32515878993E+03  0.19903938115E+03  0.46664244344E+03  0.82299872763E+02 0.  0.
        254    2    1    2    0    0  0.25619716439E+03 -0.32515878993E+03  0.37558831123E+03  0.10704631228E+04  0.91294002655E+03 0.  0.
         23    2    4    4    0    0  0.17201524753E+03 -0.63111990813E+03  0.17295591937E+03  0.68290824163E+03  0.92457193490E+02 0.  0.
         23    2    4    4    0    0  0.84181916867E+02  0.30596111820E+03  0.20263239186E+03  0.38755488119E+03  0.91870009954E+02 0.  0.
          1    1    3    3  502    0  0.12132464805E+01  0.20415138573E+02  0.22526055854E+02  0.30424875387E+02  0.00000000000E+00 0. -1.
         -2    1    3    3    0  502 -0.25741041087E+03  0.30474365136E+03  0.17651332529E+03  0.43621756805E+03  0.00000000000E+00 0.  1.
         13    1    5    5    0    0 -0.11023165454E+02 -0.26062211237E+02  0.39806037149E+01  0.28576113051E+02  0.00000000000E+00 0. -1.
        -13    1    5    5    0    0  0.18303841298E+03 -0.60505769689E+03  0.16897531566E+03  0.65433212858E+03  0.00000000000E+00 0.  1.
          2    1    6    6  503    0  0.11775640705E+02  0.10180116879E+03  0.20428602759E+02  0.10449627501E+03  0.00000000000E+00 0. -1.
         -2    1    6    6    0  503  0.72406276161E+02  0.20415994941E+03  0.18220378910E+03  0.28305860618E+03  0.00000000000E+00 0.  1.
<mgrwt>
<rscale>  0 0.14256565E+04</rscale>
<asrwt>0</asrwt>
<pdfrwt beam="1">  1        1 0.74036760E-01 0.14256565E+04</pdfrwt>
<pdfrwt beam="2">  1       -2 0.16244102E+00 0.14256565E+04</pdfrwt>
<totfact> 0.95986435E+00</totfact>
</mgrwt>
</event>
<event>
12    5  0.5297412E-008  0.1488559E+04  0.7818608E-02  0.8892097E-01
          1   -1    0    0  501    0  0.00000000000E+00  0.00000000000E+00  0.19941715979E+04  0.19941715979E+04  0.00000000000E+00 0. -1.
         -2   -1    0    0    0  501 -0.00000000000E+00 -0.00000000000E+00 -0.27778561475E+03  0.27778561475E+03  0.00000000000E+00 0.  1.
        -24    2    1    2    0    0  0.17783482480E+03  0.30246574639E+03  0.10056098569E+04  0.10680090416E+04  0.79255132006E+02 0.  0.
        254    2    1    2    0    0 -0.17783482480E+03 -0.30246574639E+03  0.71077612624E+03  0.12039481711E+04  0.90618858099E+03 0.  0.
         23    2    4    4    0    0  0.22853513282E+03  0.14913258885E+03  0.33691788733E+02  0.28988972383E+03  0.91826354409E+02 0.  0.
         23    2    4    4    0    0 -0.40636995762E+03 -0.45159833524E+03  0.67708433751E+03  0.91405844723E+03  0.89342296857E+02 0.  0.
          1    1    3    3  502    0  0.11286924016E+03  0.25099024199E+03  0.81323199392E+03  0.85853470686E+03  0.00000000000E+00 0. -1.
         -2    1    3    3    0  502  0.64965584641E+02  0.51475504397E+02  0.19237786296E+03  0.20947433470E+03  0.00000000000E+00 0.  1.
         13    1    5    5    0    0  0.16045960010E+03  0.12299395297E+03 -0.14159127748E+02  0.20267036446E+03  0.00000000000E+00 0.  1.
        -13    1    5    5    0    0  0.68075532722E+02  0.26138635876E+02  0.47850916481E+02  0.87219359370E+02  0.00000000000E+00 0. -1.
          3    1    6    6  503    0 -0.23467355323E+03 -0.19460447116E+03  0.32737950943E+03  0.44734765002E+03  0.00000000000E+00 0. -1.
         -3    1    6    6    0  503 -0.17169640439E+03 -0.25699386408E+03  0.34970482808E+03  0.46671079721E+03  0.00000000000E+00 0.  1.
<mgrwt>
<rscale>  0 0.14885593E+04</rscale>
<asrwt>0</asrwt>
<pdfrwt beam="1">  1        1 0.30679562E+00 0.14885593E+04</pdfrwt>
<pdfrwt beam="2">  1       -2 0.42736250E-01 0.14885593E+04</pdfrwt>
<totfact> 0.13277068E+01</totfact>
</mgrwt>
</event>
<event>
12    5  0.5297412E-008  0.2514236E+04  0.7818608E-02  0.8397931E-01
         -2   -1    0    0    0  501 -0.00000000000E+00  0.00000000000E+00  0.91176832645E+03  0.91176832645E+03  0.00000000000E+00 0.  1.
          3   -1    0    0  501    0  0.00000000000E+00 -0.00000000000E+00 -0.17332753971E+04  0.17332753971E+04  0.00000000000E+00 0. -1.
        -24    2    1    2    0    0 -0.52851213250E+03  0.58441075879E+03  0.44089440379E+03  0.90647749645E+03  0.80327872450E+02 0.  0.
        254    2    1    2    0    0  0.52851213250E+03 -0.58441075879E+03 -0.12624014744E+04  0.17385662270E+04  0.89894050642E+03 0.  0.
         23    2    4    4    0    0  0.13389584885E+02 -0.62613378792E+03 -0.90023837206E+03  0.11008973716E+04  0.96556174868E+02 0.  0.
         23    2    4    4    0    0  0.51512254762E+03  0.41723029138E+02 -0.36216310233E+03  0.63766885544E+03  0.91473527790E+02 0.  0.
          1    1    3    3  502    0  0.11890381745E+01  0.77991919399E+01 -0.97687453300E-02  0.78893156943E+01  0.00000000000E+00 0. -1.
         -2    1    3    3    0  502 -0.52970117068E+03  0.57661156685E+03  0.44090417253E+03  0.89858818076E+03  0.00000000000E+00 0.  1.
         13    1    5    5    0    0 -0.19769702888E+02 -0.74217300596E+02 -0.15458404993E+03  0.17261308570E+03  0.00000000000E+00 0. -1.
        -13    1    5    5    0    0  0.33159287773E+02 -0.55191648733E+03 -0.74565432213E+03  0.92828428591E+03  0.00000000000E+00 0.  1.
          4    1    6    6  503    0  0.96369587756E+02  0.19569022654E+01 -0.11398189746E+03  0.14927424379E+03  0.00000000000E+00 0. -1.
         -4    1    6    6    0  503  0.41875295986E+03  0.39766126872E+02 -0.24818120487E+03  0.48839461165E+03  0.00000000000E+00 0.  1.
<mgrwt>
<rscale>  0 0.25142360E+04</rscale>
<asrwt>0</asrwt>
<pdfrwt beam="1">  1        3 0.26665775E+00 0.25142360E+04</pdfrwt>
<pdfrwt beam="2">  1       -2 0.14027205E+00 0.25142360E+04</pdfrwt>
<totfact> 0.77542801E-02</totfact>
</mgrwt>
</event>
<event>
12    5  0.5297412E-008  0.1339436E+04  0.7818608E-02  0.8998863E-01
          1   -1    0    0  501    0  0.00000000000E+00  0.00000000000E+00  0.62151556891E+03  0.62151556891E+03  0.00000000000E+00 0. -1.
         -2   -1    0    0    0  501 -0.00000000000E+00 -0.00000000000E+00 -0.72165922695E+03  0.72165922695E+03  0.00000000000E+00 0.  1.
        -24    2    1    2    0    0  0.22200150613E+01  0.31702836449E+03  0.14496188706E+03  0.35698953612E+03  0.76913378804E+02 0.  0.
        254    2    1    2    0    0 -0.22200150613E+01 -0.31702836449E+03 -0.24510554509E+03  0.98618525974E+03  0.90109529237E+03 0.  0.
         23    2    4    4    0    0  0.28400768061E+02  0.90173888595E+02 -0.48546323765E+03  0.50261390974E+03  0.89488844791E+02 0.  0.
         23    2    4    4    0    0 -0.30620783122E+02 -0.40720225309E+03  0.24035769256E+03  0.48357135000E+03  0.96530424685E+02 0.  0.
          3    1    3    3  502    0  0.28880188860E+02  0.20150515125E+03  0.11839272421E+03  0.23548933827E+03  0.00000000000E+00 0. -1.
         -4    1    3    3    0  502 -0.26660173798E+02  0.11552321324E+03  0.26569162845E+02  0.12150019785E+03  0.00000000000E+00 0.  1.
         13    1    5    5    0    0  0.51296653942E+02  0.49930863139E+02 -0.38999707207E+03  0.39651248911E+03  0.00000000000E+00 0. -1.
        -13    1    5    5    0    0 -0.22895885882E+02  0.40243025457E+02 -0.95466165583E+02  0.10610142063E+03  0.00000000000E+00 0.  1.
          1    1    6    6  503    0 -0.51017240477E+02 -0.10580879149E+03  0.70903424556E+02  0.13720624911E+03  0.00000000000E+00 0. -1.
         -1    1    6    6    0  503  0.20396457355E+02 -0.30139346160E+03  0.16945426800E+03  0.34636510089E+03  0.00000000000E+00 0.  1.
<mgrwt>
<rscale>  0 0.13394364E+04</rscale>
<asrwt>0</asrwt>
<pdfrwt beam="1">  1        1 0.95617780E-01 0.13394364E+04</pdfrwt>
<pdfrwt beam="2">  1       -2 0.11102450E+00 0.13394364E+04</pdfrwt>
<totfact> 0.17919002E+01</totfact>
</mgrwt>
</event>
<event>
12    5  0.5297412E-008  0.1582282E+04  0.7818608E-02  0.8831507E-01
         -2   -1    0    0    0  501 -0.00000000000E+00  0.00000000000E+00  0.45326790231E+03  0.45326790231E+03  0.00000000000E+00 0.  1.
          1   -1    0    0  501    0  0.00000000000E+00 -0.00000000000E+00 -0.13808703038E+04  0.13808703038E+04  0.00000000000E+00 0. -1.
        -24    2    1    2    0    0  0.14731027323E+03 -0.46668544778E+03 -0.23880896067E+02  0.49666124307E+03  0.81280190716E+02 0.  0.
        254    2    1    2    0    0 -0.14731027323E+03  0.46668544778E+03 -0.90372150538E+03  0.13374769630E+04  0.85594184588E+03 0.  0.
         23    2    4    4    0    0 -0.43054755510E+03  0.49571925957E+03 -0.47803732244E+03  0.81718697108E+03  0.90366379554E+02 0.  0.
         23    2    4    4    0    0  0.28323728188E+03 -0.29033811789E+02 -0.42568418294E+03  0.52028999193E+03  0.91805947620E+02 0.  0.
          3    1    3    3  502    0  0.17038077464E+02 -0.79154270705E+01 -0.47109099381E+01  0.19368601959E+02  0.00000000000E+00 0. -1.
         -4    1    3    3    0  502  0.13027219576E+03 -0.45877002071E+03 -0.19169986128E+02  0.47729264111E+03  0.00000000000E+00 0.  1.
         13    1    5    5    0    0  0.44442898844E+01  0.83997907263E+01 -0.81307328994E+01  0.12506678788E+02  0.00000000000E+00 0.  1.
        -13    1    5    5    0    0 -0.43499184499E+03  0.48731946884E+03 -0.46990658954E+03  0.80468029229E+03  0.00000000000E+00 0. -1.
          3    1    6    6  503    0  0.28762030563E+03 -0.19107066668E+02 -0.41197132077E+03  0.50280303236E+03  0.00000000000E+00 0. -1.
         -3    1    6    6    0  503 -0.43830237592E+01 -0.99267451213E+01 -0.13712862175E+02  0.17486959570E+02  0.00000000000E+00 0.  1.
<mgrwt>
<rscale>  0 0.15822821E+04</rscale>
<asrwt>0</asrwt>
<pdfrwt beam="1">  1        1 0.21244159E+00 0.15822821E+04</pdfrwt>
<pdfrwt beam="2">  1       -2 0.69733523E-01 0.15822821E+04</pdfrwt>
<totfact> 0.12523426E+01</totfact>
</mgrwt>
</event>
<event>
12    5  0.5297412E-008  0.1937751E+04  0.7818608E-02  0.8636290E-01
         -2   -1    0    0    0  501 -0.00000000000E+00  0.00000000000E+00  0.42901767299E+03  0.42901767299E+03  0.00000000000E+00 0.  1.
          1   -1    0    0  501    0  0.00000000000E+00 -0.00000000000E+00 -0.21880673678E+04  0.21880673678E+04  0.00000000000E+00 0. -1.
        -24    2    1    2    0    0  0.39814842467E+03 -0.64750193605E+03 -0.69972040981E+03  0.10375744042E+04  0.95765688580E+02 0.  0.
        254    2    1    2    0    0 -0.39814842467E+03  0.64750193605E+03 -0.10593292850E+04  0.15795106366E+04  0.89156850089E+03 0.  0.
         23    2    4    4    0    0 -0.61582996435E+03  0.51608672463E+03 -0.10275005038E+04  0.13074672517E+04  0.90118126305E+02 0.  0.
         23    2    4    4    0    0  0.21768153968E+03  0.13141521141E+03 -0.31828781230E+02  0.27204338489E+03  0.91319885228E+02 0.  0.
          1    1    3    3  502    0  0.40324276019E+03 -0.63940127833E+03 -0.68569909187E+03  0.10205988257E+04  0.00000000000E+00 0. -1.
         -2    1    3    3    0  502 -0.50943355174E+01 -0.81006577213E+01 -0.14021317941E+02  0.16975578538E+02  0.00000000000E+00 0.  1.
         13    1    5    5    0    0 -0.68270785273E+01  0.25247633932E+02 -0.28451060911E+02  0.38646020330E+02  0.00000000000E+00 0.  1.
        -13    1    5    5    0    0 -0.60900288582E+03  0.49083909070E+03 -0.99904944287E+03  0.12688212314E+04  0.00000000000E+00 0. -1.
          3    1    6    6  503    0  0.17687238354E+03  0.13209159509E+03 -0.76935073259E+00  0.22075466349E+03  0.00000000000E+00 0. -1.
         -3    1    6    6    0  503  0.40809156139E+02 -0.67638367469E+00 -0.31059430498E+02  0.51288721396E+02  0.00000000000E+00 0.  1.
<mgrwt>
<rscale>  0 0.19377508E+04</rscale>
<asrwt>0</asrwt>
<pdfrwt beam="1">  1        1 0.33662575E+00 0.19377508E+04</pdfrwt>
<pdfrwt beam="2">  1       -2 0.66002719E-01 0.19377508E+04</pdfrwt>
<totfact> 0.38411236E+00</totfact>
</mgrwt>
</event>
<event>
12    5  0.5297412E-008  0.3236852E+04  0.7818608E-02  0.8179152E-01
          3   -1    0    0  501    0  0.00000000000E+00  0.00000000000E+00  0.16722610094E+04  0.16722610094E+04  0.00000000000E+00 0. -1.
         -4   -1    0    0    0  501 -0.00000000000E+00 -0.00000000000E+00 -0.15663240906E+04  0.15663240906E+04  0.00000000000E+00 0.  1.
        -24    2    1    2    0    0  0.38678730915E+02 -0.59967108428E+03  0.14182335418E+04  0.15424265434E+04  0.81189957085E+02 0.  0.
        254    2    1    2    0    0 -0.38678730915E+02  0.59967108428E+03 -0.13122966230E+04  0.16961585566E+04  0.89091524221E+03 0.  0.
         23    2    4    4    0    0 -0.37531042465E+03  0.48165470893E+03 -0.46847278505E+03  0.77520218063E+03  0.92857401594E+02 0.  0.
         23    2    4    4    0    0  0.33663169374E+03  0.11801637535E+03 -0.84382383793E+03  0.92095637595E+03  0.94197743383E+02 0.  0.
          1    1    3    3  502    0  0.17521656113E+02 -0.50457523694E+03  0.12485272011E+04  0.13467454660E+04  0.00000000000E+00 0. -1.
         -2    1    3    3    0  502  0.21157074802E+02 -0.95095847342E+02  0.16970634067E+03  0.19568107742E+03  0.00000000000E+00 0.  1.
         13    1    5    5    0    0 -0.28854180789E+03  0.34948056949E+03 -0.29641563565E+03  0.54153049075E+03  0.00000000000E+00 0.  1.
        -13    1    5    5    0    0 -0.86768616763E+02  0.13217413943E+03 -0.17205714940E+03  0.23367168988E+03  0.00000000000E+00 0. -1.
          3    1    6    6  503    0 -0.56559192918E+01  0.67649604829E+01 -0.25488620810E+02  0.26970797248E+02  0.00000000000E+00 0. -1.
         -3    1    6    6    0  503  0.34228761303E+03  0.11125141487E+03 -0.81833521712E+03  0.89398557870E+03  0.00000000000E+00 0.  1.
<mgrwt>
<rscale>  0 0.32368520E+04</rscale>
<asrwt>0</asrwt>
<pdfrwt beam="1">  1        3 0.25727092E+00 0.32368520E+04</pdfrwt>
<pdfrwt beam="2">  1       -4 0.24097294E+00 0.32368520E+04</pdfrwt>
<totfact> 0.91761791E-03</totfact>
</mgrwt>
</event>
<event>
12    5  0.5297412E-008  0.1289757E+04  0.7818608E-02  0.9037728E-01
          1   -1    0    0  501    0  0.00000000000E+00  0.00000000000E+00  0.25672083930E+04  0.25672083930E+04  0.00000000000E+00 0. -1.
         -2   -1    0    0    0  501 -0.00000000000E+00 -0.00000000000E+00 -0.16199235578E+03  0.16199235578E+03  0.00000000000E+00 0.  1.
        -24    2    1    2    0    0  0.16063572150E+02  0.15007685903E+03  0.15411731852E+02  0.17356790500E+03  0.84304176653E+02 0.  0.
        254    2    1    2    0    0 -0.16063572150E+02 -0.15007685903E+03  0.23898043054E+04  0.25556328438E+04  0.89292413579E+03 0.  0.
         23    2    4    4    0    0  0.14375954231E+03 -0.12492071308E+03  0.23585093129E+04  0.23679070589E+04  0.90253365193E+02 0.  0.
         23    2    4    4    0    0 -0.15982311446E+03 -0.25156145951E+02  0.31294992404E+02  0.18772578483E+03  0.89918486108E+02 0.  0.
          3    1    3    3  502    0  0.40734503949E+02  0.91759578112E+02  0.36505373783E+02  0.10682585035E+03  0.00000000000E+00 0. -1.
         -4    1    3    3    0  502 -0.24670931799E+02  0.58317280917E+02 -0.21093641931E+02  0.66742054653E+02  0.00000000000E+00 0.  1.
         13    1    5    5    0    0  0.14521729121E+03 -0.90091503616E+02  0.21181955623E+04  0.21250781117E+04  0.00000000000E+00 0. -1.
        -13    1    5    5    0    0 -0.14577488921E+01 -0.34829209462E+02  0.24031375067E+03  0.24282894725E+03  0.00000000000E+00 0.  1.
          3    1    6    6  503    0 -0.15328661932E+03 -0.27845863888E+02  0.53263128903E+02  0.16464853689E+03  0.00000000000E+00 0. -1.
         -3    1    6    6    0  503 -0.65364951440E+01  0.26897179374E+01 -0.21968136499E+02  0.23077247942E+02  0.00000000000E+00 0.  1.
<mgrwt>
<rscale>  0 0.12897568E+04</rscale>
<asrwt>0</asrwt>
<pdfrwt beam="1">  1        1 0.39495511E+00 0.12897568E+04</pdfrwt>
<pdfrwt beam="2">  1       -2 0.24921903E-01 0.12897568E+04</pdfrwt>
<totfact> 0.15233101E+01</totfact>
</mgrwt>
</event>
<event>
12    5  0.5297412E-008  0.2196273E+04  0.7818608E-02  0.8519981E-01
         -2   -1    0    0    0  501 -0.00000000000E+00  0.00000000000E+00  0.26331512312E+04  0.26331512312E+04  0.00000000000E+00 0.  1.
          1   -1    0    0  501    0  0.00000000000E+00 -0.00000000000E+00 -0.45796987046E+03  0.45796987046E+03  0.00000000000E+00 0. -1.
        -24    2    1    2    0    0 -0.22844009127E+03  0.80124000430E+03  0.14289860865E+04  0.16558689344E+04  0.75698565752E+02 0.  0.
        254    2    1    2    0    0  0.22844009127E+03 -0.80124000430E+03  0.74619527426E+03  0.14352521672E+04  0.89942813855E+03 0.  0.
         23    2    4    4    0    0 -0.60519423578E+02 -0.18573217380E+03  0.71628671800E+03  0.74853232515E+03  0.95262471051E+02 0.  0.
         23    2    4    4    0    0  0.28895951484E+03 -0.61550783051E+03  0.29908556256E+02  0.68671984208E+03  0.91335256832E+02 0.  0.
          3    1    3    3  502    0 -0.48110152121E+02  0.19422458069E+03  0.28344069078E+03  0.34695302228E+03  0.00000000000E+00 0. -1.
         -4    1    3    3    0  502 -0.18032993914E+03  0.60701542361E+03  0.11455453957E+04  0.13089159121E+04  0.00000000000E+00 0.  1.
         13    1    5    5    0    0 -0.62746062019E+02 -0.13200735996E+03  0.36537793816E+03  0.39352769798E+03  0.00000000000E+00 0. -1.
        -13    1    5    5    0    0  0.22266384407E+01 -0.53724813834E+02  0.35090877984E+03  0.35500462717E+03  0.00000000000E+00 0.  1.
          2    1    6    6  503    0  0.29524658229E+03 -0.59865862296E+03  0.33643483749E+02  0.66835213413E+03  0.00000000000E+00 0. -1.
         -2    1    6    6    0  503 -0.62870674480E+01 -0.16849207546E+02 -0.37349274925E+01  0.18367707952E+02  0.00000000000E+00 0.  1.
<mgrwt>
<rscale>  0 0.21962731E+04</rscale>
<asrwt>0</asrwt>
<pdfrwt beam="1">  1        1 0.70456904E-01 0.21962731E+04</pdfrwt>
<pdfrwt beam="2">  1       -2 0.40510018E+00 0.21962731E+04</pdfrwt>
<totfact> 0.27481067E-01</totfact>
</mgrwt>
</event>
<event>
12    5  0.5297412E-008  0.1783943E+04  0.7818608E-02  0.8714886E-01
          1   -1    0    0  501    0  0.00000000000E+00  0.00000000000E+00  0.14636518256E+04  0.14636518256E+04  0.00000000000E+00 0. -1.
         -2   -1    0    0    0  501 -0.00000000000E+00 -0.00000000000E+00 -0.54358059365E+03  0.54358059365E+03  0.00000000000E+00 0.  1.
        -24    2    1    2    0    0  0.15523088709E+03  0.57241549685E+03 -0.75306480184E+02  0.60320846184E+03  0.80207562809E+02 0.  0.
        254    2    1    2    0    0 -0.15523088709E+03 -0.57241549685E+03  0.99537771216E+03  0.14040239574E+04  0.79293779949E+03 0.  0.
         23    2    4    4    0    0  0.26366250793E+03 -0.25239735145E+03  0.69582887750E+03  0.79100225564E+03  0.91018682484E+02 0.  0.
         23    2    4    4    0    0 -0.41889339502E+03 -0.32001814540E+03  0.29954883466E+03  0.61302170181E+03  0.90458900919E+02 0.  0.
          3    1    3    3  502    0 -0.51319954831E+00  0.10546772806E+03 -0.25130138663E+02  0.10842153340E+03  0.00000000000E+00 0. -1.
         -4    1    3    3    0  502  0.15574408664E+03  0.46694776879E+03 -0.50176341520E+02  0.49478692844E+03  0.00000000000E+00 0.  1.
         13    1    5    5    0    0  0.26942256496E+03 -0.24883503519E+03  0.69210572044E+03  0.78327372068E+03  0.00000000000E+00 0.  1.
        -13    1    5    5    0    0 -0.57600570293E+01 -0.35623162576E+01  0.37231570593E+01  0.77285349575E+01  0.00000000000E+00 0. -1.
          1    1    6    6  503    0 -0.38721703257E+03 -0.30197610935E+03  0.30200674536E+03  0.57648475710E+03  0.00000000000E+00 0.  1.
         -1    1    6    6    0  503 -0.31676362454E+02 -0.18042036049E+02 -0.24579106948E+01  0.36536944701E+02  0.00000000000E+00 0. -1.
<mgrwt>
<rscale>  0 0.17839425E+04</rscale>
<asrwt>0</asrwt>
<pdfrwt beam="1">  1        1 0.22517720E+00 0.17839425E+04</pdfrwt>
<pdfrwt beam="2">  1       -2 0.83627784E-01 0.17839425E+04</pdfrwt>
<totfact> 0.71886283E+00</totfact>
</mgrwt>
</event>
<event>
12    5  0.5297412E-008  0.1243078E+04  0.7818608E-02  0.9075964E-01
         -2   -1    0    0    0  501 -0.00000000000E+00  0.00000000000E+00  0.11748271003E+03  0.11748271003E+03  0.00000000000E+00 0.  1.
          1   -1    0    0  501    0  0.00000000000E+00 -0.00000000000E+00 -0.32882327886E+04  0.32882327886E+04  0.00000000000E+00 0. -1.
        -24    2    1    2    0    0 -0.14892815602E+03 -0.14452517030E+03 -0.12651779882E+04  0.12844586876E+04  0.78049072162E+02 0.  0.
        254    2    1    2    0    0  0.14892815602E+03  0.14452517030E+03 -0.19055720904E+04  0.21212568111E+04  0.90854738264E+03 0.  0.
         23    2    4    4    0    0  0.17801741041E+03 -0.18682593752E+03 -0.16921199926E+04  0.17137337528E+04  0.83780527130E+02 0.  0.
         23    2    4    4    0    0 -0.29089254390E+02  0.33135110782E+03 -0.21345209779E+03  0.40752305833E+03  0.99365505319E+02 0.  0.
          3    1    3    3  502    0 -0.79052338477E+02 -0.10012360676E+03 -0.95254758432E+03  0.96105198051E+03  0.00000000000E+00 0. -1.
         -4    1    3    3    0  502 -0.69875817541E+02 -0.44401563540E+02 -0.31263040392E+03  0.32340670707E+03  0.00000000000E+00 0.  1.
         13    1    5    5    0    0  0.12121011390E+03 -0.75855402114E+02 -0.10424287750E+04  0.10521899470E+04  0.00000000000E+00 0.  1.
        -13    1    5    5    0    0  0.56807296509E+02 -0.11097053540E+03 -0.64969121761E+03  0.66154380574E+03  0.00000000000E+00 0. -1.
          2    1    6    6  503    0 -0.38872349312E+02  0.31920059335E+03 -0.17514987285E+03  0.36616602286E+03  0.00000000000E+00 0. -1.
         -2    1    6    6    0  503  0.97830949220E+01  0.12150514470E+02 -0.38302224935E+02  0.41357035473E+02  0.00000000000E+00 0.  1.
<mgrwt>
<rscale>  0 0.12430776E+04</rscale>
<asrwt>0</asrwt>
<pdfrwt beam="1">  1        1 0.50588198E+00 0.12430776E+04</pdfrwt>
<pdfrwt beam="2">  1       -2 0.18074263E-01 0.12430776E+04</pdfrwt>
<totfact> 0.81896574E+00</totfact>
</mgrwt>
</event>
<event>
12    5  0.5297412E-008  0.1626754E+04  0.7818608E-02  0.8804278E-01
          1   -1    0    0  501    0  0.00000000000E+00  0.00000000000E+00  0.10669407804E+04  0.10669407804E+04  0.00000000000E+00 0. -1.
         -2   -1    0    0    0  501 -0.00000000000E+00 -0.00000000000E+00 -0.62007425993E+03  0.62007425993E+03  0.00000000000E+00 0.  1.
        -24    2    1    2    0    0 -0.28650029343E+03  0.36618638460E+03  0.47691273428E+03  0.67089614862E+03  0.80504656523E+02 0.  0.
        254    2    1    2    0    0  0.28650029343E+03 -0.36618638460E+03 -0.30046213774E+02  0.10161188917E+04  0.90300605801E+03 0.  0.
         23    2    4    4    0    0  0.57965407018E+03 -0.29367222770E+03 -0.15859273459E+03  0.67539620172E+03  0.93627749231E+02 0.  0.
         23    2    4    4    0    0 -0.29315377675E+03 -0.72514156892E+02  0.12854652082E+03  0.34072269003E+03  0.91489363934E+02 0.  0.
          3    1    3    3  502    0 -0.11661979658E+03  0.19488478387E+03  0.27210910401E+03  0.35443422580E+03  0.00000000000E+00 0. -1.
         -2    1    3    3    0  502 -0.16988049685E+03  0.17130160073E+03  0.20480363027E+03  0.31646192282E+03  0.00000000000E+00 0.  1.
         13    1    5    5    0    0  0.55017518796E+03 -0.29956812250E+03 -0.15082388492E+03  0.64434590224E+03  0.00000000000E+00 0. -1.
        -13    1    5    5    0    0  0.29478882221E+02  0.58958948016E+01 -0.77688496724E+01  0.31050299479E+02  0.00000000000E+00 0.  1.
          4    1    6    6  503    0 -0.25885289805E+03 -0.84552048574E+02  0.13477826108E+03  0.30384050323E+03  0.00000000000E+00 0. -1.
         -4    1    6    6    0  503 -0.34300878708E+02  0.12037891682E+02 -0.62317402645E+01  0.36882186798E+02  0.00000000000E+00 0.  1.
<mgrwt>
<rscale>  0 0.16267545E+04</rscale>
<asrwt>0</asrwt>
<pdfrwt beam="1">  1        1 0.16414473E+00 0.16267545E+04</pdfrwt>
<pdfrwt beam="2">  1       -2 0.95396040E-01 0.16267545E+04</pdfrwt>
<totfact> 0.10407840E+01</totfact>
</mgrwt>
</event>
<event>
12    5  0.5297412E-008  0.1782546E+04  0.7818608E-02  0.8715637E-01
         -2   -1    0    0    0  501 -0.00000000000E+00  0.00000000000E+00  0.98547907820E+03  0.98547907820E+03  0.00000000000E+00 0.  1.
          1   -1    0    0  501    0  0.00000000000E+00 -0.00000000000E+00 -0.80607248320E+03  0.80607248320E+03  0.00000000000E+00 0. -1.
        -24    2    1    2    0    0  0.36470071531E+03  0.54204822276E+03  0.15473408026E+03  0.67610032153E+03  0.79662548559E+02 0.  0.
        254    2    1    2    0    0 -0.36470071531E+03 -0.54204822276E+03  0.24672514741E+02  0.11154512399E+04  0.90376979812E+03 0.  0.
         23    2    4    4    0    0 -0.48131116312E+03 -0.22284112963E+03 -0.31757956502E+03  0.62488977878E+03  0.91169351764E+02 0.  0.
         23    2    4    4    0    0  0.11661044781E+03 -0.31920709313E+03  0.34225207976E+03  0.49056146109E+03  0.89570621103E+02 0.  0.
          1    1    3    3  502    0  0.30331182121E+03  0.43259773583E+03  0.15502045139E+03  0.55060893770E+03  0.00000000000E+00 0. -1.
         -2    1    3    3    0  502  0.61388894104E+02  0.10945048693E+03 -0.28637112563E+00  0.12549138383E+03  0.00000000000E+00 0.  1.
         13    1    5    5    0    0 -0.12488892565E+03 -0.23426136901E+02 -0.49590762964E+02  0.13640114153E+03  0.00000000000E+00 0.  1.
        -13    1    5    5    0    0 -0.35642223747E+03 -0.19941499273E+03 -0.26798880206E+03  0.48848863724E+03  0.00000000000E+00 0. -1.
          2    1    6    6  503    0  0.43187414496E+02 -0.15484461499E+03  0.22193486945E+03  0.27403848971E+03  0.00000000000E+00 0. -1.
         -2    1    6    6    0  503  0.73423033310E+02 -0.16436247813E+03  0.12031721031E+03  0.21652297138E+03  0.00000000000E+00 0.  1.
<mgrwt>
<rscale>  0 0.17825460E+04</rscale>
<asrwt>0</asrwt>
<pdfrwt beam="1">  1        1 0.12401115E+00 0.17825460E+04</pdfrwt>
<pdfrwt beam="2">  1       -2 0.15161217E+00 0.17825460E+04</pdfrwt>
<totfact> 0.52639589E+00</totfact>
</mgrwt>
</event>
<event>
12    5  0.5297412E-008  0.1400143E+04  0.7818608E-02  0.8953715E-01
          1   -1    0    0  501    0  0.00000000000E+00  0.00000000000E+00  0.15993765563E+04  0.15993765563E+04  0.00000000000E+00 0. -1.
         -2   -1    0    0    0  501 -0.00000000000E+00 -0.00000000000E+00 -0.30643213571E+03  0.30643213571E+03  0.00000000000E+00 0.  1.
        -24    2    1    2    0    0  0.18313634769E+03 -0.14122127423E+03  0.83688236552E+03  0.87284059964E+03  0.89421745314E+02 0.  0.
        254    2    1    2    0    0 -0.18313634769E+03  0.14122127423E+03  0.45606205509E+03  0.10329680924E+04  0.89752332094E+03 0.  0.
         23    2    4    4    0    0 -0.24715730132E+03  0.21325996947E+03 -0.18027543707E+03  0.38297806390E+03  0.87214781091E+02 0.  0.
         23    2    4    4    0    0  0.64020953625E+02 -0.72038695248E+02  0.63633749217E+03  0.64999002848E+03  0.90958106153E+02 0.  0.
          3    1    3    3  502    0  0.75532244497E+02 -0.11214491261E+03  0.50232455359E+03  0.52020338188E+03  0.00000000000E+00 0. -1.
         -4    1    3    3    0  502  0.10760410319E+03 -0.29076361612E+02  0.33455781193E+03  0.35263721776E+03  0.00000000000E+00 0.  1.
         13    1    5    5    0    0 -0.17343550226E+03  0.16923969527E+03 -0.17106109652E+03  0.29662071175E+03  0.00000000000E+00 0.  1.
        -13    1    5    5    0    0 -0.73721799059E+02  0.44020274203E+02 -0.92143405523E+01  0.86357352144E+02  0.00000000000E+00 0. -1.
          4    1    6    6  503    0  0.14780447844E+02 -0.74588556201E+02  0.27555712804E+03  0.28585598676E+03  0.00000000000E+00 0. -1.
         -4    1    6    6    0  503  0.49240505781E+02  0.25498609526E+01  0.36078036413E+03  0.36413404172E+03  0.00000000000E+00 0.  1.
<mgrwt>
<rscale>  0 0.14001434E+04</rscale>
<asrwt>0</asrwt>
<pdfrwt beam="1">  1        1 0.24605793E+00 0.14001434E+04</pdfrwt>
<pdfrwt beam="2">  1       -2 0.47143406E-01 0.14001434E+04</pdfrwt>
<totfact> 0.20383801E+01</totfact>
</mgrwt>
</event>
<event>
12    5  0.5297412E-008  0.1645565E+04  0.7818608E-02  0.8793034E-01
          1   -1    0    0  501    0  0.00000000000E+00  0.00000000000E+00  0.14040773714E+04  0.14040773714E+04  0.00000000000E+00 0. -1.
         -2   -1    0    0    0  501 -0.00000000000E+00 -0.00000000000E+00 -0.48214673999E+03  0.48214673999E+03  0.00000000000E+00 0.  1.
        -24    2    1    2    0    0  0.14383987864E+03  0.91369326299E+02 -0.30237617147E+03  0.35624303568E+03  0.80246413743E+02 0.  0.
        254    2    1    2    0    0 -0.14383987864E+03 -0.91369326299E+02  0.12243068029E+04  0.15299810758E+04  0.90159673912E+03 0.  0.
         23    2    4    4    0    0  0.31262222062E+03  0.10638788856E+03  0.22257965673E+03  0.40793272967E+03  0.88410252197E+02 0.  0.
         23    2    4    4    0    0 -0.45646209926E+03 -0.19775721486E+03  0.10017271462E+04  0.11220483461E+04  0.89831238550E+02 0.  0.
          1    1    3    3  502    0 -0.44921660115E+01  0.25770799243E+02 -0.41011764916E+02  0.48644408832E+02  0.00000000000E+00 0. -1.
         -2    1    3    3    0  502  0.14833204465E+03  0.65598527056E+02 -0.26136440656E+03  0.30759862684E+03  0.00000000000E+00 0.  1.
         13    1    5    5    0    0  0.24664851064E+03  0.12031020652E+03  0.17777171597E+03  0.32697525379E+03  0.00000000000E+00 0. -1.
        -13    1    5    5    0    0  0.65973709980E+02 -0.13922317965E+02  0.44807940757E+02  0.80957475880E+02  0.00000000000E+00 0.  1.
          4    1    6    6  503    0 -0.38915149553E+03 -0.16363969499E+03  0.76718819584E+03  0.87566806730E+03  0.00000000000E+00 0. -1.
         -4    1    6    6    0  503 -0.67310603723E+02 -0.34117519868E+02  0.23453895036E+03  0.24638027878E+03  0.00000000000E+00 0.  1.
<mgrwt>
<rscale>  0 0.16455653E+04</rscale>
<asrwt>0</asrwt>
<pdfrwt beam="1">  1        1 0.21601190E+00 0.16455653E+04</pdfrwt>
<pdfrwt beam="2">  1       -2 0.74176422E-01 0.16455653E+04</pdfrwt>
<totfact> 0.10474979E+01</totfact>
</mgrwt>
</event>
<event>
12    5  0.5297412E-008  0.1264743E+04  0.7818608E-02  0.9058001E-01
          1   -1    0    0  501    0  0.00000000000E+00  0.00000000000E+00  0.14550364297E+04  0.14550364297E+04  0.00000000000E+00 0. -1.
         -2   -1    0    0    0  501 -0.00000000000E+00 -0.00000000000E+00 -0.27483406174E+03  0.27483406174E+03  0.00000000000E+00 0.  1.
        -24    2    1    2    0    0  0.15203277132E+03  0.22669619881E+03  0.48092365742E+03  0.55867129911E+03  0.79504251913E+02 0.  0.
        254    2    1    2    0    0 -0.15203277132E+03 -0.22669619881E+03  0.69927871058E+03  0.11711991924E+04  0.89900595272E+03 0.  0.
         23    2    4    4    0    0 -0.12181750984E+03 -0.56636463283E+03  0.42109007339E+03  0.72202585240E+03  0.91630118460E+02 0.  0.
         23    2    4    4    0    0 -0.30215261484E+02  0.33966843402E+03  0.27818863719E+03  0.44917333997E+03  0.89889734558E+02 0.  0.
          1    1    3    3  502    0  0.12784970507E+03  0.22133739747E+03  0.46000035964E+03  0.52624720567E+03  0.00000000000E+00 0. -1.
         -2    1    3    3    0  502  0.24183066257E+02  0.53588013356E+01  0.20923297773E+02  0.32424093435E+02  0.00000000000E+00 0.  1.
         13    1    5    5    0    0 -0.32233334686E+02 -0.36007312900E+03  0.26614312931E+03  0.44891403562E+03  0.00000000000E+00 0. -1.
        -13    1    5    5    0    0 -0.89584175155E+02 -0.20629150383E+03  0.15494694407E+03  0.27311181678E+03  0.00000000000E+00 0.  1.
          1    1    6    6  503    0  0.23853286189E+02  0.20440263509E+03  0.14450979066E+03  0.25146072474E+03  0.00000000000E+00 0. -1.
         -1    1    6    6    0  503 -0.54068547673E+02  0.13526579893E+03  0.13367884653E+03  0.19771261522E+03  0.00000000000E+00 0.  1.
<mgrwt>
<rscale>  0 0.12647428E+04</rscale>
<asrwt>0</asrwt>
<pdfrwt beam="1">  1        1 0.22385176E+00 0.12647428E+04</pdfrwt>
<pdfrwt beam="2">  1       -2 0.42282164E-01 0.12647428E+04</pdfrwt>
<totfact> 0.32211877E+01</totfact>
</mgrwt>
</event>
<event>
12    5  0.5297412E-008  0.1177377E+04  0.7818608E-02  0.9132892E-01
          1   -1    0    0  501    0  0.00000000000E+00  0.00000000000E+00  0.44018719870E+03  0.44018719870E+03  0.00000000000E+00 0. -1.
         -2   -1    0    0    0  501 -0.00000000000E+00 -0.00000000000E+00 -0.78728877735E+03  0.78728877735E+03  0.00000000000E+00 0.  1.
        -24    2    1    2    0    0  0.13837597857E+02  0.13593231175E+03 -0.27596338261E+03  0.31829795013E+03  0.80552616503E+02 0.  0.
        254    2    1    2    0    0 -0.13837597857E+02 -0.13593231175E+03 -0.71138196045E+02  0.90917802592E+03  0.89603290530E+03 0.  0.
         23    2    4    4    0    0  0.41573111895E+03 -0.10624707085E+03  0.74951515799E+02  0.44522686125E+03  0.92132648571E+02 0.  0.
         23    2    4    4    0    0 -0.42956871681E+03 -0.29685240904E+02 -0.14608971184E+03  0.46395116466E+03  0.92184506808E+02 0.  0.
          3    1    3    3  502    0 -0.27367275319E+02  0.69833327900E+02 -0.17789891326E+03  0.19306393962E+03  0.00000000000E+00 0. -1.
         -4    1    3    3    0  502  0.41204873176E+02  0.66098983853E+02 -0.98064469350E+02  0.12523401051E+03  0.00000000000E+00 0.  1.
         13    1    5    5    0    0  0.34069113003E+03 -0.69791289259E+02  0.26554503372E+02  0.34877845660E+03  0.00000000000E+00 0. -1.
        -13    1    5    5    0    0  0.75039988917E+02 -0.36455781590E+02  0.48397012427E+02  0.96448404652E+02  0.00000000000E+00 0.  1.
          1    1    6    6  503    0 -0.39275538819E+03 -0.99059730132E+01 -0.15294796350E+03  0.42160171109E+03  0.00000000000E+00 0. -1.
         -1    1    6    6    0  503 -0.36813328616E+02 -0.19779267891E+02  0.68582516522E+01  0.42349453572E+02  0.00000000000E+00 0.  1.
<mgrwt>
<rscale>  0 0.11773775E+04</rscale>
<asrwt>0</asrwt>
<pdfrwt beam="1">  1        1 0.67721107E-01 0.11773775E+04</pdfrwt>
<pdfrwt beam="2">  1       -2 0.12112135E+00 0.11773775E+04</pdfrwt>
<totfact> 0.23705935E+01</totfact>
</mgrwt>
</event>
<event>
12    5  0.5297412E-008  0.1422489E+04  0.7818608E-02  0.8937699E-01
         -2   -1    0    0    0  501 -0.00000000000E+00  0.00000000000E+00  0.17246112165E+03  0.17246112165E+03  0.00000000000E+00 0.  1.
          1   -1    0    0  501    0  0.00000000000E+00 -0.00000000000E+00 -0.29332321814E+04  0.29332321814E+04  0.00000000000E+00 0. -1.
        -24    2    1    2    0    0  0.25694214862E+03 -0.13070087685E+03 -0.15142379615E+04  0.15428869845E+04  0.66945171605E+02 0.  0.
        254    2    1    2    0    0 -0.25694214862E+03  0.13070087685E+03 -0.12465330983E+04  0.15628063186E+04  0.89745018654E+03 0.  0.
         23    2    4    4    0    0 -0.46034375593E+03  0.30980321432E+03 -0.46348720374E+03  0.72907849912E+03  0.94024808502E+02 0.  0.
         23    2    4    4    0    0  0.20340160732E+03 -0.17910233747E+03 -0.78304589457E+03  0.83372781948E+03  0.92148482486E+02 0.  0.
          1    1    3    3  502    0  0.21491780956E+03 -0.13241137967E+03 -0.12389738271E+04  0.12644281643E+04  0.00000000000E+00 0. -1.
         -2    1    3    3    0  502  0.42024339052E+02  0.17105028224E+01 -0.27526413433E+03  0.27845882019E+03  0.00000000000E+00 0.  1.
         13    1    5    5    0    0 -0.14568320649E+03  0.12442887924E+03 -0.11052188378E+03  0.22118144008E+03  0.00000000000E+00 0.  1.
        -13    1    5    5    0    0 -0.31466054944E+03  0.18537433509E+03 -0.35296531997E+03  0.50789705904E+03  0.00000000000E+00 0. -1.
          1    1    6    6  503    0  0.20983651010E+03 -0.18170409636E+03 -0.77437848746E+03  0.82262371802E+03  0.00000000000E+00 0. -1.
         -1    1    6    6    0  503 -0.64349027869E+01  0.26017588934E+01 -0.86674071103E+01  0.11104101460E+02  0.00000000000E+00 0.  1.
<mgrwt>
<rscale>  0 0.14224887E+04</rscale>
<asrwt>0</asrwt>
<pdfrwt beam="1">  1        1 0.45126645E+00 0.14224887E+04</pdfrwt>
<pdfrwt beam="2">  1       -2 0.26532483E-01 0.14224887E+04</pdfrwt>
<totfact> 0.74040482E+00</totfact>
</mgrwt>
</event>
<event>
12    5  0.5297412E-008  0.1553685E+04  0.7818608E-02  0.8849518E-01
         -2   -1    0    0    0  501 -0.00000000000E+00  0.00000000000E+00  0.54092351920E+03  0.54092351920E+03  0.00000000000E+00 0.  1.
          1   -1    0    0  501    0  0.00000000000E+00 -0.00000000000E+00 -0.11156552028E+04  0.11156552028E+04  0.00000000000E+00 0. -1.
        -24    2    1    2    0    0  0.11110329448E+03 -0.33733449029E+02 -0.71925918924E+03  0.73294921374E+03  0.79993005924E+02 0.  0.
        254    2    1    2    0    0 -0.11110329448E+03  0.33733449029E+02  0.14452750563E+03  0.92362950827E+03  0.90483223917E+03 0.  0.
         23    2    4    4    0    0  0.96163518653E+02  0.18050076248E+02  0.49136212062E+03  0.50892012188E+03  0.89385285729E+02 0.  0.
         23    2    4    4    0    0 -0.20726681314E+03  0.15683372781E+02 -0.34683461498E+03  0.41470938639E+03  0.92109310071E+02 0.  0.
          1    1    3    3  502    0  0.72219127223E+02 -0.14929091374E+02 -0.62415295457E+03  0.62849454318E+03  0.00000000000E+00 0. -1.
         -2    1    3    3    0  502  0.38884167262E+02 -0.18804357654E+02 -0.95106234667E+02  0.10445467057E+03  0.00000000000E+00 0.  1.
         13    1    5    5    0    0  0.99874678745E+02  0.17075075181E+02  0.49398679758E+03  0.50427122249E+03  0.00000000000E+00 0. -1.
        -13    1    5    5    0    0 -0.37111600925E+01  0.97500106643E+00 -0.26246769684E+01  0.46488993859E+01  0.00000000000E+00 0.  1.
          4    1    6    6  503    0 -0.16823023091E+03  0.49525835150E+02 -0.25840413071E+03  0.31229299337E+03  0.00000000000E+00 0. -1.
         -4    1    6    6    0  503 -0.39036582226E+02 -0.33842462369E+02 -0.88430484273E+02  0.10241639302E+03  0.00000000000E+00 0.  1.
<mgrwt>
<rscale>  0 0.15536848E+04</rscale>
<asrwt>0</asrwt>
<pdfrwt beam="1">  1        1 0.17163926E+00 0.15536848E+04</pdfrwt>
<pdfrwt beam="2">  1       -2 0.83219003E-01 0.15536848E+04</pdfrwt>
<totfact> 0.13177541E+01</totfact>
</mgrwt>
</event>
<event>
12    5  0.5297412E-008  0.3911748E+04  0.7818608E-02  0.8022590E-01
          1   -1    0    0  501    0  0.00000000000E+00  0.00000000000E+00  0.20105461363E+04  0.20105461363E+04  0.00000000000E+00 0. -1.
         -2   -1    0    0    0  501 -0.00000000000E+00 -0.00000000000E+00 -0.19026881128E+04  0.19026881128E+04  0.00000000000E+00 0.  1.
        -24    2    1    2    0    0 -0.13068347032E+04  0.12938128114E+04 -0.16041017587E+03  0.18477589656E+04  0.81934352340E+02 0.  0.
        254    2    1    2    0    0  0.13068347032E+04 -0.12938128114E+04  0.26826819934E+03  0.20654752835E+04  0.90136107507E+03 0.  0.
         23    2    4    4    0    0  0.11414906905E+04 -0.65845422585E+03  0.41880879166E+03  0.13859141580E+04  0.93777850429E+02 0.  0.
         23    2    4    4    0    0  0.16534401273E+03 -0.63535858554E+03 -0.15054059232E+03  0.67956112558E+03  0.90120356707E+02 0.  0.
          3    1    3    3  502    0 -0.10896130561E+04  0.10707680694E+04 -0.10281683388E+03  0.15311342762E+04  0.00000000000E+00 0. -1.
         -4    1    3    3    0  502 -0.21722164711E+03  0.22304474198E+03 -0.57593341989E+02  0.31662468941E+03  0.00000000000E+00 0.  1.
         13    1    5    5    0    0  0.14115796531E+03 -0.80343880013E+02  0.84844691651E+02  0.18324664234E+03  0.00000000000E+00 0.  1.
        -13    1    5    5    0    0  0.10003327252E+04 -0.57811034583E+03  0.33396410001E+03  0.12026675156E+04  0.00000000000E+00 0. -1.
          1    1    6    6  503    0  0.12940171237E+03 -0.59004499588E+03 -0.14652378160E+03  0.62158436185E+03  0.00000000000E+00 0. -1.
         -1    1    6    6    0  503  0.35942300368E+02 -0.45313589666E+02 -0.40168107204E+01  0.57976763729E+02  0.00000000000E+00 0.  1.
<mgrwt>
<rscale>  0 0.39117476E+04</rscale>
<asrwt>0</asrwt>
<pdfrwt beam="1">  1        1 0.30931479E+00 0.39117476E+04</pdfrwt>
<pdfrwt beam="2">  1       -2 0.29272125E+00 0.39117476E+04</pdfrwt>
<totfact> 0.71531449E-02</totfact>
</mgrwt>
</event>
<event>
12    5  0.6095796E-008  0.1623367E+04  0.7818608E-02  0.8806320E-01
          1   -1    0    0  501    0  0.00000000000E+00  0.00000000000E+00  0.62862965494E+03  0.62862965494E+03  0.00000000000E+00 0. -1.
         -2   -1    0    0    0  501 -0.00000000000E+00 -0.00000000000E+00 -0.10480422800E+04  0.10480422800E+04  0.00000000000E+00 0.  1.
        -24    2    1    2    0    0  0.48946070118E+03 -0.83353661480E+02 -0.42390006635E+03  0.65778483630E+03  0.80436395573E+02 0.  0.
        254    2    1    2    0    0 -0.48946070118E+03  0.83353661480E+02  0.44874413269E+01  0.10188870986E+04  0.88971409547E+03 0.  0.
         23    2    4    4    0    0  0.94825618215E+02  0.42239278194E+02 -0.31510119655E+03  0.34478722051E+03  0.93879757509E+02 0.  0.
         23    2    4    4    0    0 -0.58428631939E+03  0.41114383286E+02  0.31958863788E+03  0.67409987809E+03  0.95879364992E+02 0.  0.
          1    1    3    3  502    0  0.38975808148E+01  0.58822133774E+00 -0.20734235515E+02  0.21105583691E+02  0.00000000000E+00 0. -1.
         -2    1    3    3    0  502  0.48556312036E+03 -0.83941882818E+02 -0.40316583083E+03  0.63667925261E+03  0.00000000000E+00 0.  1.
         13    1    5    5    0    0  0.54816058582E+02  0.56598165181E+02 -0.27601419175E+03  0.28704004360E+03  0.00000000000E+00 0.  1.
        -13    1    5    5    0    0  0.40009559633E+02 -0.14358886987E+02 -0.39087004796E+02  0.57747176913E+02  0.00000000000E+00 0. -1.
          3    1    6    6  503    0 -0.19568768571E+03  0.30143443520E+02  0.60928214114E+02  0.20715826028E+03  0.00000000000E+00 0. -1.
         -3    1    6    6    0  503 -0.38859863368E+03  0.10970939766E+02  0.25866042376E+03  0.46694161780E+03  0.00000000000E+00 0.  1.
<mgrwt>
<rscale>  0 0.16233674E+04</rscale>
<asrwt>0</asrwt>
<pdfrwt beam="1">  1        1 0.96712255E-01 0.16233674E+04</pdfrwt>
<pdfrwt beam="2">  1       -2 0.16123727E+00 0.16233674E+04</pdfrwt>
<totfact> 0.66110578E+00</totfact>
</mgrwt>
</event>
<event>
12    5  0.5297412E-008  0.1544294E+04  0.7818608E-02  0.8855521E-01
          1   -1    0    0  501    0  0.00000000000E+00  0.00000000000E+00  0.64934210303E+03  0.64934210303E+03  0.00000000000E+00 0. -1.
         -2   -1    0    0    0  501 -0.00000000000E+00 -0.00000000000E+00 -0.91817649935E+03  0.91817649935E+03  0.00000000000E+00 0.  1.
        -24    2    1    2    0    0 -0.31172716902E+02  0.45780758591E+03  0.12606421874E+03  0.48271944004E+03  0.81032996649E+02 0.  0.
        254    2    1    2    0    0  0.31172716902E+02 -0.45780758591E+03 -0.39489861506E+03  0.10847991623E+04  0.90015819857E+03 0.  0.
         23    2    4    4    0    0 -0.18937541932E+03  0.21268897475E+03 -0.10492535413E+03  0.31654691291E+03  0.89960928779E+02 0.  0.
         23    2    4    4    0    0  0.22054813623E+03 -0.67049656066E+03 -0.28997326094E+03  0.76825224944E+03  0.88993867561E+02 0.  0.
          1    1    3    3  502    0  0.74122334634E+01  0.25330048437E+03  0.10219590714E+03  0.27323996783E+03  0.00000000000E+00 0. -1.
         -2    1    3    3    0  502 -0.38584950366E+02  0.20450710154E+03  0.23868311609E+02  0.20947947220E+03  0.00000000000E+00 0.  1.
         13    1    5    5    0    0 -0.31601358215E+02  0.49414340963E+01 -0.32974842300E+02  0.45939131866E+02  0.00000000000E+00 0. -1.
        -13    1    5    5    0    0 -0.15777406111E+03  0.20774754065E+03 -0.71950511829E+02  0.27060778104E+03  0.00000000000E+00 0.  1.
          3    1    6    6  503    0  0.25330010877E+01 -0.38914790348E+02 -0.37171987136E+02  0.53875167100E+02  0.00000000000E+00 0. -1.
         -3    1    6    6    0  503  0.21801513514E+03 -0.63158177031E+03 -0.25280127380E+03  0.71437708234E+03  0.00000000000E+00 0.  1.
<mgrwt>
<rscale>  0 0.15442936E+04</rscale>
<asrwt>0</asrwt>
<pdfrwt beam="1">  1        1 0.99898785E-01 0.15442936E+04</pdfrwt>
<pdfrwt beam="2">  1       -2 0.14125792E+00 0.15442936E+04</pdfrwt>
<totfact> 0.90260545E+00</totfact>
</mgrwt>
</event>
<event>
12    5  0.5297412E-008  0.2177423E+04  0.7818608E-02  0.8527884E-01
          1   -1    0    0  501    0  0.00000000000E+00  0.00000000000E+00  0.23271581014E+04  0.23271581014E+04  0.00000000000E+00 0. -1.
         -2   -1    0    0    0  501 -0.00000000000E+00 -0.00000000000E+00 -0.50933076978E+03  0.50933076978E+03  0.00000000000E+00 0.  1.
        -24    2    1    2    0    0  0.89089268725E+03 -0.89652864420E+02  0.63425261949E+03  0.11000209503E+04  0.77732165609E+02 0.  0.
        254    2    1    2    0    0 -0.89089268725E+03  0.89652864420E+02  0.11835747122E+04  0.17364679209E+04  0.90152333561E+03 0.  0.
         23    2    4    4    0    0 -0.23543797805E+03 -0.24862710454E+03  0.22024572853E+02  0.35742458943E+03  0.10010382958E+03 0.  0.
         23    2    4    4    0    0 -0.65545470920E+03  0.33827996896E+03  0.11615501393E+04  0.13790433315E+04  0.92236493003E+02 0.  0.
          1    1    3    3  502    0  0.19377943110E+03 -0.27971787217E+02  0.17789817125E+03  0.26453855698E+03  0.00000000000E+00 0. -1.
         -4    1    3    3    0  502  0.69711325615E+03 -0.61681077203E+02  0.45635444825E+03  0.83548239336E+03  0.00000000000E+00 0.  1.
         13    1    5    5    0    0 -0.17374901944E+03 -0.13041624872E+03 -0.18574536502E+02  0.21804158570E+03  0.00000000000E+00 0. -1.
        -13    1    5    5    0    0 -0.61688958605E+02 -0.11821085582E+03  0.40599109355E+02  0.13938300373E+03  0.00000000000E+00 0.  1.
          2    1    6    6  503    0 -0.51980309753E+03  0.28755302273E+03  0.98985526599E+03  0.11544242932E+04  0.00000000000E+00 0. -1.
         -2    1    6    6    0  503 -0.13565161168E+03  0.50726946232E+02  0.17169487333E+03  0.22461903827E+03  0.00000000000E+00 0.  1.
<mgrwt>
<rscale>  0 0.21774235E+04</rscale>
<asrwt>0</asrwt>
<pdfrwt beam="1">  1        1 0.35802432E+00 0.21774235E+04</pdfrwt>
<pdfrwt beam="2">  1       -2 0.78358581E-01 0.21774235E+04</pdfrwt>
<totfact> 0.20724662E+00</totfact>
</mgrwt>
</event>
<event>
12    5  0.5297412E-008  0.1383304E+04  0.7818608E-02  0.8965993E-01
          1   -1    0    0  501    0  0.00000000000E+00  0.00000000000E+00  0.61540868362E+03  0.61540868362E+03  0.00000000000E+00 0. -1.
         -2   -1    0    0    0  501 -0.00000000000E+00 -0.00000000000E+00 -0.77734124691E+03  0.77734124691E+03  0.00000000000E+00 0.  1.
        -24    2    1    2    0    0 -0.24316626469E+02 -0.23892923378E+03  0.25439842184E+03  0.35828660660E+03  0.77280387945E+02 0.  0.
        254    2    1    2    0    0  0.24316626469E+02  0.23892923378E+03 -0.41633098513E+03  0.10344633239E+04  0.91602642009E+03 0.  0.
         23    2    4    4    0    0  0.32853383150E+03 -0.88786039237E+02  0.78493629001E+02  0.36111413034E+03  0.91786306904E+02 0.  0.
         23    2    4    4    0    0 -0.30421720503E+03  0.32771527301E+03 -0.49482461413E+03  0.67334919359E+03  0.92748745295E+02 0.  0.
          3    1    3    3  502    0  0.10429870774E+02 -0.58391896343E+02  0.10820295279E+03  0.12339479225E+03  0.00000000000E+00 0. -1.
         -4    1    3    3    0  502 -0.34746497243E+02 -0.18053733743E+03  0.14619546905E+03  0.23489181435E+03  0.00000000000E+00 0.  1.
         13    1    5    5    0    0  0.23328548837E+03 -0.87064261239E+02  0.90836592466E+02  0.26505394017E+03  0.00000000000E+00 0.  1.
        -13    1    5    5    0    0  0.95248343136E+02 -0.17217779985E+01 -0.12342963465E+02  0.96060190177E+02  0.00000000000E+00 0. -1.
          1    1    6    6  503    0 -0.12159306479E+03  0.68507562296E+02 -0.15451057506E+03  0.20821065607E+03  0.00000000000E+00 0. -1.
         -1    1    6    6    0  503 -0.18262414024E+03  0.25920771072E+03 -0.34031403907E+03  0.46513853752E+03  0.00000000000E+00 0.  1.
<mgrwt>
<rscale>  0 0.13833041E+04</rscale>
<asrwt>0</asrwt>
<pdfrwt beam="1">  1        1 0.94678259E-01 0.13833041E+04</pdfrwt>
<pdfrwt beam="2">  1       -2 0.11959096E+00 0.13833041E+04</pdfrwt>
<totfact> 0.15100768E+01</totfact>
</mgrwt>
</event>
<event>
12    5  0.5297412E-008  0.1506637E+04  0.7818608E-02  0.8880052E-01
          1   -1    0    0  501    0  0.00000000000E+00  0.00000000000E+00  0.10262621369E+04  0.10262621369E+04  0.00000000000E+00 0. -1.
         -2   -1    0    0    0  501 -0.00000000000E+00 -0.00000000000E+00 -0.55296644850E+03  0.55296644850E+03  0.00000000000E+00 0.  1.
        -24    2    1    2    0    0 -0.24543753480E+03 -0.41386776480E+03  0.62042466003E+02  0.49162145223E+03  0.79474992772E+02 0.  0.
        254    2    1    2    0    0  0.24543753480E+03  0.41386776480E+03  0.41125322240E+03  0.10876071332E+04  0.88443990918E+03 0.  0.
         23    2    4    4    0    0  0.11985715215E+02 -0.19290319444E+03 -0.11827755210E+03  0.24413923391E+03  0.90879515890E+02 0.  0.
         23    2    4    4    0    0  0.23345181958E+03  0.60677095924E+03  0.52953077450E+03  0.84346789926E+03  0.91457678124E+02 0.  0.
          1    1    3    3  502    0 -0.10534559408E+03 -0.16607313152E+03 -0.13451022232E+02  0.19712663240E+03  0.00000000000E+00 0. -1.
         -2    1    3    3    0  502 -0.14009194072E+03 -0.24779463329E+03  0.75493488235E+02  0.29449481983E+03  0.00000000000E+00 0.  1.
         13    1    5    5    0    0 -0.20886325955E+02 -0.17475403743E+03 -0.95964610398E+02  0.20046051645E+03  0.00000000000E+00 0. -1.
        -13    1    5    5    0    0  0.32872041170E+02 -0.18149157014E+02 -0.22312941699E+02  0.43678717452E+02  0.00000000000E+00 0.  1.
          2    1    6    6  503    0  0.20736066747E+03  0.52940780328E+03  0.49839599496E+03  0.75608837868E+03  0.00000000000E+00 0. -1.
         -2    1    6    6    0  503  0.26091152118E+02  0.77363155960E+02  0.31134779545E+02  0.87379520576E+02  0.00000000000E+00 0.  1.
<mgrwt>
<rscale>  0 0.15066367E+04</rscale>
<asrwt>0</asrwt>
<pdfrwt beam="1">  1        1 0.15788648E+00 0.15066367E+04</pdfrwt>
<pdfrwt beam="2">  1       -2 0.85071762E-01 0.15066367E+04</pdfrwt>
<totfact> 0.14715233E+01</totfact>
</mgrwt>
</event>
<event>
12    5  0.5297412E-008  0.1961867E+04  0.7818608E-02  0.8624659E-01
          1   -1    0    0  501    0  0.00000000000E+00  0.00000000000E+00  0.15996369753E+04  0.15996369753E+04  0.00000000000E+00 0. -1.
         -2   -1    0    0    0  501 -0.00000000000E+00 -0.00000000000E+00 -0.60153082224E+03  0.60153082224E+03  0.00000000000E+00 0.  1.
        -24    2    1    2    0    0  0.55599876480E+03 -0.41014507185E+03  0.79584136795E+03  0.10568274057E+04  0.78530733767E+02 0.  0.
        254    2    1    2    0    0 -0.55599876480E+03  0.41014507185E+03  0.20226478509E+03  0.11443403918E+04  0.88952250258E+03 0.  0.
         23    2    4    4    0    0 -0.38080684007E+01  0.27123982383E+03  0.43667467617E+03  0.52167861439E+03  0.88759565599E+02 0.  0.
         23    2    4    4    0    0 -0.55219069640E+03  0.13890524802E+03 -0.23440989108E+03  0.62266177741E+03  0.92468691441E+02 0.  0.
          3    1    3    3  502    0  0.82551347958E+02 -0.66375519426E+02  0.16814679825E+03  0.19873042140E+03  0.00000000000E+00 0. -1.
         -4    1    3    3    0  502  0.47344741684E+03 -0.34376955242E+03  0.62769456970E+03  0.85809698433E+03  0.00000000000E+00 0.  1.
         13    1    5    5    0    0 -0.37673985320E+02  0.18439825313E+03  0.24895410221E+03  0.31209003498E+03  0.00000000000E+00 0.  1.
        -13    1    5    5    0    0  0.33865916920E+02  0.86841570707E+02  0.18772057396E+03  0.20958857941E+03  0.00000000000E+00 0. -1.
          2    1    6    6  503    0 -0.23282701097E+03  0.79839539856E+02 -0.57251525114E+02  0.25270636377E+03  0.00000000000E+00 0. -1.
         -2    1    6    6    0  503 -0.31936368542E+03  0.59065708161E+02 -0.17715836596E+03  0.36995541364E+03  0.00000000000E+00 0.  1.
<mgrwt>
<rscale>  0 0.19618674E+04</rscale>
<asrwt>0</asrwt>
<pdfrwt beam="1">  1        1 0.24609799E+00 0.19618674E+04</pdfrwt>
<pdfrwt beam="2">  1       -2 0.92543204E-01 0.19618674E+04</pdfrwt>
<totfact> 0.45190915E+00</totfact>
</mgrwt>
</event>
<event>
12    5  0.5297412E-008  0.1080045E+04  0.7818608E-02  0.9224863E-01
          3   -1    0    0  501    0  0.00000000000E+00  0.00000000000E+00  0.39601970328E+03  0.39601970328E+03  0.00000000000E+00 0. -1.
         -4   -1    0    0    0  501 -0.00000000000E+00 -0.00000000000E+00 -0.73638838012E+03  0.73638838012E+03  0.00000000000E+00 0.  1.
        -24    2    1    2    0    0  0.10366320956E+03  0.95683783463E+02 -0.93455127967E+02  0.18665312504E+03  0.78765986997E+02 0.  0.
        254    2    1    2    0    0 -0.10366320956E+03 -0.95683783463E+02 -0.24691354887E+03  0.94575495836E+03  0.90198929773E+03 0.  0.
         23    2    4    4    0    0 -0.24260546144E+03  0.29471907712E+03  0.92107495338E+02  0.40343608339E+03  0.92521015677E+02 0.  0.
         23    2    4    4    0    0  0.13894225188E+03 -0.39040286058E+03 -0.33902104421E+03  0.54231887497E+03  0.86343215302E+02 0.  0.
          1    1    3    3  502    0 -0.53258407225E+01  0.19734654104E+02  0.53102593288E+01  0.21119185736E+02  0.00000000000E+00 0. -1.
         -2    1    3    3    0  502  0.10898905028E+03  0.75949129359E+02 -0.98765387296E+02  0.16553393930E+03  0.00000000000E+00 0.  1.
         13    1    5    5    0    0 -0.21717491282E+03  0.20326895510E+03  0.77570893808E+02  0.30740926211E+03  0.00000000000E+00 0. -1.
        -13    1    5    5    0    0 -0.25430548627E+02  0.91450122021E+02  0.14536601530E+02  0.96026821280E+02  0.00000000000E+00 0.  1.
          2    1    6    6  503    0  0.58410990164E+02 -0.80653928861E+02 -0.51613007578E+02  0.11216417683E+03  0.00000000000E+00 0. -1.
         -2    1    6    6    0  503  0.80531261717E+02 -0.30974893172E+03 -0.28740803663E+03  0.43015469815E+03  0.00000000000E+00 0.  1.
<mgrwt>
<rscale>  0 0.10800450E+04</rscale>
<asrwt>0</asrwt>
<pdfrwt beam="1">  1        3 0.60926109E-01 0.10800450E+04</pdfrwt>
<pdfrwt beam="2">  1       -4 0.11329052E+00 0.10800450E+04</pdfrwt>
<totfact> 0.36419673E+00</totfact>
</mgrwt>
</event>
<event>
12    5  0.5297412E-008  0.2202207E+04  0.7818608E-02  0.8517510E-01
          1   -1    0    0  501    0  0.00000000000E+00  0.00000000000E+00  0.10886908048E+04  0.10886908048E+04  0.00000000000E+00 0. -1.
         -2   -1    0    0    0  501 -0.00000000000E+00 -0.00000000000E+00 -0.11136572417E+04  0.11136572417E+04  0.00000000000E+00 0.  1.
        -24    2    1    2    0    0  0.85511784807E+03 -0.32028139798E+03  0.43235587504E+01  0.91667246276E+03  0.80392803471E+02 0.  0.
        254    2    1    2    0    0 -0.85511784807E+03  0.32028139798E+03 -0.29289995619E+02  0.12856755837E+04  0.90459775301E+03 0.  0.
         23    2    4    4    0    0 -0.51011624858E+03 -0.27125159236E+03  0.66436088088E+02  0.58846608257E+03  0.89903076230E+02 0.  0.
         23    2    4    4    0    0 -0.34500159949E+03  0.59153299033E+03 -0.95726083707E+02  0.69720950115E+03  0.89443966160E+02 0.  0.
          1    1    3    3  502    0  0.31989206616E+03 -0.10561787920E+03  0.38044938817E+02  0.33901841803E+03  0.00000000000E+00 0. -1.
         -2    1    3    3    0  502  0.53522578191E+03 -0.21466351878E+03 -0.33721380066E+02  0.57765404473E+03  0.00000000000E+00 0.  1.
         13    1    5    5    0    0 -0.38600412831E+03 -0.23514844381E+03  0.24798686617E+02  0.45266870067E+03  0.00000000000E+00 0. -1.
        -13    1    5    5    0    0 -0.12411212026E+03 -0.36103148543E+02  0.41637401471E+02  0.13579738190E+03  0.00000000000E+00 0.  1.
          3    1    6    6  503    0 -0.13364223598E+03  0.27205155427E+03 -0.31816216754E+01  0.30312112782E+03  0.00000000000E+00 0. -1.
         -3    1    6    6    0  503 -0.21135936351E+03  0.31948143607E+03 -0.92544462032E+02  0.39408837332E+03  0.00000000000E+00 0.  1.
<mgrwt>
<rscale>  0 0.22022065E+04</rscale>
<asrwt>0</asrwt>
<pdfrwt beam="1">  1        1 0.16749089E+00 0.22022065E+04</pdfrwt>
<pdfrwt beam="2">  1       -2 0.17133188E+00 0.22022065E+04</pdfrwt>
<totfact> 0.21555833E+00</totfact>
</mgrwt>
</event>
<event>
12    5  0.5297412E-008  0.1113537E+04  0.7818608E-02  0.9192097E-01
          1   -1    0    0  501    0  0.00000000000E+00  0.00000000000E+00  0.30329163687E+03  0.30329163687E+03  0.00000000000E+00 0. -1.
         -2   -1    0    0    0  501 -0.00000000000E+00 -0.00000000000E+00 -0.10220890916E+04  0.10220890916E+04  0.00000000000E+00 0.  1.
        -24    2    1    2    0    0  0.71183398126E+02 -0.12067682278E+03 -0.23291947893E+03  0.28765919901E+03  0.94161347608E+02 0.  0.
        254    2    1    2    0    0 -0.71183398126E+02  0.12067682278E+03 -0.48587797579E+03  0.10377215294E+04  0.90617801429E+03 0.  0.
         23    2    4    4    0    0 -0.31311639215E+03 -0.22396091814E+03 -0.10428308322E+02  0.39543238352E+03  0.89764427447E+02 0.  0.
         23    2    4    4    0    0  0.24193299402E+03  0.34463774093E+03 -0.47544966746E+03  0.64228914592E+03  0.95792560297E+02 0.  0.
          3    1    3    3  502    0  0.31593048500E+02 -0.86440172935E+02 -0.67433995758E+02  0.11409368078E+03  0.00000000000E+00 0. -1.
         -4    1    3    3    0  502  0.39590349626E+02 -0.34236649849E+02 -0.16548548318E+03  0.17356551823E+03  0.00000000000E+00 0.  1.
         13    1    5    5    0    0 -0.23084291667E+03 -0.14466570026E+03  0.30340345257E+02  0.27411157137E+03  0.00000000000E+00 0.  1.
        -13    1    5    5    0    0 -0.82273475477E+02 -0.79295217879E+02 -0.40768653579E+02  0.12132081215E+03  0.00000000000E+00 0. -1.
          3    1    6    6  503    0  0.18498049615E+03  0.26291137392E+03 -0.29569522570E+03  0.43677893836E+03  0.00000000000E+00 0. -1.
         -3    1    6    6    0  503  0.56952497876E+02  0.81726367002E+02 -0.17975444176E+03  0.20551020756E+03  0.00000000000E+00 0.  1.
<mgrwt>
<rscale>  0 0.11135368E+04</rscale>
<asrwt>0</asrwt>
<pdfrwt beam="1">  1        1 0.46660253E-01 0.11135368E+04</pdfrwt>
<pdfrwt beam="2">  1       -2 0.15724447E+00 0.11135368E+04</pdfrwt>
<totfact> 0.19807620E+01</totfact>
</mgrwt>
</event>
<event>
12    5  0.5297412E-008  0.2901381E+04  0.7818608E-02  0.8272467E-01
         -2   -1    0    0    0  501 -0.00000000000E+00  0.00000000000E+00  0.11035119093E+04  0.11035119093E+04  0.00000000000E+00 0.  1.
          1   -1    0    0  501    0  0.00000000000E+00 -0.00000000000E+00 -0.19070957629E+04  0.19070957629E+04  0.00000000000E+00 0. -1.
        -24    2    1    2    0    0  0.16978246438E+02  0.49422340935E+03  0.89589426882E+03  0.10265795708E+04  0.81817083582E+02 0.  0.
        254    2    1    2    0    0 -0.16978246438E+02 -0.49422340935E+03 -0.16994781225E+04  0.19840281014E+04  0.89643548527E+03 0.  0.
         23    2    4    4    0    0 -0.36088949117E+03  0.33700724529E+02 -0.48059296223E+03  0.60900467390E+03  0.92412844428E+02 0.  0.
         23    2    4    4    0    0  0.34391124473E+03 -0.52792413388E+03 -0.12188851602E+04  0.13750234275E+04  0.89607795345E+02 0.  0.
          1    1    3    3  502    0 -0.18974360603E+02  0.34923794633E+03  0.66937049307E+03  0.75523772847E+03  0.00000000000E+00 0. -1.
         -2    1    3    3    0  502  0.35952607042E+02  0.14498546303E+03  0.22652377575E+03  0.27134184237E+03  0.00000000000E+00 0.  1.
         13    1    5    5    0    0 -0.35807563079E+03  0.25480138270E+02 -0.48113552514E+03  0.60029891585E+03  0.00000000000E+00 0. -1.
        -13    1    5    5    0    0 -0.28138603785E+01  0.82205862594E+01  0.54256291725E+00  0.87057580484E+01  0.00000000000E+00 0.  1.
          3    1    6    6  503    0  0.20790010135E+03 -0.26586992831E+03 -0.57630988589E+03  0.66786402470E+03  0.00000000000E+00 0. -1.
         -3    1    6    6    0  503  0.13601114338E+03 -0.26205420557E+03 -0.64257527434E+03  0.70715940280E+03  0.00000000000E+00 0.  1.
<mgrwt>
<rscale>  0 0.29013810E+04</rscale>
<asrwt>0</asrwt>
<pdfrwt beam="1">  1        1 0.29339934E+00 0.29013810E+04</pdfrwt>
<pdfrwt beam="2">  1       -2 0.16977107E+00 0.29013810E+04</pdfrwt>
<totfact> 0.55610023E-01</totfact>
</mgrwt>
</event>
<event>
12    5  0.5297412E-008  0.1309448E+04  0.7818608E-02  0.9022106E-01
          1   -1    0    0  501    0  0.00000000000E+00  0.00000000000E+00  0.76185451626E+03  0.76185451626E+03  0.00000000000E+00 0. -1.
         -2   -1    0    0    0  501 -0.00000000000E+00 -0.00000000000E+00 -0.56265825946E+03  0.56265825946E+03  0.00000000000E+00 0.  1.
        -24    2    1    2    0    0 -0.15323821030E+03 -0.18105402963E+03 -0.19420689026E+03  0.31680913830E+03  0.79932491173E+02 0.  0.
        254    2    1    2    0    0  0.15323821030E+03  0.18105402963E+03  0.39340314706E+03  0.10077036374E+04  0.89690471847E+03 0.  0.
         23    2    4    4    0    0 -0.18004895199E+02 -0.32800219058E+03  0.30081259085E+03  0.45430950667E+03  0.89438804566E+02 0.  0.
         23    2    4    4    0    0  0.17124310550E+03  0.50905622021E+03  0.92590556210E+02  0.55339413075E+03  0.95966745973E+02 0.  0.
          1    1    3    3  502    0 -0.98982891809E+02 -0.99483285560E+02 -0.64994399595E+02  0.15465706888E+03  0.00000000000E+00 0. -1.
         -2    1    3    3    0  502 -0.54255318492E+02 -0.81570744071E+02 -0.12921249067E+03  0.16215206942E+03  0.00000000000E+00 0.  1.
         13    1    5    5    0    0  0.23921397967E+02 -0.25599200777E+03  0.22503789890E+03  0.34168142657E+03  0.00000000000E+00 0. -1.
        -13    1    5    5    0    0 -0.41926293166E+02 -0.72010182813E+02  0.75774691952E+02  0.11262808010E+03  0.00000000000E+00 0.  1.
          2    1    6    6  503    0  0.17403064929E+03  0.51091922144E+03  0.86767964673E+02  0.54667522115E+03  0.00000000000E+00 0. -1.
         -2    1    6    6    0  503 -0.27875437900E+01 -0.18630012296E+01  0.58225915368E+01  0.67189095966E+01  0.00000000000E+00 0.  1.
<mgrwt>
<rscale>  0 0.13094483E+04</rscale>
<asrwt>0</asrwt>
<pdfrwt beam="1">  1        1 0.11720839E+00 0.13094483E+04</pdfrwt>
<pdfrwt beam="2">  1       -2 0.86562809E-01 0.13094483E+04</pdfrwt>
<totfact> 0.23758236E+01</totfact>
</mgrwt>
</event>
<event>
12    5  0.5297412E-008  0.1513300E+04  0.7818608E-02  0.8875656E-01
         -2   -1    0    0    0  501 -0.00000000000E+00  0.00000000000E+00  0.50726596304E+03  0.50726596304E+03  0.00000000000E+00 0.  1.
          1   -1    0    0  501    0  0.00000000000E+00 -0.00000000000E+00 -0.11286376943E+04  0.11286376943E+04  0.00000000000E+00 0. -1.
        -24    2    1    2    0    0  0.19657870349E+03 -0.38361151406E+03 -0.43842632817E+03  0.61971489855E+03  0.77639744132E+02 0.  0.
        254    2    1    2    0    0 -0.19657870349E+03  0.38361151406E+03 -0.18294540313E+03  0.10161887588E+04  0.90187005307E+03 0.  0.
         23    2    4    4    0    0 -0.10052735038E+02 -0.24177926837E+03 -0.24270852490E+03  0.35460347929E+03  0.90983115839E+02 0.  0.
         23    2    4    4    0    0 -0.18652596845E+03  0.62539078243E+03  0.59763121778E+02  0.66158527953E+03  0.90652543884E+02 0.  0.
          1    1    3    3  502    0  0.16793553256E+03 -0.36739726369E+03 -0.41616417834E+03  0.57997906497E+03  0.00000000000E+00 0. -1.
         -2    1    3    3    0  502  0.28643170925E+02 -0.16214250369E+02 -0.22262149830E+02  0.39735833585E+02  0.00000000000E+00 0.  1.
         13    1    5    5    0    0 -0.32938192836E+02 -0.41236106076E+02 -0.27352261169E+02  0.59443142436E+02  0.00000000000E+00 0.  1.
        -13    1    5    5    0    0  0.22885457798E+02 -0.20054316229E+03 -0.21535626373E+03  0.29516033685E+03  0.00000000000E+00 0. -1.
          2    1    6    6  503    0 -0.14662291479E+03  0.33783045750E+03  0.43128422851E+02  0.37079341689E+03  0.00000000000E+00 0. -1.
         -2    1    6    6    0  503 -0.39903053657E+02  0.28756032493E+03  0.16634698927E+02  0.29079186264E+03  0.00000000000E+00 0.  1.
<mgrwt>
<rscale>  0 0.15133003E+04</rscale>
<asrwt>0</asrwt>
<pdfrwt beam="1">  1        1 0.17363657E+00 0.15133003E+04</pdfrwt>
<pdfrwt beam="2">  1       -2 0.78040918E-01 0.15133003E+04</pdfrwt>
<totfact> 0.14943415E+01</totfact>
</mgrwt>
</event>
<event>
12    5  0.5297412E-008  0.1520423E+04  0.7818608E-02  0.8870984E-01
          1   -1    0    0  501    0  0.00000000000E+00  0.00000000000E+00  0.76104137726E+03  0.76104137726E+03  0.00000000000E+00 0. -1.
         -2   -1    0    0    0  501 -0.00000000000E+00 -0.00000000000E+00 -0.75938292897E+03  0.75938292897E+03  0.00000000000E+00 0.  1.
        -24    2    1    2    0    0  0.22492634902E+03  0.42236721547E+03 -0.57189434374E+02  0.48835065466E+03  0.78929103065E+02 0.  0.
        254    2    1    2    0    0 -0.22492634902E+03 -0.42236721547E+03  0.58847882659E+02  0.10320736516E+04  0.91253877824E+03 0.  0.
         23    2    4    4    0    0 -0.39031871651E+03 -0.39638286740E+03 -0.29103870580E+03  0.63414229518E+03  0.89245976025E+02 0.  0.
         23    2    4    4    0    0  0.16539236749E+03 -0.25984348074E+02  0.34988658846E+03  0.39793135639E+03  0.88875857514E+02 0.  0.
          1    1    3    3  502    0  0.47094739420E+01  0.44520209511E+02  0.10028161590E+02  0.45878014610E+02  0.00000000000E+00 0. -1.
         -2    1    3    3    0  502  0.22021687507E+03  0.37784700596E+03 -0.67217595963E+02  0.44247264005E+03  0.00000000000E+00 0.  1.
         13    1    5    5    0    0 -0.53846383567E+02 -0.10583846425E+03 -0.56326869980E+02  0.13143032306E+03  0.00000000000E+00 0. -1.
        -13    1    5    5    0    0 -0.33647233294E+03 -0.29054440315E+03 -0.23471183582E+03  0.50271197212E+03  0.00000000000E+00 0.  1.
          1    1    6    6  503    0  0.17367248989E+02  0.21627467785E+02  0.23330439629E+02  0.36244697730E+02  0.00000000000E+00 0. -1.
         -1    1    6    6    0  503  0.14802511851E+03 -0.47611815860E+02  0.32655614883E+03  0.36168665866E+03  0.00000000000E+00 0.  1.
<mgrwt>
<rscale>  0 0.15204234E+04</rscale>
<asrwt>0</asrwt>
<pdfrwt beam="1">  1        1 0.11708329E+00 0.15204234E+04</pdfrwt>
<pdfrwt beam="2">  1       -2 0.11682814E+00 0.15204234E+04</pdfrwt>
<totfact> 0.11485436E+01</totfact>
</mgrwt>
</event>
<event>
12    5  0.5297412E-008  0.1307584E+04  0.7818608E-02  0.9023572E-01
         -2   -1    0    0    0  501 -0.00000000000E+00  0.00000000000E+00  0.36157011876E+03  0.36157011876E+03  0.00000000000E+00 0.  1.
          1   -1    0    0  501    0  0.00000000000E+00 -0.00000000000E+00 -0.11821885258E+04  0.11821885258E+04  0.00000000000E+00 0. -1.
        -24    2    1    2    0    0  0.15856780429E+03  0.27553094894E+03 -0.76627293198E+02  0.33765895526E+03  0.84147344687E+02 0.  0.
        254    2    1    2    0    0 -0.15856780429E+03 -0.27553094894E+03 -0.74399111385E+03  0.12060996893E+04  0.89447897162E+03 0.  0.
         23    2    4    4    0    0  0.15543471615E+03 -0.51287664797E+03 -0.46379230911E+03  0.71445836606E+03  0.90249896552E+02 0.  0.
         23    2    4    4    0    0 -0.31400252044E+03  0.23734569902E+03 -0.28019880473E+03  0.49164132324E+03  0.90935454360E+02 0.  0.
          1    1    3    3  502    0  0.16344859303E+03  0.23033190164E+03 -0.74755921647E+02  0.29215864749E+03  0.00000000000E+00 0. -1.
         -2    1    3    3    0  502 -0.48807887434E+01  0.45199047301E+02 -0.18713715507E+01  0.45500307770E+02  0.00000000000E+00 0.  1.
         13    1    5    5    0    0  0.65911921028E+02 -0.24283062845E+03 -0.27647601948E+03  0.37383162626E+03  0.00000000000E+00 0.  1.
        -13    1    5    5    0    0  0.89522795120E+02 -0.27004601952E+03 -0.18731628963E+03  0.34062673980E+03  0.00000000000E+00 0. -1.
          4    1    6    6  503    0 -0.26092391557E+03  0.14807108542E+03 -0.21306284022E+03  0.36797025686E+03  0.00000000000E+00 0. -1.
         -4    1    6    6    0  503 -0.53078604870E+02  0.89274613597E+02 -0.67135964517E+02  0.12367106638E+03  0.00000000000E+00 0.  1.
<mgrwt>
<rscale>  0 0.13075841E+04</rscale>
<asrwt>0</asrwt>
<pdfrwt beam="1">  1        1 0.18187516E+00 0.13075841E+04</pdfrwt>
<pdfrwt beam="2">  1       -2 0.55626172E-01 0.13075841E+04</pdfrwt>
<totfact> 0.28795928E+01</totfact>
</mgrwt>
</event>
<event>
12    5  0.5297412E-008  0.1368113E+04  0.7818608E-02  0.8977229E-01
         -2   -1    0    0    0  501 -0.00000000000E+00  0.00000000000E+00  0.23849065923E+03  0.23849065923E+03  0.00000000000E+00 0.  1.
          1   -1    0    0  501    0  0.00000000000E+00 -0.00000000000E+00 -0.19620607266E+04  0.19620607266E+04  0.00000000000E+00 0. -1.
        -24    2    1    2    0    0  0.36882925042E+03 -0.73404535387E+02 -0.33245979923E+03  0.50812928431E+03  0.79010187296E+02 0.  0.
        254    2    1    2    0    0 -0.36882925042E+03  0.73404535387E+02 -0.13911102682E+04  0.16924221015E+04  0.88751425328E+03 0.  0.
         23    2    4    4    0    0 -0.46544372412E+03  0.39156033704E+03 -0.97479048853E+03  0.11525854101E+04  0.90990511350E+02 0.  0.
         23    2    4    4    0    0  0.96614473702E+02 -0.31815580165E+03 -0.41631977964E+03  0.53983669144E+03  0.86856340369E+02 0.  0.
          1    1    3    3  502    0  0.17830091343E+03 -0.49585758998E+02 -0.21220605374E+03  0.28156948072E+03  0.00000000000E+00 0. -1.
         -2    1    3    3    0  502  0.19052833698E+03 -0.23818776389E+02 -0.12025374549E+03  0.22655980360E+03  0.00000000000E+00 0.  1.
         13    1    5    5    0    0 -0.24174889726E+03  0.14834114869E+03 -0.41876341218E+03  0.50577704683E+03  0.00000000000E+00 0. -1.
        -13    1    5    5    0    0 -0.22369482686E+03  0.24321918835E+03 -0.55602707635E+03  0.64680836325E+03  0.00000000000E+00 0.  1.
          1    1    6    6  503    0  0.77113273033E+02 -0.12431395858E+03 -0.14649096902E+03  0.20702661950E+03  0.00000000000E+00 0. -1.
         -1    1    6    6    0  503  0.19501200670E+02 -0.19384184306E+03 -0.26982881062E+03  0.33281007195E+03  0.00000000000E+00 0.  1.
<mgrwt>
<rscale>  0 0.13681128E+04</rscale>
<asrwt>0</asrwt>
<pdfrwt beam="1">  1        1 0.30185549E+00 0.13681128E+04</pdfrwt>
<pdfrwt beam="2">  1       -2 0.36690871E-01 0.13681128E+04</pdfrwt>
<totfact> 0.18999418E+01</totfact>
</mgrwt>
</event>
<event>
12    5  0.5297412E-008  0.1594771E+04  0.7818608E-02  0.8823767E-01
         -2   -1    0    0    0  501 -0.00000000000E+00  0.00000000000E+00  0.27639004110E+03  0.27639004110E+03  0.00000000000E+00 0.  1.
          1   -1    0    0  501    0  0.00000000000E+00 -0.00000000000E+00 -0.23004585654E+04  0.23004585654E+04  0.00000000000E+00 0. -1.
        -24    2    1    2    0    0 -0.27069426202E+02 -0.40839439391E+03 -0.12579144109E+04  0.13253226182E+04  0.81318154010E+02 0.  0.
        254    2    1    2    0    0  0.27069426202E+02  0.40839439391E+03 -0.76615411334E+03  0.12515259883E+04  0.90100301842E+03 0.  0.
         23    2    4    4    0    0  0.18282171485E+03 -0.23102132910E+03 -0.35882925408E+03  0.47245303562E+03  0.87514589479E+02 0.  0.
         23    2    4    4    0    0 -0.15575228865E+03  0.63941572301E+03 -0.40732485926E+03  0.77907295268E+03  0.89049886972E+02 0.  0.
          1    1    3    3  502    0 -0.33490850802E+02 -0.40641633763E+03 -0.12505209183E+04  0.13153320659E+04  0.00000000000E+00 0. -1.
         -2    1    3    3    0  502  0.64214246006E+01 -0.19780562851E+01 -0.73934926529E+01  0.99905522458E+01  0.00000000000E+00 0.  1.
         13    1    5    5    0    0 -0.89624228754E+01 -0.90635657082E+01 -0.75954612281E+01  0.14837933765E+02  0.00000000000E+00 0. -1.
        -13    1    5    5    0    0  0.19178413773E+03 -0.22195776339E+03 -0.35123379285E+03  0.45761510186E+03  0.00000000000E+00 0.  1.
          1    1    6    6  503    0 -0.49024742104E+02  0.25333384506E+03 -0.20923860704E+03  0.33220815322E+03  0.00000000000E+00 0. -1.
         -1    1    6    6    0  503 -0.10672754655E+03  0.38608187795E+03 -0.19808625222E+03  0.44686479946E+03  0.00000000000E+00 0.  1.
<mgrwt>
<rscale>  0 0.15947713E+04</rscale>
<asrwt>0</asrwt>
<pdfrwt beam="1">  1        1 0.35391670E+00 0.15947713E+04</pdfrwt>
<pdfrwt beam="2">  1       -2 0.42521546E-01 0.15947713E+04</pdfrwt>
<totfact> 0.82290480E+00</totfact>
</mgrwt>
</event>
<event>
12    5  0.5297412E-008  0.1145627E+04  0.7818608E-02  0.9161827E-01
          1   -1    0    0  501    0  0.00000000000E+00  0.00000000000E+00  0.14765066454E+04  0.14765066454E+04  0.00000000000E+00 0. -1.
         -2   -1    0    0    0  501 -0.00000000000E+00 -0.00000000000E+00 -0.22222402683E+03  0.22222402683E+03  0.00000000000E+00 0.  1.
        -24    2    1    2    0    0  0.97943424875E+02  0.64350212737E+02 -0.10758689320E+02  0.14238013044E+03  0.80140425465E+02 0.  0.
        254    2    1    2    0    0 -0.97943424875E+02 -0.64350212737E+02  0.12650413079E+04  0.15563505418E+04  0.89897921772E+03 0.  0.
         23    2    4    4    0    0  0.39025938514E+03 -0.46941373097E+02  0.48071305024E+03  0.62786319725E+03  0.92850835202E+02 0.  0.
         23    2    4    4    0    0 -0.48820281001E+03 -0.17408839641E+02  0.78432825770E+03  0.92848734457E+03  0.90955383627E+02 0.  0.
          1    1    3    3  502    0  0.42386026615E+02 -0.10534653313E+02 -0.21208887701E+02  0.48552766040E+02  0.00000000000E+00 0. -1.
         -2    1    3    3    0  502  0.55557398260E+02  0.74884866051E+02  0.10450198381E+02  0.93827364404E+02  0.00000000000E+00 0.  1.
         13    1    5    5    0    0  0.37560827353E+03 -0.63219077044E+02  0.46401484253E+03  0.60032324704E+03  0.00000000000E+00 0. -1.
        -13    1    5    5    0    0  0.14651111604E+02  0.16277703947E+02  0.16698207716E+02  0.27539950217E+02  0.00000000000E+00 0.  1.
          1    1    6    6  503    0 -0.47996358604E+03 -0.13430295631E+02  0.73240386726E+03  0.87576300535E+03  0.00000000000E+00 0. -1.
         -1    1    6    6    0  503 -0.82392239705E+01 -0.39785440094E+01  0.51924390438E+02  0.52724339223E+02  0.00000000000E+00 0.  1.
<mgrwt>
<rscale>  0 0.11456269E+04</rscale>
<asrwt>0</asrwt>
<pdfrwt beam="1">  1        1 0.22715486E+00 0.11456269E+04</pdfrwt>
<pdfrwt beam="2">  1       -2 0.34188313E-01 0.11456269E+04</pdfrwt>
<totfact> 0.47432430E+01</totfact>
</mgrwt>
</event>
<event>
12    5  0.5297412E-008  0.2534010E+04  0.7818608E-02  0.8390969E-01
          1   -1    0    0  501    0  0.00000000000E+00  0.00000000000E+00  0.18587389070E+04  0.18587389070E+04  0.00000000000E+00 0. -1.
         -2   -1    0    0    0  501 -0.00000000000E+00 -0.00000000000E+00 -0.86365089362E+03  0.86365089362E+03  0.00000000000E+00 0.  1.
        -24    2    1    2    0    0  0.78957021580E+03  0.37107770132E+03  0.11579143052E+04  0.14534011152E+04  0.10241814987E+03 0.  0.
        254    2    1    2    0    0 -0.78957021580E+03 -0.37107770132E+03 -0.16282629175E+03  0.12689886855E+04  0.90702816739E+03 0.  0.
         23    2    4    4    0    0 -0.88196012389E+03 -0.32388968718E+03 -0.37477491556E+03  0.10156616912E+04  0.91401554011E+02 0.  0.
         23    2    4    4    0    0  0.92389908090E+02 -0.47188014135E+02  0.21194862381E+03  0.25332699424E+03  0.92139801818E+02 0.  0.
          1    1    3    3  502    0  0.52413893792E+03  0.28425773136E+03  0.73231332281E+03  0.94435527575E+03  0.00000000000E+00 0. -1.
         -2    1    3    3    0  502  0.26543127789E+03  0.86819969961E+02  0.42560098235E+03  0.50904583943E+03  0.00000000000E+00 0.  1.
         13    1    5    5    0    0 -0.54690072379E+03 -0.15320104854E+03 -0.22421611667E+03  0.61060939228E+03  0.00000000000E+00 0. -1.
        -13    1    5    5    0    0 -0.33505940010E+03 -0.17068863864E+03 -0.15055879889E+03  0.40505229894E+03  0.00000000000E+00 0.  1.
          4    1    6    6  503    0  0.43242669515E+02  0.23711138276E+02  0.10433769491E+03  0.11540581062E+03  0.00000000000E+00 0.  1.
         -4    1    6    6    0  503  0.49147238575E+02 -0.70899152411E+02  0.10761092890E+03  0.13792118362E+03  0.00000000000E+00 0. -1.
<mgrwt>
<rscale>  0 0.25340099E+04</rscale>
<asrwt>0</asrwt>
<pdfrwt beam="1">  1        1 0.28595983E+00 0.25340099E+04</pdfrwt>
<pdfrwt beam="2">  1       -2 0.13286937E+00 0.25340099E+04</pdfrwt>
<totfact> 0.11883597E+00</totfact>
</mgrwt>
</event>
<event>
12    5  0.5297412E-008  0.1587927E+04  0.7818608E-02  0.8827999E-01
         -2   -1    0    0    0  501 -0.00000000000E+00  0.00000000000E+00  0.60419027770E+03  0.60419027770E+03  0.00000000000E+00 0.  1.
          1   -1    0    0  501    0  0.00000000000E+00 -0.00000000000E+00 -0.10433436477E+04  0.10433436477E+04  0.00000000000E+00 0. -1.
        -24    2    1    2    0    0 -0.94813718086E+02 -0.41536459691E+03 -0.47664518910E+03  0.64479350311E+03  0.83968064469E+02 0.  0.
        254    2    1    2    0    0  0.94813718086E+02  0.41536459691E+03  0.37491819069E+02  0.10027404223E+04  0.90695387345E+03 0.  0.
         23    2    4    4    0    0 -0.12690847009E+03 -0.24411441086E+03 -0.64139955213E+02  0.29380597138E+03  0.80687109227E+02 0.  0.
         23    2    4    4    0    0  0.22172218817E+03  0.65947900777E+03  0.10163177428E+03  0.70893445095E+03  0.90475122438E+02 0.  0.
          1    1    3    3  502    0 -0.78513855045E+02 -0.33920711162E+03 -0.33510257759E+03  0.48323868586E+03  0.00000000000E+00 0. -1.
         -2    1    3    3    0  502 -0.16299863040E+02 -0.76157485295E+02 -0.14154261152E+03  0.16155481725E+03  0.00000000000E+00 0.  1.
         13    1    5    5    0    0 -0.13026026074E+03 -0.21421887548E+03 -0.75208675985E+02  0.26175142232E+03  0.00000000000E+00 0.  1.
        -13    1    5    5    0    0  0.33517906582E+01 -0.29895535375E+02  0.11068720772E+02  0.32054549061E+02  0.00000000000E+00 0. -1.
          2    1    6    6  503    0  0.80707527189E+01  0.76398744227E+01 -0.87571543640E+01  0.14148939296E+02  0.00000000000E+00 0. -1.
         -2    1    6    6    0  503  0.21365143545E+03  0.65183913335E+03  0.11038892865E+03  0.69478551165E+03  0.00000000000E+00 0.  1.
<mgrwt>
<rscale>  0 0.15879271E+04</rscale>
<asrwt>0</asrwt>
<pdfrwt beam="1">  1        1 0.16051441E+00 0.15879271E+04</pdfrwt>
<pdfrwt beam="2">  1       -2 0.92952350E-01 0.15879271E+04</pdfrwt>
<totfact> 0.11563960E+01</totfact>
</mgrwt>
</event>
<event>
12    5  0.5297412E-008  0.1988429E+04  0.7818608E-02  0.8612050E-01
         -2   -1    0    0    0  501 -0.00000000000E+00  0.00000000000E+00  0.32832274637E+03  0.32832274637E+03  0.00000000000E+00 0.  1.
          1   -1    0    0  501    0  0.00000000000E+00 -0.00000000000E+00 -0.30106423455E+04  0.30106423455E+04  0.00000000000E+00 0. -1.
        -24    2    1    2    0    0 -0.47142905079E+03 -0.17790668416E+03 -0.51799393639E+02  0.51279654526E+03  0.79881045609E+02 0.  0.
        254    2    1    2    0    0  0.47142905079E+03  0.17790668416E+03 -0.26305202055E+04  0.28261685467E+04  0.90205097648E+03 0.  0.
         23    2    4    4    0    0  0.62015495978E+03  0.39179461258E+03 -0.21152324724E+04  0.22406339881E+04  0.90205673992E+02 0.  0.
         23    2    4    4    0    0 -0.14872590899E+03 -0.21388792842E+03 -0.51528773311E+03  0.58553455856E+03  0.97271935537E+02 0.  0.
          3    1    3    3  502    0 -0.84659345262E+01 -0.89718962079E+01  0.10308860103E+02  0.16076055660E+02  0.00000000000E+00 0. -1.
         -2    1    3    3    0  502 -0.46296311626E+03 -0.16893478795E+03 -0.62108253742E+02  0.49672048960E+03  0.00000000000E+00 0.  1.
         13    1    5    5    0    0  0.16293866587E+03  0.79211847635E+02 -0.42610987789E+03  0.46302608315E+03  0.00000000000E+00 0. -1.
        -13    1    5    5    0    0  0.45721629391E+03  0.31258276495E+03 -0.16891225945E+04  0.17776079050E+04  0.00000000000E+00 0.  1.
          2    1    6    6  503    0 -0.35204861651E+02 -0.47712483677E+02 -0.22240369943E+03  0.23017225919E+03  0.00000000000E+00 0. -1.
         -2    1    6    6    0  503 -0.11352104734E+03 -0.16617544475E+03 -0.29288403368E+03  0.35536229937E+03  0.00000000000E+00 0.  1.
<mgrwt>
<rscale>  0 0.19884289E+04</rscale>
<asrwt>0</asrwt>
<pdfrwt beam="1">  1        1 0.46317573E+00 0.19884289E+04</pdfrwt>
<pdfrwt beam="2">  1       -2 0.50511193E-01 0.19884289E+04</pdfrwt>
<totfact> 0.17788350E+00</totfact>
</mgrwt>
</event>
<event>
12    5  0.5297412E-008  0.2272068E+04  0.7818608E-02  0.8489016E-01
          1   -1    0    0  501    0  0.00000000000E+00  0.00000000000E+00  0.18132744179E+04  0.18132744179E+04  0.00000000000E+00 0. -1.
         -2   -1    0    0    0  501 -0.00000000000E+00 -0.00000000000E+00 -0.71173638835E+03  0.71173638835E+03  0.00000000000E+00 0.  1.
        -24    2    1    2    0    0 -0.74006570507E+03  0.38511554856E+03  0.98580912225E+03  0.12938770980E+04  0.79291144211E+02 0.  0.
        254    2    1    2    0    0  0.74006570507E+03 -0.38511554856E+03  0.11572890727E+03  0.12311337083E+04  0.89793418136E+03 0.  0.
         23    2    4    4    0    0  0.69678392365E+03  0.82200002525E+02 -0.84795878401E+02  0.71255723247E+03  0.91009844930E+02 0.  0.
         23    2    4    4    0    0  0.43281781421E+02 -0.46731555108E+03  0.20052478567E+03  0.51857647578E+03  0.91946912319E+02 0.  0.
          1    1    3    3  502    0 -0.68098525339E+03  0.32820805390E+03  0.88499752016E+03  0.11639080946E+04  0.00000000000E+00 0. -1.
         -2    1    3    3    0  502 -0.59080451677E+02  0.56907494655E+02  0.10081160210E+03  0.12996900336E+03  0.00000000000E+00 0.  1.
         13    1    5    5    0    0  0.37005628271E+03  0.79731653443E+02 -0.73546932071E+02  0.38562668496E+03  0.00000000000E+00 0. -1.
        -13    1    5    5    0    0  0.32672764094E+03  0.24683490825E+01 -0.11248946330E+02  0.32693054751E+03  0.00000000000E+00 0.  1.
          4    1    6    6  503    0  0.60976045148E+02 -0.44639406470E+03  0.19318100029E+03  0.49020876976E+03  0.00000000000E+00 0. -1.
         -4    1    6    6    0  503 -0.17694263727E+02 -0.20921486384E+02  0.73437853818E+01  0.28367706024E+02  0.00000000000E+00 0.  1.
<mgrwt>
<rscale>  0 0.22720681E+04</rscale>
<asrwt>0</asrwt>
<pdfrwt beam="1">  1        1 0.27896529E+00 0.22720681E+04</pdfrwt>
<pdfrwt beam="2">  1       -2 0.10949791E+00 0.22720681E+04</pdfrwt>
<totfact> 0.21096178E+00</totfact>
</mgrwt>
</event>
<event>
12    5  0.5297412E-008  0.1455340E+04  0.7818608E-02  0.8914707E-01
          1   -1    0    0  501    0  0.00000000000E+00  0.00000000000E+00  0.58878800720E+03  0.58878800720E+03  0.00000000000E+00 0. -1.
         -2   -1    0    0    0  501 -0.00000000000E+00 -0.00000000000E+00 -0.89931147213E+03  0.89931147213E+03  0.00000000000E+00 0.  1.
        -24    2    1    2    0    0 -0.17523101735E+03 -0.12564506079E+03  0.19839841995E+03  0.30284682125E+03  0.76561565804E+02 0.  0.
        254    2    1    2    0    0  0.17523101735E+03  0.12564506079E+03 -0.50892188488E+03  0.11852526581E+04  0.10484892884E+04 0.  0.
         23    2    4    4    0    0  0.36490215332E+03 -0.16176031239E+03 -0.67692938923E+03  0.79108136107E+03  0.90864413638E+02 0.  0.
         23    2    4    4    0    0 -0.18967113597E+03  0.28740537319E+03  0.16800750435E+03  0.39417129702E+03  0.92560799059E+02 0.  0.
          3    1    3    3  502    0 -0.12628947674E+03 -0.11905895080E+03  0.12304540882E+03  0.21275393846E+03  0.00000000000E+00 0. -1.
         -4    1    3    3    0  502 -0.48941540611E+02 -0.65861099974E+01  0.75353011129E+02  0.90092882785E+02  0.00000000000E+00 0.  1.
         13    1    5    5    0    0  0.43727988169E+02  0.58750919659E+01 -0.47471799564E+02  0.64809146027E+02  0.00000000000E+00 0. -1.
        -13    1    5    5    0    0  0.32117416515E+03 -0.16763540436E+03 -0.62945758966E+03  0.72627221504E+03  0.00000000000E+00 0.  1.
          4    1    6    6  503    0 -0.10779370804E+03  0.23553993601E+03  0.11180618420E+03  0.28213324472E+03  0.00000000000E+00 0.  1.
         -4    1    6    6    0  503 -0.81877427932E+02  0.51865437176E+02  0.56201320153E+02  0.11203805231E+03  0.00000000000E+00 0. -1.
<mgrwt>
<rscale>  0 0.14553402E+04</rscale>
<asrwt>0</asrwt>
<pdfrwt beam="1">  1        1 0.90582771E-01 0.14553402E+04</pdfrwt>
<pdfrwt beam="2">  1       -2 0.13835561E+00 0.14553402E+04</pdfrwt>
<totfact> 0.11066479E+01</totfact>
</mgrwt>
</event>
<event>
12    5  0.5297412E-008  0.1390469E+04  0.7818608E-02  0.8960746E-01
         -2   -1    0    0    0  501 -0.00000000000E+00  0.00000000000E+00  0.32263402445E+03  0.32263402445E+03  0.00000000000E+00 0.  1.
          1   -1    0    0  501    0  0.00000000000E+00 -0.00000000000E+00 -0.14981408421E+04  0.14981408421E+04  0.00000000000E+00 0. -1.
        -24    2    1    2    0    0  0.17552076340E+02  0.36875103704E+03 -0.26263436731E+02  0.37866967757E+03  0.80097152922E+02 0.  0.
        254    2    1    2    0    0 -0.17552076340E+02 -0.36875103704E+03 -0.11492433809E+04  0.14421051890E+04  0.78906376471E+03 0.  0.
         23    2    4    4    0    0 -0.24428300383E+03  0.12526740434E+03 -0.22424266465E+03  0.36608971102E+03  0.91492050542E+02 0.  0.
         23    2    4    4    0    0  0.22673092749E+03 -0.49401844138E+03 -0.92500071625E+03  0.10760154779E+04  0.81986887964E+02 0.  0.
          3    1    3    3  502    0  0.37035370644E+02  0.30595760988E+03 -0.42071552255E+02  0.31104934212E+03  0.00000000000E+00 0. -1.
         -4    1    3    3    0  502 -0.19483294303E+02  0.62793427157E+02  0.15808115525E+02  0.67620335458E+02  0.00000000000E+00 0.  1.
         13    1    5    5    0    0 -0.24713574944E+03  0.11848077546E+03 -0.22914823888E+03  0.35724317794E+03  0.00000000000E+00 0.  1.
        -13    1    5    5    0    0  0.28527456022E+01  0.67866288832E+01  0.49055742272E+01  0.88465330818E+01  0.00000000000E+00 0. -1.
          3    1    6    6  503    0  0.86602871639E+02 -0.28496360882E+03 -0.51596295872E+03  0.59575338060E+03  0.00000000000E+00 0. -1.
         -3    1    6    6    0  503  0.14012805586E+03 -0.20905483256E+03 -0.40903775753E+03  0.48026209734E+03  0.00000000000E+00 0.  1.
<mgrwt>
<rscale>  0 0.13904693E+04</rscale>
<asrwt>0</asrwt>
<pdfrwt beam="1">  1        1 0.23048320E+00 0.13904693E+04</pdfrwt>
<pdfrwt beam="2">  1       -2 0.49636005E-01 0.13904693E+04</pdfrwt>
<totfact> 0.21577559E+01</totfact>
</mgrwt>
</event>
<event>
12    5  0.5297412E-008  0.1205860E+04  0.7818608E-02  0.9107742E-01
         -2   -1    0    0    0  501 -0.00000000000E+00  0.00000000000E+00  0.10623486435E+04  0.10623486435E+04  0.00000000000E+00 0.  1.
          1   -1    0    0  501    0  0.00000000000E+00 -0.00000000000E+00 -0.34218974641E+03  0.34218974641E+03  0.00000000000E+00 0. -1.
        -24    2    1    2    0    0  0.11821039371E+03  0.26817223942E+00 -0.97948719009E+02  0.17934067563E+03  0.92711149731E+02 0.  0.
        254    2    1    2    0    0 -0.11821039371E+03 -0.26817223942E+00  0.81810761608E+03  0.12251977143E+04  0.90434263332E+03 0.  0.
         23    2    4    4    0    0  0.19692640148E+03  0.28220266841E+02  0.86539214475E+03  0.89272880614E+03  0.92112789894E+02 0.  0.
         23    2    4    4    0    0 -0.31513679518E+03 -0.28488439080E+02 -0.47284528669E+02  0.33246890812E+03  0.90426530266E+02 0.  0.
          1    1    3    3  502    0  0.56442206878E+02  0.51309214764E+00 -0.10290993446E+03  0.11737308290E+03  0.00000000000E+00 0. -1.
         -2    1    3    3    0  502  0.61768186827E+02 -0.24491990822E+00  0.49612154475E+01  0.61967592727E+02  0.00000000000E+00 0.  1.
         13    1    5    5    0    0  0.19259593204E+03  0.48390132428E+02  0.78064333600E+03  0.80550531717E+03  0.00000000000E+00 0. -1.
        -13    1    5    5    0    0  0.43304694413E+01 -0.20169865587E+02  0.84748808749E+02  0.87223488968E+02  0.00000000000E+00 0.  1.
          2    1    6    6  503    0 -0.31777587748E+03 -0.27592600786E+02 -0.36176405171E+02  0.32101649836E+03  0.00000000000E+00 0. -1.
         -2    1    6    6    0  503  0.26390823016E+01 -0.89583829409E+00 -0.11108123498E+02  0.11452409759E+02  0.00000000000E+00 0.  1.
<mgrwt>
<rscale>  0 0.12058604E+04</rscale>
<asrwt>0</asrwt>
<pdfrwt beam="1">  1        1 0.52644577E-01 0.12058604E+04</pdfrwt>
<pdfrwt beam="2">  1       -2 0.16343825E+00 0.12058604E+04</pdfrwt>
<totfact> 0.15129164E+01</totfact>
</mgrwt>
</event>
<event>
12    5  0.5297412E-008  0.1524078E+04  0.7818608E-02  0.8868597E-01
         -2   -1    0    0    0  501 -0.00000000000E+00  0.00000000000E+00  0.58517954307E+03  0.58517954307E+03  0.00000000000E+00 0.  1.
          1   -1    0    0  501    0  0.00000000000E+00 -0.00000000000E+00 -0.99235087707E+03  0.99235087707E+03  0.00000000000E+00 0. -1.
        -24    2    1    2    0    0 -0.39733692487E+03  0.15869026447E+03  0.13061511031E+03  0.45459235014E+03  0.80837280174E+02 0.  0.
        254    2    1    2    0    0  0.39733692487E+03 -0.15869026447E+03 -0.53778644431E+03  0.11229380700E+04  0.88809707660E+03 0.  0.
         23    2    4    4    0    0  0.46169246420E+03 -0.26021285764E+03 -0.71230807509E+03  0.89283787391E+03  0.94371671922E+02 0.  0.
         23    2    4    4    0    0 -0.64355539325E+02  0.10152259318E+03  0.17452163078E+03  0.23010019609E+03  0.89665089428E+02 0.  0.
          1    1    3    3  502    0 -0.58504142380E+02  0.24686118057E+02 -0.95116771270E+01  0.64207562655E+02  0.00000000000E+00 0. -1.
         -2    1    3    3    0  502 -0.33883278249E+03  0.13400414641E+03  0.14012678744E+03  0.39038478749E+03  0.00000000000E+00 0.  1.
         13    1    5    5    0    0  0.45917795577E+03 -0.26608712817E+03 -0.70905730111E+03  0.88566868020E+03  0.00000000000E+00 0.  1.
        -13    1    5    5    0    0  0.25145084303E+01  0.58742705254E+01 -0.32507739839E+01  0.71691937027E+01  0.00000000000E+00 0. -1.
          4    1    6    6  503    0  0.41744932149E+00  0.49811291182E+02  0.17957998565E+02  0.52951191730E+02  0.00000000000E+00 0. -1.
         -4    1    6    6    0  503 -0.64772988647E+02  0.51711301994E+02  0.15656363222E+03  0.17714900436E+03  0.00000000000E+00 0.  1.
<mgrwt>
<rscale>  0 0.15240780E+04</rscale>
<asrwt>0</asrwt>
<pdfrwt beam="1">  1        1 0.15266936E+00 0.15240780E+04</pdfrwt>
<pdfrwt beam="2">  1       -2 0.90027624E-01 0.15240780E+04</pdfrwt>
<totfact> 0.13712962E+01</totfact>
</mgrwt>
</event>
<event>
12    5  0.5297412E-008  0.1778059E+04  0.7818608E-02  0.8718055E-01
         -2   -1    0    0    0  501 -0.00000000000E+00  0.00000000000E+00  0.49697238823E+03  0.49697238823E+03  0.00000000000E+00 0.  1.
          1   -1    0    0  501    0  0.00000000000E+00 -0.00000000000E+00 -0.15903777474E+04  0.15903777474E+04  0.00000000000E+00 0. -1.
        -24    2    1    2    0    0  0.41469713269E+03  0.44234128098E+02  0.18286469786E+03  0.46249630170E+03  0.80826736959E+02 0.  0.
        254    2    1    2    0    0 -0.41469713269E+03 -0.44234128098E+02 -0.12762700570E+04  0.16248538339E+04  0.91507068210E+03 0.  0.
         23    2    4    4    0    0 -0.37619220190E+03  0.39188495056E+03 -0.79359134142E+03  0.96696744488E+03  0.10071958615E+03 0.  0.
         23    2    4    4    0    0 -0.38504930794E+02 -0.43611907865E+03 -0.48267871562E+03  0.65788638907E+03  0.90295503467E+02 0.  0.
          3    1    3    3  502    0  0.36264316197E+02 -0.19226103076E+02  0.19726745746E+02  0.45539962301E+02  0.00000000000E+00 0. -1.
         -4    1    3    3    0  502  0.37843281649E+03  0.63460231174E+02  0.16313795212E+03  0.41695633939E+03  0.00000000000E+00 0.  1.
         13    1    5    5    0    0 -0.23651432440E+03  0.23091573067E+03 -0.56384368746E+03  0.65359070083E+03  0.00000000000E+00 0.  1.
        -13    1    5    5    0    0 -0.13967787749E+03  0.16096921988E+03 -0.22974765396E+03  0.31337674405E+03  0.00000000000E+00 0. -1.
          4    1    6    6  503    0 -0.41591576443E+02 -0.33016723506E+03 -0.41574065135E+03  0.53252281784E+03  0.00000000000E+00 0. -1.
         -4    1    6    6    0  503  0.30866456491E+01 -0.10595184360E+03 -0.66938064278E+02  0.12536357123E+03  0.00000000000E+00 0.  1.
<mgrwt>
<rscale>  0 0.17780594E+04</rscale>
<asrwt>0</asrwt>
<pdfrwt beam="1">  1        1 0.24467350E+00 0.17780594E+04</pdfrwt>
<pdfrwt beam="2">  1       -2 0.76457290E-01 0.17780594E+04</pdfrwt>
<totfact> 0.71919797E+00</totfact>
</mgrwt>
</event>
<event>
12    5  0.5297412E-008  0.1674006E+04  0.7818608E-02  0.8776330E-01
         -2   -1    0    0    0  501 -0.00000000000E+00  0.00000000000E+00  0.27161446950E+03  0.27161446950E+03  0.00000000000E+00 0.  1.
          1   -1    0    0  501    0  0.00000000000E+00 -0.00000000000E+00 -0.25792969781E+04  0.25792969781E+04  0.00000000000E+00 0. -1.
        -24    2    1    2    0    0 -0.40250633183E+03  0.37480788561E+03 -0.45258042330E+03  0.71674032661E+03  0.79970981903E+02 0.  0.
        254    2    1    2    0    0  0.40250633183E+03 -0.37480788561E+03 -0.18551020853E+04  0.21341711210E+04  0.90043896436E+03 0.  0.
         23    2    4    4    0    0  0.24271377175E+03  0.22262014674E+03 -0.11124537804E+04  0.11637172047E+04  0.90634508939E+02 0.  0.
         23    2    4    4    0    0  0.15979256008E+03 -0.59742803236E+03 -0.74264830483E+03  0.97045391625E+03  0.88319775791E+02 0.  0.
          1    1    3    3  502    0 -0.28051190955E+02  0.36702464840E+02 -0.14064293808E+02  0.48288141398E+02  0.00000000000E+00 0. -1.
         -2    1    3    3    0  502 -0.37445514087E+03  0.33810542077E+03 -0.43851612950E+03  0.66845218521E+03  0.00000000000E+00 0.  1.
         13    1    5    5    0    0  0.67308154649E+02  0.11387285033E+03 -0.36233512237E+03  0.38572549129E+03  0.00000000000E+00 0. -1.
        -13    1    5    5    0    0  0.17540561710E+03  0.10874729642E+03 -0.75011865806E+03  0.77799171343E+03  0.00000000000E+00 0.  1.
          3    1    6    6  503    0  0.69764397198E+02 -0.28266259869E+03 -0.41791677002E+03  0.50933254607E+03  0.00000000000E+00 0. -1.
         -3    1    6    6    0  503  0.90028162885E+02 -0.31476543367E+03 -0.32473153481E+03  0.46112137018E+03  0.00000000000E+00 0.  1.
<mgrwt>
<rscale>  0 0.16740064E+04</rscale>
<asrwt>0</asrwt>
<pdfrwt beam="1">  1        1 0.39681492E+00 0.16740064E+04</pdfrwt>
<pdfrwt beam="2">  1       -2 0.41786841E-01 0.16740064E+04</pdfrwt>
<totfact> 0.54327402E+00</totfact>
</mgrwt>
</event>
<event>
12    5  0.5297412E-008  0.1351442E+04  0.7818608E-02  0.8989737E-01
          1   -1    0    0  501    0  0.00000000000E+00  0.00000000000E+00  0.12187755000E+04  0.12187755000E+04  0.00000000000E+00 0. -1.
         -2   -1    0    0    0  501 -0.00000000000E+00 -0.00000000000E+00 -0.37463757071E+03  0.37463757071E+03  0.00000000000E+00 0.  1.
        -24    2    1    2    0    0  0.70910720430E+02  0.30088815931E+03  0.48492957735E+03  0.58012810910E+03  0.76353868888E+02 0.  0.
        254    2    1    2    0    0 -0.70910720430E+02 -0.30088815931E+03  0.35920835194E+03  0.10132849616E+04  0.89563036944E+03 0.  0.
         23    2    4    4    0    0 -0.30484619750E+03 -0.51874354153E+03  0.28859154293E+03  0.67395822503E+03  0.94385085791E+02 0.  0.
         23    2    4    4    0    0  0.23393547707E+03  0.21785538222E+03  0.70616809012E+02  0.33932673660E+03  0.89269958320E+02 0.  0.
          1    1    3    3  502    0 -0.98083182014E+01  0.11464360398E+03  0.16208014315E+03  0.19876954456E+03  0.00000000000E+00 0. -1.
         -2    1    3    3    0  502  0.80719038631E+02  0.18624455533E+03  0.32284943420E+03  0.38135856454E+03  0.00000000000E+00 0.  1.
         13    1    5    5    0    0 -0.15276644307E+03 -0.34950198843E+03  0.18607655200E+03  0.42439805519E+03  0.00000000000E+00 0.  1.
        -13    1    5    5    0    0 -0.15207975443E+03 -0.16924155310E+03  0.10251499094E+03  0.24956016983E+03  0.00000000000E+00 0. -1.
          2    1    6    6  503    0  0.74376777699E+02  0.18912516932E+02  0.20351199430E+02  0.79396219531E+02  0.00000000000E+00 0. -1.
         -2    1    6    6    0  503  0.15955869937E+03  0.19894286529E+03  0.50265609583E+02  0.25993051707E+03  0.00000000000E+00 0.  1.
<mgrwt>
<rscale>  0 0.13514423E+04</rscale>
<asrwt>0</asrwt>
<pdfrwt beam="1">  1        1 0.18750392E+00 0.13514423E+04</pdfrwt>
<pdfrwt beam="2">  1       -2 0.57636550E-01 0.13514423E+04</pdfrwt>
<totfact> 0.25052787E+01</totfact>
</mgrwt>
</event>
<event>
12    5  0.5297412E-008  0.1248821E+04  0.7818608E-02  0.9071165E-01
         -2   -1    0    0    0  501 -0.00000000000E+00  0.00000000000E+00  0.21950271196E+03  0.21950271196E+03  0.00000000000E+00 0.  1.
          1   -1    0    0  501    0  0.00000000000E+00 -0.00000000000E+00 -0.17762342664E+04  0.17762342664E+04  0.00000000000E+00 0. -1.
        -24    2    1    2    0    0  0.25737590442E+03  0.14882781267E+03 -0.37740801260E+03  0.48501623170E+03  0.66421856629E+02 0.  0.
        254    2    1    2    0    0 -0.25737590442E+03 -0.14882781267E+03 -0.11793235418E+04  0.15107207466E+04  0.89614791415E+03 0.  0.
         23    2    4    4    0    0 -0.41503483656E+03 -0.41117251290E+03 -0.94525182011E+03  0.11151045330E+04  0.92953564777E+02 0.  0.
         23    2    4    4    0    0  0.15765893214E+03  0.26234470022E+03 -0.23407172168E+03  0.39561621360E+03  0.89674617123E+02 0.  0.
          1    1    3    3  502    0  0.11184103931E+03  0.71624196547E+02 -0.11767901134E+03  0.17744518397E+03  0.00000000000E+00 0. -1.
         -4    1    3    3    0  502  0.14553486511E+03  0.77203616125E+02 -0.25972900126E+03  0.30757104773E+03  0.00000000000E+00 0.  1.
         13    1    5    5    0    0 -0.11659495051E+03 -0.72403761101E+02 -0.17648208801E+03  0.22356791920E+03  0.00000000000E+00 0. -1.
        -13    1    5    5    0    0 -0.29843988604E+03 -0.33876875179E+03 -0.76876973210E+03  0.89153661381E+03  0.00000000000E+00 0.  1.
          2    1    6    6  503    0  0.17918525847E+02 -0.36819941110E+01 -0.10690798743E+02  0.21187822609E+02  0.00000000000E+00 0. -1.
         -2    1    6    6    0  503  0.13974040629E+03  0.26602669433E+03 -0.22338092294E+03  0.37442839099E+03  0.00000000000E+00 0.  1.
<mgrwt>
<rscale>  0 0.12488206E+04</rscale>
<asrwt>0</asrwt>
<pdfrwt beam="1">  1        1 0.27326680E+00 0.12488206E+04</pdfrwt>
<pdfrwt beam="2">  1       -2 0.33769649E-01 0.12488206E+04</pdfrwt>
<totfact> 0.30041887E+01</totfact>
</mgrwt>
</event>
<event>
12    5  0.5297412E-008  0.2658894E+04  0.7818608E-02  0.8348467E-01
          1   -1    0    0  501    0  0.00000000000E+00  0.00000000000E+00  0.93170707627E+03  0.93170707627E+03  0.00000000000E+00 0. -1.
         -2   -1    0    0    0  501 -0.00000000000E+00 -0.00000000000E+00 -0.18969800110E+04  0.18969800110E+04  0.00000000000E+00 0.  1.
        -24    2    1    2    0    0  0.13120422446E+03  0.42953695748E+03  0.72640645985E+03  0.85809556082E+03  0.83337267970E+02 0.  0.
        254    2    1    2    0    0 -0.13120422446E+03 -0.42953695748E+03 -0.16916793946E+04  0.19705915265E+04  0.90539231478E+03 0.  0.
         23    2    4    4    0    0 -0.90521815534E+02 -0.29305874602E+02  0.78054797662E+02  0.15369148463E+03  0.92062411631E+02 0.  0.
         23    2    4    4    0    0 -0.40682408927E+02 -0.40023108288E+03 -0.17697341923E+04  0.18169000418E+04  0.85595984926E+02 0.  0.
          3    1    3    3  502    0  0.13385947637E+03  0.38761480593E+03  0.68924242396E+03  0.80200917462E+03  0.00000000000E+00 0. -1.
         -4    1    3    3    0  502 -0.26552519061E+01  0.41922151555E+02  0.37164035887E+02  0.56086386201E+02  0.00000000000E+00 0.  1.
         13    1    5    5    0    0 -0.92423133454E+02 -0.53378932962E+02  0.54025358813E+02  0.11962476949E+03  0.00000000000E+00 0. -1.
        -13    1    5    5    0    0  0.19013179204E+01  0.24073058360E+02  0.24029438849E+02  0.34066715134E+02  0.00000000000E+00 0.  1.
          1    1    6    6  503    0  0.33232619688E+00 -0.32927449037E+03 -0.14299096155E+04  0.14673320378E+04  0.00000000000E+00 0. -1.
         -1    1    6    6    0  503 -0.41014735124E+02 -0.70956592511E+02 -0.33982457672E+03  0.34956800406E+03  0.00000000000E+00 0.  1.
<mgrwt>
<rscale>  0 0.26588943E+04</rscale>
<asrwt>0</asrwt>
<pdfrwt beam="1">  1        1 0.14333955E+00 0.26588943E+04</pdfrwt>
<pdfrwt beam="2">  1       -2 0.29184308E+00 0.26588943E+04</pdfrwt>
<totfact> 0.46985314E-01</totfact>
</mgrwt>
</event>
<event>
12    5  0.5297412E-008  0.1491115E+04  0.7818608E-02  0.8890383E-01
         -2   -1    0    0    0  501 -0.00000000000E+00  0.00000000000E+00  0.51702432574E+03  0.51702432574E+03  0.00000000000E+00 0.  1.
          1   -1    0    0  501    0  0.00000000000E+00 -0.00000000000E+00 -0.10751057403E+04  0.10751057403E+04  0.00000000000E+00 0. -1.
        -24    2    1    2    0    0  0.39748827425E+03 -0.30226061781E+03 -0.15404530537E+03  0.52870025839E+03  0.80222178177E+02 0.  0.
        254    2    1    2    0    0 -0.39748827425E+03  0.30226061781E+03 -0.40403610923E+03  0.10634298077E+04  0.84751363947E+03 0.  0.
         23    2    4    4    0    0 -0.39991319519E+03  0.56559690436E+03 -0.24659074460E+03  0.74126854952E+03  0.94030023331E+02 0.  0.
         23    2    4    4    0    0  0.24249209378E+01 -0.26333628655E+03 -0.15744536463E+03  0.32216125817E+03  0.98218905326E+02 0.  0.
          1    1    3    3  502    0  0.85640873585E+02 -0.63378019951E+02 -0.68510170709E+02  0.12666797595E+03  0.00000000000E+00 0. -1.
         -4    1    3    3    0  502  0.31184740066E+03 -0.23888259785E+03 -0.85535134657E+02  0.40203228243E+03  0.00000000000E+00 0.  1.
         13    1    5    5    0    0 -0.11244603875E+03  0.23011974844E+03 -0.11093644271E+03  0.27911665048E+03  0.00000000000E+00 0. -1.
        -13    1    5    5    0    0 -0.28746715643E+03  0.33547715592E+03 -0.13565430189E+03  0.46215189905E+03  0.00000000000E+00 0.  1.
          4    1    6    6  503    0 -0.29876185962E+02 -0.28878791733E+02 -0.41074730802E+02  0.58426916828E+02  0.00000000000E+00 0. -1.
         -4    1    6    6    0  503  0.32301106900E+02 -0.23445749482E+03 -0.11637063383E+03  0.26373434134E+03  0.00000000000E+00 0.  1.
<mgrwt>
<rscale>  0 0.14911148E+04</rscale>
<asrwt>0</asrwt>
<pdfrwt beam="1">  1        1 0.16540088E+00 0.14911148E+04</pdfrwt>
<pdfrwt beam="2">  1       -2 0.79542204E-01 0.14911148E+04</pdfrwt>
<totfact> 0.15738549E+01</totfact>
</mgrwt>
</event>
<event>
12    5  0.5297412E-008  0.1406009E+04  0.7818608E-02  0.8949480E-01
          1   -1    0    0  501    0  0.00000000000E+00  0.00000000000E+00  0.28654836134E+04  0.28654836134E+04  0.00000000000E+00 0. -1.
         -2   -1    0    0    0  501 -0.00000000000E+00 -0.00000000000E+00 -0.17247197276E+03  0.17247197276E+03  0.00000000000E+00 0.  1.
        -24    2    1    2    0    0  0.34352719264E+03 -0.18357578974E+03  0.10053237428E+04  0.10813950400E+04  0.83835565700E+02 0.  0.
        254    2    1    2    0    0 -0.34352719264E+03  0.18357578974E+03  0.16876878978E+04  0.19565605461E+04  0.91001523477E+03 0.  0.
         23    2    4    4    0    0 -0.42077006480E+03  0.24336824551E+02  0.23675342749E+03  0.49206121297E+03  0.91827683317E+02 0.  0.
         23    2    4    4    0    0  0.77242872158E+02  0.15923896519E+03  0.14509344703E+04  0.14644993331E+04  0.90685998092E+02 0.  0.
          3    1    3    3  502    0  0.23726382359E+03 -0.11336033141E+03  0.77225243859E+03  0.81579318190E+03  0.00000000000E+00 0. -1.
         -4    1    3    3    0  502  0.10626336906E+03 -0.70215458328E+02  0.23307130419E+03  0.26560185811E+03  0.00000000000E+00 0.  1.
         13    1    5    5    0    0 -0.38802396931E+03  0.11504266452E+02  0.18636485462E+03  0.43061213167E+03  0.00000000000E+00 0.  1.
        -13    1    5    5    0    0 -0.32746095494E+02  0.12832558099E+02  0.50388572866E+02  0.61449081303E+02  0.00000000000E+00 0. -1.
          1    1    6    6  503    0 -0.16878292706E+02  0.53624890949E+02  0.48825885659E+03  0.49148470651E+03  0.00000000000E+00 0. -1.
         -1    1    6    6    0  503  0.94121164864E+02  0.10561407424E+03  0.96267561374E+03  0.97301462663E+03  0.00000000000E+00 0.  1.
<mgrwt>
<rscale>  0 0.14060094E+04</rscale>
<asrwt>0</asrwt>
<pdfrwt beam="1">  1        1 0.44084360E+00 0.14060094E+04</pdfrwt>
<pdfrwt beam="2">  1       -2 0.26534152E-01 0.14060094E+04</pdfrwt>
<totfact> 0.82924720E+00</totfact>
</mgrwt>
</event>
<event>
12    5  0.5297412E-008  0.1312307E+04  0.7818608E-02  0.9019862E-01
         -2   -1    0    0    0  501 -0.00000000000E+00  0.00000000000E+00  0.17423283635E+03  0.17423283635E+03  0.00000000000E+00 0.  1.
          1   -1    0    0  501    0  0.00000000000E+00 -0.00000000000E+00 -0.24710473473E+04  0.24710473473E+04  0.00000000000E+00 0. -1.
        -24    2    1    2    0    0 -0.17110384963E+03 -0.92433219322E+02 -0.48706745939E+02  0.21645776672E+03  0.81616115343E+02 0.  0.
        254    2    1    2    0    0  0.17110384963E+03  0.92433219322E+02 -0.22481077650E+04  0.24288224169E+04  0.89853735727E+03 0.  0.
         23    2    4    4    0    0 -0.22208918924E+03 -0.27801042095E+03 -0.10177892072E+04  0.10820710070E+04  0.91484379899E+02 0.  0.
         23    2    4    4    0    0  0.39319303887E+03  0.37044364027E+03 -0.12303185578E+04  0.13467514099E+04  0.90699228158E+02 0.  0.
          1    1    3    3  502    0 -0.63790038965E+02  0.27660925363E+01 -0.33762939942E+02  0.72227117156E+02  0.00000000000E+00 0. -1.
         -2    1    3    3    0  502 -0.10731381066E+03 -0.95199311858E+02 -0.14943805997E+02  0.14423064957E+03  0.00000000000E+00 0.  1.
         13    1    5    5    0    0 -0.17343710861E+03 -0.14606451518E+03 -0.63377893514E+03  0.67312035467E+03  0.00000000000E+00 0. -1.
        -13    1    5    5    0    0 -0.48652080634E+02 -0.13194590576E+03 -0.38401027202E+03  0.40895065230E+03  0.00000000000E+00 0.  1.
          2    1    6    6  503    0  0.26619456807E+03  0.19213730768E+03 -0.76796079241E+03  0.83518864441E+03  0.00000000000E+00 0. -1.
         -2    1    6    6    0  503  0.12699847080E+03  0.17830633259E+03 -0.46235776541E+03  0.51156276552E+03  0.00000000000E+00 0.  1.
<mgrwt>
<rscale>  0 0.13123073E+04</rscale>
<asrwt>0</asrwt>
<pdfrwt beam="1">  1        1 0.38016114E+00 0.13123073E+04</pdfrwt>
<pdfrwt beam="2">  1       -2 0.26805051E-01 0.13123073E+04</pdfrwt>
<totfact> 0.15512829E+01</totfact>
</mgrwt>
</event>
<event>
12    5  0.5297412E-008  0.2333747E+04  0.7818608E-02  0.8464733E-01
          1   -1    0    0  501    0  0.00000000000E+00  0.00000000000E+00  0.17422215410E+04  0.17422215410E+04  0.00000000000E+00 0. -1.
         -2   -1    0    0    0  501 -0.00000000000E+00 -0.00000000000E+00 -0.78152721334E+03  0.78152721334E+03  0.00000000000E+00 0.  1.
        -24    2    1    2    0    0  0.61466841082E+02  0.25815685565E+03  0.14433587280E+04  0.14697396963E+04  0.80169960352E+02 0.  0.
        254    2    1    2    0    0 -0.61466841082E+02 -0.25815685565E+03 -0.48266440036E+03  0.10540090580E+04  0.89863620910E+03 0.  0.
         23    2    4    4    0    0  0.10908814648E+03  0.20349499203E+03 -0.49369488075E+03  0.55294712412E+03  0.93303008065E+02 0.  0.
         23    2    4    4    0    0 -0.17055498756E+03 -0.46165184767E+03  0.11030480383E+02  0.50106193388E+03  0.93434243406E+02 0.  0.
          1    1    3    3  502    0  0.56428318383E+02  0.25826971570E+03  0.13164823481E+04  0.13427632606E+04  0.00000000000E+00 0. -1.
         -2    1    3    3    0  502  0.50385226990E+01 -0.11286005777E+00  0.12687637985E+03  0.12697643566E+03  0.00000000000E+00 0.  1.
         13    1    5    5    0    0 -0.15084576120E+01  0.28377714139E+02 -0.14183860284E+03  0.14465738612E+03  0.00000000000E+00 0.  1.
        -13    1    5    5    0    0  0.11059660409E+03  0.17511727789E+03 -0.35185627791E+03  0.40828973800E+03  0.00000000000E+00 0. -1.
          1    1    6    6  503    0 -0.12659244536E+03 -0.39860332935E+03 -0.18723247600E+02  0.41864163839E+03  0.00000000000E+00 0. -1.
         -1    1    6    6    0  503 -0.43962542203E+02 -0.63048518321E+02  0.29753727983E+02  0.82420295488E+02  0.00000000000E+00 0.  1.
<mgrwt>
<rscale>  0 0.23337468E+04</rscale>
<asrwt>0</asrwt>
<pdfrwt beam="1">  1        1 0.26803408E+00 0.23337468E+04</pdfrwt>
<pdfrwt beam="2">  1       -2 0.12023496E+00 0.23337468E+04</pdfrwt>
<totfact> 0.18657118E+00</totfact>
</mgrwt>
</event>
<event>
12    5  0.5297412E-008  0.1539269E+04  0.7818608E-02  0.8858752E-01
         -2   -1    0    0    0  501 -0.00000000000E+00  0.00000000000E+00  0.11681154254E+04  0.11681154254E+04  0.00000000000E+00 0.  1.
          1   -1    0    0  501    0  0.00000000000E+00 -0.00000000000E+00 -0.50708781331E+03  0.50708781331E+03  0.00000000000E+00 0. -1.
        -24    2    1    2    0    0 -0.11576604876E+03 -0.35271973317E+03 -0.15976356900E+03  0.41195739325E+03  0.79821724242E+02 0.  0.
        254    2    1    2    0    0  0.11576604876E+03  0.35271973317E+03  0.82079118110E+03  0.12632458455E+04  0.88559523199E+03 0.  0.
         23    2    4    4    0    0  0.42675739189E+03  0.42398007379E+03  0.40323416555E+03  0.72980536993E+03  0.90205937755E+02 0.  0.
         23    2    4    4    0    0 -0.31099134313E+03 -0.71260340627E+02  0.41755701555E+03  0.53344047554E+03  0.91712747560E+02 0.  0.
          1    1    3    3  502    0 -0.12328973353E+03 -0.27481961478E+03 -0.13275222749E+03  0.32916459859E+03  0.00000000000E+00 0. -1.
         -2    1    3    3    0  502  0.75236847676E+01 -0.77900118383E+02 -0.27011341510E+02  0.82792794655E+02  0.00000000000E+00 0.  1.
         13    1    5    5    0    0  0.33623733115E+02  0.54029625961E+02  0.16501172458E+02  0.65742258879E+02  0.00000000000E+00 0. -1.
        -13    1    5    5    0    0  0.39313365877E+03  0.36995044783E+03  0.38673299309E+03  0.66406311105E+03  0.00000000000E+00 0.  1.
          2    1    6    6  503    0 -0.85289184179E+02 -0.45320627103E+02  0.74502610302E+02  0.12197886342E+03  0.00000000000E+00 0. -1.
         -2    1    6    6    0  503 -0.22570215895E+03 -0.25939713524E+02  0.34305440525E+03  0.41146161212E+03  0.00000000000E+00 0.  1.
<mgrwt>
<rscale>  0 0.15392688E+04</rscale>
<asrwt>0</asrwt>
<pdfrwt beam="1">  1        1 0.78013510E-01 0.15392688E+04</pdfrwt>
<pdfrwt beam="2">  1       -2 0.17971006E+00 0.15392688E+04</pdfrwt>
<totfact> 0.66718385E+00</totfact>
</mgrwt>
</event>
<event>
12    5  0.5297412E-008  0.1226870E+04  0.7818608E-02  0.9089657E-01
          1   -1    0    0  501    0  0.00000000000E+00  0.00000000000E+00  0.73887103688E+03  0.73887103688E+03  0.00000000000E+00 0. -1.
         -2   -1    0    0    0  501 -0.00000000000E+00 -0.00000000000E+00 -0.50929349407E+03  0.50929349407E+03  0.00000000000E+00 0.  1.
        -24    2    1    2    0    0  0.40007582787E+02 -0.26655830929E+03  0.11183004338E+03  0.30265592398E+03  0.80254039084E+02 0.  0.
        254    2    1    2    0    0 -0.40007582787E+02  0.26655830929E+03  0.11774749943E+03  0.94550860697E+03  0.89859229537E+03 0.  0.
         23    2    4    4    0    0 -0.43791949381E+03  0.35272221419E+02  0.15362787901E+03  0.47459033860E+03  0.92826998316E+02 0.  0.
         23    2    4    4    0    0  0.39791191103E+03  0.23128608787E+03 -0.35880379577E+02  0.47091826837E+03  0.93002529377E+02 0.  0.
          1    1    3    3  502    0  0.12804194538E+02 -0.23478588204E+03  0.11285703134E+03  0.26081615618E+03  0.00000000000E+00 0. -1.
         -2    1    3    3    0  502  0.27203388249E+02 -0.31772427248E+02 -0.10269879589E+01  0.41839767802E+02  0.00000000000E+00 0.  1.
         13    1    5    5    0    0 -0.31219403858E+03 -0.12573658577E+02  0.12799761632E+03  0.33764864045E+03  0.00000000000E+00 0. -1.
        -13    1    5    5    0    0 -0.12572545523E+03  0.47845879996E+02  0.25630262696E+02  0.13694169815E+03  0.00000000000E+00 0.  1.
          1    1    6    6  503    0  0.65543613409E+02  0.61804177023E+02 -0.38133895357E+02  0.97825945083E+02  0.00000000000E+00 0. -1.
         -1    1    6    6    0  503  0.33236829762E+03  0.16948191085E+03  0.22535157792E+01  0.37309232329E+03  0.00000000000E+00 0.  1.
<mgrwt>
<rscale>  0 0.12268695E+04</rscale>
<asrwt>0</asrwt>
<pdfrwt beam="1">  1        1 0.11367247E+00 0.12268695E+04</pdfrwt>
<pdfrwt beam="2">  1       -2 0.78352846E-01 0.12268695E+04</pdfrwt>
<totfact> 0.31425517E+01</totfact>
</mgrwt>
</event>
<event>
12    5  0.5297412E-008  0.1467940E+04  0.7818608E-02  0.8906057E-01
         -2   -1    0    0    0  501 -0.00000000000E+00  0.00000000000E+00  0.48210365251E+03  0.48210365251E+03  0.00000000000E+00 0.  1.
          1   -1    0    0  501    0  0.00000000000E+00 -0.00000000000E+00 -0.11174200256E+04  0.11174200256E+04  0.00000000000E+00 0. -1.
        -24    2    1    2    0    0  0.96604254737E+02 -0.14693423392E+02 -0.66860658300E+03  0.68046294097E+03  0.80291795862E+02 0.  0.
        254    2    1    2    0    0 -0.96604254737E+02  0.14693423392E+02  0.33290209871E+02  0.91906073717E+03  0.91324483125E+03 0.  0.
         23    2    4    4    0    0  0.19158450689E+02  0.27131079109E+03 -0.33874134249E+03  0.44373422290E+03  0.90431033768E+02 0.  0.
         23    2    4    4    0    0 -0.11576270543E+03 -0.25661736770E+03  0.37203155236E+03  0.47532651427E+03  0.90963409370E+02 0.  0.
          3    1    3    3  502    0  0.41663867010E+02  0.21561049702E+02 -0.44220838432E+03  0.44468979282E+03  0.00000000000E+00 0. -1.
         -4    1    3    3    0  502  0.54940387727E+02 -0.36254473095E+02 -0.22639819868E+03  0.23577314815E+03  0.00000000000E+00 0.  1.
         13    1    5    5    0    0 -0.65162655778E+01  0.22984217336E+03 -0.31359655461E+03  0.38886075327E+03  0.00000000000E+00 0. -1.
        -13    1    5    5    0    0  0.25674716266E+02  0.41468617728E+02 -0.25144787880E+02  0.54873469629E+02  0.00000000000E+00 0.  1.
          4    1    6    6  503    0 -0.55696065474E+01 -0.93565146343E+02  0.80305142330E+02  0.12342760231E+03  0.00000000000E+00 0. -1.
         -4    1    6    6    0  503 -0.11019309888E+03 -0.16305222135E+03  0.29172641003E+03  0.35189891196E+03  0.00000000000E+00 0.  1.
<mgrwt>
<rscale>  0 0.14679404E+04</rscale>
<asrwt>0</asrwt>
<pdfrwt beam="1">  1        1 0.17191077E+00 0.14679404E+04</pdfrwt>
<pdfrwt beam="2">  1       -2 0.74169793E-01 0.14679404E+04</pdfrwt>
<totfact> 0.17124421E+01</totfact>
</mgrwt>
</event>
<event>
12    5  0.5297412E-008  0.1118008E+04  0.7818608E-02  0.9187816E-01
         -2   -1    0    0    0  501 -0.00000000000E+00  0.00000000000E+00  0.25112308061E+03  0.25112308061E+03  0.00000000000E+00 0.  1.
          1   -1    0    0  501    0  0.00000000000E+00 -0.00000000000E+00 -0.12443519778E+04  0.12443519778E+04  0.00000000000E+00 0. -1.
        -24    2    1    2    0    0  0.29556232055E+02 -0.91704791826E+02 -0.38357404287E+03  0.40345421382E+03  0.79767891919E+02 0.  0.
        254    2    1    2    0    0 -0.29556232055E+02  0.91704791826E+02 -0.60965485428E+03  0.10920208446E+04  0.90085911436E+03 0.  0.
         23    2    4    4    0    0  0.26907571724E+03 -0.21266966541E+03 -0.13935001136E+02  0.35410566150E+03  0.86985671566E+02 0.  0.
         23    2    4    4    0    0 -0.29863194930E+03  0.30437445723E+03 -0.59571985314E+03  0.73791518306E+03  0.88384515674E+02 0.  0.
          3    1    3    3  502    0  0.57202287649E+02 -0.58910102657E+02 -0.25870759162E+03  0.27142608546E+03  0.00000000000E+00 0. -1.
         -4    1    3    3    0  502 -0.27646055594E+02 -0.32794689169E+02 -0.12486645126E+03  0.13202812835E+03  0.00000000000E+00 0.  1.
         13    1    5    5    0    0  0.22266395271E+03 -0.19848964938E+03  0.13053717686E+02  0.29857624871E+03  0.00000000000E+00 0.  1.
        -13    1    5    5    0    0  0.46411764532E+02 -0.14180016025E+02 -0.26988718822E+02  0.55529412793E+02  0.00000000000E+00 0. -1.
          1    1    6    6  503    0 -0.11161623649E+03  0.58480217607E+02 -0.15633815754E+03  0.20079775796E+03  0.00000000000E+00 0. -1.
         -1    1    6    6    0  503 -0.18701571281E+03  0.24589423962E+03 -0.43938169560E+03  0.53711742510E+03  0.00000000000E+00 0.  1.
<mgrwt>
<rscale>  0 0.11180081E+04</rscale>
<asrwt>0</asrwt>
<pdfrwt beam="1">  1        1 0.19143877E+00 0.11180081E+04</pdfrwt>
<pdfrwt beam="2">  1       -2 0.38634320E-01 0.11180081E+04</pdfrwt>
<totfact> 0.54793493E+01</totfact>
</mgrwt>
</event>
<event>
12    5  0.5297412E-008  0.1530070E+04  0.7818608E-02  0.8864700E-01
         -2   -1    0    0    0  501 -0.00000000000E+00  0.00000000000E+00  0.66370849139E+03  0.66370849139E+03  0.00000000000E+00 0.  1.
          1   -1    0    0  501    0  0.00000000000E+00 -0.00000000000E+00 -0.88183040837E+03  0.88183040837E+03  0.00000000000E+00 0. -1.
        -24    2    1    2    0    0 -0.36238435495E+03  0.29548505655E+03 -0.21599038119E+03  0.52134690215E+03  0.80727369985E+02 0.  0.
        254    2    1    2    0    0  0.36238435495E+03 -0.29548505655E+03 -0.21315357887E+01  0.10241919976E+04  0.91122492567E+03 0.  0.
         23    2    4    4    0    0 -0.23821203947E+03 -0.93046730415E+02  0.21700818078E+03  0.34759417381E+03  0.91249599171E+02 0.  0.
         23    2    4    4    0    0  0.60059639442E+03 -0.20243832613E+03 -0.21913971657E+03  0.67659782380E+03  0.89805873533E+02 0.  0.
          1    1    3    3  502    0 -0.21272213224E+03  0.14127278927E+03 -0.82459664138E+02  0.26834362810E+03  0.00000000000E+00 0. -1.
         -2    1    3    3    0  502 -0.14966222271E+03  0.15421226728E+03 -0.13353071705E+03  0.25300327405E+03  0.00000000000E+00 0.  1.
         13    1    5    5    0    0 -0.82697333982E+02 -0.43445129097E+01  0.28404057347E+02  0.87547211914E+02  0.00000000000E+00 0. -1.
        -13    1    5    5    0    0 -0.15551470549E+03 -0.88702217505E+02  0.18860412343E+03  0.26004696189E+03  0.00000000000E+00 0.  1.
          4    1    6    6  503    0  0.17669798729E+02 -0.13622105609E+02  0.71121641662E+01  0.23417225017E+02  0.00000000000E+00 0. -1.
         -4    1    6    6    0  503  0.58292659569E+03 -0.18881622053E+03 -0.22625188073E+03  0.65318059878E+03  0.00000000000E+00 0.  1.
<mgrwt>
<rscale>  0 0.15300697E+04</rscale>
<asrwt>0</asrwt>
<pdfrwt beam="1">  1        1 0.13566622E+00 0.15300697E+04</pdfrwt>
<pdfrwt beam="2">  1       -2 0.10210900E+00 0.15300697E+04</pdfrwt>
<totfact> 0.12518874E+01</totfact>
</mgrwt>
</event>
<event>
12    5  0.5297412E-008  0.1297222E+04  0.7818608E-02  0.9031771E-01
          1   -1    0    0  501    0  0.00000000000E+00  0.00000000000E+00  0.89721471258E+03  0.89721471258E+03  0.00000000000E+00 0. -1.
         -2   -1    0    0    0  501 -0.00000000000E+00 -0.00000000000E+00 -0.46889153632E+03  0.46889153632E+03  0.00000000000E+00 0.  1.
        -24    2    1    2    0    0  0.27110654002E+03  0.16339305118E+03  0.20853951156E+03  0.38682397158E+03  0.77123355020E+02 0.  0.
        254    2    1    2    0    0 -0.27110654002E+03 -0.16339305118E+03  0.21978366470E+03  0.97928227732E+03  0.90027377735E+03 0.  0.
         23    2    4    4    0    0 -0.36719234507E+03 -0.80938819750E+02  0.51510089285E+03  0.64463506939E+03  0.94043245630E+02 0.  0.
         23    2    4    4    0    0  0.96085805049E+02 -0.82454231428E+02 -0.29531722814E+03  0.33464720793E+03  0.93516342553E+02 0.  0.
          1    1    3    3  502    0  0.25915864972E+03  0.13148481970E+03  0.17621007890E+03  0.33985505063E+03  0.00000000000E+00 0. -1.
         -2    1    3    3    0  502  0.11947890309E+02  0.31908231480E+02  0.32329432655E+02  0.46968920946E+02  0.00000000000E+00 0.  1.
         13    1    5    5    0    0 -0.33594341723E+03 -0.94140049293E+02  0.43484177128E+03  0.55750129553E+03  0.00000000000E+00 0. -1.
        -13    1    5    5    0    0 -0.31248927840E+02  0.13201229543E+02  0.80259121566E+02  0.87133773860E+02  0.00000000000E+00 0.  1.
          3    1    6    6  503    0  0.49917654499E+02 -0.51096086189E+02 -0.25751607422E+03  0.26723980006E+03  0.00000000000E+00 0. -1.
         -3    1    6    6    0  503  0.46168150550E+02 -0.31358145239E+02 -0.37801153930E+02  0.67407407875E+02  0.00000000000E+00 0.  1.
<mgrwt>
<rscale>  0 0.12972222E+04</rscale>
<asrwt>0</asrwt>
<pdfrwt beam="1">  1        1 0.13803303E+00 0.12972222E+04</pdfrwt>
<pdfrwt beam="2">  1       -2 0.72137159E-01 0.12972222E+04</pdfrwt>
<totfact> 0.27421618E+01</totfact>
</mgrwt>
</event>
<event>
12    5  0.5297412E-008  0.3472640E+04  0.7818608E-02  0.8120305E-01
          1   -1    0    0  501    0  0.00000000000E+00  0.00000000000E+00  0.14469481282E+04  0.14469481282E+04  0.00000000000E+00 0. -1.
         -2   -1    0    0    0  501 -0.00000000000E+00 -0.00000000000E+00 -0.20835632779E+04  0.20835632779E+04  0.00000000000E+00 0.  1.
        -24    2    1    2    0    0  0.25878775521E+02 -0.14745722290E+04  0.38962303335E+03  0.15274405784E+04  0.78966088035E+02 0.  0.
        254    2    1    2    0    0 -0.25878775521E+02  0.14745722290E+04 -0.10262381831E+04  0.20030708276E+04  0.88549136792E+03 0.  0.
         23    2    4    4    0    0 -0.41742941159E+02  0.83351835594E+02  0.13666693169E+03  0.18768186929E+03  0.88637645551E+02 0.  0.
         23    2    4    4    0    0  0.15864165638E+02  0.13912203934E+04 -0.11629051148E+04  0.18153889583E+04  0.86849924886E+02 0.  0.
          3    1    3    3  502    0 -0.28661613550E+01 -0.12744659259E+04  0.32595826644E+03  0.13154924563E+04  0.00000000000E+00 0. -1.
         -4    1    3    3    0  502  0.28744936876E+02 -0.20010630307E+03  0.63664766908E+02  0.21194812212E+03  0.00000000000E+00 0.  1.
         13    1    5    5    0    0 -0.53493457243E+02  0.86999255668E+02  0.14146266840E+03  0.17447666607E+03  0.00000000000E+00 0. -1.
        -13    1    5    5    0    0  0.11750516083E+02 -0.36474200747E+01 -0.47957367050E+01  0.13205203216E+02  0.00000000000E+00 0.  1.
          2    1    6    6  503    0  0.35963785497E+02  0.12732316772E+04 -0.10774331587E+04  0.16683148711E+04  0.00000000000E+00 0. -1.
         -2    1    6    6    0  503 -0.20099619859E+02  0.11798871622E+03 -0.85471956037E+02  0.14707408725E+03  0.00000000000E+00 0.  1.
<mgrwt>
<rscale>  0 0.34726405E+04</rscale>
<asrwt>0</asrwt>
<pdfrwt beam="1">  1        1 0.22260741E+00 0.34726405E+04</pdfrwt>
<pdfrwt beam="2">  1       -2 0.32054819E+00 0.34726405E+04</pdfrwt>
<totfact> 0.12148960E-01</totfact>
</mgrwt>
</event>
<event>
12    5  0.5297412E-008  0.1718071E+04  0.7818608E-02  0.8751125E-01
         -2   -1    0    0    0  501 -0.00000000000E+00  0.00000000000E+00  0.11691275156E+04  0.11691275156E+04  0.00000000000E+00 0.  1.
          1   -1    0    0  501    0  0.00000000000E+00 -0.00000000000E+00 -0.63118997708E+03  0.63118997708E+03  0.00000000000E+00 0. -1.
        -24    2    1    2    0    0 -0.47263389870E+03  0.88495970180E+02 -0.21286035779E+03  0.53168193770E+03  0.78497210221E+02 0.  0.
        254    2    1    2    0    0  0.47263389870E+03 -0.88495970180E+02  0.75079789631E+03  0.12686355550E+04  0.90251002838E+03 0.  0.
         23    2    4    4    0    0  0.47943139751E+03 -0.11132565010E+03  0.93653358779E+03  0.10618523978E+04  0.90484741188E+02 0.  0.
         23    2    4    4    0    0 -0.67974988057E+01  0.22829679918E+02 -0.18573569149E+03  0.20678315717E+03  0.87716171392E+02 0.  0.
          1    1    3    3  502    0 -0.46381360165E+03  0.93213175487E+02 -0.19600830025E+03  0.51208496065E+03  0.00000000000E+00 0. -1.
         -2    1    3    3    0  502 -0.88202970567E+01 -0.47172053064E+01 -0.16852057538E+02  0.19596977046E+02  0.00000000000E+00 0.  1.
         13    1    5    5    0    0  0.12811824396E+03 -0.70338942717E+02  0.29759261974E+03  0.33154670655E+03  0.00000000000E+00 0. -1.
        -13    1    5    5    0    0  0.35131315355E+03 -0.40986707381E+02  0.63894096805E+03  0.73030569126E+03  0.00000000000E+00 0.  1.
          4    1    6    6  503    0  0.26411409572E+02  0.38630008941E+02 -0.61874913072E+02  0.77577993104E+02  0.00000000000E+00 0. -1.
         -4    1    6    6    0  503 -0.33208908378E+02 -0.15800329023E+02 -0.12386077841E+03  0.12920516407E+03  0.00000000000E+00 0.  1.
<mgrwt>
<rscale>  0 0.17180705E+04</rscale>
<asrwt>0</asrwt>
<pdfrwt beam="1">  1        1 0.97106151E-01 0.17180705E+04</pdfrwt>
<pdfrwt beam="2">  1       -2 0.17986577E+00 0.17180705E+04</pdfrwt>
<totfact> 0.48037907E+00</totfact>
</mgrwt>
</event>
<event>
12    5  0.5297412E-008  0.1839837E+04  0.7818608E-02  0.8685397E-01
          1   -1    0    0  501    0  0.00000000000E+00  0.00000000000E+00  0.62065971571E+03  0.62065971571E+03  0.00000000000E+00 0. -1.
         -2   -1    0    0    0  501 -0.00000000000E+00 -0.00000000000E+00 -0.13634686742E+04  0.13634686742E+04  0.00000000000E+00 0.  1.
        -24    2    1    2    0    0  0.25709100762E+03 -0.39360920999E+03 -0.69068508117E+03  0.83942895577E+03  0.81062284978E+02 0.  0.
        254    2    1    2    0    0 -0.25709100762E+03  0.39360920999E+03 -0.52123877312E+02  0.11446994341E+04  0.10423991076E+04 0.  0.
         23    2    4    4    0    0 -0.23970691923E+03 -0.28687439724E+03 -0.21229356725E+03  0.43929385232E+03  0.90300626083E+02 0.  0.
         23    2    4    4    0    0 -0.17384088389E+02  0.68048360723E+03  0.16016968994E+03  0.70540558180E+03  0.92642101831E+02 0.  0.
          1    1    3    3  502    0  0.84319481947E+01 -0.61968294736E+02 -0.93276705567E+02  0.11230187489E+03  0.00000000000E+00 0. -1.
         -4    1    3    3    0  502  0.24865905943E+03 -0.33164091525E+03 -0.59740837560E+03  0.72712708087E+03  0.00000000000E+00 0.  1.
         13    1    5    5    0    0 -0.20400606087E+03 -0.20186473926E+03 -0.12755604440E+03  0.31406749321E+03  0.00000000000E+00 0.  1.
        -13    1    5    5    0    0 -0.35700858365E+02 -0.85009657975E+02 -0.84737522848E+02  0.12522635911E+03  0.00000000000E+00 0. -1.
          4    1    6    6  503    0 -0.52888779786E+02  0.47854557782E+03  0.12443003469E+03  0.49727852015E+03  0.00000000000E+00 0. -1.
         -4    1    6    6    0  503  0.35504691397E+02  0.20193802941E+03  0.35739655252E+02  0.20812706165E+03  0.00000000000E+00 0.  1.
<mgrwt>
<rscale>  0 0.18398370E+04</rscale>
<asrwt>0</asrwt>
<pdfrwt beam="1">  1        1 0.95486112E-01 0.18398370E+04</pdfrwt>
<pdfrwt beam="2">  1       -2 0.20976441E+00 0.18398370E+04</pdfrwt>
<totfact> 0.30823363E+00</totfact>
</mgrwt>
</event>
<event>
12    5  0.5297412E-008  0.1370504E+04  0.7818608E-02  0.8975450E-01
         -2   -1    0    0    0  501 -0.00000000000E+00  0.00000000000E+00  0.99480418983E+03  0.99480418983E+03  0.00000000000E+00 0.  1.
          1   -1    0    0  501    0  0.00000000000E+00 -0.00000000000E+00 -0.47202307985E+03  0.47202307985E+03  0.00000000000E+00 0. -1.
        -24    2    1    2    0    0 -0.21900220129E+03  0.29235226617E+03  0.23239892225E+03  0.44025170967E+03  0.79878013867E+02 0.  0.
        254    2    1    2    0    0  0.21900220129E+03 -0.29235226617E+03  0.29038218774E+03  0.10265755600E+04  0.91438709186E+03 0.  0.
         23    2    4    4    0    0  0.12246818464E+03  0.30102651760E+03  0.24387960427E+03  0.41651009238E+03  0.91585889361E+02 0.  0.
         23    2    4    4    0    0  0.96534016655E+02 -0.59337878377E+03  0.46502583475E+02  0.61006546763E+03  0.92737193883E+02 0.  0.
          3    1    3    3  502    0 -0.16654711011E+03  0.25562591812E+03  0.16331509314E+03  0.34605544288E+03  0.00000000000E+00 0. -1.
         -4    1    3    3    0  502 -0.52455091187E+02  0.36726348043E+02  0.69083829109E+02  0.94196266786E+02  0.00000000000E+00 0.  1.
         13    1    5    5    0    0  0.16714888329E+02  0.12997421830E+03  0.13365676985E+03  0.18718124115E+03  0.00000000000E+00 0.  1.
        -13    1    5    5    0    0  0.10575329631E+03  0.17105229931E+03  0.11022283442E+03  0.22932885123E+03  0.00000000000E+00 0. -1.
          1    1    6    6  503    0  0.42619053014E+02 -0.45173280051E+03  0.85208742114E+01  0.45381880970E+03  0.00000000000E+00 0. -1.
         -1    1    6    6    0  503  0.53914963641E+02 -0.14164598326E+03  0.37981709264E+02  0.15624665794E+03  0.00000000000E+00 0.  1.
<mgrwt>
<rscale>  0 0.13705043E+04</rscale>
<asrwt>0</asrwt>
<pdfrwt beam="1">  1        1 0.72618935E-01 0.13705043E+04</pdfrwt>
<pdfrwt beam="2">  1       -2 0.15304680E+00 0.13705043E+04</pdfrwt>
<totfact> 0.11631644E+01</totfact>
</mgrwt>
</event>
<event>
12    5  0.5297412E-008  0.1679366E+04  0.7818608E-02  0.8773221E-01
          3   -1    0    0  501    0  0.00000000000E+00  0.00000000000E+00  0.59470324953E+03  0.59470324953E+03  0.00000000000E+00 0. -1.
         -4   -1    0    0    0  501 -0.00000000000E+00 -0.00000000000E+00 -0.11855785079E+04  0.11855785079E+04  0.00000000000E+00 0.  1.
        -24    2    1    2    0    0  0.90970611230E+02  0.58414383081E+03 -0.15383404418E+03  0.61596734867E+03  0.79064494561E+02 0.  0.
        254    2    1    2    0    0 -0.90970611230E+02 -0.58414383081E+03 -0.43704121418E+03  0.11643144087E+04  0.90284182022E+03 0.  0.
         23    2    4    4    0    0  0.13293867140E+03 -0.75495005152E+03 -0.38909641575E+03  0.86439719599E+03  0.90356079195E+02 0.  0.
         23    2    4    4    0    0 -0.22390928263E+03  0.17080622070E+03 -0.47944798432E+02  0.29991721276E+03  0.91331806782E+02 0.  0.
          1    1    3    3  502    0 -0.14539825406E+02  0.55151057059E+02 -0.14967289325E+02  0.58966646227E+02  0.00000000000E+00 0. -1.
         -2    1    3    3    0  502  0.10551043664E+03  0.52899277375E+03 -0.13886675485E+03  0.55700070245E+03  0.00000000000E+00 0.  1.
         13    1    5    5    0    0  0.27569117084E+01 -0.47518147221E+02 -0.22260773601E+01  0.47650081825E+02  0.00000000000E+00 0.  1.
        -13    1    5    5    0    0  0.13018175970E+03 -0.70743190430E+03 -0.38687033839E+03  0.81674711416E+03  0.00000000000E+00 0. -1.
          4    1    6    6  503    0 -0.16424473454E+03  0.13380490534E+03  0.51222954675E+01  0.21191112153E+03  0.00000000000E+00 0. -1.
         -4    1    6    6    0  503 -0.59664548092E+02  0.37001315362E+02 -0.53067093900E+02  0.88006091224E+02  0.00000000000E+00 0.  1.
<mgrwt>
<rscale>  0 0.16793658E+04</rscale>
<asrwt>0</asrwt>
<pdfrwt beam="1">  1        3 0.91492808E-01 0.16793658E+04</pdfrwt>
<pdfrwt beam="2">  1       -4 0.18239669E+00 0.16793658E+04</pdfrwt>
<totfact> 0.40523652E-01</totfact>
</mgrwt>
</event>
<event>
12    5  0.5297412E-008  0.1044376E+04  0.7818608E-02  0.9261170E-01
         -2   -1    0    0    0  501 -0.00000000000E+00  0.00000000000E+00  0.62203278151E+03  0.62203278151E+03  0.00000000000E+00 0.  1.
          1   -1    0    0  501    0  0.00000000000E+00 -0.00000000000E+00 -0.43836927358E+03  0.43836927358E+03  0.00000000000E+00 0. -1.
        -24    2    1    2    0    0  0.73498411570E+02 -0.63390505754E+02 -0.30069761613E+02  0.13045557412E+03  0.81817440271E+02 0.  0.
        254    2    1    2    0    0 -0.73498411570E+02  0.63390505754E+02  0.21373326954E+03  0.92994648097E+03  0.89983230340E+03 0.  0.
         23    2    4    4    0    0  0.31250943755E+03 -0.23506235477E+03  0.43112691423E+02  0.40453752566E+03  0.94209587198E+02 0.  0.
         23    2    4    4    0    0 -0.38600784912E+03  0.29845286052E+03  0.17062057812E+03  0.52540895531E+03  0.94164850690E+02 0.  0.
          3    1    3    3  502    0  0.17843384391E+02 -0.30400541738E+02 -0.51405354588E+02  0.62330488405E+02  0.00000000000E+00 0. -1.
         -4    1    3    3    0  502  0.55655027179E+02 -0.32989964016E+02  0.21335592975E+02  0.68125085715E+02  0.00000000000E+00 0.  1.
         13    1    5    5    0    0  0.27859752139E+03 -0.23735758909E+03  0.51297899903E+02  0.36957635011E+03  0.00000000000E+00 0.  1.
        -13    1    5    5    0    0  0.33911916161E+02  0.22952343250E+01 -0.81852084800E+01  0.34961175555E+02  0.00000000000E+00 0. -1.
          3    1    6    6  503    0 -0.79558246492E+02  0.89427165877E+02  0.67733652431E+01  0.11988582509E+03  0.00000000000E+00 0. -1.
         -3    1    6    6    0  503 -0.30644960263E+03  0.20902569464E+03  0.16384721287E+03  0.40552313022E+03  0.00000000000E+00 0.  1.
<mgrwt>
<rscale>  0 0.10443755E+04</rscale>
<asrwt>0</asrwt>
<pdfrwt beam="1">  1        1 0.67441427E-01 0.10443755E+04</pdfrwt>
<pdfrwt beam="2">  1       -2 0.95697350E-01 0.10443755E+04</pdfrwt>
<totfact> 0.42495154E+01</totfact>
</mgrwt>
</event>
<event>
12    5  0.5297412E-008  0.1720918E+04  0.7818608E-02  0.8749523E-01
         -2   -1    0    0    0  501 -0.00000000000E+00  0.00000000000E+00  0.33109896724E+03  0.33109896724E+03  0.00000000000E+00 0.  1.
          1   -1    0    0  501    0  0.00000000000E+00 -0.00000000000E+00 -0.22361572312E+04  0.22361572312E+04  0.00000000000E+00 0. -1.
        -24    2    1    2    0    0  0.11419283384E+03 -0.40090647776E+03 -0.16724658718E+01  0.42400321605E+03  0.77523692317E+02 0.  0.
        254    2    1    2    0    0 -0.11419283384E+03  0.40090647776E+03 -0.19033857981E+04  0.21432529824E+04  0.89268686724E+03 0.  0.
         23    2    4    4    0    0 -0.24493079671E+02  0.31571622211E+03 -0.19496928089E+04  0.19772979141E+04  0.90157351489E+02 0.  0.
         23    2    4    4    0    0 -0.89699754173E+02  0.85190255645E+02  0.46307010810E+02  0.16595506832E+03  0.10046551595E+03 0.  0.
          3    1    3    3  502    0  0.59389176436E+02 -0.20061789248E+03 -0.39540936045E+02  0.21292744934E+03  0.00000000000E+00 0. -1.
         -4    1    3    3    0  502  0.54803657408E+02 -0.20028858528E+03  0.37868470173E+02  0.21107576671E+03  0.00000000000E+00 0.  1.
         13    1    5    5    0    0  0.64485842807E+01  0.14925049285E+03 -0.67001301353E+03  0.68646539036E+03  0.00000000000E+00 0. -1.
        -13    1    5    5    0    0 -0.30941663952E+02  0.16646572927E+03 -0.12796797954E+04  0.12908325238E+04  0.00000000000E+00 0.  1.
          3    1    6    6  503    0 -0.33218797035E+02  0.12060460160E+02 -0.29814169144E+02  0.46236650587E+02  0.00000000000E+00 0. -1.
         -3    1    6    6    0  503 -0.56480957138E+02  0.73129795486E+02  0.76121179954E+02  0.11971841773E+03  0.00000000000E+00 0.  1.
<mgrwt>
<rscale>  0 0.17209176E+04</rscale>
<asrwt>0</asrwt>
<pdfrwt beam="1">  1        1 0.34402418E+00 0.17209176E+04</pdfrwt>
<pdfrwt beam="2">  1       -2 0.50938304E-01 0.17209176E+04</pdfrwt>
<totfact> 0.62585499E+00</totfact>
</mgrwt>
</event>
<event>
12    5  0.5297412E-008  0.1587081E+04  0.7818608E-02  0.8828524E-01
          1   -1    0    0  501    0  0.00000000000E+00  0.00000000000E+00  0.52790054596E+03  0.52790054596E+03  0.00000000000E+00 0. -1.
         -2   -1    0    0    0  501 -0.00000000000E+00 -0.00000000000E+00 -0.11928501878E+04  0.11928501878E+04  0.00000000000E+00 0.  1.
        -24    2    1    2    0    0 -0.52010214170E+03 -0.13750348913E+03 -0.25001548614E+03  0.59855673932E+03  0.79680484108E+02 0.  0.
        254    2    1    2    0    0  0.52010214170E+03  0.13750348913E+03 -0.41493415570E+03  0.11221939944E+04  0.89316043367E+03 0.  0.
         23    2    4    4    0    0  0.51389635252E+03 -0.27386563194E+03 -0.37523450755E+03  0.69873873838E+03  0.91340261466E+02 0.  0.
         23    2    4    4    0    0  0.62057891828E+01  0.41136912107E+03 -0.39699648151E+02  0.42345525607E+03  0.92060991949E+02 0.  0.
          1    1    3    3  502    0 -0.18538873117E+03 -0.17203387658E+02 -0.61949052050E+02  0.19622085323E+03  0.00000000000E+00 0. -1.
         -2    1    3    3    0  502 -0.33471341053E+03 -0.12030010147E+03 -0.18806643409E+03  0.40233588608E+03  0.00000000000E+00 0.  1.
         13    1    5    5    0    0  0.45113081004E+03 -0.21668515792E+03 -0.28995608749E+03  0.57839951427E+03  0.00000000000E+00 0.  1.
        -13    1    5    5    0    0  0.62765542473E+02 -0.57180474019E+02 -0.85278420062E+02  0.12033922411E+03  0.00000000000E+00 0. -1.
          4    1    6    6  503    0  0.40747569677E+02  0.12090516487E+03 -0.28494646222E+02  0.13073013497E+03  0.00000000000E+00 0. -1.
         -4    1    6    6    0  503 -0.34541780495E+02  0.29046395620E+03 -0.11205001929E+02  0.29272512110E+03  0.00000000000E+00 0.  1.
<mgrwt>
<rscale>  0 0.15870807E+04</rscale>
<asrwt>0</asrwt>
<pdfrwt beam="1">  1        1 0.81215469E-01 0.15870807E+04</pdfrwt>
<pdfrwt beam="2">  1       -2 0.18351541E+00 0.15870807E+04</pdfrwt>
<totfact> 0.59171754E+00</totfact>
</mgrwt>
</event>
<event>
12    5  0.5297412E-008  0.3222719E+04  0.7818608E-02  0.8182843E-01
         -2   -1    0    0    0  501 -0.00000000000E+00  0.00000000000E+00  0.18537658420E+04  0.18537658420E+04  0.00000000000E+00 0.  1.
          1   -1    0    0  501    0  0.00000000000E+00 -0.00000000000E+00 -0.14006513008E+04  0.14006513008E+04  0.00000000000E+00 0. -1.
        -24    2    1    2    0    0  0.91843294976E+03 -0.29182288767E+02 -0.95547757476E+03  0.13280735888E+04  0.80444839066E+02 0.  0.
        254    2    1    2    0    0 -0.91843294976E+03  0.29182288767E+02  0.14085921159E+04  0.19263435540E+04  0.93930668574E+03 0.  0.
         23    2    4    4    0    0 -0.22203288489E+02  0.34526356981E+03  0.42611435639E+03  0.55654504223E+03  0.92027282075E+02 0.  0.
         23    2    4    4    0    0 -0.89622966128E+03 -0.31608128105E+03  0.98247775954E+03  0.13697985118E+04  0.89165200306E+02 0.  0.
          1    1    3    3  502    0  0.38336197472E+03 -0.15290109678E+02 -0.45647559919E+03  0.59629704324E+03  0.00000000000E+00 0. -1.
         -2    1    3    3    0  502  0.53507097504E+03 -0.13892179088E+02 -0.49900197557E+03  0.73177654554E+03  0.00000000000E+00 0.  1.
         13    1    5    5    0    0 -0.31670720894E+02  0.33807892617E+02  0.59230721854E+02  0.75194990369E+02  0.00000000000E+00 0. -1.
        -13    1    5    5    0    0  0.94674324056E+01  0.31145567720E+03  0.36688363454E+03  0.48135005186E+03  0.00000000000E+00 0.  1.
          1    1    6    6  503    0 -0.17646686650E+03 -0.58177370103E+02  0.24524193514E+03  0.30768290189E+03  0.00000000000E+00 0. -1.
         -1    1    6    6    0  503 -0.71976279478E+03 -0.25790391094E+03  0.73723582440E+03  0.10621156099E+04  0.00000000000E+00 0.  1.
<mgrwt>
<rscale>  0 0.32227191E+04</rscale>
<asrwt>0</asrwt>
<pdfrwt beam="1">  1        1 0.21548481E+00 0.32227191E+04</pdfrwt>
<pdfrwt beam="2">  1       -2 0.28519475E+00 0.32227191E+04</pdfrwt>
<totfact> 0.22030514E-01</totfact>
</mgrwt>
</event>
<event>
12    5  0.5297412E-008  0.2582127E+04  0.7818608E-02  0.8374298E-01
          1   -1    0    0  501    0  0.00000000000E+00  0.00000000000E+00  0.20283198791E+04  0.20283198791E+04  0.00000000000E+00 0. -1.
         -2   -1    0    0    0  501 -0.00000000000E+00 -0.00000000000E+00 -0.82178617617E+03  0.82178617617E+03  0.00000000000E+00 0.  1.
        -24    2    1    2    0    0  0.85682615366E+03  0.60814907649E+03  0.99849840519E+03  0.14518543637E+04  0.82979945051E+02 0.  0.
        254    2    1    2    0    0 -0.85682615366E+03 -0.60814907649E+03  0.20803529777E+03  0.13982516916E+04  0.89879516645E+03 0.  0.
         23    2    4    4    0    0 -0.34061005392E+02 -0.21178833733E+03 -0.27531990358E+03  0.36083587553E+03  0.91580717662E+02 0.  0.
         23    2    4    4    0    0 -0.82276514826E+03 -0.39636073916E+03  0.48335520135E+03  0.10374158161E+04  0.92493243573E+02 0.  0.
          3    1    3    3  502    0  0.67670427609E+03  0.43795065308E+03  0.77265312845E+03  0.11165671985E+04  0.00000000000E+00 0. -1.
         -4    1    3    3    0  502  0.18012187756E+03  0.17019842341E+03  0.22584527674E+03  0.33528716518E+03  0.00000000000E+00 0.  1.
         13    1    5    5    0    0 -0.41310591278E+02 -0.13738303545E+03 -0.23647532555E+03  0.27658858070E+03  0.00000000000E+00 0.  1.
        -13    1    5    5    0    0  0.72495858861E+01 -0.74405301882E+02 -0.38844578022E+02  0.84247294825E+02  0.00000000000E+00 0. -1.
          4    1    6    6  503    0 -0.93862821862E+02 -0.21971668579E+02  0.73364283303E+02  0.12114165928E+03  0.00000000000E+00 0. -1.
         -4    1    6    6    0  503 -0.72890232640E+03 -0.37438907058E+03  0.40999091804E+03  0.91627415684E+03  0.00000000000E+00 0.  1.
<mgrwt>
<rscale>  0 0.25821272E+04</rscale>
<asrwt>0</asrwt>
<pdfrwt beam="1">  1        1 0.31204921E+00 0.25821272E+04</pdfrwt>
<pdfrwt beam="2">  1       -2 0.12642864E+00 0.25821272E+04</pdfrwt>
<totfact> 0.10298368E+00</totfact>
</mgrwt>
</event>
<event>
12    5  0.5297412E-008  0.1410665E+04  0.7818608E-02  0.8946135E-01
         -2   -1    0    0    0  501 -0.00000000000E+00  0.00000000000E+00  0.87106947842E+03  0.87106947842E+03  0.00000000000E+00 0.  1.
          1   -1    0    0  501    0  0.00000000000E+00 -0.00000000000E+00 -0.57112971222E+03  0.57112971222E+03  0.00000000000E+00 0. -1.
        -24    2    1    2    0    0  0.13138747727E+03  0.55429764073E+02  0.47589077858E+03  0.50575856270E+03  0.94786933031E+02 0.  0.
        254    2    1    2    0    0 -0.13138747727E+03 -0.55429764073E+02 -0.17595101238E+03  0.93644062794E+03  0.90864028250E+03 0.  0.
         23    2    4    4    0    0  0.27762766336E+03 -0.15544304121E+02 -0.37008597701E+03  0.47286616424E+03  0.96540323422E+02 0.  0.
         23    2    4    4    0    0 -0.40901514063E+03 -0.39885459952E+02  0.19413496463E+03  0.46357446370E+03  0.91261512812E+02 0.  0.
          1    1    3    3  502    0  0.59058465304E+02  0.56789743122E+01  0.76379863529E+02  0.96716268673E+02  0.00000000000E+00 0. -1.
         -2    1    3    3    0  502  0.72329011966E+02  0.49750789761E+02  0.39951091505E+03  0.40904229402E+03  0.00000000000E+00 0.  1.
         13    1    5    5    0    0  0.28655305849E+02  0.19517129779E+01 -0.10464203917E+03  0.10851217489E+03  0.00000000000E+00 0. -1.
        -13    1    5    5    0    0  0.24897235751E+03 -0.17496017099E+02 -0.26544393784E+03  0.36435398935E+03  0.00000000000E+00 0.  1.
          1    1    6    6  503    0 -0.31065758162E+03 -0.43112992785E+02  0.18643586716E+03  0.36486325621E+03  0.00000000000E+00 0. -1.
         -1    1    6    6    0  503 -0.98357559014E+02  0.32275328337E+01  0.76990974684E+01  0.98711207495E+02  0.00000000000E+00 0.  1.
<mgrwt>
<rscale>  0 0.14106646E+04</rscale>
<asrwt>0</asrwt>
<pdfrwt beam="1">  1        1 0.87866110E-01 0.14106646E+04</pdfrwt>
<pdfrwt beam="2">  1       -2 0.13401069E+00 0.14106646E+04</pdfrwt>
<totfact> 0.12591933E+01</totfact>
</mgrwt>
</event>
<event>
12    5  0.5297412E-008  0.1069914E+04  0.7818608E-02  0.9235022E-01
         -2   -1    0    0    0  501 -0.00000000000E+00  0.00000000000E+00  0.22501957319E+03  0.22501957319E+03  0.00000000000E+00 0.  1.
          1   -1    0    0  501    0  0.00000000000E+00 -0.00000000000E+00 -0.12717963951E+04  0.12717963951E+04  0.00000000000E+00 0. -1.
        -24    2    1    2    0    0  0.91252697105E+02  0.56245957058E+02 -0.75777168743E+02  0.15725985561E+03  0.86589955944E+02 0.  0.
        254    2    1    2    0    0 -0.91252697105E+02 -0.56245957058E+02 -0.97099965319E+03  0.13395561127E+04  0.91655855796E+03 0.  0.
         23    2    4    4    0    0  0.35542499866E+03 -0.19804918777E+03 -0.28852602637E+03  0.50681006047E+03  0.89770591279E+02 0.  0.
         23    2    4    4    0    0 -0.44667769576E+03  0.14180323071E+03 -0.68247362682E+03  0.83274605223E+03  0.89814342198E+02 0.  0.
          1    1    3    3  502    0  0.14308438619E+02  0.44285461603E+01 -0.61627192923E+02  0.63421245213E+02  0.00000000000E+00 0. -1.
         -2    1    3    3    0  502  0.76944258486E+02  0.51817410897E+02 -0.14149975821E+02  0.93838610400E+02  0.00000000000E+00 0.  1.
         13    1    5    5    0    0  0.35682983234E+03 -0.20107579152E+03 -0.27612416752E+03  0.49396716397E+03  0.00000000000E+00 0.  1.
        -13    1    5    5    0    0 -0.14048336818E+01  0.30266037539E+01 -0.12401858844E+02  0.12842896509E+02  0.00000000000E+00 0. -1.
          3    1    6    6  503    0 -0.18804484681E+02  0.25650154794E+02 -0.67493912218E+02  0.74612112097E+02  0.00000000000E+00 0. -1.
         -3    1    6    6    0  503 -0.42787321108E+03  0.11615307592E+03 -0.61497971460E+03  0.75813394013E+03  0.00000000000E+00 0.  1.
<mgrwt>
<rscale>  0 0.10699142E+04</rscale>
<asrwt>0</asrwt>
<pdfrwt beam="1">  1        1 0.19566099E+00 0.10699142E+04</pdfrwt>
<pdfrwt beam="2">  1       -2 0.34618395E-01 0.10699142E+04</pdfrwt>
<totfact> 0.64899306E+01</totfact>
</mgrwt>
</event>
<event>
12    5  0.5297412E-008  0.1476609E+04  0.7818608E-02  0.8900158E-01
          1   -1    0    0  501    0  0.00000000000E+00  0.00000000000E+00  0.12576245670E+04  0.12576245670E+04  0.00000000000E+00 0. -1.
         -2   -1    0    0    0  501 -0.00000000000E+00 -0.00000000000E+00 -0.43343102275E+03  0.43343102275E+03  0.00000000000E+00 0.  1.
        -24    2    1    2    0    0  0.61661616803E+02  0.31462596195E+03 -0.11547598614E+03  0.35025826988E+03  0.80959874769E+02 0.  0.
        254    2    1    2    0    0 -0.61661616803E+02 -0.31462596195E+03  0.93966953043E+03  0.13407973199E+04  0.90109210169E+03 0.  0.
         23    2    4    4    0    0 -0.27041780101E+03 -0.33324857671E+03  0.10106763070E+04  0.11017042141E+04  0.90028755717E+02 0.  0.
         23    2    4    4    0    0  0.20875618420E+03  0.18622614758E+02 -0.71006776521E+02  0.23909310585E+03  0.90540624746E+02 0.  0.
          1    1    3    3  502    0  0.11498380794E+02  0.19413942135E+02  0.11118481977E+02  0.25154215384E+02  0.00000000000E+00 0. -1.
         -2    1    3    3    0  502  0.50163236009E+02  0.29521201982E+03 -0.12659446812E+03  0.32510405450E+03  0.00000000000E+00 0.  1.
         13    1    5    5    0    0 -0.37335820391E+02 -0.76436581364E+02  0.13173429221E+03  0.15681338654E+03  0.00000000000E+00 0.  1.
        -13    1    5    5    0    0 -0.23308198062E+03 -0.25681199535E+03  0.87894201475E+03  0.94489082752E+03  0.00000000000E+00 0. -1.
          4    1    6    6  503    0  0.10313566749E+03 -0.35844371676E+02 -0.39933090088E+02  0.11626021062E+03  0.00000000000E+00 0. -1.
         -4    1    6    6    0  503  0.10562051671E+03  0.54466986434E+02 -0.31073686432E+02  0.12283289523E+03  0.00000000000E+00 0.  1.
<mgrwt>
<rscale>  0 0.14766090E+04</rscale>
<asrwt>0</asrwt>
<pdfrwt beam="1">  1        1 0.19348070E+00 0.14766090E+04</pdfrwt>
<pdfrwt beam="2">  1       -2 0.66681696E-01 0.14766090E+04</pdfrwt>
<totfact> 0.17041657E+01</totfact>
</mgrwt>
</event>
<event>
12    5  0.5297412E-008  0.1604525E+04  0.7818608E-02  0.8817773E-01
          1   -1    0    0  501    0  0.00000000000E+00  0.00000000000E+00  0.23895407175E+04  0.23895407175E+04  0.00000000000E+00 0. -1.
         -2   -1    0    0    0  501 -0.00000000000E+00 -0.00000000000E+00 -0.26935103812E+03  0.26935103812E+03  0.00000000000E+00 0.  1.
        -24    2    1    2    0    0 -0.45207958925E+03 -0.29311213381E+03  0.80293540074E+03  0.96997052594E+03  0.76464929349E+02 0.  0.
        254    2    1    2    0    0  0.45207958925E+03  0.29311213381E+03  0.13172542786E+04  0.16889212297E+04  0.90939837665E+03 0.  0.
         23    2    4    4    0    0 -0.26368576760E+03  0.15564004216E+03  0.44983742068E+03  0.55232850569E+03  0.94652344884E+02 0.  0.
         23    2    4    4    0    0  0.71576535685E+03  0.13747209165E+03  0.86741685796E+03  0.11365927240E+04  0.90622252809E+02 0.  0.
          3    1    3    3  502    0 -0.37700093598E+03 -0.23372954342E+03  0.60592267636E+03  0.75093374869E+03  0.00000000000E+00 0. -1.
         -4    1    3    3    0  502 -0.75078653275E+02 -0.59382590393E+02  0.19701272438E+03  0.21903677725E+03  0.00000000000E+00 0.  1.
         13    1    5    5    0    0 -0.15547394257E+03  0.14240307047E+03  0.31273008249E+03  0.37716161760E+03  0.00000000000E+00 0.  1.
        -13    1    5    5    0    0 -0.10821182503E+03  0.13236971689E+02  0.13710733819E+03  0.17516688809E+03  0.00000000000E+00 0. -1.
          3    1    6    6  503    0  0.11917248379E+03  0.19802690201E+02  0.20039628476E+03  0.23399337251E+03  0.00000000000E+00 0. -1.
         -3    1    6    6    0  503  0.59659287306E+03  0.11766940145E+03  0.66702057319E+03  0.90259935148E+03  0.00000000000E+00 0.  1.
<mgrwt>
<rscale>  0 0.16045252E+04</rscale>
<asrwt>0</asrwt>
<pdfrwt beam="1">  1        1 0.36762163E+00 0.16045252E+04</pdfrwt>
<pdfrwt beam="2">  1       -2 0.41438623E-01 0.16045252E+04</pdfrwt>
<totfact> 0.75176347E+00</totfact>
</mgrwt>
</event>
<event>
12    5  0.5297412E-008  0.2750455E+04  0.7818608E-02  0.8318817E-01
          1   -1    0    0  501    0  0.00000000000E+00  0.00000000000E+00  0.42753376424E+04  0.42753376424E+04  0.00000000000E+00 0. -1.
         -2   -1    0    0    0  501 -0.00000000000E+00 -0.00000000000E+00 -0.44236294752E+03  0.44236294752E+03  0.00000000000E+00 0.  1.
        -24    2    1    2    0    0  0.13128004389E+03 -0.11294365908E+04  0.24421600054E+04  0.26950482192E+04  0.79233510277E+02 0.  0.
        254    2    1    2    0    0 -0.13128004389E+03  0.11294365908E+04  0.13908146895E+04  0.20226523708E+04  0.92945987002E+03 0.  0.
         23    2    4    4    0    0 -0.47616014109E+03  0.32932306267E+03  0.64990017491E+03  0.87535655946E+03  0.93256148624E+02 0.  0.
         23    2    4    4    0    0  0.34488009720E+03  0.80011352809E+03  0.74091451457E+03  0.11472958113E+04  0.90605857735E+02 0.  0.
          3    1    3    3  502    0  0.68113358920E+02 -0.78278657239E+03  0.17526342583E+04  0.19207084867E+04  0.00000000000E+00 0. -1.
         -4    1    3    3    0  502  0.63166684972E+02 -0.34665001838E+03  0.68952574708E+03  0.77433973243E+03  0.00000000000E+00 0.  1.
         13    1    5    5    0    0 -0.36236285032E+03  0.25456453776E+03  0.55187252825E+03  0.70758266416E+03  0.00000000000E+00 0.  1.
        -13    1    5    5    0    0 -0.11379729077E+03  0.74758524910E+02  0.98027646667E+02  0.16777389530E+03  0.00000000000E+00 0. -1.
          3    1    6    6  503    0  0.10267271297E+03  0.34415419229E+03  0.32375294268E+03  0.48352845000E+03  0.00000000000E+00 0. -1.
         -3    1    6    6    0  503  0.24220738422E+03  0.45595933580E+03  0.41716157189E+03  0.66376736131E+03  0.00000000000E+00 0.  1.
<mgrwt>
<rscale>  0 0.27504552E+04</rscale>
<asrwt>0</asrwt>
<pdfrwt beam="1">  1        1 0.65774422E+00 0.27504552E+04</pdfrwt>
<pdfrwt beam="2">  1       -2 0.68055841E-01 0.27504552E+04</pdfrwt>
<totfact> 0.81315132E-02</totfact>
</mgrwt>
</event>
<event>
12    5  0.5297412E-008  0.1964516E+04  0.7818608E-02  0.8623392E-01
          3   -1    0    0  501    0  0.00000000000E+00  0.00000000000E+00  0.16042604397E+04  0.16042604397E+04  0.00000000000E+00 0. -1.
         -4   -1    0    0    0  501 -0.00000000000E+00 -0.00000000000E+00 -0.60141809383E+03  0.60141809383E+03  0.00000000000E+00 0.  1.
        -24    2    1    2    0    0 -0.71976279781E+02 -0.29456966777E+03  0.10698696338E+04  0.11148252484E+04  0.79135498258E+02 0.  0.
        254    2    1    2    0    0  0.71976279781E+02  0.29456966777E+03 -0.67027287952E+02  0.10908532851E+04  0.10457133251E+04 0.  0.
         23    2    4    4    0    0 -0.22338244773E+03 -0.31597550798E+03  0.34517273342E+02  0.39879813081E+03  0.90045918195E+02 0.  0.
         23    2    4    4    0    0  0.29535872751E+03  0.61054517575E+03 -0.10154456129E+03  0.69205515433E+03  0.92880833083E+02 0.  0.
          1    1    3    3  502    0 -0.22757770477E+02 -0.17194663732E+03  0.48108291110E+03  0.51139449503E+03  0.00000000000E+00 0. -1.
         -2    1    3    3    0  502 -0.49218509305E+02 -0.12262303046E+03  0.58878672275E+03  0.60343075340E+03  0.00000000000E+00 0.  1.
         13    1    5    5    0    0 -0.20686473661E+03 -0.23127407338E+03  0.17107909388E+02  0.31076260527E+03  0.00000000000E+00 0.  1.
        -13    1    5    5    0    0 -0.16517711115E+02 -0.84701434599E+02  0.17409363954E+02  0.88035525539E+02  0.00000000000E+00 0. -1.
          1    1    6    6  503    0  0.61765624933E+02  0.10224551255E+03  0.15743395399E+02  0.12048647957E+03  0.00000000000E+00 0. -1.
         -1    1    6    6    0  503  0.23359310258E+03  0.50829966320E+03 -0.11728795669E+03  0.57156867475E+03  0.00000000000E+00 0.  1.
<mgrwt>
<rscale>  0 0.19645165E+04</rscale>
<asrwt>0</asrwt>
<pdfrwt beam="1">  1        3 0.24680930E+00 0.19645165E+04</pdfrwt>
<pdfrwt beam="2">  1       -4 0.92525861E-01 0.19645165E+04</pdfrwt>
<totfact> 0.16329268E-01</totfact>
</mgrwt>
</event>
<event>
12    5  0.5297412E-008  0.1583624E+04  0.7818608E-02  0.8830672E-01
         -2   -1    0    0    0  501 -0.00000000000E+00  0.00000000000E+00  0.40772422578E+03  0.40772422578E+03  0.00000000000E+00 0.  1.
          1   -1    0    0  501    0  0.00000000000E+00 -0.00000000000E+00 -0.15377206419E+04  0.15377206419E+04  0.00000000000E+00 0. -1.
        -24    2    1    2    0    0 -0.41681621513E+03  0.17346395842E+03 -0.25243902835E+02  0.45941086171E+03  0.81213195702E+02 0.  0.
        254    2    1    2    0    0  0.41681621513E+03 -0.17346395842E+03 -0.11047525132E+04  0.14860340059E+04  0.88543404565E+03 0.  0.
         23    2    4    4    0    0  0.25031147844E+03 -0.12589723476E+03  0.62622631347E+02  0.30137758233E+03  0.91656441219E+02 0.  0.
         23    2    4    4    0    0  0.16650473669E+03 -0.47566723657E+02 -0.11673751446E+04  0.11846564236E+04  0.10324579036E+03 0.  0.
          3    1    3    3  502    0 -0.31016867349E+03  0.10629365432E+03 -0.47887672720E+02  0.33135506057E+03  0.00000000000E+00 0. -1.
         -4    1    3    3    0  502 -0.10664754164E+03  0.67170304105E+02  0.22643769886E+02  0.12805580114E+03  0.00000000000E+00 0.  1.
         13    1    5    5    0    0  0.15336792291E+03 -0.91695285255E+02  0.82267756656E+02  0.19671738332E+03  0.00000000000E+00 0. -1.
        -13    1    5    5    0    0  0.96943555527E+02 -0.34201949508E+02 -0.19645125309E+02  0.10466019901E+03  0.00000000000E+00 0.  1.
          1    1    6    6  503    0  0.16781215959E+03 -0.25976899103E+02 -0.11170026418E+04  0.11298365466E+04  0.00000000000E+00 0. -1.
         -1    1    6    6    0  503 -0.13074229026E+01 -0.21589824554E+02 -0.50372502751E+02  0.54819876982E+02  0.00000000000E+00 0.  1.
<mgrwt>
<rscale>  0 0.15836236E+04</rscale>
<asrwt>0</asrwt>
<pdfrwt beam="1">  1        1 0.23657241E+00 0.15836236E+04</pdfrwt>
<pdfrwt beam="2">  1       -2 0.62726803E-01 0.15836236E+04</pdfrwt>
<totfact> 0.12237667E+01</totfact>
</mgrwt>
</event>
<event>
12    5  0.5297412E-008  0.2442940E+04  0.7818608E-02  0.8423600E-01
          1   -1    0    0  501    0  0.00000000000E+00  0.00000000000E+00  0.17428895016E+04  0.17428895016E+04  0.00000000000E+00 0. -1.
         -2   -1    0    0    0  501 -0.00000000000E+00 -0.00000000000E+00 -0.85604336134E+03  0.85604336134E+03  0.00000000000E+00 0.  1.
        -24    2    1    2    0    0 -0.70032694960E+03 -0.76049895837E+03  0.60946365396E+03  0.12027039743E+04  0.78958231292E+02 0.  0.
        254    2    1    2    0    0  0.70032694960E+03  0.76049895837E+03  0.27738248633E+03  0.13962288887E+04  0.89649180910E+03 0.  0.
         23    2    4    4    0    0  0.51357662399E+03  0.14391674991E+03  0.47080943062E+03  0.71732066513E+03  0.91730240617E+02 0.  0.
         23    2    4    4    0    0  0.18675032561E+03  0.61658220846E+03 -0.19342694429E+03  0.67890822353E+03  0.91940683565E+02 0.  0.
          3    1    3    3  502    0 -0.34379890703E+02 -0.27645107757E+02  0.44402499962E+02  0.62592418635E+02  0.00000000000E+00 0. -1.
         -4    1    3    3    0  502 -0.66594705889E+03 -0.73285385062E+03  0.56506115400E+03  0.11401115557E+04  0.00000000000E+00 0.  1.
         13    1    5    5    0    0  0.44657489110E+03  0.91129064786E+02  0.39114148995E+03  0.60060411668E+03  0.00000000000E+00 0.  1.
        -13    1    5    5    0    0  0.67001732888E+02  0.52787685128E+02  0.79667940670E+02  0.11671654845E+03  0.00000000000E+00 0. -1.
          1    1    6    6  503    0  0.85111407875E+02  0.14376543469E+03 -0.54402019757E+02  0.17570438730E+03  0.00000000000E+00 0. -1.
         -1    1    6    6    0  503  0.10163891773E+03  0.47281677377E+03 -0.13902492453E+03  0.50320383623E+03  0.00000000000E+00 0.  1.
<mgrwt>
<rscale>  0 0.24429400E+04</rscale>
<asrwt>0</asrwt>
<pdfrwt beam="1">  1        1 0.26813685E+00 0.24429400E+04</pdfrwt>
<pdfrwt beam="2">  1       -2 0.13169898E+00 0.24429400E+04</pdfrwt>
<totfact> 0.14683856E+00</totfact>
</mgrwt>
</event>
<event>
12    5  0.5297412E-008  0.1575331E+04  0.7818608E-02  0.8835848E-01
         -2   -1    0    0    0  501 -0.00000000000E+00  0.00000000000E+00  0.74108048785E+03  0.74108048785E+03  0.00000000000E+00 0.  1.
          1   -1    0    0  501    0  0.00000000000E+00 -0.00000000000E+00 -0.83717860483E+03  0.83717860483E+03  0.00000000000E+00 0. -1.
        -24    2    1    2    0    0 -0.36896707460E+03  0.30351961078E+03  0.18977807567E+03  0.52061576644E+03  0.82244768804E+02 0.  0.
        254    2    1    2    0    0  0.36896707460E+03 -0.30351961078E+03 -0.28587619265E+03  0.10576433262E+04  0.89923487018E+03 0.  0.
         23    2    4    4    0    0 -0.20565103979E+03 -0.35481881171E+03 -0.20466721569E+03  0.46784896042E+03  0.93836247117E+02 0.  0.
         23    2    4    4    0    0  0.57461811440E+03  0.51299200932E+02 -0.81208976958E+02  0.58979436583E+03  0.91896194772E+02 0.  0.
          1    1    3    3  502    0 -0.25327686154E+01  0.22520520630E+02  0.13243752793E+02  0.26248538137E+02  0.00000000000E+00 0. -1.
         -2    1    3    3    0  502 -0.36643430599E+03  0.28099909015E+03  0.17653432288E+03  0.49436722831E+03  0.00000000000E+00 0.  1.
         13    1    5    5    0    0 -0.50500205918E+02 -0.25379343721E+02 -0.25261453582E+02  0.61907373733E+02  0.00000000000E+00 0. -1.
        -13    1    5    5    0    0 -0.15515083388E+03 -0.32943946799E+03 -0.17940576211E+03  0.40594158668E+03  0.00000000000E+00 0.  1.
          4    1    6    6  503    0  0.44059699763E+03  0.38247943749E+02 -0.22296013344E+02  0.44281568596E+03  0.00000000000E+00 0.  1.
         -4    1    6    6    0  503  0.13402111677E+03  0.13051257183E+02 -0.58912963615E+02  0.14697867987E+03  0.00000000000E+00 0. -1.
<mgrwt>
<rscale>  0 0.15753307E+04</rscale>
<asrwt>0</asrwt>
<pdfrwt beam="1">  1        1 0.12879671E+00 0.15753307E+04</pdfrwt>
<pdfrwt beam="2">  1       -2 0.11401238E+00 0.15753307E+04</pdfrwt>
<totfact> 0.10416615E+01</totfact>
</mgrwt>
</event>
<event>
12    5  0.5297412E-008  0.1102335E+04  0.7818608E-02  0.9202919E-01
          1   -1    0    0  501    0  0.00000000000E+00  0.00000000000E+00  0.43952778889E+03  0.43952778889E+03  0.00000000000E+00 0. -1.
         -2   -1    0    0    0  501 -0.00000000000E+00 -0.00000000000E+00 -0.69116332455E+03  0.69116332455E+03  0.00000000000E+00 0.  1.
        -24    2    1    2    0    0  0.98377195806E+02 -0.12009229409E+03 -0.43311463614E+02  0.19511380625E+03  0.10996946283E+03 0.  0.
        254    2    1    2    0    0 -0.98377195806E+02  0.12009229409E+03 -0.20832407205E+03  0.93557730718E+03  0.89878014384E+03 0.  0.
         23    2    4    4    0    0 -0.11659281250E+03  0.26962942425E+03 -0.50328435954E+03  0.59000031245E+03  0.92256770946E+02 0.  0.
         23    2    4    4    0    0  0.18215616698E+02 -0.14953713016E+03  0.29496028749E+03  0.34557699473E+03  0.98634304898E+02 0.  0.
          3    1    3    3  502    0  0.42522501726E+02 -0.79815783145E+02  0.29278458778E+02  0.95057616952E+02  0.00000000000E+00 0. -1.
         -4    1    3    3    0  502  0.55854694080E+02 -0.40276510943E+02 -0.72589922392E+02  0.10005618930E+03  0.00000000000E+00 0.  1.
         13    1    5    5    0    0 -0.39833169436E+02  0.19703959697E+03 -0.35434517696E+03  0.40739635319E+03  0.00000000000E+00 0.  1.
        -13    1    5    5    0    0 -0.76759643068E+02  0.72589827278E+02 -0.14893918258E+03  0.18260395926E+03  0.00000000000E+00 0. -1.
          3    1    6    6  503    0  0.39119060188E+02 -0.23157797455E+02  0.41351010277E+02  0.61453156989E+02  0.00000000000E+00 0. -1.
         -3    1    6    6    0  503 -0.20903443490E+02 -0.12637933270E+03  0.25360927722E+03  0.28412383774E+03  0.00000000000E+00 0.  1.
<mgrwt>
<rscale>  0 0.11023348E+04</rscale>
<asrwt>0</asrwt>
<pdfrwt beam="1">  1        1 0.67619660E-01 0.11023348E+04</pdfrwt>
<pdfrwt beam="2">  1       -2 0.10633282E+00 0.11023348E+04</pdfrwt>
<totfact> 0.32827781E+01</totfact>
</mgrwt>
</event>
<event>
12    5  0.5297412E-008  0.1673141E+04  0.7818608E-02  0.8776833E-01
          1   -1    0    0  501    0  0.00000000000E+00  0.00000000000E+00  0.15548729051E+04  0.15548729051E+04  0.00000000000E+00 0. -1.
         -2   -1    0    0    0  501 -0.00000000000E+00 -0.00000000000E+00 -0.45010109404E+03  0.45010109404E+03  0.00000000000E+00 0.  1.
        -24    2    1    2    0    0 -0.29488934970E+03 -0.44600488236E+03  0.70929604377E+03  0.89201942587E+03  0.81961544475E+02 0.  0.
        254    2    1    2    0    0  0.29488934970E+03  0.44600488236E+03  0.39547576729E+03  0.11129545733E+04  0.89240501790E+03 0.  0.
         23    2    4    4    0    0  0.37736262006E+03  0.56776977018E+03  0.54987786031E+03  0.88093051933E+03  0.94381458381E+02 0.  0.
         23    2    4    4    0    0 -0.82473270355E+02 -0.12176488783E+03 -0.15440209302E+03  0.23202405393E+03  0.91469268288E+02 0.  0.
          3    1    3    3  502    0 -0.29087559633E+03 -0.43935901356E+03  0.67213117306E+03  0.85405226371E+03  0.00000000000E+00 0. -1.
         -4    1    3    3    0  502 -0.40137533727E+01 -0.66458687909E+01  0.37164870711E+02  0.37967162168E+02  0.00000000000E+00 0.  1.
         13    1    5    5    0    0 -0.24455427283E+01  0.18780849508E+02  0.26927545936E+02  0.32921022427E+02  0.00000000000E+00 0.  1.
        -13    1    5    5    0    0  0.37980816278E+03  0.54898892068E+03  0.52295031437E+03  0.84800949691E+03  0.00000000000E+00 0. -1.
          4    1    6    6  503    0 -0.58792050055E+02 -0.12075661307E+03 -0.15873203679E+03  0.20792913276E+03  0.00000000000E+00 0. -1.
         -4    1    6    6    0  503 -0.23681220300E+02 -0.10082747605E+01  0.43299437663E+01  0.24094921164E+02  0.00000000000E+00 0.  1.
<mgrwt>
<rscale>  0 0.16731408E+04</rscale>
<asrwt>0</asrwt>
<pdfrwt beam="1">  1        1 0.23921121E+00 0.16731408E+04</pdfrwt>
<pdfrwt beam="2">  1       -2 0.69246323E-01 0.16731408E+04</pdfrwt>
<totfact> 0.95490760E+00</totfact>
</mgrwt>
</event>
<event>
12    5  0.5297412E-008  0.1757260E+04  0.7818608E-02  0.8729364E-01
          1   -1    0    0  501    0  0.00000000000E+00  0.00000000000E+00  0.12723518672E+04  0.12723518672E+04  0.00000000000E+00 0. -1.
         -2   -1    0    0    0  501 -0.00000000000E+00 -0.00000000000E+00 -0.60674301800E+03  0.60674301800E+03  0.00000000000E+00 0.  1.
        -24    2    1    2    0    0  0.49162915609E+03 -0.19087497535E+03  0.73065612371E+03  0.90452419771E+03  0.78569521972E+02 0.  0.
        254    2    1    2    0    0 -0.49162915609E+03  0.19087497535E+03 -0.65047274498E+02  0.97457068750E+03  0.81696046029E+03 0.  0.
         23    2    4    4    0    0  0.20640177022E+03  0.10495260640E+03  0.56923631299E+02  0.25519711799E+03  0.90931451613E+02 0.  0.
         23    2    4    4    0    0 -0.69803092631E+03  0.85922368949E+02 -0.12197090580E+03  0.71937356951E+03  0.89395766583E+02 0.  0.
          3    1    3    3  502    0  0.19785481991E+03 -0.66687453556E+02  0.35383379605E+03  0.41084315918E+03  0.00000000000E+00 0. -1.
         -4    1    3    3    0  502  0.29377433618E+03 -0.12418752180E+03  0.37682232767E+03  0.49368103852E+03  0.00000000000E+00 0.  1.
         13    1    5    5    0    0  0.13671409096E+03  0.72074334764E+02  0.80973639995E+02  0.17447688321E+03  0.00000000000E+00 0. -1.
        -13    1    5    5    0    0  0.69687679251E+02  0.32878271640E+02 -0.24050008696E+02  0.80720234784E+02  0.00000000000E+00 0.  1.
          2    1    6    6  503    0 -0.69726120670E+03  0.83573726753E+02 -0.12711755411E+03  0.71366422828E+03  0.00000000000E+00 0.  1.
         -2    1    6    6    0  503 -0.76971960869E+00  0.23486421964E+01  0.51466483082E+01  0.57093412273E+01  0.00000000000E+00 0. -1.
<mgrwt>
<rscale>  0 0.17572599E+04</rscale>
<asrwt>0</asrwt>
<pdfrwt beam="1">  1        1 0.19574644E+00 0.17572599E+04</pdfrwt>
<pdfrwt beam="2">  1       -2 0.93345080E-01 0.17572599E+04</pdfrwt>
<totfact> 0.76386007E+00</totfact>
</mgrwt>
</event>
<event>
12    5  0.5297412E-008  0.1258260E+04  0.7818608E-02  0.9063337E-01
         -2   -1    0    0    0  501 -0.00000000000E+00  0.00000000000E+00  0.22047129831E+03  0.22047129831E+03  0.00000000000E+00 0.  1.
          1   -1    0    0  501    0  0.00000000000E+00 -0.00000000000E+00 -0.17952650959E+04  0.17952650959E+04  0.00000000000E+00 0. -1.
        -24    2    1    2    0    0 -0.22173356546E+03  0.43269326732E+02 -0.72707168768E+02  0.25071274444E+03  0.80824124785E+02 0.  0.
        254    2    1    2    0    0  0.22173356546E+03 -0.43269326732E+02 -0.15020866288E+04  0.17650236498E+04  0.89889167036E+03 0.  0.
         23    2    4    4    0    0  0.18303098691E+03 -0.42364423724E+03 -0.48811634421E+03  0.67765369506E+03  0.89343063659E+02 0.  0.
         23    2    4    4    0    0  0.38702578555E+02  0.38037491051E+03 -0.10139702846E+04  0.10873699547E+04  0.89748081772E+02 0.  0.
          1    1    3    3  502    0 -0.22175048050E+02  0.68339883384E+01 -0.38557017744E+02  0.45000886324E+02  0.00000000000E+00 0. -1.
         -2    1    3    3    0  502 -0.19955851741E+03  0.36435338393E+02 -0.34150151024E+02  0.20571185812E+03  0.00000000000E+00 0.  1.
         13    1    5    5    0    0  0.17435082392E+03 -0.31907461794E+03 -0.35512765789E+03  0.50825434087E+03  0.00000000000E+00 0. -1.
        -13    1    5    5    0    0  0.86801629933E+01 -0.10456961931E+03 -0.13298868632E+03  0.16939935419E+03  0.00000000000E+00 0.  1.
          2    1    6    6  503    0  0.21254742865E+02  0.19738171693E+03 -0.64957503822E+03  0.67923415444E+03  0.00000000000E+00 0. -1.
         -2    1    6    6    0  503  0.17447835690E+02  0.18299319358E+03 -0.36439524639E+03  0.40813580027E+03  0.00000000000E+00 0.  1.
<mgrwt>
<rscale>  0 0.12582598E+04</rscale>
<asrwt>0</asrwt>
<pdfrwt beam="1">  1        1 0.27619462E+00 0.12582598E+04</pdfrwt>
<pdfrwt beam="2">  1       -2 0.33918663E-01 0.12582598E+04</pdfrwt>
<totfact> 0.28897466E+01</totfact>
</mgrwt>
</event>
<event>
12    5  0.5297412E-008  0.1543024E+04  0.7818608E-02  0.8856336E-01
         -2   -1    0    0    0  501 -0.00000000000E+00  0.00000000000E+00  0.19219070039E+04  0.19219070039E+04  0.00000000000E+00 0.  1.
          1   -1    0    0  501    0  0.00000000000E+00 -0.00000000000E+00 -0.30970859803E+03  0.30970859803E+03  0.00000000000E+00 0. -1.
        -24    2    1    2    0    0  0.29487962871E+03 -0.32536737695E+03  0.18517147175E+03  0.48341780568E+03  0.81156487641E+02 0.  0.
        254    2    1    2    0    0 -0.29487962871E+03  0.32536737695E+03  0.14270269342E+04  0.17481977963E+04  0.90937986491E+03 0.  0.
         23    2    4    4    0    0 -0.24648442843E+03 -0.22838290013E+03  0.21032705225E+03  0.40696068668E+03  0.92012004989E+02 0.  0.
         23    2    4    4    0    0 -0.48395200273E+02  0.55375027708E+03  0.12166998819E+04  0.13412371096E+04  0.97861722671E+02 0.  0.
          3    1    3    3  502    0  0.26808154363E+03 -0.31907460351E+03  0.18481894235E+03  0.45588853692E+03  0.00000000000E+00 0. -1.
         -4    1    3    3    0  502  0.26798085076E+02 -0.62927734379E+01  0.35252939257E+00  0.27529268757E+02  0.00000000000E+00 0.  1.
         13    1    5    5    0    0 -0.23949942609E+03 -0.18998794181E+03  0.16586956129E+03  0.34780469303E+03  0.00000000000E+00 0. -1.
        -13    1    5    5    0    0 -0.69850023440E+01 -0.38394958324E+02  0.44457490963E+02  0.59155993654E+02  0.00000000000E+00 0.  1.
          3    1    6    6  503    0 -0.15644657270E+02  0.50740933051E+03  0.10971413703E+04  0.12088954341E+04  0.00000000000E+00 0. -1.
         -3    1    6    6    0  503 -0.32750543003E+02  0.46340946572E+02  0.11955851158E+03  0.13234167555E+03  0.00000000000E+00 0.  1.
<mgrwt>
<rscale>  0 0.15430245E+04</rscale>
<asrwt>0</asrwt>
<pdfrwt beam="1">  1        1 0.47647478E-01 0.15430245E+04</pdfrwt>
<pdfrwt beam="2">  1       -2 0.29567799E+00 0.15430245E+04</pdfrwt>
<totfact> 0.23993201E+00</totfact>
</mgrwt>
</event>
<event>
12    5  0.5297412E-008  0.1797025E+04  0.7818608E-02  0.8707883E-01
         -4   -1    0    0    0  501 -0.00000000000E+00  0.00000000000E+00  0.71475865662E+03  0.71475865662E+03  0.00000000000E+00 0.  1.
          1   -1    0    0  501    0  0.00000000000E+00 -0.00000000000E+00 -0.11295072347E+04  0.11295072347E+04  0.00000000000E+00 0. -1.
        -24    2    1    2    0    0  0.56686989090E+03 -0.13299042795E+03  0.63169867143E+02  0.59108902594E+03  0.79798980771E+02 0.  0.
        254    2    1    2    0    0 -0.56686989090E+03  0.13299042795E+03 -0.47791844524E+03  0.12531768654E+04  0.10015080072E+04 0.  0.
         23    2    4    4    0    0 -0.50646350346E+03  0.17630751319E+03  0.18912587393E+03  0.57610759081E+03  0.92421536698E+02 0.  0.
         23    2    4    4    0    0 -0.60406387438E+02 -0.43317085244E+02 -0.66704431917E+03  0.67706927459E+03  0.89159280716E+02 0.  0.
          1    1    3    3  502    0  0.14267063357E+03 -0.64341083682E+02  0.35483762135E+02  0.16047984954E+03  0.00000000000E+00 0. -1.
         -2    1    3    3    0  502  0.42419925733E+03 -0.68649344267E+02  0.27686105009E+02  0.43060917640E+03  0.00000000000E+00 0.  1.
         13    1    5    5    0    0 -0.25275812762E+03  0.85797464931E+02  0.45271961855E+02  0.27073497483E+03  0.00000000000E+00 0.  1.
        -13    1    5    5    0    0 -0.25370537585E+03  0.90510048262E+02  0.14385391207E+03  0.30537261598E+03  0.00000000000E+00 0. -1.
          1    1    6    6  503    0 -0.15745305622E+02  0.27742234522E+02 -0.16439798119E+03  0.16746415271E+03  0.00000000000E+00 0. -1.
         -1    1    6    6    0  503 -0.44661081816E+02 -0.71059319766E+02 -0.50264633798E+03  0.50960512187E+03  0.00000000000E+00 0.  1.
<mgrwt>
<rscale>  0 0.17970254E+04</rscale>
<asrwt>0</asrwt>
<pdfrwt beam="1">  1        1 0.17377034E+00 0.17970254E+04</pdfrwt>
<pdfrwt beam="2">  1       -4 0.10996287E+00 0.17970254E+04</pdfrwt>
<totfact> 0.36335826E+00</totfact>
</mgrwt>
</event>
<event>
12    5  0.5297412E-008  0.2171327E+04  0.7818608E-02  0.8530458E-01
         -2   -1    0    0    0  501 -0.00000000000E+00  0.00000000000E+00  0.91275863591E+03  0.91275863591E+03  0.00000000000E+00 0.  1.
          1   -1    0    0  501    0  0.00000000000E+00 -0.00000000000E+00 -0.12913224170E+04  0.12913224170E+04  0.00000000000E+00 0. -1.
        -24    2    1    2    0    0 -0.60502166739E+03  0.73800721493E+02  0.51452449459E+03  0.80154302119E+03  0.78980977363E+02 0.  0.
        254    2    1    2    0    0  0.60502166739E+03 -0.73800721493E+02 -0.89308827570E+03  0.14025380317E+04  0.89331321370E+03 0.  0.
         23    2    4    4    0    0  0.62539416528E+03 -0.10619746827E+03 -0.15707099505E+03  0.66003902565E+03  0.92652326811E+02 0.  0.
         23    2    4    4    0    0 -0.20372497890E+02  0.32396746779E+02 -0.73601728065E+03  0.74249900609E+03  0.90104099570E+02 0.  0.
          3    1    3    3  502    0 -0.19022346147E+03  0.58499562833E+02  0.15166966663E+03  0.25022160562E+03  0.00000000000E+00 0. -1.
         -4    1    3    3    0  502 -0.41479820592E+03  0.15301158660E+02  0.36285482796E+03  0.55132141557E+03  0.00000000000E+00 0.  1.
         13    1    5    5    0    0  0.19901520262E+03 -0.72765919419E+02 -0.73330166955E+02  0.22423033534E+03  0.00000000000E+00 0. -1.
        -13    1    5    5    0    0  0.42637896266E+03 -0.33431548853E+02 -0.83740828099E+02  0.43580869031E+03  0.00000000000E+00 0.  1.
          1    1    6    6  503    0 -0.11452839881E+02  0.63647057838E+02 -0.44539929564E+03  0.45006960359E+03  0.00000000000E+00 0. -1.
         -1    1    6    6    0  503 -0.89196580089E+01 -0.31250311059E+02 -0.29061798501E+03  0.29242940251E+03  0.00000000000E+00 0.  1.
<mgrwt>
<rscale>  0 0.21713274E+04</rscale>
<asrwt>0</asrwt>
<pdfrwt beam="1">  1        1 0.19866499E+00 0.21713274E+04</pdfrwt>
<pdfrwt beam="2">  1       -2 0.14042441E+00 0.21713274E+04</pdfrwt>
<totfact> 0.26225185E+00</totfact>
</mgrwt>
</event>
<event>
12    5  0.5297412E-008  0.1687682E+04  0.7818608E-02  0.8768421E-01
          1   -1    0    0  501    0  0.00000000000E+00  0.00000000000E+00  0.92421586243E+03  0.92421586243E+03  0.00000000000E+00 0. -1.
         -2   -1    0    0    0  501 -0.00000000000E+00 -0.00000000000E+00 -0.77045558682E+03  0.77045558682E+03  0.00000000000E+00 0.  1.
        -24    2    1    2    0    0 -0.48445382543E+03 -0.18587952584E+03  0.28056214511E+03  0.59530404238E+03  0.80156587348E+02 0.  0.
        254    2    1    2    0    0  0.48445382543E+03  0.18587952584E+03 -0.12680186950E+03  0.10993674069E+04  0.96087630529E+03 0.  0.
         23    2    4    4    0    0  0.67134132412E+02 -0.37280887749E+03 -0.46567544239E+02  0.39165848520E+03  0.87945335207E+02 0.  0.
         23    2    4    4    0    0  0.41731969302E+03  0.55868840333E+03 -0.80234325263E+02  0.70770892167E+03  0.90143844255E+02 0.  0.
          1    1    3    3  502    0 -0.48248300065E+03 -0.19146970126E+03  0.27806203798E+03  0.58887094459E+03  0.00000000000E+00 0. -1.
         -2    1    3    3    0  502 -0.19708247862E+01  0.55901754146E+01  0.25001071378E+01  0.64330977922E+01  0.00000000000E+00 0.  1.
         13    1    5    5    0    0  0.51116228945E+02 -0.16172119185E+03  0.17433395568E+02  0.17050083882E+03  0.00000000000E+00 0.  1.
        -13    1    5    5    0    0  0.16017903467E+02 -0.21108768563E+03 -0.64000939807E+02  0.22115764638E+03  0.00000000000E+00 0. -1.
          4    1    6    6  503    0  0.22999531601E+03  0.25937138662E+03 -0.50653612765E+01  0.34669441799E+03  0.00000000000E+00 0. -1.
         -4    1    6    6    0  503  0.18732437702E+03  0.29931701671E+03 -0.75168963987E+02  0.36101450368E+03  0.00000000000E+00 0.  1.
<mgrwt>
<rscale>  0 0.16876816E+04</rscale>
<asrwt>0</asrwt>
<pdfrwt beam="1">  1        1 0.14218706E+00 0.16876816E+04</pdfrwt>
<pdfrwt beam="2">  1       -2 0.11853163E+00 0.16876816E+04</pdfrwt>
<totfact> 0.79467052E+00</totfact>
</mgrwt>
</event>
<event>
12    5  0.5297412E-008  0.2375047E+04  0.7818608E-02  0.8448905E-01
          1   -1    0    0  501    0  0.00000000000E+00  0.00000000000E+00  0.59560827401E+03  0.59560827401E+03  0.00000000000E+00 0. -1.
         -2   -1    0    0    0  501 -0.00000000000E+00 -0.00000000000E+00 -0.23676843545E+04  0.23676843545E+04  0.00000000000E+00 0.  1.
        -24    2    1    2    0    0 -0.27767386134E+02  0.13932799508E+02 -0.20260191886E+04  0.20278307784E+04  0.79867154752E+02 0.  0.
        254    2    1    2    0    0  0.27767386134E+02 -0.13932799508E+02  0.25394310818E+03  0.93546185010E+03  0.89979809967E+03 0.  0.
         23    2    4    4    0    0  0.44834378852E+03 -0.41451062364E+01  0.53735484012E+02  0.46062820533E+03  0.90892830818E+02 0.  0.
         23    2    4    4    0    0 -0.42057640238E+03 -0.97876932721E+01  0.20020762417E+03  0.47483364477E+03  0.91671087326E+02 0.  0.
          3    1    3    3  502    0 -0.25362006193E+02 -0.28420114448E+02 -0.61805929830E+03  0.61923196823E+03  0.00000000000E+00 0. -1.
         -4    1    3    3    0  502 -0.24053799414E+01  0.42352913956E+02 -0.14079598903E+04  0.14085988101E+04  0.00000000000E+00 0.  1.
         13    1    5    5    0    0  0.75493100787E+01  0.12327496952E+02 -0.57023065648E+01  0.15539484031E+02  0.00000000000E+00 0. -1.
        -13    1    5    5    0    0  0.44079447844E+03 -0.16472603189E+02  0.59437790577E+02  0.44508872130E+03  0.00000000000E+00 0.  1.
          3    1    6    6  503    0 -0.28366512054E+03 -0.72808914006E+01  0.18097002410E+03  0.33655469335E+03  0.00000000000E+00 0. -1.
         -3    1    6    6    0  503 -0.13691128184E+03 -0.25068018715E+01  0.19237600070E+02  0.13827895142E+03  0.00000000000E+00 0.  1.
<mgrwt>
<rscale>  0 0.23750473E+04</rscale>
<asrwt>0</asrwt>
<pdfrwt beam="1">  1        1 0.91632043E-01 0.23750473E+04</pdfrwt>
<pdfrwt beam="2">  1       -2 0.36425913E+00 0.23750473E+04</pdfrwt>
<totfact> 0.34441766E-01</totfact>
</mgrwt>
</event>
<event>
12    5  0.5297412E-008  0.1967832E+04  0.7818608E-02  0.8621810E-01
          1   -1    0    0  501    0  0.00000000000E+00  0.00000000000E+00  0.14067347348E+04  0.14067347348E+04  0.00000000000E+00 0. -1.
         -2   -1    0    0    0  501 -0.00000000000E+00 -0.00000000000E+00 -0.68818254253E+03  0.68818254253E+03  0.00000000000E+00 0.  1.
        -24    2    1    2    0    0  0.63150636101E+03  0.37647187790E+03  0.19599513801E+02  0.73975785872E+03  0.79537348172E+02 0.  0.
        254    2    1    2    0    0 -0.63150636101E+03 -0.37647187790E+03  0.69895267848E+03  0.13551594186E+04  0.89854929988E+03 0.  0.
         23    2    4    4    0    0  0.52482452859E+01 -0.16956655389E+03 -0.16908152986E+03  0.25514478291E+03  0.87920055884E+02 0.  0.
         23    2    4    4    0    0 -0.63675460629E+03 -0.20690532401E+03  0.86803420834E+03  0.11000146357E+04  0.91008627211E+02 0.  0.
          1    1    3    3  502    0  0.30367826412E+03  0.20394325975E+03  0.44310389903E+02  0.36847897084E+03  0.00000000000E+00 0. -1.
         -4    1    3    3    0  502  0.32782809688E+03  0.17252861815E+03 -0.24710876102E+02  0.37127888788E+03  0.00000000000E+00 0.  1.
         13    1    5    5    0    0  0.48561807407E+01 -0.17830050317E+03 -0.16993739665E+03  0.24636024578E+03  0.00000000000E+00 0. -1.
        -13    1    5    5    0    0  0.39206454524E+00  0.87339492722E+01  0.85586679513E+00  0.87845371231E+01  0.00000000000E+00 0.  1.
          1    1    6    6  503    0 -0.28205141161E+03 -0.44513975532E+02  0.36155210325E+03  0.46071077280E+03  0.00000000000E+00 0. -1.
         -1    1    6    6    0  503 -0.35470319469E+03 -0.16239134847E+03  0.50648210508E+03  0.63930386292E+03  0.00000000000E+00 0.  1.
<mgrwt>
<rscale>  0 0.19678316E+04</rscale>
<asrwt>0</asrwt>
<pdfrwt beam="1">  1        1 0.21642073E+00 0.19678316E+04</pdfrwt>
<pdfrwt beam="2">  1       -2 0.10587424E+00 0.19678316E+04</pdfrwt>
<totfact> 0.44703315E+00</totfact>
</mgrwt>
</event>
<event>
12    5  0.5297412E-008  0.1189704E+04  0.7818608E-02  0.9121916E-01
         -2   -1    0    0    0  501 -0.00000000000E+00  0.00000000000E+00  0.45121819626E+03  0.45121819626E+03  0.00000000000E+00 0.  1.
          1   -1    0    0  501    0  0.00000000000E+00 -0.00000000000E+00 -0.78420851584E+03  0.78420851584E+03  0.00000000000E+00 0. -1.
        -24    2    1    2    0    0  0.14437843723E+03  0.14396111207E+01 -0.31897900633E+03  0.35908677335E+03  0.79677466692E+02 0.  0.
        254    2    1    2    0    0 -0.14437843723E+03 -0.14396111207E+01 -0.14011313247E+02  0.87633993875E+03  0.86425005973E+03 0.  0.
         23    2    4    4    0    0  0.23528823553E+03 -0.14234382209E+03  0.25074992600E+03  0.38460912186E+03  0.97089308163E+02 0.  0.
         23    2    4    4    0    0 -0.37966667276E+03  0.14090421097E+03 -0.26476123925E+03  0.49173081690E+03  0.87749093481E+02 0.  0.
          1    1    3    3  502    0  0.13424215293E+03  0.11667115042E+02 -0.31712872121E+03  0.34456886541E+03  0.00000000000E+00 0. -1.
         -2    1    3    3    0  502  0.10136284298E+02 -0.10227503921E+02 -0.18502851218E+01  0.14517907936E+02  0.00000000000E+00 0.  1.
         13    1    5    5    0    0  0.23487482233E+03 -0.14747166783E+03  0.22155877406E+03  0.35496811876E+03  0.00000000000E+00 0. -1.
        -13    1    5    5    0    0  0.41341319738E+00  0.51278457385E+01  0.29191151947E+02  0.29641003094E+02  0.00000000000E+00 0.  1.
          4    1    6    6  503    0 -0.51543461479E+02  0.37544383478E+02 -0.12117092540E+02  0.64908651839E+02  0.00000000000E+00 0.  1.
         -4    1    6    6    0  503 -0.32812321128E+03  0.10335982749E+03 -0.25264414671E+03  0.42682216506E+03  0.00000000000E+00 0. -1.
<mgrwt>
<rscale>  0 0.11897044E+04</rscale>
<asrwt>0</asrwt>
<pdfrwt beam="1">  1        1 0.12064746E+00 0.11897044E+04</pdfrwt>
<pdfrwt beam="2">  1       -2 0.69418184E-01 0.11897044E+04</pdfrwt>
<totfact> 0.37506070E+01</totfact>
</mgrwt>
</event>
<event>
12    5  0.5297412E-008  0.2044342E+04  0.7818608E-02  0.8586166E-01
          1   -1    0    0  501    0  0.00000000000E+00  0.00000000000E+00  0.17949280128E+04  0.17949280128E+04  0.00000000000E+00 0. -1.
         -2   -1    0    0    0  501 -0.00000000000E+00 -0.00000000000E+00 -0.58210315159E+03  0.58210315159E+03  0.00000000000E+00 0.  1.
        -24    2    1    2    0    0  0.88257692571E+02 -0.68035314760E+03  0.10206669753E+04  0.12324444458E+04  0.80550677744E+02 0.  0.
        254    2    1    2    0    0 -0.88257692571E+02  0.68035314760E+03  0.19215788587E+03  0.11445867186E+04  0.89581486789E+03 0.  0.
         23    2    4    4    0    0  0.53251823047E+02  0.39371247869E+03  0.53073263461E+03  0.66926283083E+03  0.91598770517E+02 0.  0.
         23    2    4    4    0    0 -0.14150951562E+03  0.28664066891E+03 -0.33857474874E+03  0.47532388777E+03  0.95457434037E+02 0.  0.
          1    1    3    3  502    0  0.99960066257E+02 -0.65629936802E+03  0.97598733629E+03  0.11803694997E+04  0.00000000000E+00 0. -1.
         -2    1    3    3    0  502 -0.11702373686E+02 -0.24053779581E+02  0.44679639011E+02  0.52074946031E+02  0.00000000000E+00 0.  1.
         13    1    5    5    0    0  0.10648625758E+01  0.19437409621E+03  0.19494505274E+03  0.27529256582E+03  0.00000000000E+00 0.  1.
        -13    1    5    5    0    0  0.52186960472E+02  0.19933838248E+03  0.33578758187E+03  0.39397026501E+03  0.00000000000E+00 0. -1.
          3    1    6    6  503    0 -0.51125591939E+02  0.81838688118E+02 -0.45911300588E+02  0.10686086536E+03  0.00000000000E+00 0. -1.
         -3    1    6    6    0  503 -0.90383923680E+02  0.20480198079E+03 -0.29266344815E+03  0.36846302240E+03  0.00000000000E+00 0.  1.
<mgrwt>
<rscale>  0 0.20443417E+04</rscale>
<asrwt>0</asrwt>
<pdfrwt beam="1">  1        1 0.27614277E+00 0.20443417E+04</pdfrwt>
<pdfrwt beam="2">  1       -2 0.89554332E-01 0.20443417E+04</pdfrwt>
<totfact> 0.35620379E+00</totfact>
</mgrwt>
</event>
<event>
12    5  0.5297412E-008  0.1375287E+04  0.7818608E-02  0.8971904E-01
          1   -1    0    0  501    0  0.00000000000E+00  0.00000000000E+00  0.16283008798E+04  0.16283008798E+04  0.00000000000E+00 0. -1.
         -2   -1    0    0    0  501 -0.00000000000E+00 -0.00000000000E+00 -0.29039686760E+03  0.29039686760E+03  0.00000000000E+00 0.  1.
        -24    2    1    2    0    0  0.67053845091E+02 -0.13064689417E+02  0.92304052741E+03  0.92898529674E+03  0.79642715184E+02 0.  0.
        254    2    1    2    0    0 -0.67053845091E+02  0.13064689417E+02  0.41486348484E+03  0.98971245070E+03  0.89596435184E+03 0.  0.
         23    2    4    4    0    0  0.34806003603E+03  0.97921882274E+01  0.43414906195E+03  0.56403732407E+03  0.91711609564E+02 0.  0.
         23    2    4    4    0    0 -0.41511388112E+03  0.32725011898E+01 -0.19285577111E+02  0.42567512662E+03  0.92179913099E+02 0.  0.
          3    1    3    3  502    0  0.83774975118E+02 -0.14267616579E+00  0.74436346090E+03  0.74906290038E+03  0.00000000000E+00 0. -1.
         -4    1    3    3    0  502 -0.16721130027E+02 -0.12922013251E+02  0.17867706651E+03  0.17992239636E+03  0.00000000000E+00 0.  1.
         13    1    5    5    0    0  0.25945072464E+02 -0.31428662668E+01  0.84519863218E+02  0.88468252339E+02  0.00000000000E+00 0. -1.
        -13    1    5    5    0    0  0.32211496356E+03  0.12935054494E+02  0.34962919873E+03  0.47556907173E+03  0.00000000000E+00 0.  1.
          1    1    6    6  503    0 -0.16257614184E+03 -0.36992651865E+01  0.37165137752E+02  0.16681107255E+03  0.00000000000E+00 0. -1.
         -1    1    6    6    0  503 -0.25253773928E+03  0.69717663763E+01 -0.56450714863E+02  0.25886405408E+03  0.00000000000E+00 0.  1.
<mgrwt>
<rscale>  0 0.13752868E+04</rscale>
<asrwt>0</asrwt>
<pdfrwt beam="1">  1        1 0.25050782E+00 0.13752868E+04</pdfrwt>
<pdfrwt beam="2">  1       -2 0.44676442E-01 0.13752868E+04</pdfrwt>
<totfact> 0.21737922E+01</totfact>
</mgrwt>
</event>
<event>
12    5  0.5297412E-008  0.2601129E+04  0.7818608E-02  0.8367818E-01
          1   -1    0    0  501    0  0.00000000000E+00  0.00000000000E+00  0.13904641817E+04  0.13904641817E+04  0.00000000000E+00 0. -1.
         -2   -1    0    0    0  501 -0.00000000000E+00 -0.00000000000E+00 -0.12164776806E+04  0.12164776806E+04  0.00000000000E+00 0.  1.
        -24    2    1    2    0    0 -0.35254092208E+02  0.33821797441E+03 -0.10191066582E+04  0.10772713098E+04  0.79377861408E+02 0.  0.
        254    2    1    2    0    0  0.35254092208E+02 -0.33821797441E+03  0.11930931593E+04  0.15296705526E+04  0.89486672942E+03 0.  0.
         23    2    4    4    0    0  0.31122159743E+03 -0.28915056734E+03  0.17265743964E+03  0.46732998663E+03  0.90109886509E+02 0.  0.
         23    2    4    4    0    0 -0.27596750522E+03 -0.49067407072E+02  0.10204357196E+04  0.10623405659E+04  0.93342089757E+02 0.  0.
          3    1    3    3  502    0  0.95847491402E+00 -0.44672563008E+01 -0.11816499756E+02  0.12669045722E+02  0.00000000000E+00 0. -1.
         -4    1    3    3    0  502 -0.36212567122E+02  0.34268523071E+03 -0.10072901585E+04  0.10646022641E+04  0.00000000000E+00 0.  1.
         13    1    5    5    0    0  0.11300273910E+03 -0.15234837275E+03  0.45861381850E+02  0.19514843599E+03  0.00000000000E+00 0.  1.
        -13    1    5    5    0    0  0.19821885833E+03 -0.13680219459E+03  0.12679605779E+03  0.27218155065E+03  0.00000000000E+00 0. -1.
          3    1    6    6  503    0 -0.10016229810E+03 -0.25145320802E+02  0.22818944486E+03  0.25046995002E+03  0.00000000000E+00 0. -1.
         -3    1    6    6    0  503 -0.17580520711E+03 -0.23922086270E+02  0.79224627479E+03  0.81187061591E+03  0.00000000000E+00 0.  1.
<mgrwt>
<rscale>  0 0.26011295E+04</rscale>
<asrwt>0</asrwt>
<pdfrwt beam="1">  1        1 0.21391757E+00 0.26011295E+04</pdfrwt>
<pdfrwt beam="2">  1       -2 0.18715041E+00 0.26011295E+04</pdfrwt>
<totfact> 0.97734788E-01</totfact>
</mgrwt>
</event>
<event>
12    5  0.5297412E-008  0.2662584E+04  0.7818608E-02  0.8347248E-01
          1   -1    0    0  501    0  0.00000000000E+00  0.00000000000E+00  0.11452343056E+04  0.11452343056E+04  0.00000000000E+00 0. -1.
         -2   -1    0    0    0  501 -0.00000000000E+00 -0.00000000000E+00 -0.15475776421E+04  0.15475776421E+04  0.00000000000E+00 0.  1.
        -24    2    1    2    0    0  0.38373590090E+02 -0.44457847295E+03  0.92054115752E+03  0.10260382457E+04  0.78967764762E+02 0.  0.
        254    2    1    2    0    0 -0.38373590090E+02  0.44457847295E+03 -0.13228844940E+04  0.16667737020E+04  0.91048813194E+03 0.  0.
         23    2    4    4    0    0  0.30233322132E+03 -0.10553857409E+03 -0.27947643695E+03  0.43564460640E+03  0.95579165811E+02 0.  0.
         23    2    4    4    0    0 -0.34070681141E+03  0.55011704704E+03 -0.10434080570E+04  0.12311290956E+04  0.90931732142E+02 0.  0.
          1    1    3    3  502    0  0.47087833183E+02 -0.30673468192E+03  0.70165553749E+03  0.76721830167E+03  0.00000000000E+00 0. -1.
         -2    1    3    3    0  502 -0.87142430926E+01 -0.13784379104E+03  0.21888562002E+03  0.25881994400E+03  0.00000000000E+00 0.  1.
         13    1    5    5    0    0  0.17811894817E+03 -0.89987616450E+02 -0.11984080287E+03  0.23277875513E+03  0.00000000000E+00 0.  1.
        -13    1    5    5    0    0  0.12421427315E+03 -0.15550957639E+02 -0.15963563409E+03  0.20286585126E+03  0.00000000000E+00 0. -1.
          3    1    6    6  503    0 -0.40601993952E+01  0.71932634687E+01 -0.45606489863E+02  0.46348464658E+02  0.00000000000E+00 0. -1.
         -3    1    6    6    0  503 -0.33664661201E+03  0.54292378357E+03 -0.99780156715E+03  0.11847806310E+04  0.00000000000E+00 0.  1.
<mgrwt>
<rscale>  0 0.26625845E+04</rscale>
<asrwt>0</asrwt>
<pdfrwt beam="1">  1        1 0.17618989E+00 0.26625845E+04</pdfrwt>
<pdfrwt beam="2">  1       -2 0.23808887E+00 0.26625845E+04</pdfrwt>
<totfact> 0.68617847E-01</totfact>
</mgrwt>
</event>
<event>
12    5  0.5297412E-008  0.2139257E+04  0.7818608E-02  0.8544145E-01
          1   -1    0    0  501    0  0.00000000000E+00  0.00000000000E+00  0.14692448400E+04  0.14692448400E+04  0.00000000000E+00 0. -1.
         -2   -1    0    0    0  501 -0.00000000000E+00 -0.00000000000E+00 -0.77870297394E+03  0.77870297394E+03  0.00000000000E+00 0.  1.
        -24    2    1    2    0    0  0.35656587263E+02  0.10743944815E+02  0.12153613285E+04  0.12184534280E+04  0.78350320889E+02 0.  0.
        254    2    1    2    0    0 -0.35656587263E+02 -0.10743944815E+02 -0.52481946240E+03  0.10294943860E+04  0.88489343883E+03 0.  0.
         23    2    4    4    0    0  0.36514898822E+02  0.22232868967E+03  0.16400619593E+03  0.29379949239E+03  0.93041524809E+02 0.  0.
         23    2    4    4    0    0 -0.72171486086E+02 -0.23307263448E+03 -0.68882565833E+03  0.73569489360E+03  0.85056525587E+02 0.  0.
          1    1    3    3  502    0  0.50838644557E+01 -0.22598295840E+01  0.10375492974E+04  0.10375642134E+04  0.00000000000E+00 0. -1.
         -2    1    3    3    0  502  0.30572722807E+02  0.13003774399E+02  0.17781203111E+03  0.18088921454E+03  0.00000000000E+00 0.  1.
         13    1    5    5    0    0  0.32293015349E+02  0.21908257673E+03  0.17456054490E+03  0.28197765532E+03  0.00000000000E+00 0.  1.
        -13    1    5    5    0    0  0.42218834734E+01  0.32461129390E+01 -0.10554348973E+02  0.11821837062E+02  0.00000000000E+00 0. -1.
          1    1    6    6  503    0 -0.22510401238E+02 -0.57982529887E+01 -0.97989392237E+02  0.10070878260E+03  0.00000000000E+00 0. -1.
         -1    1    6    6    0  503 -0.49661084848E+02 -0.22727438149E+03 -0.59083626609E+03  0.63498611100E+03  0.00000000000E+00 0.  1.
<mgrwt>
<rscale>  0 0.21392572E+04</rscale>
<asrwt>0</asrwt>
<pdfrwt beam="1">  1        1 0.22603767E+00 0.21392572E+04</pdfrwt>
<pdfrwt beam="2">  1       -2 0.11980046E+00 0.21392572E+04</pdfrwt>
<totfact> 0.29479799E+00</totfact>
</mgrwt>
</event>
<event>
12    5  0.5297412E-008  0.3775531E+04  0.7818608E-02  0.8051426E-01
          1   -1    0    0  501    0  0.00000000000E+00  0.00000000000E+00  0.26041472033E+04  0.26041472033E+04  0.00000000000E+00 0. -1.
         -2   -1    0    0    0  501 -0.00000000000E+00 -0.00000000000E+00 -0.13684554707E+04  0.13684554707E+04  0.00000000000E+00 0.  1.
        -24    2    1    2    0    0  0.11968768753E+04 -0.52082870074E+02 -0.80018382470E+03  0.14428772448E+04  0.79835519566E+02 0.  0.
        254    2    1    2    0    0 -0.11968768753E+04  0.52082870074E+02  0.20358755573E+04  0.25297254293E+04  0.90525940080E+03 0.  0.
         23    2    4    4    0    0 -0.11729173545E+04 -0.22999923026E+03  0.15429380161E+04  0.19540497535E+04  0.94962893689E+02 0.  0.
         23    2    4    4    0    0 -0.23959520787E+02  0.28208210033E+03  0.49293754118E+03  0.57567567576E+03  0.90943357069E+02 0.  0.
          3    1    3    3  502    0  0.40744355982E+03 -0.78393866123E+00 -0.23182959797E+03  0.46878121922E+03  0.00000000000E+00 0. -1.
         -4    1    3    3    0  502  0.78943331550E+03 -0.51298931413E+02 -0.56835422673E+03  0.97409602557E+03  0.00000000000E+00 0.  1.
         13    1    5    5    0    0 -0.41030478009E+03 -0.55659444641E+02  0.47303370203E+03  0.62865640027E+03  0.00000000000E+00 0.  1.
        -13    1    5    5    0    0 -0.76261257445E+03 -0.17433978562E+03  0.10699043141E+04  0.13253933532E+04  0.00000000000E+00 0. -1.
          3    1    6    6  503    0 -0.50541593260E+01  0.27582728595E+03  0.44253450328E+03  0.52148156515E+03  0.00000000000E+00 0. -1.
         -3    1    6    6    0  503 -0.18905361461E+02  0.62548143776E+01  0.50403037902E+02  0.54194110608E+02  0.00000000000E+00 0.  1.
<mgrwt>
<rscale>  0 0.37755315E+04</rscale>
<asrwt>0</asrwt>
<pdfrwt beam="1">  1        1 0.40063803E+00 0.37755315E+04</pdfrwt>
<pdfrwt beam="2">  1       -2 0.21053161E+00 0.37755315E+04</pdfrwt>
<totfact> 0.91356863E-02</totfact>
</mgrwt>
</event>
<event>
12    5  0.6215173E-008  0.2220296E+04  0.7818608E-02  0.8510028E-01
         -2   -1    0    0    0  501 -0.00000000000E+00  0.00000000000E+00  0.11622989929E+04  0.11622989929E+04  0.00000000000E+00 0.  1.
          1   -1    0    0  501    0  0.00000000000E+00 -0.00000000000E+00 -0.10603370954E+04  0.10603370954E+04  0.00000000000E+00 0. -1.
        -24    2    1    2    0    0  0.80520546866E+02  0.88110517646E+02 -0.87304125630E+03  0.88437053933E+03  0.75254194898E+02 0.  0.
        254    2    1    2    0    0 -0.80520546866E+02 -0.88110517646E+02  0.97500315380E+03  0.13382655490E+04  0.90888751117E+03 0.  0.
         23    2    4    4    0    0 -0.30627567292E+02  0.35058681435E+03  0.75234029560E+03  0.83550911396E+03  0.90611240287E+02 0.  0.
         23    2    4    4    0    0 -0.49892979573E+02 -0.43869733199E+03  0.22266285821E+03  0.50275643505E+03  0.90777894073E+02 0.  0.
          1    1    3    3  502    0  0.92818901672E+02  0.69428722441E+02 -0.78602971729E+03  0.79453030934E+03  0.00000000000E+00 0. -1.
         -2    1    3    3    0  502 -0.12298354806E+02  0.18681795205E+02 -0.87011539012E+02  0.89840229988E+02  0.00000000000E+00 0.  1.
         13    1    5    5    0    0  0.24457761592E+02  0.33179272698E+02  0.88704792379E+02  0.97814040044E+02  0.00000000000E+00 0. -1.
        -13    1    5    5    0    0 -0.55085328884E+02  0.31740754165E+03  0.66363550322E+03  0.73769507392E+03  0.00000000000E+00 0.  1.
          4    1    6    6  503    0 -0.23957886437E+02 -0.34627083351E+02  0.41680763011E+02  0.59247795141E+02  0.00000000000E+00 0. -1.
         -4    1    6    6    0  503 -0.25935093137E+02 -0.40407024864E+03  0.18098209519E+03  0.44350863991E+03  0.00000000000E+00 0.  1.
<mgrwt>
<rscale>  0 0.22202961E+04</rscale>
<asrwt>0</asrwt>
<pdfrwt beam="1">  1        1 0.16312878E+00 0.22202961E+04</pdfrwt>
<pdfrwt beam="2">  1       -2 0.17881523E+00 0.22202961E+04</pdfrwt>
<totfact> 0.20039852E+00</totfact>
</mgrwt>
</event>
<event>
12    5  0.5297412E-008  0.1294185E+04  0.7818608E-02  0.9034189E-01
          1   -1    0    0  501    0  0.00000000000E+00  0.00000000000E+00  0.42460371685E+03  0.42460371685E+03  0.00000000000E+00 0. -1.
         -2   -1    0    0    0  501 -0.00000000000E+00 -0.00000000000E+00 -0.98616422010E+03  0.98616422010E+03  0.00000000000E+00 0.  1.
        -24    2    1    2    0    0 -0.93578675176E+02 -0.25020274556E+03  0.57295555571E+02  0.28490239524E+03  0.80797350147E+02 0.  0.
        254    2    1    2    0    0  0.93578675176E+02  0.25020274556E+03 -0.61885605882E+03  0.11258655417E+04  0.90179377583E+03 0.  0.
         23    2    4    4    0    0  0.14071360814E+03  0.30346496913E+03  0.12857536182E+03  0.36968223559E+03  0.90785597094E+02 0.  0.
         23    2    4    4    0    0 -0.47134932960E+02 -0.53262223568E+02 -0.74743142064E+03  0.75618330612E+03  0.90004986115E+02 0.  0.
          1    1    3    3  502    0 -0.68728743520E+02 -0.20294939922E+03  0.11527576601E+02  0.21458094942E+03  0.00000000000E+00 0. -1.
         -2    1    3    3    0  502 -0.24849931656E+02 -0.47253346341E+02  0.45767978970E+02  0.70321445824E+02  0.00000000000E+00 0.  1.
         13    1    5    5    0    0  0.31259629325E+02  0.10519767535E+03  0.85571148117E+02  0.13916226757E+03  0.00000000000E+00 0.  1.
        -13    1    5    5    0    0  0.10945397881E+03  0.19826729378E+03  0.43004213703E+02  0.23051996802E+03  0.00000000000E+00 0. -1.
          2    1    6    6  503    0  0.20924169103E+02 -0.10830120999E+02 -0.34699513538E+03  0.34779410051E+03  0.00000000000E+00 0.  1.
         -2    1    6    6    0  503 -0.68059102063E+02 -0.42432102568E+02 -0.40043628527E+03  0.40838920561E+03  0.00000000000E+00 0. -1.
<mgrwt>
<rscale>  0 0.12941854E+04</rscale>
<asrwt>0</asrwt>
<pdfrwt beam="1">  1        1 0.65323649E-01 0.12941854E+04</pdfrwt>
<pdfrwt beam="2">  1       -2 0.15171757E+00 0.12941854E+04</pdfrwt>
<totfact> 0.13816574E+01</totfact>
</mgrwt>
</event>
<event>
12    5  0.5297412E-008  0.1118665E+04  0.7818608E-02  0.9187188E-01
         -2   -1    0    0    0  501 -0.00000000000E+00  0.00000000000E+00  0.17740687583E+03  0.17740687583E+03  0.00000000000E+00 0.  1.
          1   -1    0    0  501    0  0.00000000000E+00 -0.00000000000E+00 -0.17634779766E+04  0.17634779766E+04  0.00000000000E+00 0. -1.
        -24    2    1    2    0    0 -0.17582437650E+03 -0.83246049787E+01 -0.51430249551E+03  0.54955301795E+03  0.80733835738E+02 0.  0.
        254    2    1    2    0    0  0.17582437650E+03  0.83246049787E+01 -0.10717686052E+04  0.13913318345E+04  0.86955898016E+03 0.  0.
         23    2    4    4    0    0  0.48763215455E+02  0.37890058572E+03 -0.22243608564E+03  0.45171563883E+03  0.92874652769E+02 0.  0.
         23    2    4    4    0    0  0.12706116105E+03 -0.37057598074E+03 -0.84933251961E+03  0.93961619563E+03  0.89675916986E+02 0.  0.
          3    1    3    3  502    0 -0.14396836653E+03 -0.33609548098E+02 -0.44807296818E+03  0.47183246719E+03  0.00000000000E+00 0. -1.
         -4    1    3    3    0  502 -0.31856009975E+02  0.25284943119E+02 -0.66229527329E+02  0.77720550759E+02  0.00000000000E+00 0.  1.
         13    1    5    5    0    0 -0.22710512206E+02  0.17297694962E+03 -0.11247789885E+03  0.20757666101E+03  0.00000000000E+00 0.  1.
        -13    1    5    5    0    0  0.71473727662E+02  0.20592363609E+03 -0.10995818679E+03  0.24413897782E+03  0.00000000000E+00 0. -1.
          2    1    6    6  503    0  0.58439717718E+02 -0.25850719025E+03 -0.49124467498E+03  0.55817783790E+03  0.00000000000E+00 0. -1.
         -2    1    6    6    0  503  0.68621443331E+02 -0.11206879049E+03 -0.35808784462E+03  0.38143835774E+03  0.00000000000E+00 0.  1.
<mgrwt>
<rscale>  0 0.11186655E+04</rscale>
<asrwt>0</asrwt>
<pdfrwt beam="1">  1        1 0.27130431E+00 0.11186655E+04</pdfrwt>
<pdfrwt beam="2">  1       -2 0.27293365E-01 0.11186655E+04</pdfrwt>
<totfact> 0.46096115E+01</totfact>
</mgrwt>
</event>
<event>
12    5  0.5297412E-008  0.1840866E+04  0.7818608E-02  0.8684864E-01
          1   -1    0    0  501    0  0.00000000000E+00  0.00000000000E+00  0.16073396977E+04  0.16073396977E+04  0.00000000000E+00 0. -1.
         -2   -1    0    0    0  501 -0.00000000000E+00 -0.00000000000E+00 -0.52708039565E+03  0.52708039565E+03  0.00000000000E+00 0.  1.
        -24    2    1    2    0    0  0.22945519507E+03  0.53697934452E+03 -0.22750241565E+02  0.58966151754E+03  0.78655125670E+02 0.  0.
        254    2    1    2    0    0 -0.22945519507E+03 -0.53697934452E+03  0.11030095436E+04  0.15447585758E+04  0.91030352150E+03 0.  0.
         23    2    4    4    0    0 -0.42886213431E+03 -0.45751878436E+03  0.11420121304E+04  0.13060241103E+04  0.90890606170E+02 0.  0.
         23    2    4    4    0    0  0.19940693924E+03 -0.79460560163E+02 -0.39002586768E+02  0.23873446557E+03  0.96932116646E+02 0.  0.
          1    1    3    3  502    0  0.51231442199E+02  0.17800266930E+03  0.21365381272E+02  0.18645667182E+03  0.00000000000E+00 0. -1.
         -2    1    3    3    0  502  0.17822375287E+03  0.35897667522E+03 -0.44115622837E+02  0.40320484572E+03  0.00000000000E+00 0.  1.
         13    1    5    5    0    0 -0.45064974646E+02 -0.33553664217E+02  0.16063658305E+03  0.17017876523E+03  0.00000000000E+00 0.  1.
        -13    1    5    5    0    0 -0.38379715967E+03 -0.42396512014E+03  0.98137554737E+03  0.11358453450E+04  0.00000000000E+00 0. -1.
          4    1    6    6  503    0  0.17236852193E+03 -0.40528918210E+02  0.44090293973E+00  0.17706974603E+03  0.00000000000E+00 0. -1.
         -4    1    6    6    0  503  0.27038417314E+02 -0.38931641953E+02 -0.39443489708E+02  0.61664719543E+02  0.00000000000E+00 0.  1.
<mgrwt>
<rscale>  0 0.18408664E+04</rscale>
<asrwt>0</asrwt>
<pdfrwt beam="1">  1        1 0.24728303E+00 0.18408664E+04</pdfrwt>
<pdfrwt beam="2">  1       -2 0.81089293E-01 0.18408664E+04</pdfrwt>
<totfact> 0.61036211E+00</totfact>
</mgrwt>
</event>
<event>
12    5  0.5297412E-008  0.1823422E+04  0.7818608E-02  0.8693942E-01
         -4   -1    0    0    0  501 -0.00000000000E+00  0.00000000000E+00  0.69040844309E+03  0.69040844309E+03  0.00000000000E+00 0.  1.
          1   -1    0    0  501    0  0.00000000000E+00 -0.00000000000E+00 -0.12039496878E+04  0.12039496878E+04  0.00000000000E+00 0. -1.
        -24    2    1    2    0    0 -0.12343326422E+03  0.24217331483E+03  0.45766441258E+03  0.53816605236E+03  0.79260962956E+02 0.  0.
        254    2    1    2    0    0  0.12343326422E+03 -0.24217331483E+03 -0.97120565732E+03  0.13561920786E+04  0.90671541292E+03 0.  0.
         23    2    4    4    0    0  0.22853960100E+03 -0.13474653421E+03  0.78077575509E+02  0.29200634268E+03  0.93726296517E+02 0.  0.
         23    2    4    4    0    0 -0.10510633678E+03 -0.10742678061E+03 -0.10492832328E+04  0.10641857359E+04  0.94382850916E+02 0.  0.
          1    1    3    3  502    0 -0.13095894887E+02  0.59212166092E+02  0.52904450410E+02  0.80476480722E+02  0.00000000000E+00 0. -1.
         -2    1    3    3    0  502 -0.11033736934E+03  0.18296114873E+03  0.40475996217E+03  0.45768957164E+03  0.00000000000E+00 0.  1.
         13    1    5    5    0    0  0.18471756874E+03 -0.13709816924E+03  0.39148851386E+02  0.23334335383E+03  0.00000000000E+00 0.  1.
        -13    1    5    5    0    0  0.43822032261E+02  0.23516350321E+01  0.38928724123E+02  0.58662988849E+02  0.00000000000E+00 0. -1.
          1    1    6    6  503    0  0.46297230472E+01 -0.28317244720E+02 -0.70767634184E+02  0.76363333688E+02  0.00000000000E+00 0. -1.
         -1    1    6    6    0  503 -0.10973605982E+03 -0.79109535894E+02 -0.97851559865E+03  0.98782240220E+03  0.00000000000E+00 0.  1.
<mgrwt>
<rscale>  0 0.18234221E+04</rscale>
<asrwt>0</asrwt>
<pdfrwt beam="1">  1        1 0.18522303E+00 0.18234221E+04</pdfrwt>
<pdfrwt beam="2">  1       -4 0.10621668E+00 0.18234221E+04</pdfrwt>
<totfact> 0.34793341E+00</totfact>
</mgrwt>
</event>
<event>
12    5  0.5297412E-008  0.1281156E+04  0.7818608E-02  0.9044644E-01
         -2   -1    0    0    0  501 -0.00000000000E+00  0.00000000000E+00  0.13304915180E+04  0.13304915180E+04  0.00000000000E+00 0.  1.
          1   -1    0    0  501    0  0.00000000000E+00 -0.00000000000E+00 -0.30841246333E+03  0.30841246333E+03  0.00000000000E+00 0. -1.
        -24    2    1    2    0    0 -0.20038392521E+03 -0.19382201880E+03  0.58687239714E+02  0.29541262841E+03  0.78126413349E+02 0.  0.
        254    2    1    2    0    0  0.20038392521E+03  0.19382201880E+03  0.96339181500E+03  0.13434913530E+04  0.89393765656E+03 0.  0.
         23    2    4    4    0    0  0.42731294242E+03 -0.15465770022E+03  0.28849549038E+03  0.54562156122E+03  0.89206978993E+02 0.  0.
         23    2    4    4    0    0 -0.22692901721E+03  0.34847971902E+03  0.67489632462E+03  0.79786979174E+03  0.90422686110E+02 0.  0.
          1    1    3    3  502    0 -0.11261397499E+03 -0.11182700827E+03 -0.63341161857E+01  0.15883106803E+03  0.00000000000E+00 0. -1.
         -2    1    3    3    0  502 -0.87769950216E+02 -0.81995010524E+02  0.65021355900E+02  0.13658156038E+03  0.00000000000E+00 0.  1.
         13    1    5    5    0    0  0.43129662537E+03 -0.15030687815E+03  0.28169926817E+03  0.53662222686E+03  0.00000000000E+00 0. -1.
        -13    1    5    5    0    0 -0.39836829520E+01 -0.43508220747E+01  0.67962222004E+01  0.89993343523E+01  0.00000000000E+00 0.  1.
          1    1    6    6  503    0 -0.22666134679E+03  0.31189400245E+03  0.64085419381E+03  0.74789526848E+03  0.00000000000E+00 0. -1.
         -1    1    6    6    0  503 -0.26767041617E+00  0.36585716575E+02  0.34042130808E+02  0.49974523256E+02  0.00000000000E+00 0.  1.
<mgrwt>
<rscale>  0 0.12811560E+04</rscale>
<asrwt>0</asrwt>
<pdfrwt beam="1">  1        1 0.47448072E-01 0.12811560E+04</pdfrwt>
<pdfrwt beam="2">  1       -2 0.20469100E+00 0.12811560E+04</pdfrwt>
<totfact> 0.89954416E+00</totfact>
</mgrwt>
</event>
<event>
12    5  0.5297412E-008  0.1453133E+04  0.7818608E-02  0.8916231E-01
          1   -1    0    0  501    0  0.00000000000E+00  0.00000000000E+00  0.24735067839E+04  0.24735067839E+04  0.00000000000E+00 0. -1.
         -2   -1    0    0    0  501 -0.00000000000E+00 -0.00000000000E+00 -0.21342137508E+03  0.21342137508E+03  0.00000000000E+00 0.  1.
        -24    2    1    2    0    0 -0.94210347985E+02 -0.36667237060E+03  0.11132841233E+04  0.11788371665E+04  0.83254483757E+02 0.  0.
        254    2    1    2    0    0  0.94210347985E+02  0.36667237060E+03  0.11468012855E+04  0.15080909924E+04  0.90325026205E+03 0.  0.
         23    2    4    4    0    0 -0.35712571222E+03  0.13459549870E+03  0.78625815468E+03  0.87899727070E+03  0.93699484996E+02 0.  0.
         23    2    4    4    0    0  0.45133606021E+03  0.23207687190E+03  0.36054313084E+03  0.62909372171E+03  0.90573990707E+02 0.  0.
          3    1    3    3  502    0 -0.39853150969E+02 -0.82729722660E+02  0.18432203816E+03  0.20592982884E+03  0.00000000000E+00 0. -1.
         -4    1    3    3    0  502 -0.54357197016E+02 -0.28394264794E+03  0.92896208510E+03  0.97290733770E+03  0.00000000000E+00 0.  1.
         13    1    5    5    0    0 -0.54789604859E+02 -0.12335062580E+02  0.13154301123E+03  0.14303013100E+03  0.00000000000E+00 0.  1.
        -13    1    5    5    0    0 -0.30233610736E+03  0.14693056128E+03  0.65471514345E+03  0.73596713970E+03  0.00000000000E+00 0. -1.
          4    1    6    6  503    0  0.25388810066E+03  0.87809462097E+02  0.21859419591E+03  0.34634244871E+03  0.00000000000E+00 0. -1.
         -4    1    6    6    0  503  0.19744795955E+03  0.14426740980E+03  0.14194893493E+03  0.28275127301E+03  0.00000000000E+00 0.  1.
<mgrwt>
<rscale>  0 0.14531335E+04</rscale>
<asrwt>0</asrwt>
<pdfrwt beam="1">  1        1 0.38053949E+00 0.14531335E+04</pdfrwt>
<pdfrwt beam="2">  1       -2 0.32834059E-01 0.14531335E+04</pdfrwt>
<totfact> 0.10455715E+01</totfact>
</mgrwt>
</event>
<event>
12    5  0.5297412E-008  0.1554549E+04  0.7818608E-02  0.8848967E-01
          1   -1    0    0  501    0  0.00000000000E+00  0.00000000000E+00  0.11776532293E+04  0.11776532293E+04  0.00000000000E+00 0. -1.
         -2   -1    0    0    0  501 -0.00000000000E+00 -0.00000000000E+00 -0.51301643217E+03  0.51301643217E+03  0.00000000000E+00 0.  1.
        -24    2    1    2    0    0 -0.41613164327E+03  0.19716088413E+03  0.44542747780E+03  0.64513531943E+03  0.75868199122E+02 0.  0.
        254    2    1    2    0    0  0.41613164327E+03 -0.19716088413E+03  0.21920931934E+03  0.10455343420E+04  0.91271648169E+03 0.  0.
         23    2    4    4    0    0 -0.38563410508E+02  0.29804475791E+03  0.18916268098E+03  0.36662298429E+03  0.91170600427E+02 0.  0.
         23    2    4    4    0    0  0.45469505378E+03 -0.49520564204E+03  0.30046638359E+02  0.67891135776E+03  0.89675032069E+02 0.  0.
          1    1    3    3  502    0 -0.36932619560E+03  0.18260629166E+03  0.42532932219E+03  0.59215870240E+03  0.00000000000E+00 0. -1.
         -2    1    3    3    0  502 -0.46805447666E+02  0.14554592463E+02  0.20098155608E+02  0.52976617029E+02  0.00000000000E+00 0.  1.
         13    1    5    5    0    0  0.14648150971E+02  0.14924315796E+03  0.56361095879E+02  0.16020194023E+03  0.00000000000E+00 0. -1.
        -13    1    5    5    0    0 -0.53211561479E+02  0.14880159995E+03  0.13280158510E+03  0.20642104406E+03  0.00000000000E+00 0.  1.
          3    1    6    6  503    0  0.42549786035E+03 -0.42183193741E+03  0.30613969390E+02  0.59993985340E+03  0.00000000000E+00 0.  1.
         -3    1    6    6    0  503  0.29197193430E+02 -0.73373704633E+02 -0.56733103144E+00  0.78971504356E+02  0.00000000000E+00 0. -1.
<mgrwt>
<rscale>  0 0.15545488E+04</rscale>
<asrwt>0</asrwt>
<pdfrwt beam="1">  1        1 0.18117742E+00 0.15545488E+04</pdfrwt>
<pdfrwt beam="2">  1       -2 0.78925605E-01 0.15545488E+04</pdfrwt>
<totfact> 0.13356849E+01</totfact>
</mgrwt>
</event>
<event>
12    5  0.5297412E-008  0.2473718E+04  0.7818608E-02  0.8412409E-01
         -2   -1    0    0    0  501 -0.00000000000E+00  0.00000000000E+00  0.11638741084E+04  0.11638741084E+04  0.00000000000E+00 0.  1.
          1   -1    0    0  501    0  0.00000000000E+00 -0.00000000000E+00 -0.13144206516E+04  0.13144206516E+04  0.00000000000E+00 0. -1.
        -24    2    1    2    0    0  0.25886937998E+03 -0.66954060810E+02  0.97554923306E+03  0.10146377623E+04  0.79355406166E+02 0.  0.
        254    2    1    2    0    0 -0.25886937998E+03  0.66954060810E+02 -0.11260957763E+04  0.14636569977E+04  0.89593744618E+03 0.  0.
         23    2    4    4    0    0 -0.93302395069E+02  0.39130595149E+03 -0.18842043012E+03  0.45340532563E+03  0.90820957004E+02 0.  0.
         23    2    4    4    0    0 -0.16556698492E+03 -0.32435189068E+03 -0.93767534617E+03  0.10102516721E+04  0.93577832176E+02 0.  0.
          3    1    3    3  502    0  0.16614259417E+03 -0.41955819971E+01  0.61884861537E+03  0.64077653925E+03  0.00000000000E+00 0. -1.
         -4    1    3    3    0  502  0.92726785817E+02 -0.62758478813E+02  0.35670061769E+03  0.37386122309E+03  0.00000000000E+00 0.  1.
         13    1    5    5    0    0 -0.83412921406E+02  0.37429305351E+03 -0.15296989256E+03  0.41285929006E+03  0.00000000000E+00 0.  1.
        -13    1    5    5    0    0 -0.98894736631E+01  0.17012897981E+02 -0.35450537566E+02  0.40546035574E+02  0.00000000000E+00 0. -1.
          2    1    6    6  503    0 -0.26363824953E+01 -0.82719249949E+02 -0.25099139533E+03  0.26428413754E+03  0.00000000000E+00 0. -1.
         -2    1    6    6    0  503 -0.16293060242E+03 -0.24163264073E+03 -0.68668395084E+03  0.74596753455E+03  0.00000000000E+00 0.  1.
<mgrwt>
<rscale>  0 0.24737180E+04</rscale>
<asrwt>0</asrwt>
<pdfrwt beam="1">  1        1 0.20221856E+00 0.24737180E+04</pdfrwt>
<pdfrwt beam="2">  1       -2 0.17905756E+00 0.24737180E+04</pdfrwt>
<totfact> 0.12707677E+00</totfact>
</mgrwt>
</event>
<event>
12    5  0.5297412E-008  0.1454350E+04  0.7818608E-02  0.8915390E-01
         -2   -1    0    0    0  501 -0.00000000000E+00  0.00000000000E+00  0.52850566505E+03  0.52850566505E+03  0.00000000000E+00 0.  1.
          1   -1    0    0  501    0  0.00000000000E+00 -0.00000000000E+00 -0.10005256848E+04  0.10005256848E+04  0.00000000000E+00 0. -1.
        -24    2    1    2    0    0 -0.15907773702E+03  0.39673392145E+03 -0.18922339654E+03  0.47419491418E+03  0.79698130383E+02 0.  0.
        254    2    1    2    0    0  0.15907773702E+03 -0.39673392145E+03 -0.28279662323E+03  0.10548364357E+04  0.92195577177E+03 0.  0.
         23    2    4    4    0    0 -0.20095029469E+03 -0.22917261049E+03  0.23329254472E+03  0.39713731490E+03  0.10193884995E+03 0.  0.
         23    2    4    4    0    0  0.36002803171E+03 -0.16756131096E+03 -0.51608916795E+03  0.65769912079E+03  0.92320786761E+02 0.  0.
          1    1    3    3  502    0 -0.33201117366E+02  0.10201987751E+03 -0.86031712913E+02  0.13752027206E+03  0.00000000000E+00 0. -1.
         -2    1    3    3    0  502 -0.12587661966E+03  0.29471404395E+03 -0.10319168363E+03  0.33667464212E+03  0.00000000000E+00 0.  1.
         13    1    5    5    0    0 -0.35968829169E+02 -0.77688681259E+02  0.11639412237E+03  0.14448833721E+03  0.00000000000E+00 0. -1.
        -13    1    5    5    0    0 -0.16498146552E+03 -0.15148392923E+03  0.11689842236E+03  0.25264897769E+03  0.00000000000E+00 0.  1.
          2    1    6    6  503    0  0.87277558979E+02 -0.60049472056E+02 -0.20166884088E+03  0.22780174007E+03  0.00000000000E+00 0. -1.
         -2    1    6    6    0  503  0.27275047273E+03 -0.10751183890E+03 -0.31442032707E+03  0.42989738072E+03  0.00000000000E+00 0.  1.
<mgrwt>
<rscale>  0 0.14543500E+04</rscale>
<asrwt>0</asrwt>
<pdfrwt beam="1">  1        1 0.15392703E+00 0.14543500E+04</pdfrwt>
<pdfrwt beam="2">  1       -2 0.81308565E-01 0.14543500E+04</pdfrwt>
<totfact> 0.17147388E+01</totfact>
</mgrwt>
</event>
<event>
12    5  0.5297412E-008  0.1785604E+04  0.7818608E-02  0.8713993E-01
         -2   -1    0    0    0  501 -0.00000000000E+00  0.00000000000E+00  0.47278794272E+03  0.47278794272E+03  0.00000000000E+00 0.  1.
          1   -1    0    0  501    0  0.00000000000E+00 -0.00000000000E+00 -0.16859464610E+04  0.16859464610E+04  0.00000000000E+00 0. -1.
        -24    2    1    2    0    0 -0.19623162422E+03  0.38810979855E+03 -0.10641356030E+04  0.11522709713E+04  0.78789235958E+02 0.  0.
        254    2    1    2    0    0  0.19623162422E+03 -0.38810979855E+03 -0.14902291536E+03  0.10064634325E+04  0.89533499068E+03 0.  0.
         23    2    4    4    0    0 -0.23705256165E+03 -0.39051148044E+03  0.13022308130E+03  0.48382063913E+03  0.91821710964E+02 0.  0.
         23    2    4    4    0    0  0.43328418588E+03  0.24016818899E+01 -0.27924599666E+03  0.52264279335E+03  0.86233456282E+02 0.  0.
          1    1    3    3  502    0 -0.17781493025E+03  0.36365869283E+03 -0.10284858628E+04  0.11052823008E+04  0.00000000000E+00 0. -1.
         -2    1    3    3    0  502 -0.18416693978E+02  0.24451105724E+02 -0.35649740123E+02  0.46988670539E+02  0.00000000000E+00 0.  1.
         13    1    5    5    0    0 -0.67473288443E+02 -0.16492639539E+03  0.14445398876E+02  0.17877927759E+03  0.00000000000E+00 0. -1.
        -13    1    5    5    0    0 -0.16957927321E+03 -0.22558508506E+03  0.11577768242E+03  0.30504136154E+03  0.00000000000E+00 0.  1.
          2    1    6    6  503    0  0.14704672414E+03 -0.40003338344E+02 -0.93160424460E+02  0.17861094828E+03  0.00000000000E+00 0.  1.
         -2    1    6    6    0  503  0.28623746173E+03  0.42405020234E+02 -0.18608557220E+03  0.34403184507E+03  0.00000000000E+00 0. -1.
<mgrwt>
<rscale>  0 0.17856037E+04</rscale>
<asrwt>0</asrwt>
<pdfrwt beam="1">  1        1 0.25937638E+00 0.17856037E+04</pdfrwt>
<pdfrwt beam="2">  1       -2 0.72736605E-01 0.17856037E+04</pdfrwt>
<totfact> 0.69047030E+00</totfact>
</mgrwt>
</event>
<event>
12    5  0.5297412E-008  0.1668849E+04  0.7818608E-02  0.8779333E-01
         -4   -1    0    0    0  501 -0.00000000000E+00  0.00000000000E+00  0.10214445813E+04  0.10214445813E+04  0.00000000000E+00 0.  1.
          3   -1    0    0  501    0  0.00000000000E+00 -0.00000000000E+00 -0.68164680886E+03  0.68164680886E+03  0.00000000000E+00 0. -1.
        -24    2    1    2    0    0 -0.53381998416E+03  0.64638834466E+02 -0.12746325641E+03  0.55853091169E+03  0.81042847772E+02 0.  0.
        254    2    1    2    0    0  0.53381998416E+03 -0.64638834466E+02  0.46726102880E+03  0.11445604784E+04  0.89584812625E+03 0.  0.
         23    2    4    4    0    0  0.13652755586E+03 -0.45185183367E+03  0.18102457806E+03  0.51345167295E+03  0.89737781845E+02 0.  0.
         23    2    4    4    0    0  0.39729242830E+03  0.38721299921E+03  0.28623645074E+03  0.63110880547E+03  0.92692169380E+02 0.  0.
          3    1    3    3  502    0 -0.42959317296E+03  0.19053530051E+02 -0.98996855966E+02  0.44126376325E+03  0.00000000000E+00 0. -1.
         -4    1    3    3    0  502 -0.10422681119E+03  0.45585304415E+02 -0.28466400446E+02  0.11726714845E+03  0.00000000000E+00 0.  1.
         13    1    5    5    0    0  0.79140119431E+02 -0.36295647867E+03  0.11562789552E+03  0.38906345772E+03  0.00000000000E+00 0. -1.
        -13    1    5    5    0    0  0.57387436426E+02 -0.88895355005E+02  0.65396682532E+02  0.12438821523E+03  0.00000000000E+00 0.  1.
          2    1    6    6  503    0  0.37969857137E+02  0.20370507076E+02  0.49603359323E+02  0.65705105324E+02  0.00000000000E+00 0. -1.
         -2    1    6    6    0  503  0.35932257116E+03  0.36684249213E+03  0.23663309142E+03  0.56540370015E+03  0.00000000000E+00 0.  1.
<mgrwt>
<rscale>  0 0.16688492E+04</rscale>
<asrwt>0</asrwt>
<pdfrwt beam="1">  1        3 0.10486874E+00 0.16688492E+04</pdfrwt>
<pdfrwt beam="2">  1       -4 0.15714532E+00 0.16688492E+04</pdfrwt>
<totfact> 0.44867823E-01</totfact>
</mgrwt>
</event>
<event>
12    5  0.5297412E-008  0.1513603E+04  0.7818608E-02  0.8875457E-01
          1   -1    0    0  501    0  0.00000000000E+00  0.00000000000E+00  0.36843248673E+03  0.36843248673E+03  0.00000000000E+00 0. -1.
         -2   -1    0    0    0  501 -0.00000000000E+00 -0.00000000000E+00 -0.15545539998E+04  0.15545539998E+04  0.00000000000E+00 0.  1.
        -24    2    1    2    0    0  0.23165066976E+03 -0.27374853438E+03  0.27132934275E+02  0.36887043346E+03  0.82029919443E+02 0.  0.
        254    2    1    2    0    0 -0.23165066976E+03  0.27374853438E+03 -0.12132544473E+04  0.15541160530E+04  0.90260182778E+03 0.  0.
         23    2    4    4    0    0  0.22711978192E+03 -0.47874581110E+02 -0.83564079604E+03  0.87227992508E+03  0.93281063629E+02 0.  0.
         23    2    4    4    0    0 -0.45877045168E+03  0.32162311549E+03 -0.37761365126E+03  0.68183612795E+03  0.91633400067E+02 0.  0.
          3    1    3    3  502    0  0.21709433063E+03 -0.25791384909E+03  0.38061511256E+01  0.33714090338E+03  0.00000000000E+00 0. -1.
         -4    1    3    3    0  502  0.14556339131E+02 -0.15834685284E+02  0.23326783149E+02  0.31729530079E+02  0.00000000000E+00 0.  1.
         13    1    5    5    0    0  0.16115273607E+03 -0.43109711188E+02 -0.71989312635E+03  0.73896871714E+03  0.00000000000E+00 0.  1.
        -13    1    5    5    0    0  0.65967045855E+02 -0.47648699218E+01 -0.11574766969E+03  0.13331120794E+03  0.00000000000E+00 0. -1.
          3    1    6    6  503    0 -0.17205434681E+03  0.10161467071E+03 -0.86365873020E+02  0.21768625033E+03  0.00000000000E+00 0. -1.
         -3    1    6    6    0  503 -0.28671610487E+03  0.22000844478E+03 -0.29124777824E+03  0.46414987763E+03  0.00000000000E+00 0.  1.
<mgrwt>
<rscale>  0 0.15136026E+04</rscale>
<asrwt>0</asrwt>
<pdfrwt beam="1">  1        1 0.56681921E-01 0.15136026E+04</pdfrwt>
<pdfrwt beam="2">  1       -2 0.23916215E+00 0.15136026E+04</pdfrwt>
<totfact> 0.42368379E+00</totfact>
</mgrwt>
</event>
<event>
12    5  0.5297412E-008  0.1436872E+04  0.7818608E-02  0.8927553E-01
          1   -1    0    0  501    0  0.00000000000E+00  0.00000000000E+00  0.91613472753E+03  0.91613472753E+03  0.00000000000E+00 0. -1.
         -2   -1    0    0    0  501 -0.00000000000E+00 -0.00000000000E+00 -0.56340029069E+03  0.56340029069E+03  0.00000000000E+00 0.  1.
        -24    2    1    2    0    0 -0.28709711231E+03 -0.29443066951E+03  0.21832300454E+03  0.47263676115E+03  0.81279779961E+02 0.  0.
        254    2    1    2    0    0  0.28709711231E+03  0.29443066951E+03  0.13441143229E+03  0.10068982571E+04  0.90921036945E+03 0.  0.
         23    2    4    4    0    0 -0.51596863535E+02  0.22771852168E+03  0.46033970537E+03  0.52416294752E+03  0.91193145407E+02 0.  0.
         23    2    4    4    0    0  0.33869397584E+03  0.66712147834E+02 -0.32592827308E+03  0.48273530955E+03  0.87407207675E+02 0.  0.
          1    1    3    3  502    0 -0.16158319037E+02 -0.30456321095E+02  0.44619641324E+02  0.56387863593E+02  0.00000000000E+00 0. -1.
         -2    1    3    3    0  502 -0.27093879327E+03 -0.26397434842E+03  0.17370336322E+03  0.41624889756E+03  0.00000000000E+00 0.  1.
         13    1    5    5    0    0 -0.82531724066E+01 -0.45073710077E+01  0.48290452958E+02  0.49197551718E+02  0.00000000000E+00 0.  1.
        -13    1    5    5    0    0 -0.43343691128E+02  0.23222589269E+03  0.41204925241E+03  0.47496539580E+03  0.00000000000E+00 0. -1.
          3    1    6    6  503    0  0.25462082625E+03  0.83845678674E+02 -0.22272002852E+03  0.34851983314E+03  0.00000000000E+00 0. -1.
         -3    1    6    6    0  503  0.84073149598E+02 -0.17133530840E+02 -0.10320824456E+03  0.13421547641E+03  0.00000000000E+00 0.  1.
<mgrwt>
<rscale>  0 0.14368724E+04</rscale>
<asrwt>0</asrwt>
<pdfrwt beam="1">  1        1 0.14094380E+00 0.14368724E+04</pdfrwt>
<pdfrwt beam="2">  1       -2 0.86676968E-01 0.14368724E+04</pdfrwt>
<totfact> 0.17333739E+01</totfact>
</mgrwt>
</event>
<event>
12    5  0.5297412E-008  0.1566413E+04  0.7818608E-02  0.8841452E-01
         -2   -1    0    0    0  501 -0.00000000000E+00  0.00000000000E+00  0.16185131550E+03  0.16185131550E+03  0.00000000000E+00 0.  1.
          1   -1    0    0  501    0  0.00000000000E+00 -0.00000000000E+00 -0.37899728428E+04  0.37899728428E+04  0.00000000000E+00 0. -1.
        -24    2    1    2    0    0  0.21219810653E+02  0.43364682803E+02  0.88063297929E+02  0.12838372042E+03  0.79977866617E+02 0.  0.
        254    2    1    2    0    0 -0.21219810653E+02 -0.43364682803E+02 -0.37161848252E+04  0.38234404378E+04  0.89796233252E+03 0.  0.
         23    2    4    4    0    0  0.29954139710E+03 -0.40381001793E+02 -0.31541629640E+04  0.31698951279E+04  0.90196698372E+02 0.  0.
         23    2    4    4    0    0 -0.32076120775E+03 -0.29836810098E+01 -0.56202186118E+03  0.65354530995E+03  0.91412498921E+02 0.  0.
          3    1    3    3  502    0  0.46375008877E+02  0.38839731377E+02  0.36020447062E+02  0.70403400403E+02  0.00000000000E+00 0. -1.
         -4    1    3    3    0  502 -0.25155198225E+02  0.45249514259E+01  0.52042850867E+02  0.57980320019E+02  0.00000000000E+00 0.  1.
         13    1    5    5    0    0  0.11002009824E+03  0.22674747192E+02 -0.92322610312E+03  0.93003494755E+03  0.00000000000E+00 0.  1.
        -13    1    5    5    0    0  0.18952129886E+03 -0.63055748985E+02 -0.22309368609E+04  0.22398601803E+04  0.00000000000E+00 0. -1.
          3    1    6    6  503    0 -0.26495283490E+03  0.32662976967E+02 -0.46216933616E+03  0.53372967884E+03  0.00000000000E+00 0. -1.
         -3    1    6    6    0  503 -0.55808372855E+02 -0.35646657977E+02 -0.99852525023E+02  0.11981563111E+03  0.00000000000E+00 0.  1.
<mgrwt>
<rscale>  0 0.15664126E+04</rscale>
<asrwt>0</asrwt>
<pdfrwt beam="1">  1        1 0.58307271E+00 0.15664126E+04</pdfrwt>
<pdfrwt beam="2">  1       -2 0.24900204E-01 0.15664126E+04</pdfrwt>
<totfact> 0.17995369E+00</totfact>
</mgrwt>
</event>
<event>
12    5  0.5297412E-008  0.1642838E+04  0.7818608E-02  0.8794655E-01
          1   -1    0    0  501    0  0.00000000000E+00  0.00000000000E+00  0.43406487698E+03  0.43406487698E+03  0.00000000000E+00 0. -1.
         -2   -1    0    0    0  501 -0.00000000000E+00 -0.00000000000E+00 -0.15544423308E+04  0.15544423308E+04  0.00000000000E+00 0.  1.
        -24    2    1    2    0    0 -0.46891440487E+03 -0.13356822113E+03 -0.32217411787E+02  0.49532087767E+03  0.81139518342E+02 0.  0.
        254    2    1    2    0    0  0.46891440487E+03  0.13356822113E+03 -0.10881600420E+04  0.14931863301E+04  0.89877246873E+03 0.  0.
         23    2    4    4    0    0  0.26152553922E+03  0.24472990055E+03  0.68540064660E+01  0.36948801056E+03  0.90476962003E+02 0.  0.
         23    2    4    4    0    0  0.20738886565E+03 -0.11116167943E+03 -0.10950140485E+04  0.11236983195E+04  0.90967501887E+02 0.  0.
          3    1    3    3  502    0 -0.32750513278E+03 -0.59581438533E+02 -0.19804905905E+01  0.33288659053E+03  0.00000000000E+00 0. -1.
         -4    1    3    3    0  502 -0.14140927210E+03 -0.73986782592E+02 -0.30236921197E+02  0.16243428714E+03  0.00000000000E+00 0.  1.
         13    1    5    5    0    0  0.26173367331E+03  0.24556011170E+03 -0.36872351136E+01  0.35891207824E+03  0.00000000000E+00 0.  1.
        -13    1    5    5    0    0 -0.20813409061E+00 -0.83021115083E+00  0.10541241580E+02  0.10575932318E+02  0.00000000000E+00 0. -1.
          2    1    6    6  503    0  0.41727203598E+02  0.86281166433E+01 -0.11627318307E+03  0.12383479728E+03  0.00000000000E+00 0. -1.
         -2    1    6    6    0  503  0.16566166206E+03 -0.11978979607E+03 -0.97874086540E+03  0.99986352225E+03  0.00000000000E+00 0.  1.
<mgrwt>
<rscale>  0 0.16428376E+04</rscale>
<asrwt>0</asrwt>
<pdfrwt beam="1">  1        1 0.66779212E-01 0.16428376E+04</pdfrwt>
<pdfrwt beam="2">  1       -2 0.23914498E+00 0.16428376E+04</pdfrwt>
<totfact> 0.33703590E+00</totfact>
</mgrwt>
</event>
<event>
12    5  0.5297412E-008  0.1537512E+04  0.7818608E-02  0.8859884E-01
         -2   -1    0    0    0  501 -0.00000000000E+00  0.00000000000E+00  0.65131870092E+03  0.65131870092E+03  0.00000000000E+00 0.  1.
          1   -1    0    0  501    0  0.00000000000E+00 -0.00000000000E+00 -0.90736842477E+03  0.90736842477E+03  0.00000000000E+00 0. -1.
        -24    2    1    2    0    0 -0.40221278098E+03 -0.14409652570E+03 -0.36067686048E+03  0.56483936762E+03  0.80104829012E+02 0.  0.
        254    2    1    2    0    0  0.40221278098E+03  0.14409652570E+03  0.10462713663E+03  0.99384775806E+03  0.89120569937E+03 0.  0.
         23    2    4    4    0    0  0.82910895318E+02  0.40666057180E+03  0.30745155638E+03  0.52407865348E+03  0.88797175053E+02 0.  0.
         23    2    4    4    0    0  0.31930188566E+03 -0.26256404610E+03 -0.20282441975E+03  0.46976910458E+03  0.93014482102E+02 0.  0.
          3    1    3    3  502    0 -0.38730140699E+03 -0.15070495690E+03 -0.35755430308E+03  0.54823301938E+03  0.00000000000E+00 0. -1.
         -4    1    3    3    0  502 -0.14911373994E+02  0.66084312001E+01 -0.31225573994E+01  0.16606348245E+02  0.00000000000E+00 0.  1.
         13    1    5    5    0    0  0.86354391989E+02  0.31910796043E+03  0.20381053876E+03  0.38836285499E+03  0.00000000000E+00 0. -1.
        -13    1    5    5    0    0 -0.34434966710E+01  0.87552611364E+02  0.10364101763E+03  0.13571579849E+03  0.00000000000E+00 0.  1.
          1    1    6    6  503    0  0.10972666879E+03 -0.14275430144E+03 -0.11083846328E+03  0.21143296187E+03  0.00000000000E+00 0. -1.
         -1    1    6    6    0  503  0.20957521687E+03 -0.11980974466E+03 -0.91985956465E+02  0.25833614271E+03  0.00000000000E+00 0.  1.
<mgrwt>
<rscale>  0 0.15375123E+04</rscale>
<asrwt>0</asrwt>
<pdfrwt beam="1">  1        1 0.13959514E+00 0.15375123E+04</pdfrwt>
<pdfrwt beam="2">  1       -2 0.10020288E+00 0.15375123E+04</pdfrwt>
<totfact> 0.12468630E+01</totfact>
</mgrwt>
</event>
<event>
12    5  0.5297412E-008  0.3188454E+04  0.7818608E-02  0.8191873E-01
          1   -1    0    0  501    0  0.00000000000E+00  0.00000000000E+00  0.73310761019E+03  0.73310761019E+03  0.00000000000E+00 0. -1.
         -2   -1    0    0    0  501 -0.00000000000E+00 -0.00000000000E+00 -0.34668306792E+04  0.34668306792E+04  0.00000000000E+00 0.  1.
        -24    2    1    2    0    0  0.90765335612E+03  0.95074861286E+03 -0.21085854249E+04  0.24860076939E+04  0.79650613371E+02 0.  0.
        254    2    1    2    0    0 -0.90765335612E+03 -0.95074861286E+03 -0.62513764411E+03  0.17139305955E+04  0.90498810623E+03 0.  0.
         23    2    4    4    0    0 -0.25015569705E+03 -0.16784327658E+03 -0.61069747055E+03  0.68720860721E+03  0.92493410768E+02 0.  0.
         23    2    4    4    0    0 -0.65749765907E+03 -0.78290533628E+03 -0.14440173567E+02  0.10267219883E+04  0.93303726552E+02 0.  0.
          1    1    3    3  502    0  0.73389970668E+03  0.78551180404E+03 -0.16680890956E+04  0.19844794796E+04  0.00000000000E+00 0. -1.
         -2    1    3    3    0  502  0.17375364943E+03  0.16523680881E+03 -0.44049632924E+03  0.50152821432E+03  0.00000000000E+00 0.  1.
         13    1    5    5    0    0 -0.11522567807E+02  0.76438111475E+01 -0.63432967973E+02  0.64922560359E+02  0.00000000000E+00 0. -1.
        -13    1    5    5    0    0 -0.23863312924E+03 -0.17548708773E+03 -0.54726450257E+03  0.62228604685E+03  0.00000000000E+00 0.  1.
          1    1    6    6  503    0 -0.27685981162E+03 -0.27447666777E+03 -0.33639084938E+02  0.39130599852E+03  0.00000000000E+00 0. -1.
         -1    1    6    6    0  503 -0.38063784745E+03 -0.50842866850E+03  0.19198911371E+02  0.63541598977E+03  0.00000000000E+00 0.  1.
<mgrwt>
<rscale>  0 0.31884541E+04</rscale>
<asrwt>0</asrwt>
<pdfrwt beam="1">  1        1 0.11278578E+00 0.31884541E+04</pdfrwt>
<pdfrwt beam="2">  1       -2 0.53335857E+00 0.31884541E+04</pdfrwt>
<totfact> 0.19448615E-02</totfact>
</mgrwt>
</event>
<event>
12    5  0.5297412E-008  0.1948296E+04  0.7818608E-02  0.8631183E-01
         -2   -1    0    0    0  501 -0.00000000000E+00  0.00000000000E+00  0.51379697433E+03  0.51379697433E+03  0.00000000000E+00 0.  1.
          1   -1    0    0  501    0  0.00000000000E+00 -0.00000000000E+00 -0.18469632964E+04  0.18469632964E+04  0.00000000000E+00 0. -1.
        -24    2    1    2    0    0  0.37691466721E+03  0.63138983128E+03 -0.28554592709E+03  0.79301492684E+03  0.81353625077E+02 0.  0.
        254    2    1    2    0    0 -0.37691466721E+03 -0.63138983128E+03 -0.10476203950E+04  0.15677453439E+04  0.90531717422E+03 0.  0.
         23    2    4    4    0    0  0.12235563008E+03 -0.59764042041E+03 -0.77478897191E+03  0.99068228437E+03  0.94912935196E+02 0.  0.
         23    2    4    4    0    0 -0.49927029729E+03 -0.33749410871E+02 -0.27283142308E+03  0.57706305953E+03  0.90304688491E+02 0.  0.
          3    1    3    3  502    0  0.34940963299E+03  0.55262527257E+03 -0.23142880857E+03  0.69357124865E+03  0.00000000000E+00 0. -1.
         -2    1    3    3    0  502  0.27505034213E+02  0.78764558706E+02 -0.54117118520E+02  0.99443678191E+02  0.00000000000E+00 0.  1.
         13    1    5    5    0    0  0.10934551956E+03 -0.52867770361E+03 -0.62922625357E+03  0.82908517966E+03  0.00000000000E+00 0.  1.
        -13    1    5    5    0    0  0.13010110518E+02 -0.68962716795E+02 -0.14556271833E+03  0.16159710471E+03  0.00000000000E+00 0. -1.
          4    1    6    6  503    0 -0.34022979613E+02 -0.17974006991E+02 -0.20756713275E+01  0.38534873563E+02  0.00000000000E+00 0. -1.
         -4    1    6    6    0  503 -0.46524731767E+03 -0.15775403880E+02 -0.27075575176E+03  0.53852818597E+03  0.00000000000E+00 0.  1.
<mgrwt>
<rscale>  0 0.19482958E+04</rscale>
<asrwt>0</asrwt>
<pdfrwt beam="1">  1        1 0.28414820E+00 0.19482958E+04</pdfrwt>
<pdfrwt beam="2">  1       -2 0.79045689E-01 0.19482958E+04</pdfrwt>
<totfact> 0.43978371E+00</totfact>
</mgrwt>
</event>
<event>
12    5  0.5297412E-008  0.1664887E+04  0.7818608E-02  0.8781648E-01
          1   -1    0    0  501    0  0.00000000000E+00  0.00000000000E+00  0.62191220210E+03  0.62191220210E+03  0.00000000000E+00 0. -1.
         -2   -1    0    0    0  501 -0.00000000000E+00 -0.00000000000E+00 -0.11142439570E+04  0.11142439570E+04  0.00000000000E+00 0.  1.
        -24    2    1    2    0    0 -0.30809522013E+03 -0.40282981169E+03  0.15096308623E+03  0.53503467114E+03  0.79232089937E+02 0.  0.
        254    2    1    2    0    0  0.30809522013E+03  0.40282981169E+03 -0.64329484110E+03  0.12011214879E+04  0.87844752508E+03 0.  0.
         23    2    4    4    0    0 -0.25065394303E+03  0.10627380284E+02 -0.14435882249E+02  0.26799929468E+03  0.93139072815E+02 0.  0.
         23    2    4    4    0    0  0.55874916316E+03  0.39220243140E+03 -0.62885895885E+03  0.93312219325E+03  0.96073216227E+02 0.  0.
          3    1    3    3  502    0 -0.25843963576E+03 -0.33176575113E+03  0.15511618514E+03  0.44824166456E+03  0.00000000000E+00 0. -1.
         -4    1    3    3    0  502 -0.49655584367E+02 -0.71064060556E+02 -0.41530989132E+01  0.86793006585E+02  0.00000000000E+00 0.  1.
         13    1    5    5    0    0 -0.62838353578E+02  0.39652887887E+02 -0.22939513263E+02  0.77763947089E+02  0.00000000000E+00 0. -1.
        -13    1    5    5    0    0 -0.18781558945E+03 -0.29025507603E+02  0.85036310138E+01  0.19023534759E+03  0.00000000000E+00 0.  1.
          3    1    6    6  503    0  0.15785684466E+02 -0.13340804431E+01 -0.35608416985E+01  0.16237216457E+02  0.00000000000E+00 0. -1.
         -3    1    6    6    0  503  0.54296347869E+03  0.39353651184E+03 -0.62529811715E+03  0.91688497679E+03  0.00000000000E+00 0.  1.
<mgrwt>
<rscale>  0 0.16648867E+04</rscale>
<asrwt>0</asrwt>
<pdfrwt beam="1">  1        1 0.95678803E-01 0.16648867E+04</pdfrwt>
<pdfrwt beam="2">  1       -2 0.17142214E+00 0.16648867E+04</pdfrwt>
<totfact> 0.56501965E+00</totfact>
</mgrwt>
</event>
<event>
12    5  0.5297412E-008  0.2012993E+04  0.7818608E-02  0.8600570E-01
          1   -1    0    0  501    0  0.00000000000E+00  0.00000000000E+00  0.15500476387E+04  0.15500476387E+04  0.00000000000E+00 0. -1.
         -2   -1    0    0    0  501 -0.00000000000E+00 -0.00000000000E+00 -0.65355123073E+03  0.65355123073E+03  0.00000000000E+00 0.  1.
        -24    2    1    2    0    0 -0.56458997486E+03 -0.47418206894E+03  0.32985805626E+02  0.74309121330E+03  0.86521752716E+02 0.  0.
        254    2    1    2    0    0  0.56458997486E+03  0.47418206894E+03  0.86351060236E+03  0.14605076562E+04  0.91859761544E+03 0.  0.
         23    2    4    4    0    0  0.48588775553E+03 -0.16462690006E+03  0.46253069864E+03  0.69666248092E+03  0.90636846504E+02 0.  0.
         23    2    4    4    0    0  0.78702219324E+02  0.63880896901E+03  0.40097990373E+03  0.76384517524E+03  0.91671316820E+02 0.  0.
          3    1    3    3  502    0 -0.40748348664E+03 -0.36938068525E+03 -0.70903367923E+01  0.55003195853E+03  0.00000000000E+00 0. -1.
         -4    1    3    3    0  502 -0.15710648821E+03 -0.10480138369E+03  0.40076142418E+02  0.19305925477E+03  0.00000000000E+00 0.  1.
         13    1    5    5    0    0  0.45941897452E+03 -0.13563652402E+03  0.44441632316E+03  0.65342859525E+03  0.00000000000E+00 0. -1.
        -13    1    5    5    0    0  0.26468781016E+02 -0.28990376049E+02  0.18114375476E+02  0.43233885678E+02  0.00000000000E+00 0.  1.
          3    1    6    6  503    0  0.34622167536E+02  0.36325381169E+03  0.17465366079E+03  0.40454409824E+03  0.00000000000E+00 0. -1.
         -3    1    6    6    0  503  0.44080051788E+02  0.27555515731E+03  0.22632624293E+03  0.35930107699E+03  0.00000000000E+00 0.  1.
<mgrwt>
<rscale>  0 0.20129933E+04</rscale>
<asrwt>0</asrwt>
<pdfrwt beam="1">  1        1 0.23846887E+00 0.20129933E+04</pdfrwt>
<pdfrwt beam="2">  1       -2 0.10054634E+00 0.20129933E+04</pdfrwt>
<totfact> 0.40059605E+00</totfact>
</mgrwt>
</event>
<event>
12    5  0.5297412E-008  0.2197141E+04  0.7818608E-02  0.8519619E-01
         -2   -1    0    0    0  501 -0.00000000000E+00  0.00000000000E+00  0.15948679120E+04  0.15948679120E+04  0.00000000000E+00 0.  1.
          1   -1    0    0  501    0  0.00000000000E+00 -0.00000000000E+00 -0.75671317882E+03  0.75671317882E+03  0.00000000000E+00 0. -1.
        -24    2    1    2    0    0  0.10788659421E+03  0.84061461718E+03  0.34998151294E+02  0.85045481379E+03  0.61449718301E+02 0.  0.
        254    2    1    2    0    0 -0.10788659421E+03 -0.84061461718E+03  0.80315658188E+03  0.15011262770E+04  0.94342310378E+03 0.  0.
         23    2    4    4    0    0  0.17060565721E+03 -0.70173870195E+03  0.90510125654E+03  0.11612003456E+04  0.87375407742E+02 0.  0.
         23    2    4    4    0    0 -0.27849225142E+03 -0.13887591523E+03 -0.10194467467E+03  0.33992593145E+03  0.91172738525E+02 0.  0.
          3    1    3    3  502    0  0.11464248519E+03  0.75679601772E+03  0.25825239906E+02  0.76586555927E+03  0.00000000000E+00 0. -1.
         -4    1    3    3    0  502 -0.67558909823E+01  0.83818599453E+02  0.91729113878E+01  0.84589254522E+02  0.00000000000E+00 0.  1.
         13    1    5    5    0    0 -0.94629457123E+01 -0.40763895565E+02  0.63088929904E+02  0.75706377536E+02  0.00000000000E+00 0. -1.
        -13    1    5    5    0    0  0.18006860293E+03 -0.66097480638E+03  0.84201232664E+03  0.10854939680E+04  0.00000000000E+00 0.  1.
          3    1    6    6  503    0 -0.55483400654E+02 -0.51709056618E+02  0.83564169945E+01  0.76302450743E+02  0.00000000000E+00 0. -1.
         -3    1    6    6    0  503 -0.22300885077E+03 -0.87166858609E+02 -0.11030109166E+03  0.26362348071E+03  0.00000000000E+00 0.  1.
<mgrwt>
<rscale>  0 0.21971414E+04</rscale>
<asrwt>0</asrwt>
<pdfrwt beam="1">  1        1 0.11641741E+00 0.21971414E+04</pdfrwt>
<pdfrwt beam="2">  1       -2 0.24536429E+00 0.21971414E+04</pdfrwt>
<totfact> 0.13244425E+00</totfact>
</mgrwt>
</event>
<event>
12    5  0.5297412E-008  0.1178247E+04  0.7818608E-02  0.9132113E-01
         -2   -1    0    0    0  501 -0.00000000000E+00  0.00000000000E+00  0.20490789582E+03  0.20490789582E+03  0.00000000000E+00 0.  1.
          1   -1    0    0  501    0  0.00000000000E+00 -0.00000000000E+00 -0.16937691320E+04  0.16937691320E+04  0.00000000000E+00 0. -1.
        -24    2    1    2    0    0  0.50209729098E+02  0.70756755142E+02 -0.66251815149E+03  0.67308499407E+03  0.81151542792E+02 0.  0.
        254    2    1    2    0    0 -0.50209729098E+02 -0.70756755142E+02 -0.82634308472E+03  0.12255920338E+04  0.90094694865E+03 0.  0.
         23    2    4    4    0    0 -0.36578780966E+03  0.32506928235E+02 -0.57157740821E+02  0.38279278989E+03  0.91683644014E+02 0.  0.
         23    2    4    4    0    0  0.31557808056E+03 -0.10326368338E+03 -0.76918534390E+03  0.84279924388E+03  0.91714551618E+02 0.  0.
          1    1    3    3  502    0  0.13159274666E+02  0.46959126509E+02 -0.55150870401E+03  0.55366070537E+03  0.00000000000E+00 0. -1.
         -2    1    3    3    0  502  0.37050454433E+02  0.23797628633E+02 -0.11100944748E+03  0.11942428870E+03  0.00000000000E+00 0.  1.
         13    1    5    5    0    0 -0.38242656892E+02  0.92323052076E+01 -0.36673180091E+02  0.53783439864E+02  0.00000000000E+00 0. -1.
        -13    1    5    5    0    0 -0.32754515276E+03  0.23274623028E+02 -0.20484560730E+02  0.32900935003E+03  0.00000000000E+00 0.  1.
          3    1    6    6  503    0  0.63200739388E-01 -0.10052408087E+02 -0.62275813270E+02  0.63081945287E+02  0.00000000000E+00 0. -1.
         -3    1    6    6    0  503  0.31551487982E+03 -0.93211275290E+02 -0.70690953063E+03  0.77971729859E+03  0.00000000000E+00 0.  1.
<mgrwt>
<rscale>  0 0.11782473E+04</rscale>
<asrwt>0</asrwt>
<pdfrwt beam="1">  1        1 0.26057988E+00 0.11782473E+04</pdfrwt>
<pdfrwt beam="2">  1       -2 0.31524290E-01 0.11782473E+04</pdfrwt>
<totfact> 0.39141927E+01</totfact>
</mgrwt>
</event>
<event>
12    5  0.5297412E-008  0.1263996E+04  0.7818608E-02  0.9058614E-01
         -2   -1    0    0    0  501 -0.00000000000E+00  0.00000000000E+00  0.16754097396E+03  0.16754097396E+03  0.00000000000E+00 0.  1.
          1   -1    0    0  501    0  0.00000000000E+00 -0.00000000000E+00 -0.23840233095E+04  0.23840233095E+04  0.00000000000E+00 0. -1.
        -24    2    1    2    0    0  0.12102729976E+03  0.26094508296E+03 -0.41151617007E+03  0.50850660583E+03  0.80582047236E+02 0.  0.
        254    2    1    2    0    0 -0.12102729976E+03 -0.26094508296E+03 -0.18049661655E+04  0.20430576776E+04  0.91293037633E+03 0.  0.
         23    2    4    4    0    0 -0.21721050396E+03  0.24641337259E+03 -0.11748513275E+04  0.12234276701E+04  0.92734399700E+02 0.  0.
         23    2    4    4    0    0  0.96183204204E+02 -0.50735845555E+03 -0.63011483798E+03  0.81963000759E+03  0.89915677773E+02 0.  0.
          1    1    3    3  502    0  0.41718013570E+02  0.18082223079E+03 -0.26877784432E+03  0.32661690312E+03  0.00000000000E+00 0. -1.
         -2    1    3    3    0  502  0.79309286188E+02  0.80122852169E+02 -0.14273832575E+03  0.18188970271E+03  0.00000000000E+00 0.  1.
         13    1    5    5    0    0  0.18789656641E+01  0.27016076896E+02 -0.15976019471E+03  0.16203925061E+03  0.00000000000E+00 0.  1.
        -13    1    5    5    0    0 -0.21908946963E+03  0.21939729569E+03 -0.10150911328E+04  0.10613884195E+04  0.00000000000E+00 0. -1.
          2    1    6    6  503    0  0.28063748851E+02 -0.25860718383E+03 -0.25388463288E+03  0.36348680353E+03  0.00000000000E+00 0. -1.
         -2    1    6    6    0  503  0.68119455353E+02 -0.24875127172E+03 -0.37623020510E+03  0.45614320406E+03  0.00000000000E+00 0.  1.
<mgrwt>
<rscale>  0 0.12639962E+04</rscale>
<asrwt>0</asrwt>
<pdfrwt beam="1">  1        1 0.36677280E+00 0.12639962E+04</pdfrwt>
<pdfrwt beam="2">  1       -2 0.25775536E-01 0.12639962E+04</pdfrwt>
<totfact> 0.19204333E+01</totfact>
</mgrwt>
</event>
<event>
12    5  0.5297412E-008  0.1827268E+04  0.7818608E-02  0.8691931E-01
          1   -1    0    0  501    0  0.00000000000E+00  0.00000000000E+00  0.14242105542E+04  0.14242105542E+04  0.00000000000E+00 0. -1.
         -2   -1    0    0    0  501 -0.00000000000E+00 -0.00000000000E+00 -0.58609828006E+03  0.58609828006E+03  0.00000000000E+00 0.  1.
        -24    2    1    2    0    0 -0.52431429094E+03 -0.44962965009E+03  0.35711525127E+03  0.78180490551E+03  0.81334554002E+02 0.  0.
        254    2    1    2    0    0  0.52431429094E+03  0.44962965009E+03  0.48099702292E+03  0.12285039288E+04  0.89486952629E+03 0.  0.
         23    2    4    4    0    0  0.67378521402E+03  0.59407817182E+03  0.37052593802E+03  0.97592022113E+03  0.90638945332E+02 0.  0.
         23    2    4    4    0    0 -0.14947092308E+03 -0.14444852173E+03  0.11047108490E+03  0.25258370766E+03  0.91584586598E+02 0.  0.
          3    1    3    3  502    0 -0.22140092423E+03 -0.23757716081E+03  0.18759210634E+03  0.37503609820E+03  0.00000000000E+00 0. -1.
         -4    1    3    3    0  502 -0.30291336671E+03 -0.21205248927E+03  0.16952314493E+03  0.40676880732E+03  0.00000000000E+00 0.  1.
         13    1    5    5    0    0  0.64662412979E+03  0.54923224811E+03  0.36362010038E+03  0.92303759674E+03  0.00000000000E+00 0. -1.
        -13    1    5    5    0    0  0.27161084232E+02  0.44845923702E+02  0.69058376387E+01  0.52882624394E+02  0.00000000000E+00 0.  1.
          3    1    6    6  503    0  0.54764939796E+01  0.49973115163E+01  0.15719992743E+02  0.17380543160E+02  0.00000000000E+00 0.  1.
         -3    1    6    6    0  503 -0.15494741706E+03 -0.14944583325E+03  0.94751092158E+02  0.23520316450E+03  0.00000000000E+00 0. -1.
<mgrwt>
<rscale>  0 0.18272683E+04</rscale>
<asrwt>0</asrwt>
<pdfrwt beam="1">  1        1 0.21910931E+00 0.18272683E+04</pdfrwt>
<pdfrwt beam="2">  1       -2 0.90168967E-01 0.18272683E+04</pdfrwt>
<totfact> 0.64220864E+00</totfact>
</mgrwt>
</event>
<event>
12    5  0.5297412E-008  0.1078792E+04  0.7818608E-02  0.9226113E-01
         -2   -1    0    0    0  501 -0.00000000000E+00  0.00000000000E+00  0.17547639466E+03  0.17547639466E+03  0.00000000000E+00 0.  1.
          1   -1    0    0  501    0  0.00000000000E+00 -0.00000000000E+00 -0.16580451917E+04  0.16580451917E+04  0.00000000000E+00 0. -1.
        -24    2    1    2    0    0 -0.87680124160E+02 -0.95434582407E+02 -0.37487270592E+03  0.40454500948E+03  0.79571071112E+02 0.  0.
        254    2    1    2    0    0  0.87680124160E+02  0.95434582407E+02 -0.11076960911E+04  0.14289765769E+04  0.89341360148E+03 0.  0.
         23    2    4    4    0    0 -0.21618249543E+03 -0.10288118023E+03 -0.10095804185E+04  0.10413641059E+04  0.88697075367E+02 0.  0.
         23    2    4    4    0    0  0.30386261959E+03  0.19831576264E+03 -0.98115672646E+02  0.38761247095E+03  0.94631438346E+02 0.  0.
          3    1    3    3  502    0  0.75964305769E+00 -0.28264051812E+02 -0.16195539531E+03  0.16440493835E+03  0.00000000000E+00 0. -1.
         -4    1    3    3    0  502 -0.88439767218E+02 -0.67170530595E+02 -0.21291731061E+03  0.24014007113E+03  0.00000000000E+00 0.  1.
         13    1    5    5    0    0 -0.17470552521E+03 -0.46682811839E+02 -0.80918264870E+03  0.82914284922E+03  0.00000000000E+00 0. -1.
        -13    1    5    5    0    0 -0.41476970216E+02 -0.56198368391E+02 -0.20039776979E+03  0.21222125672E+03  0.00000000000E+00 0.  1.
          2    1    6    6  503    0  0.29198357902E+03  0.16909483649E+03 -0.68398920311E+02  0.34427588711E+03  0.00000000000E+00 0. -1.
         -2    1    6    6    0  503  0.11879040569E+02  0.29220926144E+02 -0.29716752335E+02  0.43336583840E+02  0.00000000000E+00 0.  1.
<mgrwt>
<rscale>  0 0.10787915E+04</rscale>
<asrwt>0</asrwt>
<pdfrwt beam="1">  1        1 0.25508388E+00 0.10787915E+04</pdfrwt>
<pdfrwt beam="2">  1       -2 0.26996368E-01 0.10787915E+04</pdfrwt>
<totfact> 0.55626221E+01</totfact>
</mgrwt>
</event>
<event>
12    5  0.5297412E-008  0.1643407E+04  0.7818608E-02  0.8794317E-01
          1   -1    0    0  501    0  0.00000000000E+00  0.00000000000E+00  0.24552351859E+04  0.24552351859E+04  0.00000000000E+00 0. -1.
         -2   -1    0    0    0  501 -0.00000000000E+00 -0.00000000000E+00 -0.27500267960E+03  0.27500267960E+03  0.00000000000E+00 0.  1.
        -24    2    1    2    0    0  0.13049119816E+02  0.14697466438E+03 -0.15311536535E+03  0.22542623469E+03  0.74838764580E+02 0.  0.
        254    2    1    2    0    0 -0.13049119816E+02 -0.14697466438E+03  0.23333478716E+04  0.25048116308E+04  0.89877538029E+03 0.  0.
         23    2    4    4    0    0 -0.39541399815E+03 -0.28328585605E+03  0.12656824627E+04  0.13589187427E+04  0.90027477577E+02 0.  0.
         23    2    4    4    0    0  0.38236487833E+03  0.13631119167E+03  0.10676654089E+04  0.11458928881E+04  0.91528380210E+02 0.  0.
          1    1    3    3  502    0  0.38643057216E+02  0.79143351397E+02 -0.56515571486E+02  0.10464686217E+03  0.00000000000E+00 0. -1.
         -2    1    3    3    0  502 -0.25593937401E+02  0.67831312983E+02 -0.96599793867E+02  0.12077937253E+03  0.00000000000E+00 0.  1.
         13    1    5    5    0    0 -0.75281771674E+02 -0.70423649648E+02  0.18342171572E+03  0.21040523134E+03  0.00000000000E+00 0.  1.
        -13    1    5    5    0    0 -0.32013222648E+03 -0.21286220640E+03  0.10822607470E+04  0.11485135114E+04  0.00000000000E+00 0. -1.
          2    1    6    6  503    0  0.38745042236E+03  0.13441392059E+03  0.10450994091E+04  0.11226832620E+04  0.00000000000E+00 0. -1.
         -2    1    6    6    0  503 -0.50855440269E+01  0.18972710771E+01  0.22565999792E+02  0.23209626067E+02  0.00000000000E+00 0.  1.
<mgrwt>
<rscale>  0 0.16434065E+04</rscale>
<asrwt>0</asrwt>
<pdfrwt beam="1">  1        1 0.37772848E+00 0.16434065E+04</pdfrwt>
<pdfrwt beam="2">  1       -2 0.42308106E-01 0.16434065E+04</pdfrwt>
<totfact> 0.64796960E+00</totfact>
</mgrwt>
</event>
<event>
12    5  0.5297412E-008  0.1738082E+04  0.7818608E-02  0.8739938E-01
         -2   -1    0    0    0  501 -0.00000000000E+00  0.00000000000E+00  0.41729307816E+03  0.41729307816E+03  0.00000000000E+00 0.  1.
          1   -1    0    0  501    0  0.00000000000E+00 -0.00000000000E+00 -0.18098369935E+04  0.18098369935E+04  0.00000000000E+00 0. -1.
        -24    2    1    2    0    0  0.18681222607E+03 -0.51267773246E+03 -0.13191168911E+03  0.56703522922E+03  0.79943681937E+02 0.  0.
        254    2    1    2    0    0 -0.18681222607E+03  0.51267773246E+03 -0.12606322262E+04  0.16600948424E+04  0.93219311889E+03 0.  0.
         23    2    4    4    0    0 -0.45304791497E+03  0.21427924519E+03 -0.11120417747E+04  0.12238697332E+04  0.10026069476E+03 0.  0.
         23    2    4    4    0    0  0.26623568890E+03  0.29839848727E+03 -0.14859045147E+03  0.43622510922E+03  0.91050120225E+02 0.  0.
          1    1    3    3  502    0  0.26963230182E+02 -0.18271004812E+03 -0.50270616624E+02  0.19140823483E+03  0.00000000000E+00 0. -1.
         -2    1    3    3    0  502  0.15984899589E+03 -0.32996768434E+03 -0.81641072484E+02  0.37562699438E+03  0.00000000000E+00 0.  1.
         13    1    5    5    0    0 -0.19415520789E+03  0.12169387997E+03 -0.60743645172E+03  0.64921852103E+03  0.00000000000E+00 0. -1.
        -13    1    5    5    0    0 -0.25889270708E+03  0.92585365214E+02 -0.50460532299E+03  0.57465121215E+03  0.00000000000E+00 0.  1.
          4    1    6    6  503    0  0.15294267596E+03  0.23325431599E+03 -0.90813770882E+02  0.29333629002E+03  0.00000000000E+00 0. -1.
         -4    1    6    6    0  503  0.11329301294E+03  0.65144171279E+02 -0.57776680585E+02  0.14288881920E+03  0.00000000000E+00 0.  1.
<mgrwt>
<rscale>  0 0.17380822E+04</rscale>
<asrwt>0</asrwt>
<pdfrwt beam="1">  1        1 0.27843646E+00 0.17380822E+04</pdfrwt>
<pdfrwt beam="2">  1       -2 0.64198936E-01 0.17380822E+04</pdfrwt>
<totfact> 0.74905405E+00</totfact>
</mgrwt>
</event>
<event>
12    5  0.5297412E-008  0.1898558E+04  0.7818608E-02  0.8655574E-01
         -4   -1    0    0    0  501 -0.00000000000E+00  0.00000000000E+00  0.15452849771E+04  0.15452849771E+04  0.00000000000E+00 0.  1.
          3   -1    0    0  501    0  0.00000000000E+00 -0.00000000000E+00 -0.58314858696E+03  0.58314858696E+03  0.00000000000E+00 0. -1.
        -24    2    1    2    0    0  0.49197656808E+03  0.20608103626E+03 -0.22318840802E+03  0.58369363148E+03  0.79842675981E+02 0.  0.
        254    2    1    2    0    0 -0.49197656808E+03 -0.20608103626E+03  0.11853247981E+04  0.15447399325E+04  0.83469530074E+03 0.  0.
         23    2    4    4    0    0 -0.32446293874E+03 -0.43730695190E+03  0.11037454325E+04  0.12341275419E+04  0.91122122231E+02 0.  0.
         23    2    4    4    0    0 -0.16751362934E+03  0.23122591564E+03  0.81579365643E+02  0.31061239063E+03  0.91096785001E+02 0.  0.
          1    1    3    3  502    0  0.46378445453E+03  0.21278647743E+03 -0.20874845555E+03  0.55131662675E+03  0.00000000000E+00 0. -1.
         -2    1    3    3    0  502  0.28192113552E+02 -0.67054411667E+01 -0.14439952468E+02  0.32377004726E+02  0.00000000000E+00 0.  1.
         13    1    5    5    0    0 -0.28336732085E+03 -0.31842073031E+03  0.84430211589E+03  0.94579853189E+03  0.00000000000E+00 0. -1.
        -13    1    5    5    0    0 -0.41095617891E+02 -0.11888622159E+03  0.25944331660E+03  0.28832901003E+03  0.00000000000E+00 0.  1.
          3    1    6    6  503    0 -0.68170333143E+02  0.89808030795E+02 -0.13174309226E+02  0.11351757194E+03  0.00000000000E+00 0. -1.
         -3    1    6    6    0  503 -0.99343296193E+02  0.14141788485E+03  0.94753674869E+02  0.19709481869E+03  0.00000000000E+00 0.  1.
<mgrwt>
<rscale>  0 0.18985581E+04</rscale>
<asrwt>0</asrwt>
<pdfrwt beam="1">  1        3 0.89715168E-01 0.18985581E+04</pdfrwt>
<pdfrwt beam="2">  1       -4 0.23773615E+00 0.18985581E+04</pdfrwt>
<totfact> 0.18123368E-01</totfact>
</mgrwt>
</event>
<event>
12    5  0.5297412E-008  0.2082015E+04  0.7818608E-02  0.8569208E-01
          1   -1    0    0  501    0  0.00000000000E+00  0.00000000000E+00  0.26475278517E+04  0.26475278517E+04  0.00000000000E+00 0. -1.
         -2   -1    0    0    0  501 -0.00000000000E+00 -0.00000000000E+00 -0.40932391259E+03  0.40932391259E+03  0.00000000000E+00 0.  1.
        -24    2    1    2    0    0  0.72619103333E+03  0.42575075531E+03  0.11078380154E+04  0.13936408231E+04  0.79451576401E+02 0.  0.
        254    2    1    2    0    0 -0.72619103333E+03 -0.42575075531E+03  0.11303659237E+04  0.16632109412E+04  0.88313441262E+03 0.  0.
         23    2    4    4    0    0 -0.68114331336E+03  0.70314497018E+02  0.80851340589E+03  0.10635367258E+04  0.92282706123E+02 0.  0.
         23    2    4    4    0    0 -0.45047719974E+02 -0.49606525233E+03  0.32185251783E+03  0.59967421534E+03  0.88938684866E+02 0.  0.
          3    1    3    3  502    0  0.54883789963E+03  0.30710115252E+03  0.87815730000E+03  0.10801362884E+04  0.00000000000E+00 0. -1.
         -4    1    3    3    0  502  0.17735313370E+03  0.11864960279E+03  0.22968071537E+03  0.31350453472E+03  0.00000000000E+00 0.  1.
         13    1    5    5    0    0 -0.60902457525E+03  0.90910519622E+02  0.71303355442E+03  0.94212127965E+03  0.00000000000E+00 0. -1.
        -13    1    5    5    0    0 -0.72118738102E+02 -0.20596022604E+02  0.95479851467E+02  0.12141544617E+03  0.00000000000E+00 0.  1.
          2    1    6    6  503    0  0.16312196156E+02 -0.35421657837E+02  0.10788747407E+02  0.40462064430E+02  0.00000000000E+00 0.  1.
         -2    1    6    6    0  503 -0.61359916130E+02 -0.46064359449E+03  0.31106377043E+03  0.55921215091E+03  0.00000000000E+00 0. -1.
<mgrwt>
<rscale>  0 0.20820149E+04</rscale>
<asrwt>0</asrwt>
<pdfrwt beam="1">  1        1 0.40731197E+00 0.20820149E+04</pdfrwt>
<pdfrwt beam="2">  1       -2 0.62972911E-01 0.20820149E+04</pdfrwt>
<totfact> 0.20219182E+00</totfact>
</mgrwt>
</event>
<event>
12    5  0.5297412E-008  0.1943065E+04  0.7818608E-02  0.8633712E-01
         -2   -1    0    0    0  501 -0.00000000000E+00  0.00000000000E+00  0.18997600675E+04  0.18997600675E+04  0.00000000000E+00 0.  1.
          1   -1    0    0  501    0  0.00000000000E+00 -0.00000000000E+00 -0.49683928496E+03  0.49683928496E+03  0.00000000000E+00 0. -1.
        -24    2    1    2    0    0  0.43468521194E+03 -0.49075366278E+03  0.10712465819E+04  0.12584545976E+04  0.79676495882E+02 0.  0.
        254    2    1    2    0    0 -0.43468521194E+03  0.49075366278E+03  0.33167420062E+03  0.11381447548E+04  0.86923835431E+03 0.  0.
         23    2    4    4    0    0 -0.16280970426E+03 -0.12243536043E+03 -0.18236216025E+03  0.28816601450E+03  0.91028990620E+02 0.  0.
         23    2    4    4    0    0 -0.27187550768E+03  0.61318902321E+03  0.51403636087E+03  0.84997874034E+03  0.91177896875E+02 0.  0.
          1    1    3    3  502    0  0.80525092847E+02 -0.14199568674E+03  0.27510228382E+03  0.31988799945E+03  0.00000000000E+00 0. -1.
         -2    1    3    3    0  502  0.35416011909E+03 -0.34875797604E+03  0.79614429808E+03  0.93856659815E+03  0.00000000000E+00 0.  1.
         13    1    5    5    0    0 -0.11384392778E+03 -0.59045061163E+02 -0.59203327129E+02  0.14125081622E+03  0.00000000000E+00 0. -1.
        -13    1    5    5    0    0 -0.48965776480E+02 -0.63390299270E+02 -0.12315883312E+03  0.14691519827E+03  0.00000000000E+00 0.  1.
          2    1    6    6  503    0 -0.34542029388E+01  0.79124625217E+02  0.60897778357E+02  0.99905841884E+02  0.00000000000E+00 0. -1.
         -2    1    6    6    0  503 -0.26842130474E+03  0.53406439799E+03  0.45313858251E+03  0.75007289846E+03  0.00000000000E+00 0.  1.
<mgrwt>
<rscale>  0 0.19430650E+04</rscale>
<asrwt>0</asrwt>
<pdfrwt beam="1">  1        1 0.76436814E-01 0.19430650E+04</pdfrwt>
<pdfrwt beam="2">  1       -2 0.29227078E+00 0.19430650E+04</pdfrwt>
<totfact> 0.12941073E+00</totfact>
</mgrwt>
</event>
<event>
12    5  0.5297412E-008  0.2117889E+04  0.7818608E-02  0.8553404E-01
          1   -1    0    0  501    0  0.00000000000E+00  0.00000000000E+00  0.50520837320E+03  0.50520837320E+03  0.00000000000E+00 0. -1.
         -2   -1    0    0    0  501 -0.00000000000E+00 -0.00000000000E+00 -0.22196050705E+04  0.22196050705E+04  0.00000000000E+00 0.  1.
        -24    2    1    2    0    0  0.75178380210E+03  0.26665832943E+03 -0.28473543566E+03  0.85141741393E+03  0.86901062531E+02 0.  0.
        254    2    1    2    0    0 -0.75178380210E+03 -0.26665832943E+03 -0.14296612616E+04  0.18733960298E+04  0.91071170606E+03 0.  0.
         23    2    4    4    0    0 -0.96771487368E+02 -0.27359270728E+03 -0.62405686867E+01  0.30381728582E+03  0.89712363835E+02 0.  0.
         23    2    4    4    0    0 -0.65501231474E+03  0.69343778463E+01 -0.14234206929E+04  0.15695787439E+04  0.91442584546E+02 0.  0.
          3    1    3    3  502    0  0.60197897657E+03  0.23499210818E+03 -0.20022369930E+03  0.67652753743E+03  0.00000000000E+00 0. -1.
         -4    1    3    3    0  502  0.14980482554E+03  0.31666221251E+02 -0.84511736354E+02  0.17488987651E+03  0.00000000000E+00 0.  1.
         13    1    5    5    0    0 -0.95798618615E+02 -0.16500550335E+03 -0.28649219851E+02  0.19293773416E+03  0.00000000000E+00 0. -1.
        -13    1    5    5    0    0 -0.97286875323E+00 -0.10858720393E+03  0.22408651165E+02  0.11087955166E+03  0.00000000000E+00 0.  1.
          2    1    6    6  503    0 -0.57435295738E+03 -0.55065111481E+01 -0.13044293732E+04  0.14252886132E+04  0.00000000000E+00 0. -1.
         -2    1    6    6    0  503 -0.80659357359E+02  0.12440888994E+02 -0.11899131978E+03  0.14429013075E+03  0.00000000000E+00 0.  1.
<mgrwt>
<rscale>  0 0.21178886E+04</rscale>
<asrwt>0</asrwt>
<pdfrwt beam="1">  1        1 0.77724364E-01 0.21178886E+04</pdfrwt>
<pdfrwt beam="2">  1       -2 0.34147771E+00 0.21178886E+04</pdfrwt>
<totfact> 0.61930565E-01</totfact>
</mgrwt>
</event>
<event>
12    5  0.5297412E-008  0.2680713E+04  0.7818608E-02  0.8341290E-01
         -2   -1    0    0    0  501 -0.00000000000E+00  0.00000000000E+00  0.55336816273E+03  0.55336816273E+03  0.00000000000E+00 0.  1.
          1   -1    0    0  501    0  0.00000000000E+00 -0.00000000000E+00 -0.32465831031E+04  0.32465831031E+04  0.00000000000E+00 0. -1.
        -24    2    1    2    0    0  0.11256469015E+04  0.39417437941E+02 -0.66955521216E+03  0.13126574255E+04  0.78298488351E+02 0.  0.
        254    2    1    2    0    0 -0.11256469015E+04 -0.39417437941E+02 -0.20236597282E+04  0.24872938404E+04  0.90708173353E+03 0.  0.
         23    2    4    4    0    0 -0.11495512787E+04 -0.52367021148E+02 -0.20775794839E+04  0.23767225366E+04  0.90901357048E+02 0.  0.
         23    2    4    4    0    0  0.23904377201E+02  0.12949583207E+02  0.53919755619E+02  0.11057130381E+03  0.92625926315E+02 0.  0.
          1    1    3    3  502    0  0.27112159476E+02  0.35349214401E+01 -0.37336770324E+01  0.27595383767E+02  0.00000000000E+00 0. -1.
         -2    1    3    3    0  502  0.10985347420E+04  0.35882516501E+02 -0.66582153513E+03  0.12850620417E+04  0.00000000000E+00 0.  1.
         13    1    5    5    0    0 -0.60588585216E+03  0.10264122832E+02 -0.11432388246E+04  0.12939080447E+04  0.00000000000E+00 0. -1.
        -13    1    5    5    0    0 -0.54366542655E+03 -0.62631143980E+02 -0.93434065928E+03  0.10828144919E+04  0.00000000000E+00 0.  1.
          4    1    6    6  503    0 -0.25637325966E+02 -0.65222404460E+01 -0.91947435286E+01  0.28006345918E+02  0.00000000000E+00 0. -1.
         -4    1    6    6    0  503  0.49541703167E+02  0.19471823653E+02  0.63114499148E+02  0.82564957892E+02  0.00000000000E+00 0.  1.
<mgrwt>
<rscale>  0 0.26807131E+04</rscale>
<asrwt>0</asrwt>
<pdfrwt beam="1">  1        1 0.49947434E+00 0.26807131E+04</pdfrwt>
<pdfrwt beam="2">  1       -2 0.85133561E-01 0.26807131E+04</pdfrwt>
<totfact> 0.36206775E-01</totfact>
</mgrwt>
</event>
<event>
12    5  0.5297412E-008  0.1454939E+04  0.7818608E-02  0.8914984E-01
         -2   -1    0    0    0  501 -0.00000000000E+00  0.00000000000E+00  0.35719400900E+03  0.35719400900E+03  0.00000000000E+00 0.  1.
          1   -1    0    0  501    0  0.00000000000E+00 -0.00000000000E+00 -0.14815801525E+04  0.14815801525E+04  0.00000000000E+00 0. -1.
        -24    2    1    2    0    0 -0.16850091765E+03  0.41628773074E+03 -0.34331071076E+03  0.57102266566E+03  0.80725501280E+02 0.  0.
        254    2    1    2    0    0  0.16850091765E+03 -0.41628773074E+03 -0.78107543275E+03  0.12677514959E+04  0.89186713673E+03 0.  0.
         23    2    4    4    0    0 -0.25130978889E+03 -0.47628994392E+03 -0.31724960491E+03  0.63271003012E+03  0.98315561999E+02 0.  0.
         23    2    4    4    0    0  0.41981070654E+03  0.60002213187E+02 -0.46382582784E+03  0.63504146573E+03  0.91115145371E+02 0.  0.
          1    1    3    3  502    0 -0.15480635192E+03  0.37769029535E+03 -0.33753033045E+03  0.52966186362E+03  0.00000000000E+00 0. -1.
         -2    1    3    3    0  502 -0.13694565732E+02  0.38597435383E+02 -0.57803803174E+01  0.41360802039E+02  0.00000000000E+00 0.  1.
         13    1    5    5    0    0 -0.16544863144E+03 -0.21800638201E+03 -0.18296707560E+03  0.32920659622E+03  0.00000000000E+00 0. -1.
        -13    1    5    5    0    0 -0.85861157449E+02 -0.25828356192E+03 -0.13428252931E+03  0.30350343391E+03  0.00000000000E+00 0.  1.
          4    1    6    6  503    0  0.10886576290E+03 -0.92744137161E+01 -0.75718177465E+02  0.13293235678E+03  0.00000000000E+00 0. -1.
         -4    1    6    6    0  503  0.31094494364E+03  0.69276626904E+02 -0.38810765038E+03  0.50210910895E+03  0.00000000000E+00 0.  1.
<mgrwt>
<rscale>  0 0.14549386E+04</rscale>
<asrwt>0</asrwt>
<pdfrwt beam="1">  1        1 0.22793541E+00 0.14549386E+04</pdfrwt>
<pdfrwt beam="2">  1       -2 0.54952925E-01 0.14549386E+04</pdfrwt>
<totfact> 0.17874516E+01</totfact>
</mgrwt>
</event>
<event>
12    5  0.5297412E-008  0.1485960E+04  0.7818608E-02  0.8893844E-01
         -2   -1    0    0    0  501 -0.00000000000E+00  0.00000000000E+00  0.49150340425E+03  0.49150340425E+03  0.00000000000E+00 0.  1.
          1   -1    0    0  501    0  0.00000000000E+00 -0.00000000000E+00 -0.11231234935E+04  0.11231234935E+04  0.00000000000E+00 0. -1.
        -24    2    1    2    0    0 -0.41405639951E+03  0.21576592685E+03 -0.17610466493E+03  0.50520199163E+03  0.78857860593E+02 0.  0.
        254    2    1    2    0    0  0.41405639951E+03 -0.21576592685E+03 -0.45551542433E+03  0.11094249061E+04  0.89740274313E+03 0.  0.
         23    2    4    4    0    0  0.31979234026E+03  0.30091396345E+03 -0.75293840154E+02  0.45456602748E+03  0.90248305716E+02 0.  0.
         23    2    4    4    0    0  0.94264059242E+02 -0.51667989030E+03 -0.38022158418E+03  0.65485887865E+03  0.91803463744E+02 0.  0.
          1    1    3    3  502    0 -0.20654906554E+03  0.10888563387E+03 -0.13011722740E+03  0.26729962702E+03  0.00000000000E+00 0. -1.
         -2    1    3    3    0  502 -0.20750733397E+03  0.10688029298E+03 -0.45987437528E+02  0.23790236461E+03  0.00000000000E+00 0.  1.
         13    1    5    5    0    0  0.25327120356E+02  0.10063485150E+02  0.14760449183E+02  0.30993670628E+02  0.00000000000E+00 0.  1.
        -13    1    5    5    0    0  0.29446521991E+03  0.29085047830E+03 -0.90054289337E+02  0.42357235685E+03  0.00000000000E+00 0. -1.
          4    1    6    6  503    0  0.10793345232E+03 -0.36084192513E+03 -0.26293755761E+03  0.45933939986E+03  0.00000000000E+00 0. -1.
         -4    1    6    6    0  503 -0.13669393076E+02 -0.15583796517E+03 -0.11728402657E+03  0.19551947878E+03  0.00000000000E+00 0.  1.
<mgrwt>
<rscale>  0 0.14859597E+04</rscale>
<asrwt>0</asrwt>
<pdfrwt beam="1">  1        1 0.17278823E+00 0.14859597E+04</pdfrwt>
<pdfrwt beam="2">  1       -2 0.75615910E-01 0.14859597E+04</pdfrwt>
<totfact> 0.16222361E+01</totfact>
</mgrwt>
</event>
<event>
12    5  0.5297412E-008  0.1785641E+04  0.7818608E-02  0.8713973E-01
          1   -1    0    0  501    0  0.00000000000E+00  0.00000000000E+00  0.11101807699E+04  0.11101807699E+04  0.00000000000E+00 0. -1.
         -2   -1    0    0    0  501 -0.00000000000E+00 -0.00000000000E+00 -0.71801652841E+03  0.71801652841E+03  0.00000000000E+00 0.  1.
        -24    2    1    2    0    0 -0.21199719343E+03 -0.56538287166E+03 -0.13613912661E+03  0.62405799067E+03  0.79460130485E+02 0.  0.
        254    2    1    2    0    0  0.21199719343E+03  0.56538287166E+03  0.52830336809E+03  0.12041393076E+04  0.89791225731E+03 0.  0.
         23    2    4    4    0    0  0.24097240072E+03 -0.98191950860E+02  0.45217682930E+03  0.52925634296E+03  0.89101259693E+02 0.  0.
         23    2    4    4    0    0 -0.28975207288E+02  0.66357482252E+03  0.76126538790E+02  0.67488296467E+03  0.92199015017E+02 0.  0.
          3    1    3    3  502    0 -0.11740172665E+03 -0.22894142898E+03 -0.31302697655E+02  0.25918565201E+03  0.00000000000E+00 0. -1.
         -4    1    3    3    0  502 -0.94595466779E+02 -0.33644144268E+03 -0.10483642896E+03  0.36487233867E+03  0.00000000000E+00 0.  1.
         13    1    5    5    0    0 -0.58796221142E+00 -0.18230427429E+02  0.51270145926E+02  0.54418030533E+02  0.00000000000E+00 0.  1.
        -13    1    5    5    0    0  0.24156036293E+03 -0.79961523431E+02  0.40090668338E+03  0.47483831242E+03  0.00000000000E+00 0. -1.
          3    1    6    6  503    0 -0.58353854649E+02  0.45255830407E+03  0.32894045627E+02  0.45748902629E+03  0.00000000000E+00 0. -1.
         -3    1    6    6    0  503  0.29378647361E+02  0.21101651845E+03  0.43232493163E+02  0.21739393838E+03  0.00000000000E+00 0.  1.
<mgrwt>
<rscale>  0 0.17856407E+04</rscale>
<asrwt>0</asrwt>
<pdfrwt beam="1">  1        1 0.17079704E+00 0.17856407E+04</pdfrwt>
<pdfrwt beam="2">  1       -2 0.11046408E+00 0.17856407E+04</pdfrwt>
<totfact> 0.67119352E+00</totfact>
</mgrwt>
</event>
<event>
12    5  0.5297412E-008  0.2310962E+04  0.7818608E-02  0.8473611E-01
          1   -1    0    0  501    0  0.00000000000E+00  0.00000000000E+00  0.25201309868E+04  0.25201309868E+04  0.00000000000E+00 0. -1.
         -4   -1    0    0    0  501 -0.00000000000E+00 -0.00000000000E+00 -0.52978863529E+03  0.52978863529E+03  0.00000000000E+00 0.  1.
        -24    2    1    2    0    0 -0.24377115017E+03 -0.14211287738E+03  0.20774118503E+04  0.20977650566E+04  0.73196949304E+02 0.  0.
        254    2    1    2    0    0  0.24377115017E+03  0.14211287738E+03 -0.87069498849E+02  0.95215456542E+03  0.90520537739E+03 0.  0.
         23    2    4    4    0    0  0.40316065498E+03  0.36022286029E+03 -0.27220220145E+03  0.61203464770E+03  0.90517118336E+02 0.  0.
         23    2    4    4    0    0 -0.15938950482E+03 -0.21810998290E+03  0.18513270260E+03  0.34011991772E+03  0.91817547198E+02 0.  0.
          3    1    3    3  502    0 -0.17532107674E+03 -0.12065685241E+03  0.17286707047E+04  0.17417226993E+04  0.00000000000E+00 0. -1.
         -4    1    3    3    0  502 -0.68450073432E+02 -0.21456024974E+02  0.34874114558E+03  0.35604235729E+03  0.00000000000E+00 0.  1.
         13    1    5    5    0    0  0.33243597384E+03  0.29805178236E+03 -0.18367252985E+03  0.48278788292E+03  0.00000000000E+00 0.  1.
        -13    1    5    5    0    0  0.70724681144E+02  0.62171077927E+02 -0.88529671596E+02  0.12924676478E+03  0.00000000000E+00 0. -1.
          4    1    6    6  503    0 -0.40736809958E+02 -0.36333420070E+02 -0.36094540085E+00  0.54586952481E+02  0.00000000000E+00 0. -1.
         -4    1    6    6    0  503 -0.11865269486E+03 -0.18177656283E+03  0.18549364800E+03  0.28553296524E+03  0.00000000000E+00 0.  1.
<mgrwt>
<rscale>  0 0.23109624E+04</rscale>
<asrwt>0</asrwt>
<pdfrwt beam="1">  1        1 0.38771245E+00 0.23109624E+04</pdfrwt>
<pdfrwt beam="2">  1       -4 0.81505946E-01 0.23109624E+04</pdfrwt>
<totfact> 0.77885312E-01</totfact>
</mgrwt>
</event>
<event>
12    5  0.5297412E-008  0.1924360E+04  0.7818608E-02  0.8642825E-01
         -2   -1    0    0    0  501 -0.00000000000E+00  0.00000000000E+00  0.40469915873E+03  0.40469915873E+03  0.00000000000E+00 0.  1.
          1   -1    0    0  501    0  0.00000000000E+00 -0.00000000000E+00 -0.22876006767E+04  0.22876006767E+04  0.00000000000E+00 0. -1.
        -24    2    1    2    0    0  0.47210262308E+03 -0.35491401990E+03 -0.13788051628E+04  0.15018137327E+04  0.74134759796E+02 0.  0.
        254    2    1    2    0    0 -0.47210262308E+03  0.35491401990E+03 -0.50409635515E+03  0.11904861027E+04  0.90238527092E+03 0.  0.
         23    2    4    4    0    0  0.21743880488E+03 -0.31673035378E+02 -0.27278891444E+03  0.36177079736E+03  0.90451660813E+02 0.  0.
         23    2    4    4    0    0 -0.68954142796E+03  0.38658705528E+03 -0.23130744071E+03  0.82871530532E+03  0.91372823995E+02 0.  0.
          3    1    3    3  502    0  0.46821735114E+03 -0.34134740145E+03 -0.13600908430E+04  0.14783749990E+04  0.00000000000E+00 0. -1.
         -4    1    3    3    0  502  0.38852719356E+01 -0.13566618446E+02 -0.18714319765E+02  0.23438733719E+02  0.00000000000E+00 0.  1.
         13    1    5    5    0    0  0.12407177566E+03 -0.56621491220E+02 -0.19367718864E+03  0.23687687136E+03  0.00000000000E+00 0. -1.
        -13    1    5    5    0    0  0.93367029218E+02  0.24948455842E+02 -0.79111725802E+02  0.12489392601E+03  0.00000000000E+00 0.  1.
          3    1    6    6  503    0 -0.31872504637E+03  0.23021011935E+03 -0.10574973011E+03  0.40714292288E+03  0.00000000000E+00 0. -1.
         -3    1    6    6    0  503 -0.37081638159E+03  0.15637693593E+03 -0.12555771059E+03  0.42157238244E+03  0.00000000000E+00 0.  1.
<mgrwt>
<rscale>  0 0.19243597E+04</rscale>
<asrwt>0</asrwt>
<pdfrwt beam="1">  1        1 0.35193857E+00 0.19243597E+04</pdfrwt>
<pdfrwt beam="2">  1       -2 0.62261409E-01 0.19243597E+04</pdfrwt>
<totfact> 0.37273684E+00</totfact>
</mgrwt>
</event>
<event>
12    5  0.5297412E-008  0.3020778E+04  0.7818608E-02  0.8237822E-01
          1   -1    0    0  501    0  0.00000000000E+00  0.00000000000E+00  0.14950868680E+04  0.14950868680E+04  0.00000000000E+00 0. -1.
         -2   -1    0    0    0  501 -0.00000000000E+00 -0.00000000000E+00 -0.15258481909E+04  0.15258481909E+04  0.00000000000E+00 0.  1.
        -24    2    1    2    0    0 -0.76162286603E+03 -0.27680467875E+03 -0.11203796773E+04  0.13850584678E+04  0.80287718089E+02 0.  0.
        254    2    1    2    0    0  0.76162286603E+03  0.27680467875E+03  0.10896183544E+04  0.16358765911E+04  0.91221370453E+03 0.  0.
         23    2    4    4    0    0  0.81359816062E+03  0.36729845378E+03  0.11756254473E+04  0.14788817155E+04  0.90254168141E+02 0.  0.
         23    2    4    4    0    0 -0.51975294584E+02 -0.90493775027E+02 -0.86007092893E+02  0.15699487562E+03  0.79747202939E+02 0.  0.
          1    1    3    3  502    0 -0.12780813569E+03 -0.63958997636E+02 -0.24375346332E+03  0.28256224767E+03  0.00000000000E+00 0. -1.
         -4    1    3    3    0  502 -0.63381473034E+03 -0.21284568112E+03 -0.87662621403E+03  0.11024962202E+04  0.00000000000E+00 0.  1.
         13    1    5    5    0    0  0.78940421538E+03  0.34144529543E+03  0.11090152105E+04  0.14034452758E+04  0.00000000000E+00 0.  1.
        -13    1    5    5    0    0  0.24193945235E+02  0.25853158356E+02  0.66610236760E+02  0.75436439631E+02  0.00000000000E+00 0. -1.
          1    1    6    6  503    0 -0.25268958366E+02 -0.19123062381E+02  0.11082419564E+02  0.33571294213E+02  0.00000000000E+00 0. -1.
         -1    1    6    6    0  503 -0.26706336218E+02 -0.71370712646E+02 -0.97089512457E+02  0.12342358141E+03  0.00000000000E+00 0.  1.
<mgrwt>
<rscale>  0 0.30207784E+04</rscale>
<asrwt>0</asrwt>
<pdfrwt beam="1">  1        1 0.23001336E+00 0.30207784E+04</pdfrwt>
<pdfrwt beam="2">  1       -2 0.23474588E+00 0.30207784E+04</pdfrwt>
<totfact> 0.39286465E-01</totfact>
</mgrwt>
</event>
<event>
12    5  0.5297412E-008  0.2147624E+04  0.7818608E-02  0.8540550E-01
          1   -1    0    0  501    0  0.00000000000E+00  0.00000000000E+00  0.15329874429E+04  0.15329874429E+04  0.00000000000E+00 0. -1.
         -2   -1    0    0    0  501 -0.00000000000E+00 -0.00000000000E+00 -0.75217305167E+03  0.75217305167E+03  0.00000000000E+00 0.  1.
        -24    2    1    2    0    0 -0.46475174802E+03 -0.27992562975E+03  0.10649193937E+04  0.11978136910E+04  0.79698041234E+02 0.  0.
        254    2    1    2    0    0  0.46475174802E+03  0.27992562975E+03 -0.28410500249E+03  0.10873468036E+04  0.89847363529E+03 0.  0.
         23    2    4    4    0    0 -0.16394364167E+03  0.30565493561E+03  0.60319767077E+02  0.36481826881E+03  0.95663146758E+02 0.  0.
         23    2    4    4    0    0  0.62869538969E+03 -0.25729305865E+02 -0.34442476957E+03  0.72252853476E+03  0.86597756594E+02 0.  0.
          1    1    3    3  502    0 -0.20247842511E+03 -0.95034235954E+02  0.36943640786E+03  0.43187067287E+03  0.00000000000E+00 0. -1.
         -2    1    3    3    0  502 -0.26227332292E+03 -0.18489139379E+03  0.69548298589E+03  0.76594301816E+03  0.00000000000E+00 0.  1.
         13    1    5    5    0    0 -0.16945738818E+03  0.30858667994E+03  0.63619298996E+02  0.35775544810E+03  0.00000000000E+00 0. -1.
        -13    1    5    5    0    0  0.55137465127E+01 -0.29317443249E+01 -0.32995319191E+01  0.70628207026E+01  0.00000000000E+00 0.  1.
          4    1    6    6  503    0  0.12164574613E+03  0.28872490319E+02 -0.74032253189E+02  0.14529997509E+03  0.00000000000E+00 0.  1.
         -4    1    6    6    0  503  0.50704964357E+03 -0.54601796184E+02 -0.27039251638E+03  0.57722855967E+03  0.00000000000E+00 0. -1.
<mgrwt>
<rscale>  0 0.21476237E+04</rscale>
<asrwt>0</asrwt>
<pdfrwt beam="1">  1        1 0.23584422E+00 0.21476237E+04</pdfrwt>
<pdfrwt beam="2">  1       -2 0.11571893E+00 0.21476237E+04</pdfrwt>
<totfact> 0.28980462E+00</totfact>
</mgrwt>
</event>
<event>
12    5  0.5297412E-008  0.1333464E+04  0.7818608E-02  0.9003441E-01
         -2   -1    0    0    0  501 -0.00000000000E+00  0.00000000000E+00  0.27656741952E+03  0.27656741952E+03  0.00000000000E+00 0.  1.
          1   -1    0    0  501    0  0.00000000000E+00 -0.00000000000E+00 -0.16073174585E+04  0.16073174585E+04  0.00000000000E+00 0. -1.
        -24    2    1    2    0    0  0.21781899673E+03  0.24068479821E+03 -0.14883815024E+03  0.36596706698E+03  0.80030067624E+02 0.  0.
        254    2    1    2    0    0 -0.21781899673E+03 -0.24068479821E+03 -0.11819118888E+04  0.15179178111E+04  0.89542419051E+03 0.  0.
         23    2    4    4    0    0  0.68312008985E+02  0.34830145446E+02 -0.10950521332E+04  0.11014371512E+04  0.90249398836E+02 0.  0.
         23    2    4    4    0    0 -0.28613100571E+03 -0.27551494365E+03 -0.86859755595E+02  0.41648065992E+03  0.90178081228E+02 0.  0.
          1    1    3    3  502    0  0.38596357647E+02  0.97812105693E+01 -0.32395882915E+02  0.51330732837E+02  0.00000000000E+00 0. -1.
         -2    1    3    3    0  502  0.17922263908E+03  0.23090358764E+03 -0.11644226733E+03  0.31463633415E+03  0.00000000000E+00 0.  1.
         13    1    5    5    0    0  0.51784627863E+02  0.53224536382E+02 -0.46434668771E+03  0.47024711093E+03  0.00000000000E+00 0.  1.
        -13    1    5    5    0    0  0.16527381122E+02 -0.18394390936E+02 -0.63070544547E+03  0.63119004023E+03  0.00000000000E+00 0. -1.
          4    1    6    6  503    0 -0.11158269646E+03 -0.56042559504E+02 -0.77045460107E+01  0.12510326396E+03  0.00000000000E+00 0. -1.
         -4    1    6    6    0  503 -0.17454830926E+03 -0.21947238415E+03 -0.79155209585E+02  0.29137739596E+03  0.00000000000E+00 0.  1.
<mgrwt>
<rscale>  0 0.13334641E+04</rscale>
<asrwt>0</asrwt>
<pdfrwt beam="1">  1        1 0.24727961E+00 0.13334641E+04</pdfrwt>
<pdfrwt beam="2">  1       -2 0.42548834E-01 0.13334641E+04</pdfrwt>
<totfact> 0.24842039E+01</totfact>
</mgrwt>
</event>
<event>
12    5  0.5297412E-008  0.1348447E+04  0.7818608E-02  0.8992004E-01
          1   -1    0    0  501    0  0.00000000000E+00  0.00000000000E+00  0.11520864573E+04  0.11520864573E+04  0.00000000000E+00 0. -1.
         -2   -1    0    0    0  501 -0.00000000000E+00 -0.00000000000E+00 -0.39456901356E+03  0.39456901356E+03  0.00000000000E+00 0.  1.
        -24    2    1    2    0    0 -0.47065951107E+02 -0.11972136398E+03  0.59286566218E+03  0.61189288807E+03  0.79842371801E+02 0.  0.
        254    2    1    2    0    0  0.47065951107E+02  0.11972136398E+03  0.16465178153E+03  0.93476258276E+03  0.91111056860E+03 0.  0.
         23    2    4    4    0    0  0.65928291281E+02  0.40556605010E+03  0.37845188455E+03  0.56590970683E+03  0.90540636084E+02 0.  0.
         23    2    4    4    0    0 -0.18862340174E+02 -0.28584468612E+03 -0.21380010302E+03  0.36885287593E+03  0.90988942050E+02 0.  0.
          3    1    3    3  502    0 -0.45295579670E+01 -0.10680572909E+03  0.42570645509E+03  0.43892364549E+03  0.00000000000E+00 0. -1.
         -4    1    3    3    0  502 -0.42536393140E+02 -0.12915634893E+02  0.16715920709E+03  0.17296924258E+03  0.00000000000E+00 0.  1.
         13    1    5    5    0    0 -0.18175364252E+02  0.13873757018E+03  0.10760655255E+03  0.17651523276E+03  0.00000000000E+00 0.  1.
        -13    1    5    5    0    0  0.84103655533E+02  0.26682847992E+03  0.27084533200E+03  0.38939447406E+03  0.00000000000E+00 0. -1.
          2    1    6    6  503    0  0.35259274041E+02 -0.98085052616E+02 -0.88425646341E+02  0.13668573036E+03  0.00000000000E+00 0.  1.
         -2    1    6    6    0  503 -0.54121614214E+02 -0.18775963350E+03 -0.12537445668E+03  0.23216714558E+03  0.00000000000E+00 0. -1.
<mgrwt>
<rscale>  0 0.13484474E+04</rscale>
<asrwt>0</asrwt>
<pdfrwt beam="1">  1        1 0.17724407E+00 0.13484474E+04</pdfrwt>
<pdfrwt beam="2">  1       -2 0.60702926E-01 0.13484474E+04</pdfrwt>
<totfact> 0.25143375E+01</totfact>
</mgrwt>
</event>
<event>
12    5  0.5297412E-008  0.1367430E+04  0.7818608E-02  0.8977738E-01
         -2   -1    0    0    0  501 -0.00000000000E+00  0.00000000000E+00  0.13095642841E+04  0.13095642841E+04  0.00000000000E+00 0.  1.
          1   -1    0    0  501    0  0.00000000000E+00 -0.00000000000E+00 -0.35696329770E+03  0.35696329770E+03  0.00000000000E+00 0. -1.
        -24    2    1    2    0    0 -0.17486936062E+02  0.23119566910E+03  0.64163926787E+03  0.68694012585E+03  0.80178276930E+02 0.  0.
        254    2    1    2    0    0  0.17486936062E+02 -0.23119566910E+03  0.31096171853E+03  0.97958745594E+03  0.89952051845E+03 0.  0.
         23    2    4    4    0    0 -0.50571964330E+02 -0.56022804673E+03  0.26587004089E+03  0.62852201954E+03  0.89107028260E+02 0.  0.
         23    2    4    4    0    0  0.68058900391E+02  0.32903237763E+03  0.45091677640E+02  0.35106543641E+03  0.91210535547E+02 0.  0.
          3    1    3    3  502    0 -0.21763912923E+02  0.12791547468E+02  0.45438437928E+02  0.51980219639E+02  0.00000000000E+00 0. -1.
         -4    1    3    3    0  502  0.42769768613E+01  0.21840412163E+03  0.59620082994E+03  0.63495990622E+03  0.00000000000E+00 0.  1.
         13    1    5    5    0    0  0.17168904859E+02 -0.16919191676E+03  0.52730079504E+02  0.17804813191E+03  0.00000000000E+00 0. -1.
        -13    1    5    5    0    0 -0.67740869189E+02 -0.39103612997E+03  0.21313996138E+03  0.45047388763E+03  0.00000000000E+00 0.  1.
          2    1    6    6  503    0 -0.12930118482E+02  0.16085871292E+03  0.25523466842E+02  0.16338347789E+03  0.00000000000E+00 0. -1.
         -2    1    6    6    0  503  0.80989018873E+02  0.16817366471E+03  0.19568210798E+02  0.18768195852E+03  0.00000000000E+00 0.  1.
<mgrwt>
<rscale>  0 0.13674303E+04</rscale>
<asrwt>0</asrwt>
<pdfrwt beam="1">  1        1 0.54917431E-01 0.13674303E+04</pdfrwt>
<pdfrwt beam="2">  1       -2 0.20147143E+00 0.13674303E+04</pdfrwt>
<totfact> 0.77439665E+00</totfact>
</mgrwt>
</event>
<event>
12    5  0.5297412E-008  0.1642378E+04  0.7818608E-02  0.8794928E-01
         -2   -1    0    0    0  501 -0.00000000000E+00  0.00000000000E+00  0.41915140310E+03  0.41915140310E+03  0.00000000000E+00 0.  1.
          1   -1    0    0  501    0  0.00000000000E+00 -0.00000000000E+00 -0.16088488872E+04  0.16088488872E+04  0.00000000000E+00 0. -1.
        -24    2    1    2    0    0 -0.15775810403E+03  0.12346129303E+03  0.24170493794E+03  0.32407421524E+03  0.80451909209E+02 0.  0.
        254    2    1    2    0    0  0.15775810403E+03 -0.12346129303E+03 -0.14314024220E+04  0.17039260750E+04  0.90239728787E+03 0.  0.
         23    2    4    4    0    0 -0.55516977931E+01  0.54731791491E+02 -0.14415517679E+04  0.14455306180E+04  0.91983029336E+02 0.  0.
         23    2    4    4    0    0  0.16330980182E+03 -0.17819308452E+03  0.10149345838E+02  0.25839545708E+03  0.90787313420E+02 0.  0.
          1    1    3    3  502    0 -0.71620051918E+02  0.46924943642E+02  0.46599716457E+02  0.97482899764E+02  0.00000000000E+00 0. -1.
         -2    1    3    3    0  502 -0.86138052108E+02  0.76536349388E+02  0.19510522148E+03  0.22659131547E+03  0.00000000000E+00 0.  1.
         13    1    5    5    0    0 -0.35960418201E+01  0.36689358297E+02 -0.13961425199E+04  0.13966291478E+04  0.00000000000E+00 0.  1.
        -13    1    5    5    0    0 -0.19556559730E+01  0.18042433194E+02 -0.45409247906E+02  0.48901470133E+02  0.00000000000E+00 0. -1.
          4    1    6    6  503    0  0.11201830481E+02  0.61577714337E+01  0.14530713311E+02  0.19353056205E+02  0.00000000000E+00 0. -1.
         -4    1    6    6    0  503  0.15210797134E+03 -0.18435085596E+03 -0.43813674729E+01  0.23904240088E+03  0.00000000000E+00 0.  1.
<mgrwt>
<rscale>  0 0.16423779E+04</rscale>
<asrwt>0</asrwt>
<pdfrwt beam="1">  1        1 0.24751522E+00 0.16423779E+04</pdfrwt>
<pdfrwt beam="2">  1       -2 0.64484831E-01 0.16423779E+04</pdfrwt>
<totfact> 0.10254858E+01</totfact>
</mgrwt>
</event>
<event>
12    5  0.5297412E-008  0.1259139E+04  0.7818608E-02  0.9062611E-01
          1   -1    0    0  501    0  0.00000000000E+00  0.00000000000E+00  0.10971781384E+04  0.10971781384E+04  0.00000000000E+00 0. -1.
         -2   -1    0    0    0  501 -0.00000000000E+00 -0.00000000000E+00 -0.36125167972E+03  0.36125167972E+03  0.00000000000E+00 0.  1.
        -24    2    1    2    0    0 -0.27618180873E+03 -0.90860844796E+02  0.30849864185E+03  0.43167623649E+03  0.81491573424E+02 0.  0.
        254    2    1    2    0    0  0.27618180873E+03  0.90860844796E+02  0.42742781685E+03  0.10267535817E+04  0.88712811602E+03 0.  0.
         23    2    4    4    0    0  0.60593371581E+02  0.46210210259E+03  0.32407832558E+03  0.57494365424E+03  0.91233406928E+02 0.  0.
         23    2    4    4    0    0  0.21558843715E+03 -0.37124125779E+03  0.10334949127E+03  0.45180992742E+03  0.95669469776E+02 0.  0.
          1    1    3    3  502    0 -0.20343934594E+03 -0.65062127837E+02  0.27325887655E+03  0.34683001827E+03  0.00000000000E+00 0. -1.
         -2    1    3    3    0  502 -0.72742462787E+02 -0.25798716960E+02  0.35239765298E+02  0.84846218226E+02  0.00000000000E+00 0.  1.
         13    1    5    5    0    0  0.18670375041E+02  0.19951453978E+03  0.86133168499E+02  0.21811363370E+03  0.00000000000E+00 0. -1.
        -13    1    5    5    0    0  0.41922996540E+02  0.26258756280E+03  0.23794515708E+03  0.35683002054E+03  0.00000000000E+00 0.  1.
          1    1    6    6  503    0 -0.69814485778E+01 -0.40436872014E+02  0.12269436006E+02  0.42830133112E+02  0.00000000000E+00 0. -1.
         -1    1    6    6    0  503  0.22256988573E+03 -0.33080438578E+03  0.91080055265E+02  0.40897979430E+03  0.00000000000E+00 0.  1.
<mgrwt>
<rscale>  0 0.12591385E+04</rscale>
<asrwt>0</asrwt>
<pdfrwt beam="1">  1        1 0.16879663E+00 0.12591385E+04</pdfrwt>
<pdfrwt beam="2">  1       -2 0.55577182E-01 0.12591385E+04</pdfrwt>
<totfact> 0.33492498E+01</totfact>
</mgrwt>
</event>
<event>
12    5  0.5297412E-008  0.1197901E+04  0.7818608E-02  0.9114696E-01
         -2   -1    0    0    0  501 -0.00000000000E+00  0.00000000000E+00  0.32075394367E+03  0.32075394367E+03  0.00000000000E+00 0.  1.
          1   -1    0    0  501    0  0.00000000000E+00 -0.00000000000E+00 -0.11184331068E+04  0.11184331068E+04  0.00000000000E+00 0. -1.
        -24    2    1    2    0    0  0.19291663215E+03 -0.94157654312E+02 -0.28263821027E+02  0.23103731322E+03  0.80603385146E+02 0.  0.
        254    2    1    2    0    0 -0.19291663215E+03  0.94157654312E+02 -0.76941534210E+03  0.12081497372E+04  0.90639027363E+03 0.  0.
         23    2    4    4    0    0  0.19625479728E+03  0.24919446588E+03 -0.31183281337E+01  0.33001736495E+03  0.91037958660E+02 0.  0.
         23    2    4    4    0    0 -0.38917142943E+03 -0.15503681157E+03 -0.76629701397E+03  0.87813237230E+03  0.91730775848E+02 0.  0.
          3    1    3    3  502    0  0.46679696231E+02 -0.58525557763E+02 -0.29639995498E+02  0.80515615161E+02  0.00000000000E+00 0. -1.
         -4    1    3    3    0  502  0.14623693592E+03 -0.35632096549E+02  0.13761744704E+01  0.15052169806E+03  0.00000000000E+00 0.  1.
         13    1    5    5    0    0  0.47781787571E+02  0.79771813064E+02 -0.40922181361E+02  0.10159363322E+03  0.00000000000E+00 0.  1.
        -13    1    5    5    0    0  0.14847300971E+03  0.16942265282E+03  0.37803853228E+02  0.22842373173E+03  0.00000000000E+00 0. -1.
          3    1    6    6  503    0 -0.38809146680E+03 -0.15903653191E+03 -0.76675068119E+03  0.87396465157E+03  0.00000000000E+00 0. -1.
         -3    1    6    6    0  503 -0.10799626320E+01  0.39997203447E+01  0.45366722523E+00  0.41677207288E+01  0.00000000000E+00 0.  1.
<mgrwt>
<rscale>  0 0.11979012E+04</rscale>
<asrwt>0</asrwt>
<pdfrwt beam="1">  1        1 0.17206663E+00 0.11979012E+04</pdfrwt>
<pdfrwt beam="2">  1       -2 0.49346761E-01 0.11979012E+04</pdfrwt>
<totfact> 0.41430264E+01</totfact>
</mgrwt>
</event>
<event>
12    5  0.5297412E-008  0.2096521E+04  0.7818608E-02  0.8562777E-01
          1   -1    0    0  501    0  0.00000000000E+00  0.00000000000E+00  0.13793786925E+04  0.13793786925E+04  0.00000000000E+00 0. -1.
         -2   -1    0    0    0  501 -0.00000000000E+00 -0.00000000000E+00 -0.79662715034E+03  0.79662715034E+03  0.00000000000E+00 0.  1.
        -24    2    1    2    0    0 -0.37174560607E+03 -0.47511778889E+03 -0.38143323674E+03  0.71817967590E+03  0.79743487679E+02 0.  0.
        254    2    1    2    0    0  0.37174560607E+03  0.47511778889E+03  0.96418477886E+03  0.14578261669E+04  0.91196114837E+03 0.  0.
         23    2    4    4    0    0  0.41181494978E+03 -0.15698393167E+03  0.34077877198E+03  0.56462975892E+03  0.91875380598E+02 0.  0.
         23    2    4    4    0    0 -0.40069343711E+02  0.63210172056E+03  0.62340600688E+03  0.89319640798E+03  0.89479809795E+02 0.  0.
          3    1    3    3  502    0 -0.78335404165E+02 -0.53778951351E+02 -0.55908959516E+02  0.11024709932E+03  0.00000000000E+00 0. -1.
         -4    1    3    3    0  502 -0.29341020190E+03 -0.42133883754E+03 -0.32552427723E+03  0.60793257658E+03  0.00000000000E+00 0.  1.
         13    1    5    5    0    0  0.22453344827E+03 -0.13288858722E+03  0.18505269553E+03  0.31987364088E+03  0.00000000000E+00 0. -1.
        -13    1    5    5    0    0  0.18728150151E+03 -0.24095344449E+02  0.15572607644E+03  0.24475611804E+03  0.00000000000E+00 0.  1.
          4    1    6    6  503    0  0.19446265025E+02  0.11327829057E+03  0.83599318089E+02  0.14212309567E+03  0.00000000000E+00 0. -1.
         -4    1    6    6    0  503 -0.59515608736E+02  0.51882342999E+03  0.53980668879E+03  0.75107331231E+03  0.00000000000E+00 0.  1.
<mgrwt>
<rscale>  0 0.20965214E+04</rscale>
<asrwt>0</asrwt>
<pdfrwt beam="1">  1        1 0.21221211E+00 0.20965214E+04</pdfrwt>
<pdfrwt beam="2">  1       -2 0.12255802E+00 0.20965214E+04</pdfrwt>
<totfact> 0.32312846E+00</totfact>
</mgrwt>
</event>
<event>
12    5  0.5297412E-008  0.1425291E+04  0.7818608E-02  0.8935712E-01
          1   -1    0    0  501    0  0.00000000000E+00  0.00000000000E+00  0.31247110282E+04  0.31247110282E+04  0.00000000000E+00 0. -1.
         -2   -1    0    0    0  501 -0.00000000000E+00 -0.00000000000E+00 -0.16253135452E+03  0.16253135452E+03  0.00000000000E+00 0.  1.
        -24    2    1    2    0    0  0.73289833966E+02  0.18078616068E+03  0.17724329530E+04  0.17849751086E+04  0.81009444561E+02 0.  0.
        254    2    1    2    0    0 -0.73289833966E+02 -0.18078616068E+03  0.11897467207E+04  0.15022672741E+04  0.89624475875E+03 0.  0.
         23    2    4    4    0    0 -0.47458421415E+03 -0.81337282410E+02  0.71057067161E+03  0.86277627406E+03  0.87328631582E+02 0.  0.
         23    2    4    4    0    0  0.40129438018E+03 -0.99448878266E+02  0.47917604910E+03  0.63949100000E+03  0.91715833381E+02 0.  0.
          1    1    3    3  502    0  0.84193824170E+02  0.17539795614E+03  0.17276275251E+04  0.17385482186E+04  0.00000000000E+00 0. -1.
         -2    1    3    3    0  502 -0.10903990204E+02  0.53882045398E+01  0.44805427863E+02  0.46426890016E+02  0.00000000000E+00 0.  1.
         13    1    5    5    0    0 -0.10680480189E+03 -0.43215288635E+02  0.12289155858E+03  0.16845522268E+03  0.00000000000E+00 0. -1.
        -13    1    5    5    0    0 -0.36777941226E+03 -0.38121993774E+02  0.58767911303E+03  0.69432105138E+03  0.00000000000E+00 0.  1.
          3    1    6    6  503    0  0.49303871733E+02 -0.21477794599E+02  0.11546744396E+03  0.12737699181E+03  0.00000000000E+00 0. -1.
         -3    1    6    6    0  503  0.35199050845E+03 -0.77971083667E+02  0.36370860514E+03  0.51211400819E+03  0.00000000000E+00 0.  1.
<mgrwt>
<rscale>  0 0.14252909E+04</rscale>
<asrwt>0</asrwt>
<pdfrwt beam="1">  1        1 0.48072473E+00 0.14252909E+04</pdfrwt>
<pdfrwt beam="2">  1       -2 0.25004826E-01 0.14252909E+04</pdfrwt>
<totfact> 0.59815572E+00</totfact>
</mgrwt>
</event>
<event>
12    5  0.5297412E-008  0.2047723E+04  0.7818608E-02  0.8584628E-01
         -2   -1    0    0    0  501 -0.00000000000E+00  0.00000000000E+00  0.11929052960E+04  0.11929052960E+04  0.00000000000E+00 0.  1.
          1   -1    0    0  501    0  0.00000000000E+00 -0.00000000000E+00 -0.87877273265E+03  0.87877273265E+03  0.00000000000E+00 0. -1.
        -24    2    1    2    0    0  0.13884458374E+03  0.75126945671E+03 -0.18401195396E+03  0.79004508217E+03  0.81407724791E+02 0.  0.
        254    2    1    2    0    0 -0.13884458374E+03 -0.75126945671E+03  0.49814451726E+03  0.12816329464E+04  0.90041736672E+03 0.  0.
         23    2    4    4    0    0  0.17815484242E+02 -0.75469756423E+03  0.93129017289E+01  0.76021549475E+03  0.89191162018E+02 0.  0.
         23    2    4    4    0    0 -0.15666006798E+03  0.34281075251E+01  0.48883161553E+03  0.52141745168E+03  0.91464100908E+02 0.  0.
          3    1    3    3  502    0  0.12287425368E+03  0.58748701469E+03 -0.17521254335E+03  0.62525075769E+03  0.00000000000E+00 0. -1.
         -4    1    3    3    0  502  0.15970330059E+02  0.16378244201E+03 -0.87994106093E+01  0.16479432448E+03  0.00000000000E+00 0.  1.
         13    1    5    5    0    0 -0.20723741906E+02 -0.47258546132E+02  0.31860310515E+01  0.51701010193E+02  0.00000000000E+00 0.  1.
        -13    1    5    5    0    0  0.38539226148E+02 -0.70743901810E+03  0.61268706774E+01  0.70851448456E+03  0.00000000000E+00 0. -1.
          4    1    6    6  503    0 -0.14268655521E+02 -0.31464440861E+02  0.10519769239E+03  0.11072560703E+03  0.00000000000E+00 0. -1.
         -4    1    6    6    0  503 -0.14239141246E+03  0.34892548386E+02  0.38363392314E+03  0.41069184465E+03  0.00000000000E+00 0.  1.
<mgrwt>
<rscale>  0 0.20477233E+04</rscale>
<asrwt>0</asrwt>
<pdfrwt beam="1">  1        1 0.13519580E+00 0.20477233E+04</pdfrwt>
<pdfrwt beam="2">  1       -2 0.18352389E+00 0.20477233E+04</pdfrwt>
<totfact> 0.26297132E+00</totfact>
</mgrwt>
</event>
<event>
12    5  0.5297412E-008  0.3106576E+04  0.7818608E-02  0.8213936E-01
         -2   -1    0    0    0  501 -0.00000000000E+00  0.00000000000E+00  0.13499173272E+04  0.13499173272E+04  0.00000000000E+00 0.  1.
          1   -1    0    0  501    0  0.00000000000E+00 -0.00000000000E+00 -0.17872970937E+04  0.17872970937E+04  0.00000000000E+00 0. -1.
        -24    2    1    2    0    0  0.19436160414E+03  0.13920723121E+04 -0.41939142150E+03  0.14690780682E+04  0.81605458051E+02 0.  0.
        254    2    1    2    0    0 -0.19436160414E+03 -0.13920723121E+04 -0.17988344996E+02  0.16681363527E+04  0.89817234164E+03 0.  0.
         23    2    4    4    0    0  0.18653334395E+03 -0.79125437743E+03  0.31618852175E+03  0.87703624588E+03  0.91319313902E+02 0.  0.
         23    2    4    4    0    0 -0.38089494809E+03 -0.60081793470E+03 -0.33417686674E+03  0.79110010683E+03  0.90011380488E+02 0.  0.
          3    1    3    3  502    0  0.19658165132E+03  0.12129197758E+04 -0.36286762062E+03  0.12812071020E+04  0.00000000000E+00 0. -1.
         -4    1    3    3    0  502 -0.22200471753E+01  0.17915253636E+03 -0.56523800877E+02  0.18787096625E+03  0.00000000000E+00 0.  1.
         13    1    5    5    0    0  0.31724281694E+02 -0.10469179782E+03  0.11097289404E+02  0.10995431966E+03  0.00000000000E+00 0.  1.
        -13    1    5    5    0    0  0.15480906225E+03 -0.68656257961E+03  0.30509123234E+03  0.76708192622E+03  0.00000000000E+00 0. -1.
          1    1    6    6  503    0 -0.28094411384E+03 -0.50325119359E+03 -0.25200108880E+03  0.62904364531E+03  0.00000000000E+00 0. -1.
         -1    1    6    6    0  503 -0.99950834250E+02 -0.97566741110E+02 -0.82175777943E+02  0.16205646151E+03  0.00000000000E+00 0.  1.
<mgrwt>
<rscale>  0 0.31065758E+04</rscale>
<asrwt>0</asrwt>
<pdfrwt beam="1">  1        1 0.27496878E+00 0.31065758E+04</pdfrwt>
<pdfrwt beam="2">  1       -2 0.20767959E+00 0.31065758E+04</pdfrwt>
<totfact> 0.36509425E-01</totfact>
</mgrwt>
</event>
<event>
12    5  0.5297412E-008  0.1677659E+04  0.7818608E-02  0.8774210E-01
          1   -1    0    0  501    0  0.00000000000E+00  0.00000000000E+00  0.14508598968E+04  0.14508598968E+04  0.00000000000E+00 0. -1.
         -2   -1    0    0    0  501 -0.00000000000E+00 -0.00000000000E+00 -0.48497757472E+03  0.48497757472E+03  0.00000000000E+00 0.  1.
        -24    2    1    2    0    0  0.58818461818E+03 -0.68926937401E+02  0.29199818100E+03  0.66691190391E+03  0.93789562900E+02 0.  0.
        254    2    1    2    0    0 -0.58818461818E+03  0.68926937401E+02  0.67388414108E+03  0.12689255676E+04  0.89740748424E+03 0.  0.
         23    2    4    4    0    0 -0.32578022363E+03  0.33174595902E+03  0.74210879446E+03  0.88045500063E+03  0.91035212362E+02 0.  0.
         23    2    4    4    0    0 -0.26240439455E+03 -0.26281902162E+03 -0.68224653375E+02  0.38847056698E+03  0.91240745725E+02 0.  0.
          3    1    3    3  502    0  0.44116313424E+03 -0.68550404704E+02  0.17702628983E+03  0.48027323087E+03  0.00000000000E+00 0. -1.
         -4    1    3    3    0  502  0.14702148394E+03 -0.37653269730E+00  0.11497189117E+03  0.18663867305E+03  0.00000000000E+00 0.  1.
         13    1    5    5    0    0 -0.21026524014E+03  0.21059739667E+03  0.55232991155E+03  0.62740024377E+03  0.00000000000E+00 0.  1.
        -13    1    5    5    0    0 -0.11551498349E+03  0.12114856235E+03  0.18977888291E+03  0.25305475686E+03  0.00000000000E+00 0. -1.
          4    1    6    6  503    0 -0.16104298501E+03 -0.12116231575E+03 -0.72653998416E+02  0.21422827372E+03  0.00000000000E+00 0.  1.
         -4    1    6    6    0  503 -0.10136140955E+03 -0.14165670587E+03  0.44293450409E+01  0.17424229326E+03  0.00000000000E+00 0. -1.
<mgrwt>
<rscale>  0 0.16776585E+04</rscale>
<asrwt>0</asrwt>
<pdfrwt beam="1">  1        1 0.22320921E+00 0.16776585E+04</pdfrwt>
<pdfrwt beam="2">  1       -2 0.74611935E-01 0.16776585E+04</pdfrwt>
<totfact> 0.95637904E+00</totfact>
</mgrwt>
</event>
<event>
12    5  0.5297412E-008  0.1557520E+04  0.7818608E-02  0.8847079E-01
          1   -1    0    0  501    0  0.00000000000E+00  0.00000000000E+00  0.87502927439E+03  0.87502927439E+03  0.00000000000E+00 0. -1.
         -2   -1    0    0    0  501 -0.00000000000E+00 -0.00000000000E+00 -0.69308215914E+03  0.69308215914E+03  0.00000000000E+00 0.  1.
        -24    2    1    2    0    0 -0.29660986806E+03 -0.40266354326E+03 -0.64830471456E+02  0.51135586294E+03  0.84655098056E+02 0.  0.
        254    2    1    2    0    0  0.29660986806E+03  0.40266354326E+03  0.24677758671E+03  0.10567555706E+04  0.89761785620E+03 0.  0.
         23    2    4    4    0    0  0.57964038918E+03  0.28183699006E+03 -0.23908214366E+01  0.65070657249E+03  0.89432978932E+02 0.  0.
         23    2    4    4    0    0 -0.28303052112E+03  0.12082655320E+03  0.24916840814E+03  0.40604899810E+03  0.89919749783E+02 0.  0.
          1    1    3    3  502    0 -0.68535679741E+02 -0.10350877782E+03 -0.53021072698E+02  0.13499052054E+03  0.00000000000E+00 0. -1.
         -2    1    3    3    0  502 -0.22807418832E+03 -0.29915476544E+03 -0.11809398758E+02  0.37636534240E+03  0.00000000000E+00 0.  1.
         13    1    5    5    0    0  0.15042326825E+03  0.41333382506E+02 -0.25926672184E+02  0.15813854833E+03  0.00000000000E+00 0.  1.
        -13    1    5    5    0    0  0.42921712093E+03  0.24050360756E+03  0.23535850747E+02  0.49256802416E+03  0.00000000000E+00 0. -1.
          3    1    6    6  503    0 -0.24025400308E+03  0.91379075804E+02  0.24304707217E+03  0.35375697983E+03  0.00000000000E+00 0. -1.
         -3    1    6    6    0  503 -0.42776518040E+02  0.29447477396E+02  0.61213359727E+01  0.52292018270E+02  0.00000000000E+00 0.  1.
<mgrwt>
<rscale>  0 0.15575201E+04</rscale>
<asrwt>0</asrwt>
<pdfrwt beam="1">  1        1 0.13461989E+00 0.15575201E+04</pdfrwt>
<pdfrwt beam="2">  1       -2 0.10662802E+00 0.15575201E+04</pdfrwt>
<totfact> 0.11405035E+01</totfact>
</mgrwt>
</event>
<event>
12    5  0.5297412E-008  0.1370357E+04  0.7818608E-02  0.8975560E-01
         -2   -1    0    0    0  501 -0.00000000000E+00  0.00000000000E+00  0.26011473750E+03  0.26011473750E+03  0.00000000000E+00 0.  1.
          1   -1    0    0  501    0  0.00000000000E+00 -0.00000000000E+00 -0.18048558887E+04  0.18048558887E+04  0.00000000000E+00 0. -1.
        -24    2    1    2    0    0  0.31734928960E+03 -0.13051270290E+03 -0.64240658080E+03  0.73276554017E+03  0.80715454385E+02 0.  0.
        254    2    1    2    0    0 -0.31734928960E+03  0.13051270290E+03 -0.90233457044E+03  0.13322050861E+04  0.91805151114E+03 0.  0.
         23    2    4    4    0    0 -0.35204044637E+03  0.39425956073E+03 -0.90337667565E+03  0.10508526470E+04  0.93961643806E+02 0.  0.
         23    2    4    4    0    0  0.34691156773E+02 -0.26374685782E+03  0.10421052098E+01  0.28135243906E+03  0.91609102227E+02 0.  0.
          3    1    3    3  502    0  0.21341561582E+03 -0.81674822045E+02 -0.50062976432E+03  0.55031551183E+03  0.00000000000E+00 0. -1.
         -4    1    3    3    0  502  0.10393367378E+03 -0.48837880857E+02 -0.14177681648E+03  0.18245002834E+03  0.00000000000E+00 0.  1.
         13    1    5    5    0    0 -0.48679930725E+02  0.15354121226E+02 -0.74358274812E+02  0.90192226533E+02  0.00000000000E+00 0.  1.
        -13    1    5    5    0    0 -0.30336051564E+03  0.37890543950E+03 -0.82901840084E+03  0.96066042047E+03  0.00000000000E+00 0. -1.
          1    1    6    6  503    0 -0.19474979498E+02 -0.14887233142E+03  0.24712803514E+02  0.15216099548E+03  0.00000000000E+00 0. -1.
         -1    1    6    6    0  503  0.54166136271E+02 -0.11487452641E+03 -0.23670698304E+02  0.12919144358E+03  0.00000000000E+00 0.  1.
<mgrwt>
<rscale>  0 0.13703571E+04</rscale>
<asrwt>0</asrwt>
<pdfrwt beam="1">  1        1 0.27767014E+00 0.13703571E+04</pdfrwt>
<pdfrwt beam="2">  1       -2 0.40017652E-01 0.13703571E+04</pdfrwt>
<totfact> 0.20503146E+01</totfact>
</mgrwt>
</event>
<event>
12    5  0.5297412E-008  0.1198318E+04  0.7818608E-02  0.9114330E-01
         -2   -1    0    0    0  501 -0.00000000000E+00  0.00000000000E+00  0.60893710693E+03  0.60893710693E+03  0.00000000000E+00 0.  1.
          1   -1    0    0  501    0  0.00000000000E+00 -0.00000000000E+00 -0.58953743044E+03  0.58953743044E+03  0.00000000000E+00 0. -1.
        -24    2    1    2    0    0 -0.80826939443E+02  0.20199625697E+03  0.12326128091E+03  0.26287181697E+03  0.81072602131E+02 0.  0.
        254    2    1    2    0    0  0.80826939443E+02 -0.20199625697E+03 -0.10386160442E+03  0.93560272040E+03  0.90400759708E+03 0.  0.
         23    2    4    4    0    0 -0.81352151146E+02  0.32998226321E+03 -0.11989833688E+03  0.37181048283E+03  0.91438271123E+02 0.  0.
         23    2    4    4    0    0  0.16217909059E+03 -0.53197852018E+03  0.16036732463E+02  0.56379223756E+03  0.91111508548E+02 0.  0.
          3    1    3    3  502    0 -0.34576801168E+02  0.16904669756E+03  0.74190566540E+02  0.18782060935E+03  0.00000000000E+00 0. -1.
         -4    1    3    3    0  502 -0.46250138275E+02  0.32949559410E+02  0.49070714373E+02  0.75051207618E+02  0.00000000000E+00 0.  1.
         13    1    5    5    0    0 -0.34930429662E+02  0.28157813375E+03 -0.10854285347E+03  0.30378928777E+03  0.00000000000E+00 0.  1.
        -13    1    5    5    0    0 -0.46421721484E+02  0.48404129460E+02 -0.11355483413E+02  0.68021195063E+02  0.00000000000E+00 0. -1.
          4    1    6    6  503    0  0.21516638184E+02 -0.77425210014E+02  0.34872117229E+02  0.87599620002E+02  0.00000000000E+00 0. -1.
         -4    1    6    6    0  503  0.14066245240E+03 -0.45455331017E+03 -0.18835384766E+02  0.47619261756E+03  0.00000000000E+00 0.  1.
<mgrwt>
<rscale>  0 0.11983175E+04</rscale>
<asrwt>0</asrwt>
<pdfrwt beam="1">  1        1 0.90698066E-01 0.11983175E+04</pdfrwt>
<pdfrwt beam="2">  1       -2 0.93682632E-01 0.11983175E+04</pdfrwt>
<totfact> 0.29307277E+01</totfact>
</mgrwt>
</event>
<event>
12    5  0.5297412E-008  0.2176402E+04  0.7818608E-02  0.8528315E-01
         -2   -1    0    0    0  501 -0.00000000000E+00  0.00000000000E+00  0.12796520539E+04  0.12796520539E+04  0.00000000000E+00 0.  1.
          1   -1    0    0  501    0  0.00000000000E+00 -0.00000000000E+00 -0.92539327960E+03  0.92539327960E+03  0.00000000000E+00 0. -1.
        -24    2    1    2    0    0  0.45570884748E+03 -0.56892803260E+03  0.62892657956E+03  0.96602561850E+03  0.79417839103E+02 0.  0.
        254    2    1    2    0    0 -0.45570884748E+03  0.56892803260E+03 -0.27466780525E+03  0.12390197150E+04  0.96352363283E+03 0.  0.
         23    2    4    4    0    0  0.19568640664E+03 -0.10045964946E+03  0.55019915722E+02  0.24437940023E+03  0.91152560124E+02 0.  0.
         23    2    4    4    0    0 -0.65139525412E+03  0.66938768207E+03 -0.32968772097E+03  0.99464031479E+03  0.90662651964E+02 0.  0.
          3    1    3    3  502    0  0.92568931943E+01 -0.29831736504E+02  0.43302483305E+02  0.53392205750E+02  0.00000000000E+00 0. -1.
         -4    1    3    3    0  502  0.44645195428E+03 -0.53909629610E+03  0.58562409626E+03  0.91263341275E+03  0.00000000000E+00 0.  1.
         13    1    5    5    0    0  0.17716980572E+02  0.98705618904E+01 -0.13146508796E+02  0.24169197052E+02  0.00000000000E+00 0. -1.
        -13    1    5    5    0    0  0.17796942607E+03 -0.11033021135E+03  0.68166424519E+02  0.22021020318E+03  0.00000000000E+00 0.  1.
          4    1    6    6  503    0 -0.92871878401E+02  0.14245957989E+03 -0.47409878326E+02  0.17654351946E+03  0.00000000000E+00 0. -1.
         -4    1    6    6    0  503 -0.55852337571E+03  0.52692810218E+03 -0.28227784264E+03  0.81809679533E+03  0.00000000000E+00 0.  1.
<mgrwt>
<rscale>  0 0.21764020E+04</rscale>
<asrwt>0</asrwt>
<pdfrwt beam="1">  1        1 0.14236820E+00 0.21764020E+04</pdfrwt>
<pdfrwt beam="2">  1       -2 0.19686955E+00 0.21764020E+04</pdfrwt>
<totfact> 0.19374315E+00</totfact>
</mgrwt>
</event>
<event>
12    5  0.5297412E-008  0.1459779E+04  0.7818608E-02  0.8911649E-01
          1   -1    0    0  501    0  0.00000000000E+00  0.00000000000E+00  0.38244887377E+03  0.38244887377E+03  0.00000000000E+00 0. -1.
         -2   -1    0    0    0  501 -0.00000000000E+00 -0.00000000000E+00 -0.13929672839E+04  0.13929672839E+04  0.00000000000E+00 0.  1.
        -24    2    1    2    0    0 -0.13137218340E+03 -0.27501129374E+03  0.91873835741E+02  0.32834178735E+03  0.80483944820E+02 0.  0.
        254    2    1    2    0    0  0.13137218340E+03  0.27501129374E+03 -0.11023922459E+04  0.14470743703E+04  0.88649066957E+03 0.  0.
         23    2    4    4    0    0 -0.73197123166E+02 -0.26023643200E+03 -0.65398231450E+03  0.71341106418E+03  0.90452525794E+02 0.  0.
         23    2    4    4    0    0  0.20456930656E+03  0.53524772574E+03 -0.44840993137E+03  0.73366330615E+03  0.94083213905E+02 0.  0.
          3    1    3    3  502    0 -0.12632939621E+03 -0.19434266288E+03  0.49259477417E+02  0.23696979360E+03  0.00000000000E+00 0. -1.
         -4    1    3    3    0  502 -0.50427871840E+01 -0.80668630857E+02  0.42614358323E+02  0.91371993752E+02  0.00000000000E+00 0.  1.
         13    1    5    5    0    0  0.17095676632E+02 -0.38277251077E+02 -0.14328957966E+03  0.14929606073E+03  0.00000000000E+00 0.  1.
        -13    1    5    5    0    0 -0.90292799799E+02 -0.22195918092E+03 -0.51069273484E+03  0.56411500345E+03  0.00000000000E+00 0. -1.
          1    1    6    6  503    0  0.21414108902E+03  0.50751963373E+03 -0.43208550549E+03  0.70009318571E+03  0.00000000000E+00 0. -1.
         -1    1    6    6    0  503 -0.95717824511E+01  0.27728092007E+02 -0.16324425883E+02  0.33570120435E+02  0.00000000000E+00 0.  1.
<mgrwt>
<rscale>  0 0.14597791E+04</rscale>
<asrwt>0</asrwt>
<pdfrwt beam="1">  1        1 0.58838287E-01 0.14597791E+04</pdfrwt>
<pdfrwt beam="2">  1       -2 0.21430266E+00 0.14597791E+04</pdfrwt>
<totfact> 0.57999253E+00</totfact>
</mgrwt>
</event>
<event>
12    5  0.5297412E-008  0.1657321E+04  0.7818608E-02  0.8786087E-01
         -2   -1    0    0    0  501 -0.00000000000E+00  0.00000000000E+00  0.98993505014E+03  0.98993505014E+03  0.00000000000E+00 0.  1.
          1   -1    0    0  501    0  0.00000000000E+00 -0.00000000000E+00 -0.69365976825E+03  0.69365976825E+03  0.00000000000E+00 0. -1.
        -24    2    1    2    0    0  0.38075401701E+03  0.32877137431E+03  0.39892702046E+03  0.64615073009E+03  0.72826920225E+02 0.  0.
        254    2    1    2    0    0 -0.38075401701E+03 -0.32877137431E+03 -0.10265173857E+03  0.10374440883E+04  0.90149243972E+03 0.  0.
         23    2    4    4    0    0 -0.12417051260E+03 -0.59737995419E+03 -0.18938176848E+03  0.64520954121E+03  0.90270548714E+02 0.  0.
         23    2    4    4    0    0 -0.25658350441E+03  0.26860857988E+03  0.86730029909E+02  0.39223454709E+03  0.91324574583E+02 0.  0.
          3    1    3    3  502    0  0.12957943947E+02  0.60373794471E+01 -0.80003211749E+00  0.14317762162E+02  0.00000000000E+00 0. -1.
         -4    1    3    3    0  502  0.36779607306E+03  0.32273399486E+03  0.39972705258E+03  0.63183296793E+03  0.00000000000E+00 0.  1.
         13    1    5    5    0    0  0.42472269114E+01 -0.12151991698E+03 -0.15616696767E+02  0.12259286430E+03  0.00000000000E+00 0. -1.
        -13    1    5    5    0    0 -0.12841773951E+03 -0.47586003721E+03 -0.17376507172E+03  0.52261667691E+03  0.00000000000E+00 0.  1.
          3    1    6    6  503    0 -0.16417570851E+03  0.16737696687E+03  0.89218141692E+01  0.23462376493E+03  0.00000000000E+00 0. -1.
         -3    1    6    6    0  503 -0.92407795903E+02  0.10123161301E+03  0.77808215740E+02  0.15761078216E+03  0.00000000000E+00 0.  1.
<mgrwt>
<rscale>  0 0.16573209E+04</rscale>
<asrwt>0</asrwt>
<pdfrwt beam="1">  1        1 0.10671689E+00 0.16573209E+04</pdfrwt>
<pdfrwt beam="2">  1       -2 0.15229770E+00 0.16573209E+04</pdfrwt>
<totfact> 0.66428335E+00</totfact>
</mgrwt>
</event>
<event>
12    5  0.5297412E-008  0.2387845E+04  0.7818608E-02  0.8444068E-01
         -2   -1    0    0    0  501 -0.00000000000E+00  0.00000000000E+00  0.55915942303E+03  0.55915942303E+03  0.00000000000E+00 0.  1.
          1   -1    0    0  501    0  0.00000000000E+00 -0.00000000000E+00 -0.25492757045E+04  0.25492757045E+04  0.00000000000E+00 0. -1.
        -24    2    1    2    0    0  0.61760230269E+03 -0.72306038308E+03 -0.13286645489E+04  0.16361804925E+04  0.86534379494E+02 0.  0.
        254    2    1    2    0    0 -0.61760230269E+03  0.72306038308E+03 -0.66145173258E+03  0.14722546350E+04  0.90871689422E+03 0.  0.
         23    2    4    4    0    0 -0.38403587151E+03  0.74004363177E+03 -0.82185762849E+03  0.11741364563E+04  0.89433377540E+02 0.  0.
         23    2    4    4    0    0 -0.23356643118E+03 -0.16983248696E+02  0.16040589591E+03  0.29811817867E+03  0.91119089664E+02 0.  0.
          1    1    3    3  502    0  0.10753284248E+03 -0.97779979232E+02 -0.24852909594E+03  0.28790788123E+03  0.00000000000E+00 0. -1.
         -2    1    3    3    0  502  0.51006946021E+03 -0.62528040384E+03 -0.10801354529E+04  0.13482726113E+04  0.00000000000E+00 0.  1.
         13    1    5    5    0    0 -0.13983705689E+03  0.22948286160E+03 -0.21339056067E+03  0.34315057574E+03  0.00000000000E+00 0. -1.
        -13    1    5    5    0    0 -0.24419881462E+03  0.51056077017E+03 -0.60846706782E+03  0.83098588058E+03  0.00000000000E+00 0.  1.
          2    1    6    6  503    0 -0.18522954736E+02  0.18565980227E+02  0.43472297677E+02  0.50770425833E+02  0.00000000000E+00 0. -1.
         -2    1    6    6    0  503 -0.21504347644E+03 -0.35549228923E+02  0.11693359823E+03  0.24734775284E+03  0.00000000000E+00 0.  1.
<mgrwt>
<rscale>  0 0.23878455E+04</rscale>
<asrwt>0</asrwt>
<pdfrwt beam="1">  1        1 0.39219626E+00 0.23878455E+04</pdfrwt>
<pdfrwt beam="2">  1       -2 0.86024527E-01 0.23878455E+04</pdfrwt>
<totfact> 0.11572143E+00</totfact>
</mgrwt>
</event>
<event>
12    5  0.5297412E-008  0.1545815E+04  0.7818608E-02  0.8854545E-01
         -2   -1    0    0    0  501 -0.00000000000E+00  0.00000000000E+00  0.91709588105E+03  0.91709588105E+03  0.00000000000E+00 0.  1.
          1   -1    0    0  501    0  0.00000000000E+00 -0.00000000000E+00 -0.65138911205E+03  0.65138911205E+03  0.00000000000E+00 0. -1.
        -24    2    1    2    0    0  0.10156110335E+03  0.49779432139E+03  0.12881637784E+03  0.53003398691E+03  0.78920998168E+02 0.  0.
        254    2    1    2    0    0 -0.10156110335E+03 -0.49779432139E+03  0.13689039116E+03  0.10384510062E+04  0.89528077659E+03 0.  0.
         23    2    4    4    0    0 -0.39729240901E+03 -0.55063621496E+03 -0.23210630985E+02  0.68531034282E+03  0.89833362978E+02 0.  0.
         23    2    4    4    0    0  0.29573130566E+03  0.52841893567E+02  0.16010102215E+03  0.35314066337E+03  0.93950625169E+02 0.  0.
          1    1    3    3  502    0  0.10724074848E+03  0.43724728692E+03  0.13193783259E+03  0.46914108723E+03  0.00000000000E+00 0. -1.
         -2    1    3    3    0  502 -0.56796451264E+01  0.60547034466E+02 -0.31214547472E+01  0.60892899677E+02  0.00000000000E+00 0.  1.
         13    1    5    5    0    0  0.13482377517E+00 -0.62159741179E+01 -0.92148978078E+01  0.11116242769E+02  0.00000000000E+00 0. -1.
        -13    1    5    5    0    0 -0.39742723279E+03 -0.54442024084E+03 -0.13995733177E+02  0.67419410005E+03  0.00000000000E+00 0.  1.
          1    1    6    6  503    0  0.17858915555E+02  0.24657435373E+02  0.37003942780E+02  0.47918908223E+02  0.00000000000E+00 0. -1.
         -1    1    6    6    0  503  0.27787239010E+03  0.28184458194E+02  0.12309707937E+03  0.30522175515E+03  0.00000000000E+00 0.  1.
<mgrwt>
<rscale>  0 0.15458153E+04</rscale>
<asrwt>0</asrwt>
<pdfrwt beam="1">  1        1 0.10021371E+00 0.15458153E+04</pdfrwt>
<pdfrwt beam="2">  1       -2 0.14109167E+00 0.15458153E+04</pdfrwt>
<totfact> 0.90106120E+00</totfact>
</mgrwt>
</event>
<event>
12    5  0.5297412E-008  0.1917751E+04  0.7818608E-02  0.8646071E-01
          3   -1    0    0  501    0  0.00000000000E+00  0.00000000000E+00  0.18560435802E+04  0.18560435802E+04  0.00000000000E+00 0. -1.
         -2   -1    0    0    0  501 -0.00000000000E+00 -0.00000000000E+00 -0.49537736618E+03  0.49537736618E+03  0.00000000000E+00 0.  1.
        -24    2    1    2    0    0 -0.23274122596E+03 -0.98796142596E+02  0.13765357501E+04  0.14018592561E+04  0.80184453357E+02 0.  0.
        254    2    1    2    0    0  0.23274122596E+03  0.98796142596E+02 -0.15869536116E+02  0.94956169025E+03  0.91514283331E+03 0.  0.
         23    2    4    4    0    0  0.45802253867E+03 -0.13919325633E+03  0.22102208260E+03  0.53487410493E+03  0.89889591089E+02 0.  0.
         23    2    4    4    0    0 -0.22528131272E+03  0.23798939892E+03 -0.23689161872E+03  0.41468758532E+03  0.91964833144E+02 0.  0.
          3    1    3    3  502    0 -0.94600308232E+02 -0.81096531124E+02  0.72168112118E+03  0.73235886445E+03  0.00000000000E+00 0. -1.
         -4    1    3    3    0  502 -0.13814091773E+03 -0.17699611472E+02  0.65485462893E+03  0.66950039165E+03  0.00000000000E+00 0.  1.
         13    1    5    5    0    0  0.37929732860E+03 -0.13118752797E+03  0.21552535078E+03  0.45555220097E+03  0.00000000000E+00 0. -1.
        -13    1    5    5    0    0  0.78725210072E+02 -0.80057283593E+01  0.54967318262E+01  0.79321903962E+02  0.00000000000E+00 0.  1.
          2    1    6    6  503    0 -0.17444903336E+03  0.15693115689E+03 -0.21100844821E+03  0.31556998979E+03  0.00000000000E+00 0. -1.
         -2    1    6    6    0  503 -0.50832279360E+02  0.81058242038E+02 -0.25883170515E+02  0.99117595528E+02  0.00000000000E+00 0.  1.
<mgrwt>
<rscale>  0 0.19177507E+04</rscale>
<asrwt>0</asrwt>
<pdfrwt beam="1">  1        3 0.28554516E+00 0.19177507E+04</pdfrwt>
<pdfrwt beam="2">  1       -2 0.76211903E-01 0.19177507E+04</pdfrwt>
<totfact> 0.27451914E-01</totfact>
</mgrwt>
</event>
<event>
12    5  0.5297412E-008  0.1557058E+04  0.7818608E-02  0.8847372E-01
         -2   -1    0    0    0  501 -0.00000000000E+00  0.00000000000E+00  0.86189353498E+03  0.86189353498E+03  0.00000000000E+00 0.  1.
          1   -1    0    0  501    0  0.00000000000E+00 -0.00000000000E+00 -0.70322728297E+03  0.70322728297E+03  0.00000000000E+00 0. -1.
        -24    2    1    2    0    0  0.36960481971E+03  0.35339338549E+03  0.85230580028E+02  0.52433163531E+03  0.78516268096E+02 0.  0.
        254    2    1    2    0    0 -0.36960481971E+03 -0.35339338549E+03  0.73435671983E+02  0.10407891826E+04  0.90352350114E+03 0.  0.
         23    2    4    4    0    0  0.21398009018E+03 -0.24614646133E+03 -0.18600469211E+03  0.38630425549E+03  0.90871738764E+02 0.  0.
         23    2    4    4    0    0 -0.58358490989E+03 -0.10724692416E+03  0.25944036410E+03  0.65448492714E+03  0.94699353441E+02 0.  0.
          1    1    3    3  502    0  0.51163027019E+02  0.82125486012E+02 -0.30135504289E+01  0.96805641739E+02  0.00000000000E+00 0. -1.
         -2    1    3    3    0  502  0.31844179269E+03  0.27126789947E+03  0.88244130456E+02  0.42752599357E+03  0.00000000000E+00 0.  1.
         13    1    5    5    0    0  0.64418734496E+02 -0.14175416507E+03 -0.95929180036E+02  0.18288363582E+03  0.00000000000E+00 0. -1.
        -13    1    5    5    0    0  0.14956135569E+03 -0.10439229626E+03 -0.90075512075E+02  0.20342061968E+03  0.00000000000E+00 0.  1.
          3    1    6    6  503    0 -0.13921214734E+03 -0.14353461652E+02  0.20431553263E+02  0.14143370248E+03  0.00000000000E+00 0. -1.
         -3    1    6    6    0  503 -0.44437276255E+03 -0.92893462504E+02  0.23900881083E+03  0.51305122466E+03  0.00000000000E+00 0.  1.
<mgrwt>
<rscale>  0 0.15570575E+04</rscale>
<asrwt>0</asrwt>
<pdfrwt beam="1">  1        1 0.10818881E+00 0.15570575E+04</pdfrwt>
<pdfrwt beam="2">  1       -2 0.13259901E+00 0.15570575E+04</pdfrwt>
<totfact> 0.94170067E+00</totfact>
</mgrwt>
</event>
<event>
12    5  0.5297412E-008  0.1961527E+04  0.7818608E-02  0.8624822E-01
         -2   -1    0    0    0  501 -0.00000000000E+00  0.00000000000E+00  0.51748037206E+03  0.51748037206E+03  0.00000000000E+00 0.  1.
          1   -1    0    0  501    0  0.00000000000E+00 -0.00000000000E+00 -0.18588094408E+04  0.18588094408E+04  0.00000000000E+00 0. -1.
        -24    2    1    2    0    0  0.18648125503E+03 -0.51926921564E+03 -0.11825133129E+04  0.13072899626E+04  0.79079291080E+02 0.  0.
        254    2    1    2    0    0 -0.18648125503E+03  0.51926921564E+03 -0.15881575585E+03  0.10689998503E+04  0.90173303079E+03 0.  0.
         23    2    4    4    0    0  0.13753927122E+03  0.41091293160E+03  0.26557672191E+03  0.51659623709E+03  0.92596913955E+02 0.  0.
         23    2    4    4    0    0 -0.32402052625E+03  0.10835628405E+03 -0.42439247776E+03  0.55240361320E+03  0.91161345824E+02 0.  0.
          3    1    3    3  502    0  0.15843192125E+03 -0.33053419288E+03 -0.77160937057E+03  0.85424501584E+03  0.00000000000E+00 0. -1.
         -4    1    3    3    0  502  0.28049333779E+02 -0.18873502276E+03 -0.41090394234E+03  0.45304494675E+03  0.00000000000E+00 0.  1.
         13    1    5    5    0    0  0.31964888613E+02  0.12328164189E+03  0.12855032811E+03  0.18095663621E+03  0.00000000000E+00 0.  1.
        -13    1    5    5    0    0  0.10557438261E+03  0.28763128971E+03  0.13702639380E+03  0.33563960088E+03  0.00000000000E+00 0. -1.
          2    1    6    6  503    0 -0.96563887868E+02 -0.91109950773E+01 -0.10234329513E+03  0.14100264086E+03  0.00000000000E+00 0. -1.
         -2    1    6    6    0  503 -0.22745663839E+03  0.11746727912E+03 -0.32204918263E+03  0.41140097234E+03  0.00000000000E+00 0.  1.
<mgrwt>
<rscale>  0 0.19615274E+04</rscale>
<asrwt>0</asrwt>
<pdfrwt beam="1">  1        1 0.28597068E+00 0.19615274E+04</pdfrwt>
<pdfrwt beam="2">  1       -2 0.79612365E-01 0.19615274E+04</pdfrwt>
<totfact> 0.42436634E+00</totfact>
</mgrwt>
</event>
<event>
12    5  0.5297412E-008  0.2654468E+04  0.7818608E-02  0.8349932E-01
         -2   -1    0    0    0  501 -0.00000000000E+00  0.00000000000E+00  0.88091130581E+03  0.88091130581E+03  0.00000000000E+00 0.  1.
          1   -1    0    0  501    0  0.00000000000E+00 -0.00000000000E+00 -0.19996905896E+04  0.19996905896E+04  0.00000000000E+00 0. -1.
        -24    2    1    2    0    0 -0.84213451279E+03  0.75780220953E+03 -0.16610523212E+03  0.11476828976E+04  0.78296608743E+02 0.  0.
        254    2    1    2    0    0  0.84213451279E+03 -0.75780220953E+03 -0.95267405163E+03  0.17329189978E+04  0.90109138146E+03 0.  0.
         23    2    4    4    0    0  0.36795336773E+03 -0.35644694903E+03  0.77833918027E+02  0.52614099495E+03  0.91225651398E+02 0.  0.
         23    2    4    4    0    0  0.47418114507E+03 -0.40135526050E+03 -0.10305079697E+04  0.12067780028E+04  0.91829565390E+02 0.  0.
          1    1    3    3  502    0 -0.43774686224E+03  0.35941688011E+03 -0.11285769986E+03  0.57752893393E+03  0.00000000000E+00 0. -1.
         -2    1    3    3    0  502 -0.40438765055E+03  0.39838532942E+03 -0.53247532263E+02  0.57015396369E+03  0.00000000000E+00 0.  1.
         13    1    5    5    0    0  0.80206070056E+02 -0.76395110683E+02 -0.20728914232E+02  0.11268946045E+03  0.00000000000E+00 0.  1.
        -13    1    5    5    0    0  0.28774729767E+03 -0.28005183835E+03  0.98562832259E+02  0.41345153450E+03  0.00000000000E+00 0. -1.
          3    1    6    6  503    0  0.33351254608E+03 -0.22548281501E+03 -0.64633008643E+03  0.76145630136E+03  0.00000000000E+00 0. -1.
         -3    1    6    6    0  503  0.14066859898E+03 -0.17587244549E+03 -0.38417788323E+03  0.44532170145E+03  0.00000000000E+00 0.  1.
<mgrwt>
<rscale>  0 0.26544680E+04</rscale>
<asrwt>0</asrwt>
<pdfrwt beam="1">  1        1 0.30764471E+00 0.26544680E+04</pdfrwt>
<pdfrwt beam="2">  1       -2 0.13552482E+00 0.26544680E+04</pdfrwt>
<totfact> 0.89723143E-01</totfact>
</mgrwt>
</event>
<event>
12    5  0.5297412E-008  0.1252365E+04  0.7818608E-02  0.9068217E-01
         -2   -1    0    0    0  501 -0.00000000000E+00  0.00000000000E+00  0.50935529722E+03  0.50935529722E+03  0.00000000000E+00 0.  1.
          1   -1    0    0  501    0  0.00000000000E+00 -0.00000000000E+00 -0.76980556965E+03  0.76980556965E+03  0.00000000000E+00 0. -1.
        -24    2    1    2    0    0  0.27036926051E+03 -0.11190138918E+03 -0.60045273472E+02  0.30983660048E+03  0.82291106448E+02 0.  0.
        254    2    1    2    0    0 -0.27036926051E+03  0.11190138918E+03 -0.20040499896E+03  0.96932426639E+03  0.90211191761E+03 0.  0.
         23    2    4    4    0    0 -0.16023450421E+03 -0.31505113115E+03 -0.33787711506E+03  0.49698840859E+03  0.88905690569E+02 0.  0.
         23    2    4    4    0    0 -0.11013475631E+03  0.42695252033E+03  0.13747211611E+03  0.47233585780E+03  0.98916432891E+02 0.  0.
          1    1    3    3  502    0  0.15091714314E+02  0.12433162031E+02 -0.81621859651E+01  0.21188785684E+02  0.00000000000E+00 0. -1.
         -2    1    3    3    0  502  0.25527754620E+03 -0.12433455121E+03 -0.51883087507E+02  0.28864781479E+03  0.00000000000E+00 0.  1.
         13    1    5    5    0    0 -0.92635084535E+02 -0.25683493185E+03 -0.22994717053E+03  0.35696098154E+03  0.00000000000E+00 0.  1.
        -13    1    5    5    0    0 -0.67599419670E+02 -0.58216199299E+02 -0.10792994454E+03  0.14002742706E+03  0.00000000000E+00 0. -1.
          3    1    6    6  503    0 -0.55542680999E+02  0.64878566506E+02  0.19149312929E+02  0.87526647315E+02  0.00000000000E+00 0. -1.
         -3    1    6    6    0  503 -0.54592075306E+02  0.36207395382E+03  0.11832280318E+03  0.38480921049E+03  0.00000000000E+00 0.  1.
<mgrwt>
<rscale>  0 0.12523650E+04</rscale>
<asrwt>0</asrwt>
<pdfrwt beam="1">  1        1 0.11843163E+00 0.12523650E+04</pdfrwt>
<pdfrwt beam="2">  1       -2 0.78362354E-01 0.12523650E+04</pdfrwt>
<totfact> 0.29409299E+01</totfact>
</mgrwt>
</event>
<event>
12    5  0.5297412E-008  0.2547333E+04  0.7818608E-02  0.8386314E-01
          1   -1    0    0  501    0  0.00000000000E+00  0.00000000000E+00  0.96838843370E+03  0.96838843370E+03  0.00000000000E+00 0. -1.
         -2   -1    0    0    0  501 -0.00000000000E+00 -0.00000000000E+00 -0.16751817007E+04  0.16751817007E+04  0.00000000000E+00 0.  1.
        -24    2    1    2    0    0 -0.47848027413E+03 -0.31004847000E+02  0.73525402707E+03  0.88231764765E+03  0.89337974971E+02 0.  0.
        254    2    1    2    0    0  0.47848027413E+03  0.31004847000E+02 -0.14420472941E+04  0.17612524868E+04  0.89028380333E+03 0.  0.
         23    2    4    4    0    0  0.52619647984E+02  0.31135736343E+03 -0.10814379980E+04  0.11302487132E+04  0.90784222235E+02 0.  0.
         23    2    4    4    0    0  0.42586062614E+03 -0.28035251643E+03 -0.36060929606E+03  0.63100377356E+03  0.90398514756E+02 0.  0.
          3    1    3    3  502    0 -0.46219281354E+03 -0.46161755988E+02  0.68841155163E+03  0.83045985395E+03  0.00000000000E+00 0. -1.
         -4    1    3    3    0  502 -0.16287460584E+02  0.15156908987E+02  0.46842475441E+02  0.51857793703E+02  0.00000000000E+00 0.  1.
         13    1    5    5    0    0 -0.23299777572E+01  0.31602535859E+02 -0.43189008291E+02  0.53567149507E+02  0.00000000000E+00 0. -1.
        -13    1    5    5    0    0  0.54949625741E+02  0.27975482757E+03 -0.10382489898E+04  0.10766815637E+04  0.00000000000E+00 0.  1.
          2    1    6    6  503    0  0.41377542149E+02 -0.65019934716E+02 -0.50176102946E+02  0.91963765753E+02  0.00000000000E+00 0. -1.
         -2    1    6    6    0  503  0.38448308400E+03 -0.21533258171E+03 -0.31043319311E+03  0.53904000780E+03  0.00000000000E+00 0.  1.
<mgrwt>
<rscale>  0 0.25473332E+04</rscale>
<asrwt>0</asrwt>
<pdfrwt beam="1">  1        1 0.14898284E+00 0.25473332E+04</pdfrwt>
<pdfrwt beam="2">  1       -2 0.25772026E+00 0.25473332E+04</pdfrwt>
<totfact> 0.71641735E-01</totfact>
</mgrwt>
</event>
<event>
12    5  0.5297412E-008  0.2288863E+04  0.7818608E-02  0.8482325E-01
          1   -1    0    0  501    0  0.00000000000E+00  0.00000000000E+00  0.16267123435E+04  0.16267123435E+04  0.00000000000E+00 0. -1.
         -2   -1    0    0    0  501 -0.00000000000E+00 -0.00000000000E+00 -0.80513531040E+03  0.80513531040E+03  0.00000000000E+00 0.  1.
        -24    2    1    2    0    0 -0.48728250222E+03  0.79823545304E+03  0.90178844882E+02  0.94339265538E+03  0.85049413358E+02 0.  0.
        254    2    1    2    0    0  0.48728250222E+03 -0.79823545304E+03  0.73139818826E+03  0.14884549986E+04  0.89773654126E+03 0.  0.
         23    2    4    4    0    0 -0.89190053940E+02  0.13851795030E+03  0.59751167763E+02  0.19651486552E+03  0.88914577230E+02 0.  0.
         23    2    4    4    0    0  0.57647255616E+03 -0.93675340334E+03  0.67164702050E+03  0.12919401330E+04  0.90399339356E+02 0.  0.
          1    1    3    3  502    0 -0.26840275293E+03  0.44491204312E+03  0.76921056331E+01  0.51965943885E+03  0.00000000000E+00 0. -1.
         -2    1    3    3    0  502 -0.21887974928E+03  0.35332340992E+03  0.82486739249E+02  0.42373321653E+03  0.00000000000E+00 0.  1.
         13    1    5    5    0    0 -0.42953557794E+02  0.12810138902E+03  0.24184014524E+02  0.13725829868E+03  0.00000000000E+00 0.  1.
        -13    1    5    5    0    0 -0.46236496145E+02  0.10416561278E+02  0.35567153239E+02  0.59256566844E+02  0.00000000000E+00 0. -1.
          1    1    6    6  503    0  0.29900306603E+03 -0.40902704634E+03  0.28496010690E+03  0.58129873616E+03  0.00000000000E+00 0. -1.
         -1    1    6    6    0  503  0.27746949013E+03 -0.52772635699E+03  0.38668691360E+03  0.71064139689E+03  0.00000000000E+00 0.  1.
<mgrwt>
<rscale>  0 0.22888631E+04</rscale>
<asrwt>0</asrwt>
<pdfrwt beam="1">  1        1 0.25026344E+00 0.22888631E+04</pdfrwt>
<pdfrwt beam="2">  1       -2 0.12386697E+00 0.22888631E+04</pdfrwt>
<totfact> 0.20849814E+00</totfact>
</mgrwt>
</event>
<event>
12    5  0.5297412E-008  0.1723596E+04  0.7818608E-02  0.8748020E-01
          1   -1    0    0  501    0  0.00000000000E+00  0.00000000000E+00  0.13705839464E+04  0.13705839464E+04  0.00000000000E+00 0. -1.
         -2   -1    0    0    0  501 -0.00000000000E+00 -0.00000000000E+00 -0.54188284909E+03  0.54188284909E+03  0.00000000000E+00 0.  1.
        -24    2    1    2    0    0  0.16616365678E+03  0.59947835517E+03  0.25364305436E+03  0.67637017028E+03  0.78467503263E+02 0.  0.
        254    2    1    2    0    0 -0.16616365678E+03 -0.59947835517E+03  0.57505804298E+03  0.12360966252E+04  0.90014357465E+03 0.  0.
         23    2    4    4    0    0  0.24152273040E+03 -0.60957325423E+03  0.44613587386E+03  0.79827626636E+03  0.91076879206E+02 0.  0.
         23    2    4    4    0    0 -0.40768638718E+03  0.10094899061E+02  0.12892216912E+03  0.43782035888E+03  0.93571596522E+02 0.  0.
          1    1    3    3  502    0  0.14040585181E+03  0.54256793574E+03  0.20341819146E+03  0.59621533755E+03  0.00000000000E+00 0. -1.
         -2    1    3    3    0  502  0.25757804970E+02  0.56910419430E+02  0.50224862895E+02  0.80154832726E+02  0.00000000000E+00 0.  1.
         13    1    5    5    0    0  0.42292828986E+02 -0.17584055496E+03  0.16201374164E+03  0.24281070122E+03  0.00000000000E+00 0. -1.
        -13    1    5    5    0    0  0.19922990142E+03 -0.43373269927E+03  0.28412213222E+03  0.55546556514E+03  0.00000000000E+00 0.  1.
          3    1    6    6  503    0 -0.14982667451E+03 -0.40964090383E+01  0.16030626062E+01  0.14989123647E+03  0.00000000000E+00 0. -1.
         -3    1    6    6    0  503 -0.25785971268E+03  0.14191308099E+02  0.12731910651E+03  0.28792912241E+03  0.00000000000E+00 0.  1.
<mgrwt>
<rscale>  0 0.17235962E+04</rscale>
<asrwt>0</asrwt>
<pdfrwt beam="1">  1        1 0.21085907E+00 0.17235962E+04</pdfrwt>
<pdfrwt beam="2">  1       -2 0.83366593E-01 0.17235962E+04</pdfrwt>
<totfact> 0.84559510E+00</totfact>
</mgrwt>
</event>
<event>
12    5  0.5297412E-008  0.1477809E+04  0.7818608E-02  0.8899345E-01
         -2   -1    0    0    0  501 -0.00000000000E+00  0.00000000000E+00  0.63139555840E+03  0.63139555840E+03  0.00000000000E+00 0.  1.
          1   -1    0    0  501    0  0.00000000000E+00 -0.00000000000E+00 -0.86471966899E+03  0.86471966899E+03  0.00000000000E+00 0. -1.
        -24    2    1    2    0    0 -0.29374820896E+03  0.29705491334E+03  0.98316699595E+02  0.43719153276E+03  0.83310450070E+02 0.  0.
        254    2    1    2    0    0  0.29374820896E+03 -0.29705491334E+03 -0.33164081018E+03  0.10589236946E+04  0.91476998873E+03 0.  0.
         23    2    4    4    0    0 -0.31256153544E+03 -0.11004225196E+03 -0.21999191506E+03  0.40806551539E+03  0.91197650757E+02 0.  0.
         23    2    4    4    0    0  0.60630974440E+03 -0.18701266137E+03 -0.11164889511E+03  0.65085817924E+03  0.92550807901E+02 0.  0.
          3    1    3    3  502    0 -0.13052928926E+03  0.12645998181E+03  0.79379173624E+00  0.18174336978E+03  0.00000000000E+00 0. -1.
         -2    1    3    3    0  502 -0.16321891970E+03  0.17059493153E+03  0.97522907858E+02  0.25544816297E+03  0.00000000000E+00 0.  1.
         13    1    5    5    0    0 -0.68592689898E+02 -0.41985990405E+02 -0.14087685361E+02  0.81647065940E+02  0.00000000000E+00 0. -1.
        -13    1    5    5    0    0 -0.24396884554E+03 -0.68056261558E+02 -0.20590422970E+03  0.32641844945E+03  0.00000000000E+00 0.  1.
          3    1    6    6  503    0  0.69803507214E+02  0.82190523581E+01 -0.11951367637E+02  0.71294583451E+02  0.00000000000E+00 0. -1.
         -3    1    6    6    0  503  0.53650623718E+03 -0.19523171373E+03 -0.99697527477E+02  0.57956359579E+03  0.00000000000E+00 0.  1.
<mgrwt>
<rscale>  0 0.14778094E+04</rscale>
<asrwt>0</asrwt>
<pdfrwt beam="1">  1        1 0.13303379E+00 0.14778094E+04</pdfrwt>
<pdfrwt beam="2">  1       -2 0.97137779E-01 0.14778094E+04</pdfrwt>
<totfact> 0.14622248E+01</totfact>
</mgrwt>
</event>
<event>
12    5  0.5297412E-008  0.1630516E+04  0.7818608E-02  0.8802017E-01
         -4   -1    0    0    0  501 -0.00000000000E+00  0.00000000000E+00  0.79466955082E+03  0.79466955082E+03  0.00000000000E+00 0.  1.
          3   -1    0    0  501    0  0.00000000000E+00 -0.00000000000E+00 -0.83638018572E+03  0.83638018572E+03  0.00000000000E+00 0. -1.
        -24    2    1    2    0    0  0.43302420072E+03  0.79573767071E+02  0.34515814627E+03  0.56568510298E+03  0.83806604691E+02 0.  0.
        254    2    1    2    0    0 -0.43302420072E+03 -0.79573767071E+02 -0.38686878116E+03  0.10653646336E+04  0.88965858945E+03 0.  0.
         23    2    4    4    0    0  0.24099677104E+03 -0.16602230083E+03 -0.10334403879E+03  0.32370906367E+03  0.92003910360E+02 0.  0.
         23    2    4    4    0    0 -0.67402097176E+03  0.86448533761E+02 -0.28352474237E+03  0.74165556989E+03  0.88820523792E+02 0.  0.
          1    1    3    3  502    0  0.10777270983E+03 -0.10510208504E+02  0.59669840643E+02  0.12363620565E+03  0.00000000000E+00 0. -1.
         -2    1    3    3    0  502  0.32525149089E+03  0.90083975575E+02  0.28548830562E+03  0.44204889733E+03  0.00000000000E+00 0.  1.
         13    1    5    5    0    0  0.22689984238E+03 -0.11609589580E+03 -0.87067862985E+02  0.26933735029E+03  0.00000000000E+00 0.  1.
        -13    1    5    5    0    0  0.14096928658E+02 -0.49926405034E+02 -0.16276175804E+02  0.54371713381E+02  0.00000000000E+00 0. -1.
          1    1    6    6  503    0 -0.36394221575E+02 -0.82025121613E+00 -0.38589258340E+02  0.53050382047E+02  0.00000000000E+00 0. -1.
         -1    1    6    6    0  503 -0.63762675019E+03  0.87268784977E+02 -0.24493548403E+03  0.68860518784E+03  0.00000000000E+00 0.  1.
<mgrwt>
<rscale>  0 0.16305163E+04</rscale>
<asrwt>0</asrwt>
<pdfrwt beam="1">  1        3 0.12867388E+00 0.16305163E+04</pdfrwt>
<pdfrwt beam="2">  1       -4 0.12225685E+00 0.16305163E+04</pdfrwt>
<totfact> 0.52804760E-01</totfact>
</mgrwt>
</event>
<event>
12    5  0.5297412E-008  0.1669080E+04  0.7818608E-02  0.8779198E-01
         -2   -1    0    0    0  501 -0.00000000000E+00  0.00000000000E+00  0.17176774304E+04  0.17176774304E+04  0.00000000000E+00 0.  1.
          1   -1    0    0  501    0  0.00000000000E+00 -0.00000000000E+00 -0.40546459674E+03  0.40546459674E+03  0.00000000000E+00 0. -1.
        -24    2    1    2    0    0 -0.32849797135E+02 -0.17867297898E+03 -0.24893627572E+03  0.31842350129E+03  0.80131855181E+02 0.  0.
        254    2    1    2    0    0  0.32849797135E+02  0.17867297898E+03  0.15611491094E+04  0.18047185259E+04  0.88702833849E+03 0.  0.
         23    2    4    4    0    0  0.26804935215E+03  0.17544291620E+03  0.15102201653E+04  0.15464886651E+04  0.90728009768E+02 0.  0.
         23    2    4    4    0    0 -0.23519955502E+03  0.32300627794E+01  0.50928944132E+02  0.25822986075E+03  0.93592946575E+02 0.  0.
          1    1    3    3  502    0 -0.21477305279E+02 -0.10851946512E+03 -0.21007772533E+03  0.23742451354E+03  0.00000000000E+00 0. -1.
         -2    1    3    3    0  502 -0.11372491856E+02 -0.70153513852E+02 -0.38858550391E+02  0.80998987742E+02  0.00000000000E+00 0.  1.
         13    1    5    5    0    0  0.13836148302E+03  0.98515545976E+02  0.10048136252E+04  0.10190680223E+04  0.00000000000E+00 0.  1.
        -13    1    5    5    0    0  0.12968786914E+03  0.76927370221E+02  0.50540654009E+03  0.52742064280E+03  0.00000000000E+00 0. -1.
          4    1    6    6  503    0 -0.20099412019E+03 -0.32557601416E+02  0.42754327828E+02  0.20805423887E+03  0.00000000000E+00 0. -1.
         -4    1    6    6    0  503 -0.34205434824E+02  0.35787664195E+02  0.81746163041E+01  0.50175621887E+02  0.00000000000E+00 0.  1.
<mgrwt>
<rscale>  0 0.16690804E+04</rscale>
<asrwt>0</asrwt>
<pdfrwt beam="1">  1        1 0.62379170E-01 0.16690804E+04</pdfrwt>
<pdfrwt beam="2">  1       -2 0.26425806E+00 0.16690804E+04</pdfrwt>
<totfact> 0.25845326E+00</totfact>
</mgrwt>
</event>
<event>
12    5  0.5297412E-008  0.1233052E+04  0.7818608E-02  0.9084408E-01
         -4   -1    0    0    0  501 -0.00000000000E+00  0.00000000000E+00  0.24886611044E+03  0.24886611044E+03  0.00000000000E+00 0.  1.
          1   -1    0    0  501    0  0.00000000000E+00 -0.00000000000E+00 -0.15273456225E+04  0.15273456225E+04  0.00000000000E+00 0. -1.
        -24    2    1    2    0    0 -0.17710716639E+02 -0.19546178525E+03 -0.59671691512E+01  0.20904718931E+03  0.71736610398E+02 0.  0.
        254    2    1    2    0    0  0.17710716639E+02  0.19546178525E+03 -0.12725123429E+04  0.15671645436E+04  0.89341931083E+03 0.  0.
         23    2    4    4    0    0  0.43816918293E+03  0.63675699557E+02 -0.76774637851E+03  0.89095952545E+03  0.91255392664E+02 0.  0.
         23    2    4    4    0    0 -0.42045846629E+03  0.13178608570E+03 -0.50476596440E+03  0.67620501818E+03  0.91168270436E+02 0.  0.
          3    1    3    3  502    0 -0.28713873604E+02 -0.13049382640E+03 -0.33311849785E+02  0.13770549954E+03  0.00000000000E+00 0. -1.
         -4    1    3    3    0  502  0.11003156965E+02 -0.64967958852E+02  0.27344680634E+02  0.71341689772E+02  0.00000000000E+00 0.  1.
         13    1    5    5    0    0  0.36330232360E+02  0.18717579535E+02 -0.12589969667E+03  0.13236679035E+03  0.00000000000E+00 0.  1.
        -13    1    5    5    0    0  0.40183895057E+03  0.44958120022E+02 -0.64184668184E+03  0.75859273510E+03  0.00000000000E+00 0. -1.
          3    1    6    6  503    0 -0.38518854201E+03  0.13367588508E+03 -0.42491258774E+03  0.58888892193E+03  0.00000000000E+00 0. -1.
         -3    1    6    6    0  503 -0.35269924281E+02 -0.18897993841E+01 -0.79853376666E+02  0.87316096256E+02  0.00000000000E+00 0.  1.
<mgrwt>
<rscale>  0 0.12330524E+04</rscale>
<asrwt>0</asrwt>
<pdfrwt beam="1">  1        1 0.23497625E+00 0.12330524E+04</pdfrwt>
<pdfrwt beam="2">  1       -4 0.38287095E-01 0.12330524E+04</pdfrwt>
<totfact> 0.20288695E+01</totfact>
</mgrwt>
</event>
<event>
12    5  0.5297412E-008  0.1208076E+04  0.7818608E-02  0.9105817E-01
         -2   -1    0    0    0  501 -0.00000000000E+00  0.00000000000E+00  0.23791951957E+03  0.23791951957E+03  0.00000000000E+00 0.  1.
          1   -1    0    0  501    0  0.00000000000E+00 -0.00000000000E+00 -0.15335505830E+04  0.15335505830E+04  0.00000000000E+00 0. -1.
        -24    2    1    2    0    0  0.43965004300E+02  0.16457970567E+03 -0.86128535297E+03  0.88180511242E+03  0.82148621003E+02 0.  0.
        254    2    1    2    0    0 -0.43965004300E+02 -0.16457970567E+03 -0.43434571046E+03  0.88966499014E+03  0.75751448657E+03 0.  0.
         23    2    4    4    0    0  0.14599985548E+03 -0.37201703700E+03 -0.61102346605E+02  0.41369046684E+03  0.87713579182E+02 0.  0.
         23    2    4    4    0    0 -0.18996485978E+03  0.20743733133E+03 -0.37324336386E+03  0.47597452330E+03  0.90134587065E+02 0.  0.
          1    1    3    3  502    0  0.43389798376E+02  0.16318494196E+03 -0.86309033397E+03  0.87945262776E+03  0.00000000000E+00 0. -1.
         -2    1    3    3    0  502  0.57520592461E+00  0.13947637159E+01  0.18049809992E+01  0.23524846623E+01  0.00000000000E+00 0.  1.
         13    1    5    5    0    0  0.48213575528E+02 -0.23662841886E+03 -0.47591745807E+02  0.24613518998E+03  0.00000000000E+00 0. -1.
        -13    1    5    5    0    0  0.97786279954E+02 -0.13538861814E+03 -0.13510600799E+02  0.16755527686E+03  0.00000000000E+00 0.  1.
          4    1    6    6  503    0 -0.96294974757E+02  0.13700714448E+03 -0.15465371293E+03  0.22795054447E+03  0.00000000000E+00 0. -1.
         -4    1    6    6    0  503 -0.93669885026E+02  0.70430186847E+02 -0.21858965093E+03  0.24802397883E+03  0.00000000000E+00 0.  1.
<mgrwt>
<rscale>  0 0.12080755E+04</rscale>
<asrwt>0</asrwt>
<pdfrwt beam="1">  1        1 0.23593086E+00 0.12080755E+04</pdfrwt>
<pdfrwt beam="2">  1       -2 0.36603002E-01 0.12080755E+04</pdfrwt>
<totfact> 0.37828058E+01</totfact>
</mgrwt>
</event>
<event>
12    5  0.5297412E-008  0.2714936E+04  0.7818608E-02  0.8330175E-01
          1   -1    0    0  501    0  0.00000000000E+00  0.00000000000E+00  0.13995401848E+04  0.13995401848E+04  0.00000000000E+00 0. -1.
         -2   -1    0    0    0  501 -0.00000000000E+00 -0.00000000000E+00 -0.13166607231E+04  0.13166607231E+04  0.00000000000E+00 0.  1.
        -24    2    1    2    0    0  0.40820473902E+03 -0.10692987379E+04 -0.39459795261E+03  0.12139883335E+04  0.89605969743E+02 0.  0.
        254    2    1    2    0    0 -0.40820473902E+03  0.10692987379E+04  0.47747741433E+03  0.15022125744E+04  0.84771872556E+03 0.  0.
         23    2    4    4    0    0 -0.13903980195E+03  0.28549130957E+03  0.57492542838E+03  0.66265131208E+03  0.87921321814E+02 0.  0.
         23    2    4    4    0    0 -0.26916493707E+03  0.78380742830E+03 -0.97448014052E+02  0.83956126231E+03  0.92537288257E+02 0.  0.
          3    1    3    3  502    0  0.11182848669E+03 -0.37140774158E+03 -0.16744717646E+03  0.42247825725E+03  0.00000000000E+00 0. -1.
         -4    1    3    3    0  502  0.29637625234E+03 -0.69789099629E+03 -0.22715077615E+03  0.79151007622E+03  0.00000000000E+00 0.  1.
         13    1    5    5    0    0 -0.81771670446E+02  0.18879501176E+03  0.44885523823E+03  0.49376227826E+03  0.00000000000E+00 0. -1.
        -13    1    5    5    0    0 -0.57268131506E+02  0.96696297810E+02  0.12607019016E+03  0.16888903381E+03  0.00000000000E+00 0.  1.
          4    1    6    6  503    0 -0.16854354270E+03  0.58477932427E+03 -0.98730702670E+02  0.61653997075E+03  0.00000000000E+00 0. -1.
         -4    1    6    6    0  503 -0.10062139437E+03  0.19902810403E+03  0.12826886179E+01  0.22302129156E+03  0.00000000000E+00 0.  1.
<mgrwt>
<rscale>  0 0.27149362E+04</rscale>
<asrwt>0</asrwt>
<pdfrwt beam="1">  1        1 0.21531387E+00 0.27149362E+04</pdfrwt>
<pdfrwt beam="2">  1       -2 0.20256319E+00 0.27149362E+04</pdfrwt>
<totfact> 0.75324211E-01</totfact>
</mgrwt>
</event>
<event>
12    5  0.5297412E-008  0.2128310E+04  0.7818608E-02  0.8548874E-01
          1   -1    0    0  501    0  0.00000000000E+00  0.00000000000E+00  0.12373177035E+04  0.12373177035E+04  0.00000000000E+00 0. -1.
         -2   -1    0    0    0  501 -0.00000000000E+00 -0.00000000000E+00 -0.91522660732E+03  0.91522660732E+03  0.00000000000E+00 0.  1.
        -24    2    1    2    0    0 -0.56482854516E+03  0.57483893955E+03  0.47111755564E+03  0.93653572982E+03  0.75341423877E+02 0.  0.
        254    2    1    2    0    0  0.56482854516E+03 -0.57483893955E+03 -0.14902645944E+03  0.12160085810E+04  0.89833005720E+03 0.  0.
         23    2    4    4    0    0  0.64176620123E+03 -0.60472719088E+03  0.14424097239E+03  0.89796711244E+03  0.89334452921E+02 0.  0.
         23    2    4    4    0    0 -0.76937656075E+02  0.29888251332E+02 -0.29326743183E+03  0.31804146858E+03  0.91279125081E+02 0.  0.
          3    1    3    3  502    0 -0.46390616675E+03  0.46357656403E+03  0.34877401298E+03  0.74280244642E+03  0.00000000000E+00 0. -1.
         -4    1    3    3    0  502 -0.10092237840E+03  0.11126237552E+03  0.12234354265E+03  0.19373328340E+03  0.00000000000E+00 0.  1.
         13    1    5    5    0    0  0.18006401982E+03 -0.21375175036E+03  0.72399758037E+02  0.28871194465E+03  0.00000000000E+00 0. -1.
        -13    1    5    5    0    0  0.46170218141E+03 -0.39097544052E+03  0.71841214349E+02  0.60925516780E+03  0.00000000000E+00 0.  1.
          2    1    6    6  503    0 -0.26442119711E+02  0.38983798611E+02 -0.23804967480E+03  0.24266555158E+03  0.00000000000E+00 0. -1.
         -2    1    6    6    0  503 -0.50495536364E+02 -0.90955472787E+01 -0.55217757024E+02  0.75375917002E+02  0.00000000000E+00 0.  1.
<mgrwt>
<rscale>  0 0.21283102E+04</rscale>
<asrwt>0</asrwt>
<pdfrwt beam="1">  1        1 0.19035657E+00 0.21283102E+04</pdfrwt>
<pdfrwt beam="2">  1       -2 0.14080409E+00 0.21283102E+04</pdfrwt>
<totfact> 0.28586290E+00</totfact>
</mgrwt>
</event>
<event>
12    5  0.5297412E-008  0.2347203E+04  0.7818608E-02  0.8459539E-01
         -2   -1    0    0    0  501 -0.00000000000E+00  0.00000000000E+00  0.44374973287E+03  0.44374973287E+03  0.00000000000E+00 0.  1.
          1   -1    0    0  501    0  0.00000000000E+00 -0.00000000000E+00 -0.31038669124E+04  0.31038669124E+04  0.00000000000E+00 0. -1.
        -24    2    1    2    0    0 -0.19483735098E+03  0.74111997229E+03 -0.16212413723E+03  0.78750410244E+03  0.81596990313E+02 0.  0.
        254    2    1    2    0    0  0.19483735098E+03 -0.74111997229E+03 -0.24979930423E+04  0.27601125428E+04  0.88939957446E+03 0.  0.
         23    2    4    4    0    0 -0.28085829684E+03 -0.40525756828E+02 -0.43053592568E+03  0.52412755675E+03  0.93940367135E+02 0.  0.
         23    2    4    4    0    0  0.47569564783E+03 -0.70059421546E+03 -0.20674571166E+04  0.22359849860E+04  0.90173858738E+02 0.  0.
          3    1    3    3  502    0 -0.69883135703E+01  0.13279022274E+03 -0.13059495148E+02  0.13361373506E+03  0.00000000000E+00 0. -1.
         -4    1    3    3    0  502 -0.18784903741E+03  0.60832974955E+03 -0.14906464208E+03  0.65389036738E+03  0.00000000000E+00 0.  1.
         13    1    5    5    0    0 -0.16266271602E+03 -0.69696395089E+02 -0.26454342475E+03  0.31827656252E+03  0.00000000000E+00 0. -1.
        -13    1    5    5    0    0 -0.11819558082E+03  0.29170638261E+02 -0.16599250093E+03  0.20585099423E+03  0.00000000000E+00 0.  1.
          4    1    6    6  503    0  0.35683926883E+03 -0.55322065350E+03 -0.15104208615E+04  0.16476524313E+04  0.00000000000E+00 0.  1.
         -4    1    6    6    0  503  0.11885637899E+03 -0.14737356196E+03 -0.55703625505E+03  0.58833255479E+03  0.00000000000E+00 0. -1.
<mgrwt>
<rscale>  0 0.23472027E+04</rscale>
<asrwt>0</asrwt>
<pdfrwt beam="1">  1        1 0.47751797E+00 0.23472027E+04</pdfrwt>
<pdfrwt beam="2">  1       -2 0.68269192E-01 0.23472027E+04</pdfrwt>
<totfact> 0.77937932E-01</totfact>
</mgrwt>
</event>
<event>
12    5  0.5297412E-008  0.1304023E+04  0.7818608E-02  0.9026381E-01
          1   -1    0    0  501    0  0.00000000000E+00  0.00000000000E+00  0.84588444545E+03  0.84588444545E+03  0.00000000000E+00 0. -1.
         -2   -1    0    0    0  501 -0.00000000000E+00 -0.00000000000E+00 -0.50257315166E+03  0.50257315166E+03  0.00000000000E+00 0.  1.
        -24    2    1    2    0    0 -0.19641365258E+03 -0.15687192903E+03  0.31089151062E+03  0.40761543124E+03  0.79433515427E+02 0.  0.
        254    2    1    2    0    0  0.19641365258E+03  0.15687192903E+03  0.32419783165E+02  0.94084216587E+03  0.90606060156E+03 0.  0.
         23    2    4    4    0    0  0.44678617075E+03  0.31491815277E+03 -0.15592060061E+03  0.57590039152E+03  0.92513252811E+02 0.  0.
         23    2    4    4    0    0 -0.25037251817E+03 -0.15804622374E+03  0.18834038377E+03  0.36494177435E+03  0.10022670208E+03 0.  0.
          3    1    3    3  502    0 -0.11773829675E+03 -0.94814401239E+02  0.12385630089E+03  0.19542891412E+03  0.00000000000E+00 0. -1.
         -4    1    3    3    0  502 -0.78675355837E+02 -0.62057527791E+02  0.18703520972E+03  0.21218651712E+03  0.00000000000E+00 0.  1.
         13    1    5    5    0    0  0.12026060952E+03  0.13009120591E+03 -0.73168314297E+02  0.19167665031E+03  0.00000000000E+00 0.  1.
        -13    1    5    5    0    0  0.32652556123E+03  0.18482694686E+03 -0.82752286312E+02  0.38422374121E+03  0.00000000000E+00 0. -1.
          3    1    6    6  503    0 -0.23564391696E+03 -0.11354130982E+03  0.17949671494E+03  0.31723611918E+03  0.00000000000E+00 0. -1.
         -3    1    6    6    0  503 -0.14728601205E+02 -0.44504913918E+02  0.88436688312E+01  0.47705655165E+02  0.00000000000E+00 0.  1.
<mgrwt>
<rscale>  0 0.13040227E+04</rscale>
<asrwt>0</asrwt>
<pdfrwt beam="1">  1        1 0.13013607E+00 0.13040227E+04</pdfrwt>
<pdfrwt beam="2">  1       -2 0.77318946E-01 0.13040227E+04</pdfrwt>
<totfact> 0.25931835E+01</totfact>
</mgrwt>
</event>
<event>
12    5  0.5297412E-008  0.1544248E+04  0.7818608E-02  0.8855550E-01
          1   -1    0    0  501    0  0.00000000000E+00  0.00000000000E+00  0.10508627080E+04  0.10508627080E+04  0.00000000000E+00 0. -1.
         -2   -1    0    0    0  501 -0.00000000000E+00 -0.00000000000E+00 -0.56732003244E+03  0.56732003244E+03  0.00000000000E+00 0.  1.
        -24    2    1    2    0    0 -0.27933326665E+03 -0.19046837648E+03 -0.24507161761E+03  0.42514105929E+03  0.79872061684E+02 0.  0.
        254    2    1    2    0    0  0.27933326665E+03  0.19046837648E+03  0.72861429313E+03  0.11930416811E+04  0.88213626407E+03 0.  0.
         23    2    4    4    0    0  0.51749830361E+03 -0.10674997628E+03  0.31023200622E+03  0.61955326028E+03  0.91664022184E+02 0.  0.
         23    2    4    4    0    0 -0.23816503696E+03  0.29721835277E+03  0.41838228691E+03  0.57348842082E+03  0.93722445403E+02 0.  0.
          3    1    3    3  502    0 -0.12177319638E+02 -0.31180802766E+02 -0.41883852247E+02  0.53617036973E+02  0.00000000000E+00 0. -1.
         -2    1    3    3    0  502 -0.26715594701E+03 -0.15928757372E+03 -0.20318776536E+03  0.37152402232E+03  0.00000000000E+00 0.  1.
         13    1    5    5    0    0  0.43253249583E+03 -0.11469010625E+03  0.23323649460E+03  0.50461613414E+03  0.00000000000E+00 0.  1.
        -13    1    5    5    0    0  0.84965807779E+02  0.79401299672E+01  0.76995511618E+02  0.11493712614E+03  0.00000000000E+00 0. -1.
          4    1    6    6  503    0 -0.73780563209E+02  0.49234157576E+02  0.14185901954E+03  0.16730676975E+03  0.00000000000E+00 0. -1.
         -4    1    6    6    0  503 -0.16438447375E+03  0.24798419519E+03  0.27652326737E+03  0.40618165107E+03  0.00000000000E+00 0.  1.
<mgrwt>
<rscale>  0 0.15442480E+04</rscale>
<asrwt>0</asrwt>
<pdfrwt beam="1">  1        1 0.16167119E+00 0.15442480E+04</pdfrwt>
<pdfrwt beam="2">  1       -2 0.87280005E-01 0.15442480E+04</pdfrwt>
<totfact> 0.13245081E+01</totfact>
</mgrwt>
</event>
<event>
12    5  0.5790469E-008  0.1680989E+04  0.7818608E-02  0.8772282E-01
          1   -1    0    0  501    0  0.00000000000E+00  0.00000000000E+00  0.20396905537E+04  0.20396905537E+04  0.00000000000E+00 0. -1.
         -2   -1    0    0    0  501 -0.00000000000E+00 -0.00000000000E+00 -0.34634230144E+03  0.34634230144E+03  0.00000000000E+00 0.  1.
        -24    2    1    2    0    0 -0.27218759697E+03 -0.59144310495E+02 -0.10368649819E+03  0.30793197705E+03  0.80542381228E+02 0.  0.
        254    2    1    2    0    0  0.27218759697E+03  0.59144310495E+02  0.17970347505E+04  0.20781008781E+04  0.10057759332E+04 0.  0.
         23    2    4    4    0    0 -0.13124449885E+03 -0.39677815526E+03  0.76388874548E+03  0.87544177585E+03  0.90632579472E+02 0.  0.
         23    2    4    4    0    0  0.40343209582E+03  0.45592246575E+03  0.10331460050E+04  0.12026591023E+04  0.91517746402E+02 0.  0.
          1    1    3    3  502    0 -0.87985808621E+02 -0.11765818082E+02  0.49295886566E+01  0.88905780679E+02  0.00000000000E+00 0. -1.
         -2    1    3    3    0  502 -0.18420178835E+03 -0.47378492413E+02 -0.10861608685E+03  0.21902619637E+03  0.00000000000E+00 0.  1.
         13    1    5    5    0    0 -0.11111441427E+03 -0.38063830989E+03  0.74322108016E+03  0.84238323227E+03  0.00000000000E+00 0. -1.
        -13    1    5    5    0    0 -0.20130084581E+02 -0.16139845373E+02  0.20667665317E+02  0.33058543579E+02  0.00000000000E+00 0.  1.
          3    1    6    6  503    0  0.37561481226E+03  0.44127103806E+03  0.93914529116E+03  0.11035399830E+04  0.00000000000E+00 0. -1.
         -3    1    6    6    0  503  0.27817283562E+02  0.14651427695E+02  0.94000713833E+02  0.99119119242E+02  0.00000000000E+00 0.  1.
<mgrwt>
<rscale>  0 0.16809891E+04</rscale>
<asrwt>0</asrwt>
<pdfrwt beam="1">  1        1 0.31379854E+00 0.16809891E+04</pdfrwt>
<pdfrwt beam="2">  1       -2 0.53283432E-01 0.16809891E+04</pdfrwt>
<totfact> 0.77850542E+00</totfact>
</mgrwt>
</event>
<event>
12    5  0.5297412E-008  0.2399671E+04  0.7818608E-02  0.8439627E-01
         -2   -1    0    0    0  501 -0.00000000000E+00  0.00000000000E+00  0.66856458378E+03  0.66856458378E+03  0.00000000000E+00 0.  1.
          1   -1    0    0  501    0  0.00000000000E+00 -0.00000000000E+00 -0.21532781241E+04  0.21532781241E+04  0.00000000000E+00 0. -1.
        -24    2    1    2    0    0  0.28058755826E+03 -0.74759874269E+02 -0.18013994299E+04  0.18265710836E+04  0.83687517948E+02 0.  0.
        254    2    1    2    0    0 -0.28058755826E+03  0.74759874269E+02  0.31668588959E+03  0.99527162429E+03  0.89775121097E+03 0.  0.
         23    2    4    4    0    0 -0.56125457009E+03  0.16494805827E+03  0.34635626793E+03  0.68591204206E+03  0.91093966467E+02 0.  0.
         23    2    4    4    0    0  0.28066701183E+03 -0.90188183996E+02 -0.29670378345E+02  0.30935958224E+03  0.88967070915E+02 0.  0.
          3    1    3    3  502    0  0.85662950874E+02  0.16052443531E+02 -0.52127365051E+03  0.52850926274E+03  0.00000000000E+00 0. -1.
         -4    1    3    3    0  502  0.19492460739E+03 -0.90812317800E+02 -0.12801257794E+04  0.12980618208E+04  0.00000000000E+00 0.  1.
         13    1    5    5    0    0 -0.19917377017E+02  0.19030938456E+02  0.12974770147E+01  0.27578288061E+02  0.00000000000E+00 0.  1.
        -13    1    5    5    0    0 -0.54133719308E+03  0.14591711981E+03  0.34505879092E+03  0.65833375400E+03  0.00000000000E+00 0. -1.
          1    1    6    6  503    0  0.18479674011E+03 -0.16480395286E+02 -0.31535240587E+01  0.18555695433E+03  0.00000000000E+00 0. -1.
         -1    1    6    6    0  503  0.95870271718E+02 -0.73707788710E+02 -0.26516854286E+02  0.12380262791E+03  0.00000000000E+00 0.  1.
<mgrwt>
<rscale>  0 0.23996712E+04</rscale>
<asrwt>0</asrwt>
<pdfrwt beam="1">  1        1 0.33127357E+00 0.23996712E+04</pdfrwt>
<pdfrwt beam="2">  1       -2 0.10285609E+00 0.23996712E+04</pdfrwt>
<totfact> 0.14257642E+00</totfact>
</mgrwt>
</event>
<event>
12    5  0.5297412E-008  0.1284983E+04  0.7818608E-02  0.9041559E-01
         -4   -1    0    0    0  501 -0.00000000000E+00  0.00000000000E+00  0.52013308535E+03  0.52013308535E+03  0.00000000000E+00 0.  1.
          3   -1    0    0  501    0  0.00000000000E+00 -0.00000000000E+00 -0.79363465398E+03  0.79363465398E+03  0.00000000000E+00 0. -1.
        -24    2    1    2    0    0 -0.27843211686E+02  0.17285769664E+03  0.20210426966E+03  0.27892081550E+03  0.79345181173E+02 0.  0.
        254    2    1    2    0    0  0.27843211686E+02 -0.17285769664E+03 -0.47560583829E+03  0.10348469238E+04  0.90224842179E+03 0.  0.
         23    2    4    4    0    0  0.29111679376E+03  0.20282178864E+03 -0.43017283127E+03  0.56485361717E+03  0.90140326739E+02 0.  0.
         23    2    4    4    0    0 -0.26327358208E+03 -0.37567948528E+03 -0.45433007018E+02  0.46999330666E+03  0.91550507911E+02 0.  0.
          1    1    3    3  502    0 -0.34811983935E+02  0.10409254867E+03  0.71024975080E+02  0.13073515212E+03  0.00000000000E+00 0. -1.
         -2    1    3    3    0  502  0.69687722489E+01  0.68765147969E+02  0.13107929458E+03  0.14818566338E+03  0.00000000000E+00 0.  1.
         13    1    5    5    0    0  0.39989589034E+02  0.47605790593E+01 -0.86305615396E+02  0.95239117977E+02  0.00000000000E+00 0.  1.
        -13    1    5    5    0    0  0.25112720473E+03  0.19806120958E+03 -0.34386721587E+03  0.46961449919E+03  0.00000000000E+00 0. -1.
          4    1    6    6  503    0 -0.22912709273E+03 -0.31709513219E+03 -0.70847954553E+02  0.39757764041E+03  0.00000000000E+00 0. -1.
         -4    1    6    6    0  503 -0.34146489343E+02 -0.58584353090E+02  0.25414947535E+02  0.72415666259E+02  0.00000000000E+00 0.  1.
<mgrwt>
<rscale>  0 0.12849835E+04</rscale>
<asrwt>0</asrwt>
<pdfrwt beam="1">  1        3 0.12209764E+00 0.12849835E+04</pdfrwt>
<pdfrwt beam="2">  1       -4 0.80020475E-01 0.12849835E+04</pdfrwt>
<totfact> 0.16912713E+00</totfact>
</mgrwt>
</event>
<event>
12    5  0.5297412E-008  0.1156506E+04  0.7818608E-02  0.9151802E-01
         -2   -1    0    0    0  501 -0.00000000000E+00  0.00000000000E+00  0.17468037004E+03  0.17468037004E+03  0.00000000000E+00 0.  1.
          1   -1    0    0  501    0  0.00000000000E+00 -0.00000000000E+00 -0.19142200102E+04  0.19142200102E+04  0.00000000000E+00 0. -1.
        -24    2    1    2    0    0 -0.90288836016E+02  0.98624670929E+02 -0.48365566697E+02  0.16316804584E+03  0.80035514104E+02 0.  0.
        254    2    1    2    0    0  0.90288836016E+02 -0.98624670929E+02 -0.16911740735E+04  0.19257323344E+04  0.91131573965E+03 0.  0.
         23    2    4    4    0    0  0.24635282268E+03  0.10685597117E+03 -0.84679308920E+02  0.29614807763E+03  0.91788815801E+02 0.  0.
         23    2    4    4    0    0 -0.15606398667E+03 -0.20548064210E+03 -0.16064947645E+04  0.16295842568E+04  0.90228372338E+02 0.  0.
          1    1    3    3  502    0 -0.22052108710E+02 -0.10187849787E+02 -0.20397611807E+02  0.31719873097E+02  0.00000000000E+00 0. -1.
         -2    1    3    3    0  502 -0.68236727306E+02  0.10881252072E+03 -0.27967954890E+02  0.13144817275E+03  0.00000000000E+00 0.  1.
         13    1    5    5    0    0  0.24714409142E+03  0.11453133849E+03 -0.72748653057E+02  0.28193970267E+03  0.00000000000E+00 0.  1.
        -13    1    5    5    0    0 -0.79126873470E+00 -0.76753673215E+01 -0.11930655862E+02  0.14208374961E+02  0.00000000000E+00 0. -1.
          3    1    6    6  503    0 -0.16500194732E+02  0.73536415208E+01 -0.14109356600E+03  0.14224530515E+03  0.00000000000E+00 0. -1.
         -3    1    6    6    0  503 -0.13956379193E+03 -0.21283428362E+03 -0.14654011985E+04  0.14873389516E+04  0.00000000000E+00 0.  1.
<mgrwt>
<rscale>  0 0.11565062E+04</rscale>
<asrwt>0</asrwt>
<pdfrwt beam="1">  1        1 0.29449538E+00 0.11565062E+04</pdfrwt>
<pdfrwt beam="2">  1       -2 0.26873904E-01 0.11565062E+04</pdfrwt>
<totfact> 0.37395861E+01</totfact>
</mgrwt>
</event>
<event>
12    5  0.5297412E-008  0.1860319E+04  0.7818608E-02  0.8674864E-01
         -2   -1    0    0    0  501 -0.00000000000E+00  0.00000000000E+00  0.63051732621E+03  0.63051732621E+03  0.00000000000E+00 0.  1.
          1   -1    0    0  501    0  0.00000000000E+00 -0.00000000000E+00 -0.13722017263E+04  0.13722017263E+04  0.00000000000E+00 0. -1.
        -24    2    1    2    0    0  0.43078685108E+03 -0.37766372911E+03 -0.75242917387E+03  0.94913261790E+03  0.80596906405E+02 0.  0.
        254    2    1    2    0    0 -0.43078685108E+03  0.37766372911E+03  0.10744773828E+02  0.10535864346E+04  0.88415028224E+03 0.  0.
         23    2    4    4    0    0  0.19435065480E+03 -0.77450772166E+02 -0.12970247326E+03  0.26352784293E+03  0.94092472072E+02 0.  0.
         23    2    4    4    0    0 -0.62513750588E+03  0.45511450128E+03  0.14044724708E+03  0.79005859163E+03  0.80876686780E+02 0.  0.
          1    1    3    3  502    0  0.34671954306E+03 -0.33765967636E+03 -0.65462134716E+03  0.81409926098E+03  0.00000000000E+00 0. -1.
         -2    1    3    3    0  502  0.84067308016E+02 -0.40004052756E+02 -0.97807826705E+02  0.13503335691E+03  0.00000000000E+00 0.  1.
         13    1    5    5    0    0  0.20332949960E+03 -0.74273823494E+02 -0.11272752575E+03  0.24406347807E+03  0.00000000000E+00 0. -1.
        -13    1    5    5    0    0 -0.89788447997E+01 -0.31769486723E+01 -0.16974947502E+02  0.19464364862E+02  0.00000000000E+00 0.  1.
          1    1    6    6  503    0 -0.57026088540E+03  0.41030125164E+03  0.15059215754E+03  0.71848632028E+03  0.00000000000E+00 0. -1.
         -1    1    6    6    0  503 -0.54876620483E+02  0.44813249639E+02 -0.10144910455E+02  0.71572271355E+02  0.00000000000E+00 0.  1.
<mgrwt>
<rscale>  0 0.18603193E+04</rscale>
<asrwt>0</asrwt>
<pdfrwt beam="1">  1        1 0.21110795E+00 0.18603193E+04</pdfrwt>
<pdfrwt beam="2">  1       -2 0.97002667E-01 0.18603193E+04</pdfrwt>
<totfact> 0.58759591E+00</totfact>
</mgrwt>
</event>
<event>
12    5  0.5297412E-008  0.1930182E+04  0.7818608E-02  0.8639977E-01
          1   -1    0    0  501    0  0.00000000000E+00  0.00000000000E+00  0.15958860102E+04  0.15958860102E+04  0.00000000000E+00 0. -1.
         -2   -1    0    0    0  501 -0.00000000000E+00 -0.00000000000E+00 -0.58362581935E+03  0.58362581935E+03  0.00000000000E+00 0.  1.
        -24    2    1    2    0    0  0.94871052632E+02  0.63174260929E+03  0.84973050746E+03  0.10662145017E+04  0.81683457578E+02 0.  0.
        254    2    1    2    0    0 -0.94871052632E+02 -0.63174260929E+03  0.16252968334E+03  0.11132973278E+04  0.89717099886E+03 0.  0.
         23    2    4    4    0    0 -0.45524677709E+03 -0.17286204159E+03 -0.20616362556E+02  0.49599090645E+03  0.91929491476E+02 0.  0.
         23    2    4    4    0    0  0.36037572446E+03 -0.45888056770E+03  0.18314604589E+03  0.61730642139E+03  0.84158811613E+02 0.  0.
          1    1    3    3  502    0  0.71555873380E+02  0.60176077923E+03  0.79652832885E+03  0.10008464703E+04  0.00000000000E+00 0. -1.
         -2    1    3    3    0  502  0.23315179252E+02  0.29981830058E+02  0.53202178619E+02  0.65368031384E+02  0.00000000000E+00 0.  1.
         13    1    5    5    0    0 -0.33176369623E+03 -0.81187431300E+02 -0.20988303497E+02  0.34219739628E+03  0.00000000000E+00 0.  1.
        -13    1    5    5    0    0 -0.12348308086E+03 -0.91674610291E+02  0.37194094104E+00  0.15379351017E+03  0.00000000000E+00 0. -1.
          3    1    6    6  503    0  0.28316956422E+03 -0.31746199631E+03  0.16016500657E+03  0.45455467276E+03  0.00000000000E+00 0. -1.
         -3    1    6    6    0  503  0.77206160239E+02 -0.14141857139E+03  0.22981039322E+02  0.16275174863E+03  0.00000000000E+00 0.  1.
<mgrwt>
<rscale>  0 0.19301816E+04</rscale>
<asrwt>0</asrwt>
<pdfrwt beam="1">  1        1 0.24552092E+00 0.19301816E+04</pdfrwt>
<pdfrwt beam="2">  1       -2 0.89788588E-01 0.19301816E+04</pdfrwt>
<totfact> 0.48886673E+00</totfact>
</mgrwt>
</event>
<event>
12    5  0.5297412E-008  0.1426789E+04  0.7818608E-02  0.8934653E-01
         -2   -1    0    0    0  501 -0.00000000000E+00  0.00000000000E+00  0.13450180105E+04  0.13450180105E+04  0.00000000000E+00 0.  1.
          1   -1    0    0  501    0  0.00000000000E+00 -0.00000000000E+00 -0.37838258022E+03  0.37838258022E+03  0.00000000000E+00 0. -1.
        -24    2    1    2    0    0  0.12053610949E+03 -0.73365559603E+02 -0.18996032086E+03  0.24956951885E+03  0.79300455284E+02 0.  0.
        254    2    1    2    0    0 -0.12053610949E+03  0.73365559603E+02  0.11565957511E+04  0.14738310718E+04  0.90252581006E+03 0.  0.
         23    2    4    4    0    0 -0.43017738410E+03 -0.20300628585E+03  0.54815211650E+03  0.73159341703E+03  0.92163176708E+02 0.  0.
         23    2    4    4    0    0  0.30964127461E+03  0.27637184545E+03  0.60844363462E+03  0.74223765481E+03  0.91945439362E+02 0.  0.
          3    1    3    3  502    0  0.52546772124E+02  0.80200175095E+01 -0.85750185428E+02  0.10088894014E+03  0.00000000000E+00 0. -1.
         -4    1    3    3    0  502  0.67989337367E+02 -0.81385577112E+02 -0.10421013543E+03  0.14868057871E+03  0.00000000000E+00 0.  1.
         13    1    5    5    0    0 -0.15309990157E+03 -0.58019712092E+02  0.25448125446E+03  0.30259969551E+03  0.00000000000E+00 0.  1.
        -13    1    5    5    0    0 -0.27707748253E+03 -0.14498657375E+03  0.29367086203E+03  0.42899372152E+03  0.00000000000E+00 0. -1.
          2    1    6    6  503    0  0.13082635377E+03  0.11449017817E+03  0.33635705375E+03  0.37862858232E+03  0.00000000000E+00 0. -1.
         -2    1    6    6    0  503  0.17881492084E+03  0.16188166728E+03  0.27208658086E+03  0.36360907250E+03  0.00000000000E+00 0.  1.
<mgrwt>
<rscale>  0 0.14267885E+04</rscale>
<asrwt>0</asrwt>
<pdfrwt beam="1">  1        1 0.58212705E-01 0.14267885E+04</pdfrwt>
<pdfrwt beam="2">  1       -2 0.20692585E+00 0.14267885E+04</pdfrwt>
<totfact> 0.65780193E+00</totfact>
</mgrwt>
</event>
<event>
12    5  0.5297412E-008  0.1921835E+04  0.7818608E-02  0.8644064E-01
          1   -1    0    0  501    0  0.00000000000E+00  0.00000000000E+00  0.17152696446E+04  0.17152696446E+04  0.00000000000E+00 0. -1.
         -2   -1    0    0    0  501 -0.00000000000E+00 -0.00000000000E+00 -0.53831895477E+03  0.53831895477E+03  0.00000000000E+00 0.  1.
        -24    2    1    2    0    0 -0.47413075506E+03  0.49469392570E+03  0.79470404562E+03  0.10525979327E+04  0.82980930057E+02 0.  0.
        254    2    1    2    0    0  0.47413075506E+03 -0.49469392570E+03  0.38224664420E+03  0.12009906667E+04  0.90925465708E+03 0.  0.
         23    2    4    4    0    0  0.33954563227E+03 -0.75360592203E+03  0.26506554381E+03  0.87335031596E+03  0.96269983762E+02 0.  0.
         23    2    4    4    0    0  0.13458512279E+03  0.25891199633E+03  0.11718110039E+03  0.32764035070E+03  0.92022888455E+02 0.  0.
          3    1    3    3  502    0 -0.19285582880E+03  0.25416158843E+03  0.39734379970E+03  0.50958176860E+03  0.00000000000E+00 0. -1.
         -4    1    3    3    0  502 -0.28127492626E+03  0.24053233727E+03  0.39736024592E+03  0.54301616408E+03  0.00000000000E+00 0.  1.
         13    1    5    5    0    0  0.64130666335E+02 -0.15307366470E+03  0.13910106418E+02  0.16654663086E+03  0.00000000000E+00 0.  1.
        -13    1    5    5    0    0  0.27541496593E+03 -0.60053225733E+03  0.25115543739E+03  0.70680368511E+03  0.00000000000E+00 0. -1.
          1    1    6    6  503    0  0.12872938018E+03  0.20262061047E+03  0.12476146634E+03  0.27053980962E+03  0.00000000000E+00 0. -1.
         -1    1    6    6    0  503  0.58557426143E+01  0.56291385862E+02 -0.75803659487E+01  0.57100541081E+02  0.00000000000E+00 0.  1.
<mgrwt>
<rscale>  0 0.19218347E+04</rscale>
<asrwt>0</asrwt>
<pdfrwt beam="1">  1        1 0.26388763E+00 0.19218347E+04</pdfrwt>
<pdfrwt beam="2">  1       -2 0.82818302E-01 0.19218347E+04</pdfrwt>
<totfact> 0.48761801E+00</totfact>
</mgrwt>
</event>
<event>
12    5  0.5297412E-008  0.1608994E+04  0.7818608E-02  0.8815041E-01
          1   -1    0    0  501    0  0.00000000000E+00  0.00000000000E+00  0.24770423528E+04  0.24770423528E+04  0.00000000000E+00 0. -1.
         -2   -1    0    0    0  501 -0.00000000000E+00 -0.00000000000E+00 -0.26128569770E+03  0.26128569770E+03  0.00000000000E+00 0.  1.
        -24    2    1    2    0    0  0.18636053528E+03 -0.16143564762E+03 -0.71749800425E+02  0.26620088912E+03  0.70165248330E+02 0.  0.
        254    2    1    2    0    0 -0.18636053528E+03  0.16143564762E+03  0.22875064556E+04  0.24721271614E+04  0.90439770041E+03 0.  0.
         23    2    4    4    0    0 -0.33826831315E+03 -0.23310615347E+03  0.61583405629E+03  0.74542504226E+03  0.87424128628E+02 0.  0.
         23    2    4    4    0    0  0.15190777787E+03  0.39454180109E+03  0.16716723993E+04  0.17267021192E+04  0.90952691042E+02 0.  0.
          3    1    3    3  502    0 -0.20317845836E+01 -0.20217467408E+02 -0.95011217281E+00  0.20341505601E+02  0.00000000000E+00 0. -1.
         -4    1    3    3    0  502  0.18839231987E+03 -0.14121818021E+03 -0.70799688252E+02  0.24585938352E+03  0.00000000000E+00 0.  1.
         13    1    5    5    0    0 -0.55530678786E+02 -0.58953262658E+02  0.72758890486E+02  0.10887148208E+03  0.00000000000E+00 0. -1.
        -13    1    5    5    0    0 -0.28273763437E+03 -0.17415289081E+03  0.54307516580E+03  0.63655356018E+03  0.00000000000E+00 0.  1.
          2    1    6    6  503    0  0.97205691933E+02  0.34426862113E+03  0.14120177023E+04  0.14566275508E+04  0.00000000000E+00 0. -1.
         -2    1    6    6    0  503  0.54702085939E+02  0.50273179961E+02  0.25965469697E+03  0.27007456839E+03  0.00000000000E+00 0.  1.
<mgrwt>
<rscale>  0 0.16089944E+04</rscale>
<asrwt>0</asrwt>
<pdfrwt beam="1">  1        1 0.38108342E+00 0.16089944E+04</pdfrwt>
<pdfrwt beam="2">  1       -2 0.40197801E-01 0.16089944E+04</pdfrwt>
<totfact> 0.69437011E+00</totfact>
</mgrwt>
</event>
<event>
12    5  0.5297412E-008  0.2235338E+04  0.7818608E-02  0.8503862E-01
         -2   -1    0    0    0  501 -0.00000000000E+00  0.00000000000E+00  0.98869084995E+03  0.98869084995E+03  0.00000000000E+00 0.  1.
          1   -1    0    0  501    0  0.00000000000E+00 -0.00000000000E+00 -0.12634729783E+04  0.12634729783E+04  0.00000000000E+00 0. -1.
        -24    2    1    2    0    0 -0.96809342312E+02  0.34392645021E+03 -0.98288710387E+03  0.10489166674E+04  0.80632897707E+02 0.  0.
        254    2    1    2    0    0  0.96809342312E+02 -0.34392645021E+03  0.70810497550E+03  0.12032471609E+04  0.90483900336E+03 0.  0.
         23    2    4    4    0    0  0.39383681504E+03 -0.39558305962E+03  0.18932850476E+03  0.59631229481E+03  0.90275557529E+02 0.  0.
         23    2    4    4    0    0 -0.29702747273E+03  0.51656609409E+02  0.51877647073E+03  0.60693486609E+03  0.91362904069E+02 0.  0.
          1    1    3    3  502    0 -0.73031737014E+02  0.33119505760E+03 -0.91808765744E+03  0.97872812748E+03  0.00000000000E+00 0. -1.
         -4    1    3    3    0  502 -0.23777605298E+02  0.12731392610E+02 -0.64799446434E+02  0.70188539874E+02  0.00000000000E+00 0.  1.
         13    1    5    5    0    0  0.31064514193E+02 -0.59852824147E+02  0.46125334246E+02  0.81700128885E+02  0.00000000000E+00 0.  1.
        -13    1    5    5    0    0  0.36277230085E+03 -0.33573023547E+03  0.14320317051E+03  0.51461216593E+03  0.00000000000E+00 0. -1.
          1    1    6    6  503    0 -0.27357843246E+03  0.25178845010E+02  0.41866097157E+03  0.50075557117E+03  0.00000000000E+00 0. -1.
         -1    1    6    6    0  503 -0.23449040270E+02  0.26477764399E+02  0.10011549916E+03  0.10617929492E+03  0.00000000000E+00 0.  1.
<mgrwt>
<rscale>  0 0.22353382E+04</rscale>
<asrwt>0</asrwt>
<pdfrwt beam="1">  1        1 0.19438046E+00 0.22353382E+04</pdfrwt>
<pdfrwt beam="2">  1       -2 0.15210629E+00 0.22353382E+04</pdfrwt>
<totfact> 0.22126189E+00</totfact>
</mgrwt>
</event>
<event>
12    5  0.5297412E-008  0.1312003E+04  0.7818608E-02  0.9020101E-01
          1   -1    0    0  501    0  0.00000000000E+00  0.00000000000E+00  0.63394955373E+03  0.63394955373E+03  0.00000000000E+00 0. -1.
         -2   -1    0    0    0  501 -0.00000000000E+00 -0.00000000000E+00 -0.67882008996E+03  0.67882008996E+03  0.00000000000E+00 0.  1.
        -24    2    1    2    0    0 -0.52132717116E+02 -0.15758242816E+03 -0.31631987949E+03  0.36578739106E+03  0.78689944970E+02 0.  0.
        254    2    1    2    0    0  0.52132717116E+02  0.15758242816E+03  0.27144934327E+03  0.94698225262E+03  0.89193082633E+03 0.  0.
         23    2    4    4    0    0  0.68180236851E+01 -0.25273327864E+03  0.42031885109E+03  0.49899232494E+03  0.91677740977E+02 0.  0.
         23    2    4    4    0    0  0.45314693431E+02  0.41031570679E+03 -0.14886950782E+03  0.44798992768E+03  0.90113507663E+02 0.  0.
          3    1    3    3  502    0 -0.32219132361E+02 -0.12473172331E+02 -0.38551580944E+02  0.51767527577E+02  0.00000000000E+00 0. -1.
         -4    1    3    3    0  502 -0.19913584755E+02 -0.14510925583E+03 -0.27776829855E+03  0.31401986349E+03  0.00000000000E+00 0.  1.
         13    1    5    5    0    0 -0.25843672094E+02 -0.19082802363E+03  0.25562881623E+03  0.32004581184E+03  0.00000000000E+00 0. -1.
        -13    1    5    5    0    0  0.32661695779E+02 -0.61905255008E+02  0.16469003486E+03  0.17894651310E+03  0.00000000000E+00 0.  1.
          3    1    6    6  503    0  0.50390449997E+02  0.40302095580E+03 -0.12888387618E+03  0.42611752112E+03  0.00000000000E+00 0. -1.
         -3    1    6    6    0  503 -0.50757565661E+01  0.72947509914E+01 -0.19985631639E+02  0.21872406561E+02  0.00000000000E+00 0.  1.
<mgrwt>
<rscale>  0 0.13120026E+04</rscale>
<asrwt>0</asrwt>
<pdfrwt beam="1">  1        1 0.97530701E-01 0.13120026E+04</pdfrwt>
<pdfrwt beam="2">  1       -2 0.10443386E+00 0.13120026E+04</pdfrwt>
<totfact> 0.20222582E+01</totfact>
</mgrwt>
</event>
<event>
12    5  0.5297412E-008  0.1317952E+04  0.7818608E-02  0.9015449E-01
         -2   -1    0    0    0  501 -0.00000000000E+00  0.00000000000E+00  0.37826937348E+03  0.37826937348E+03  0.00000000000E+00 0.  1.
          1   -1    0    0  501    0  0.00000000000E+00 -0.00000000000E+00 -0.11479893948E+04  0.11479893948E+04  0.00000000000E+00 0. -1.
        -24    2    1    2    0    0 -0.16730992569E+03  0.59933099008E+02  0.13231975734E+03  0.23579156092E+03  0.80650817888E+02 0.  0.
        254    2    1    2    0    0  0.16730992569E+03 -0.59933099008E+02 -0.90203977865E+03  0.12904672074E+04  0.90556350599E+03 0.  0.
         23    2    4    4    0    0  0.45377523783E+03 -0.53021802378E+01 -0.16335393645E+03  0.49108370282E+03  0.92404626730E+02 0.  0.
         23    2    4    4    0    0 -0.28646531214E+03 -0.54630918770E+02 -0.73868584220E+03  0.79938350453E+03  0.91160855135E+02 0.  0.
          3    1    3    3  502    0 -0.62538363415E+00  0.17487750287E+02 -0.19205652471E+01  0.17604007659E+02  0.00000000000E+00 0. -1.
         -4    1    3    3    0  502 -0.16668454206E+03  0.42445348721E+02  0.13424032259E+03  0.21818755326E+03  0.00000000000E+00 0.  1.
         13    1    5    5    0    0  0.32737887037E+03  0.13532634498E+02 -0.15648229110E+03  0.36310709768E+03  0.00000000000E+00 0.  1.
        -13    1    5    5    0    0  0.12639636746E+03 -0.18834814736E+02 -0.68716453565E+01  0.12797660514E+03  0.00000000000E+00 0. -1.
          2    1    6    6  503    0 -0.98576111058E+02 -0.36581727855E+02 -0.37724986042E+03  0.39162856085E+03  0.00000000000E+00 0. -1.
         -2    1    6    6    0  503 -0.18788920108E+03 -0.18049190914E+02 -0.36143598178E+03  0.40775494368E+03  0.00000000000E+00 0.  1.
<mgrwt>
<rscale>  0 0.13179518E+04</rscale>
<asrwt>0</asrwt>
<pdfrwt beam="1">  1        1 0.17661375E+00 0.13179518E+04</pdfrwt>
<pdfrwt beam="2">  1       -2 0.58195290E-01 0.13179518E+04</pdfrwt>
<totfact> 0.27744328E+01</totfact>
</mgrwt>
</event>
<event>
12    5  0.5297412E-008  0.1672524E+04  0.7818608E-02  0.8777192E-01
          1   -1    0    0  501    0  0.00000000000E+00  0.00000000000E+00  0.54541310722E+03  0.54541310722E+03  0.00000000000E+00 0. -1.
         -2   -1    0    0    0  501 -0.00000000000E+00 -0.00000000000E+00 -0.12822100178E+04  0.12822100178E+04  0.00000000000E+00 0.  1.
        -24    2    1    2    0    0 -0.11765188957E+03  0.46176448402E+03 -0.64045848777E+03  0.80250070835E+03  0.82169985597E+02 0.  0.
        254    2    1    2    0    0  0.11765188957E+03 -0.46176448402E+03 -0.96338422827E+02  0.10251224167E+04  0.90251120306E+03 0.  0.
         23    2    4    4    0    0  0.20045323831E+03 -0.70731841869E+03 -0.11434535247E+03  0.74963028284E+03  0.91596152458E+02 0.  0.
         23    2    4    4    0    0 -0.82801348746E+02  0.24555393467E+03  0.18006929641E+02  0.27549213384E+03  0.91754390120E+02 0.  0.
          1    1    3    3  502    0  0.88380519018E+01  0.89998702819E+01 -0.10151820136E+02  0.16191611365E+02  0.00000000000E+00 0. -1.
         -2    1    3    3    0  502 -0.12648994147E+03  0.45276461374E+03 -0.63030666763E+03  0.78630909699E+03  0.00000000000E+00 0.  1.
         13    1    5    5    0    0  0.16202475605E+02 -0.27213663468E+02  0.11815366196E+02  0.33803943164E+02  0.00000000000E+00 0. -1.
        -13    1    5    5    0    0  0.18425076271E+03 -0.68010475522E+03 -0.12616071866E+03  0.71582633967E+03  0.00000000000E+00 0.  1.
          2    1    6    6  503    0 -0.97451830604E+02  0.15501145047E+03  0.15196242008E+02  0.18372897114E+03  0.00000000000E+00 0. -1.
         -2    1    6    6    0  503  0.14650481858E+02  0.90542484198E+02  0.28106876338E+01  0.91763162698E+02  0.00000000000E+00 0.  1.
<mgrwt>
<rscale>  0 0.16725240E+04</rscale>
<asrwt>0</asrwt>
<pdfrwt beam="1">  1        1 0.83909711E-01 0.16725240E+04</pdfrwt>
<pdfrwt beam="2">  1       -2 0.19726307E+00 0.16725240E+04</pdfrwt>
<totfact> 0.45379806E+00</totfact>
</mgrwt>
</event>
<event>
12    5  0.5297412E-008  0.1491236E+04  0.7818608E-02  0.8890302E-01
          1   -1    0    0  501    0  0.00000000000E+00  0.00000000000E+00  0.19352886059E+04  0.19352886059E+04  0.00000000000E+00 0. -1.
         -2   -1    0    0    0  501 -0.00000000000E+00 -0.00000000000E+00 -0.28726802217E+03  0.28726802217E+03  0.00000000000E+00 0.  1.
        -24    2    1    2    0    0  0.40177522604E+03  0.61537131421E+02  0.17543272533E+03  0.44990416248E+03  0.80168344737E+02 0.  0.
        254    2    1    2    0    0 -0.40177522604E+03 -0.61537131421E+02  0.14725878584E+04  0.17726524656E+04  0.89920610111E+03 0.  0.
         23    2    4    4    0    0 -0.18385129918E+03  0.19625273724E+02  0.15067557958E+04  0.15201940681E+04  0.80563794757E+02 0.  0.
         23    2    4    4    0    0 -0.21792392685E+03 -0.81162405145E+02 -0.34167937302E+02  0.25245839756E+03  0.92139137464E+02 0.  0.
          3    1    3    3  502    0  0.15708439491E+03  0.73679052602E+01  0.29825527711E+02  0.16006047374E+03  0.00000000000E+00 0. -1.
         -4    1    3    3    0  502  0.24469083113E+03  0.54169226161E+02  0.14560719762E+03  0.28984368873E+03  0.00000000000E+00 0.  1.
         13    1    5    5    0    0 -0.63118803531E+02 -0.24299988013E+02  0.36317616960E+03  0.36942036076E+03  0.00000000000E+00 0. -1.
        -13    1    5    5    0    0 -0.12073249565E+03  0.43925261737E+02  0.11435796261E+04  0.11507737073E+04  0.00000000000E+00 0.  1.
          2    1    6    6  503    0 -0.53716944213E+02 -0.26519819635E+02 -0.50874324519E+02  0.78593942669E+02  0.00000000000E+00 0. -1.
         -2    1    6    6    0  503 -0.16420698264E+03 -0.54642585510E+02  0.16706387217E+02  0.17386445489E+03  0.00000000000E+00 0.  1.
<mgrwt>
<rscale>  0 0.14912364E+04</rscale>
<asrwt>0</asrwt>
<pdfrwt beam="1">  1        1 0.29773670E+00 0.14912364E+04</pdfrwt>
<pdfrwt beam="2">  1       -2 0.44195081E-01 0.14912364E+04</pdfrwt>
<totfact> 0.13610713E+01</totfact>
</mgrwt>
</event>
<event>
12    5  0.5297412E-008  0.1240329E+04  0.7818608E-02  0.9078271E-01
         -2   -1    0    0    0  501 -0.00000000000E+00  0.00000000000E+00  0.10204738733E+03  0.10204738733E+03  0.00000000000E+00 0.  1.
          1   -1    0    0  501    0  0.00000000000E+00 -0.00000000000E+00 -0.37688782336E+04  0.37688782336E+04  0.00000000000E+00 0. -1.
        -24    2    1    2    0    0 -0.84722292782E+02 -0.12718644200E+03 -0.12551385933E+03  0.21330179914E+03  0.79935415859E+02 0.  0.
        254    2    1    2    0    0  0.84722292782E+02  0.12718644200E+03 -0.35413169869E+04  0.36576238218E+04  0.90218166787E+03 0.  0.
         23    2    4    4    0    0  0.32004276645E+03 -0.25413247299E+03 -0.22265246649E+04  0.22655636704E+04  0.91411022307E+02 0.  0.
         23    2    4    4    0    0 -0.23532047367E+03  0.38131891499E+03 -0.13147923220E+04  0.13920601514E+04  0.91502867534E+02 0.  0.
          3    1    3    3  502    0 -0.19532363654E+02 -0.21947531544E+02 -0.73259072891E+02  0.78930977010E+02  0.00000000000E+00 0. -1.
         -4    1    3    3    0  502 -0.65189929128E+02 -0.10523891046E+03 -0.52254786440E+02  0.13437082213E+03  0.00000000000E+00 0.  1.
         13    1    5    5    0    0  0.56460764137E+02 -0.17431725846E+02 -0.20992247594E+03  0.21808055589E+03  0.00000000000E+00 0.  1.
        -13    1    5    5    0    0  0.26358200232E+03 -0.23670074715E+03 -0.20166021890E+04  0.20474831145E+04  0.00000000000E+00 0. -1.
          3    1    6    6  503    0 -0.22299910860E+03  0.29380716398E+03 -0.10723067454E+04  0.11339722255E+04  0.00000000000E+00 0. -1.
         -3    1    6    6    0  503 -0.12321365068E+02  0.87511751015E+02 -0.24248557664E+03  0.25808792588E+03  0.00000000000E+00 0.  1.
<mgrwt>
<rscale>  0 0.12403293E+04</rscale>
<asrwt>0</asrwt>
<pdfrwt beam="1">  1        1 0.57982740E+00 0.12403293E+04</pdfrwt>
<pdfrwt beam="2">  1       -2 0.15699599E-01 0.12403293E+04</pdfrwt>
<totfact> 0.43743650E+00</totfact>
</mgrwt>
</event>
<event>
12    5  0.5297412E-008  0.1910172E+04  0.7818608E-02  0.8649810E-01
         -4   -1    0    0    0  501 -0.00000000000E+00  0.00000000000E+00  0.90284045352E+03  0.90284045352E+03  0.00000000000E+00 0.  1.
          3   -1    0    0  501    0  0.00000000000E+00 -0.00000000000E+00 -0.10103549743E+04  0.10103549743E+04  0.00000000000E+00 0. -1.
        -24    2    1    2    0    0  0.12865697023E+03  0.13156812045E+03  0.66518972653E+03  0.69497490621E+03  0.81547297153E+02 0.  0.
        254    2    1    2    0    0 -0.12865697023E+03 -0.13156812045E+03 -0.77270424732E+03  0.12182205216E+04  0.92364852578E+03 0.  0.
         23    2    4    4    0    0 -0.28194342876E+03 -0.54199369243E+02  0.10566227860E+03  0.31826150440E+03  0.87727985386E+02 0.  0.
         23    2    4    4    0    0  0.15328645852E+03 -0.77368751208E+02 -0.87836652592E+03  0.89995901723E+03  0.94423602955E+02 0.  0.
          3    1    3    3  502    0  0.69322945232E+02  0.55131746759E+02  0.18471070313E+03  0.20484927163E+03  0.00000000000E+00 0. -1.
         -4    1    3    3    0  502  0.59334025000E+02  0.76436373692E+02  0.48047902340E+03  0.49012563458E+03  0.00000000000E+00 0.  1.
         13    1    5    5    0    0 -0.26530854252E+03 -0.41589702299E+02  0.70960846117E+02  0.27776567058E+03  0.00000000000E+00 0.  1.
        -13    1    5    5    0    0 -0.16634886237E+02 -0.12609666943E+02  0.34701432483E+02  0.40495833822E+02  0.00000000000E+00 0. -1.
          2    1    6    6  503    0 -0.33953484215E+01 -0.12354873100E+01  0.79991413536E+00  0.37006327054E+01  0.00000000000E+00 0. -1.
         -2    1    6    6    0  503  0.15668180695E+03 -0.76133263898E+02 -0.87916644006E+03  0.89625838452E+03  0.00000000000E+00 0.  1.
<mgrwt>
<rscale>  0 0.19101721E+04</rscale>
<asrwt>0</asrwt>
<pdfrwt beam="1">  1        3 0.15543923E+00 0.19101721E+04</pdfrwt>
<pdfrwt beam="2">  1       -4 0.13889853E+00 0.19101721E+04</pdfrwt>
<totfact> 0.23041962E-01</totfact>
</mgrwt>
</event>
<event>
12    5  0.5297412E-008  0.1516985E+04  0.7818608E-02  0.8873236E-01
         -4   -1    0    0    0  501 -0.00000000000E+00  0.00000000000E+00  0.20201630091E+04  0.20201630091E+04  0.00000000000E+00 0.  1.
          3   -1    0    0  501    0  0.00000000000E+00 -0.00000000000E+00 -0.28478440415E+03  0.28478440415E+03  0.00000000000E+00 0. -1.
        -24    2    1    2    0    0  0.48263482603E+02 -0.13065101953E+03 -0.14774151256E+03  0.21803562894E+03  0.79453938207E+02 0.  0.
        254    2    1    2    0    0 -0.48263482603E+02  0.13065101953E+03  0.18831201175E+04  0.20869117843E+04  0.88862836206E+03 0.  0.
         23    2    4    4    0    0 -0.28363385989E+03 -0.15907241164E+03  0.15247378747E+04  0.15615538811E+04  0.88728452734E+02 0.  0.
         23    2    4    4    0    0  0.23537037728E+03  0.28972343118E+03  0.35838224278E+03  0.52535790321E+03  0.90687449258E+02 0.  0.
          3    1    3    3  502    0  0.49449065049E+02 -0.14096129666E+03 -0.13302238946E+03  0.20002563157E+03  0.00000000000E+00 0. -1.
         -4    1    3    3    0  502 -0.11855824464E+01  0.10310277128E+02 -0.14719123105E+02  0.18009997368E+02  0.00000000000E+00 0.  1.
         13    1    5    5    0    0 -0.11382052294E+03 -0.76947208534E+02  0.84637318731E+03  0.85745178088E+03  0.00000000000E+00 0.  1.
        -13    1    5    5    0    0 -0.16981333695E+03 -0.82125203110E+02  0.67836468738E+03  0.70410210018E+03  0.00000000000E+00 0. -1.
          3    1    6    6  503    0 -0.33286116107E+01  0.33475118909E+02  0.37505648662E+02  0.50381910670E+02  0.00000000000E+00 0. -1.
         -3    1    6    6    0  503  0.23869898889E+03  0.25624831227E+03  0.32087659412E+03  0.47497599254E+03  0.00000000000E+00 0.  1.
<mgrwt>
<rscale>  0 0.15169851E+04</rscale>
<asrwt>0</asrwt>
<pdfrwt beam="1">  1        3 0.43812986E-01 0.15169851E+04</pdfrwt>
<pdfrwt beam="2">  1       -4 0.31079430E+00 0.15169851E+04</pdfrwt>
<totfact> 0.30436317E-01</totfact>
</mgrwt>
</event>
<event>
12    5  0.5297412E-008  0.2501372E+04  0.7818608E-02  0.8402497E-01
          1   -1    0    0  501    0  0.00000000000E+00  0.00000000000E+00  0.11682686571E+04  0.11682686571E+04  0.00000000000E+00 0. -1.
         -2   -1    0    0    0  501 -0.00000000000E+00 -0.00000000000E+00 -0.13389178175E+04  0.13389178175E+04  0.00000000000E+00 0.  1.
        -24    2    1    2    0    0 -0.79422307195E+03 -0.18070554219E+03  0.63499226775E+03  0.10358683001E+04  0.79769506020E+02 0.  0.
        254    2    1    2    0    0  0.79422307195E+03  0.18070554219E+03 -0.80564142816E+03  0.14713181745E+04  0.92318702260E+03 0.  0.
         23    2    4    4    0    0 -0.91640531611E+02 -0.17974882630E+03 -0.33431258599E+03  0.40122821644E+03  0.92258056138E+02 0.  0.
         23    2    4    4    0    0  0.88586360356E+03  0.36045436849E+03 -0.47132884217E+03  0.10700899580E+04  0.90884349037E+02 0.  0.
          3    1    3    3  502    0 -0.74861113478E+03 -0.18265319015E+03  0.61555242194E+03  0.98624824621E+03  0.00000000000E+00 0. -1.
         -4    1    3    3    0  502 -0.45611937176E+02  0.19476479585E+01  0.19439845808E+02  0.49620053915E+02  0.00000000000E+00 0.  1.
         13    1    5    5    0    0 -0.68868003398E+02 -0.48105353513E+02 -0.92416430781E+02  0.12489084677E+03  0.00000000000E+00 0.  1.
        -13    1    5    5    0    0 -0.22772528213E+02 -0.13164347279E+03 -0.24189615521E+03  0.27633736967E+03  0.00000000000E+00 0. -1.
          2    1    6    6  503    0  0.39318694580E+03  0.20832293317E+03 -0.21052185514E+03  0.49225386776E+03  0.00000000000E+00 0. -1.
         -2    1    6    6    0  503  0.49267665776E+03  0.15213143532E+03 -0.26080698702E+03  0.57783609025E+03  0.00000000000E+00 0.  1.
<mgrwt>
<rscale>  0 0.25013722E+04</rscale>
<asrwt>0</asrwt>
<pdfrwt beam="1">  1        1 0.17973364E+00 0.25013722E+04</pdfrwt>
<pdfrwt beam="2">  1       -2 0.20598736E+00 0.25013722E+04</pdfrwt>
<totfact> 0.10681432E+00</totfact>
</mgrwt>
</event>
<event>
12    5  0.5297412E-008  0.1420089E+04  0.7818608E-02  0.8939404E-01
          1   -1    0    0  501    0  0.00000000000E+00  0.00000000000E+00  0.61531257545E+03  0.61531257545E+03  0.00000000000E+00 0. -1.
         -2   -1    0    0    0  501 -0.00000000000E+00 -0.00000000000E+00 -0.81936077787E+03  0.81936077787E+03  0.00000000000E+00 0.  1.
        -24    2    1    2    0    0 -0.66750533616E+02  0.35883103850E+03 -0.28979055926E+03  0.47267729588E+03  0.78929778147E+02 0.  0.
        254    2    1    2    0    0  0.66750533616E+02 -0.35883103850E+03  0.85742356831E+02  0.96199605744E+03  0.88592850437E+03 0.  0.
         23    2    4    4    0    0  0.35701571081E+03 -0.46967045065E+03 -0.72268670441E+02  0.60093766848E+03  0.88615860277E+02 0.  0.
         23    2    4    4    0    0 -0.29026517720E+03  0.11083941215E+03  0.15801102727E+03  0.36105838896E+03  0.94108592172E+02 0.  0.
          3    1    3    3  502    0 -0.67786517014E+02  0.21375651083E+03 -0.14115306710E+03  0.26497367070E+03  0.00000000000E+00 0. -1.
         -4    1    3    3    0  502  0.10359833978E+01  0.14507452767E+03 -0.14863749215E+03  0.20770362518E+03  0.00000000000E+00 0.  1.
         13    1    5    5    0    0  0.15013036357E+03 -0.24613742446E+03 -0.18142958302E+01  0.28831588485E+03  0.00000000000E+00 0.  1.
        -13    1    5    5    0    0  0.20688534724E+03 -0.22353302619E+03 -0.70454374611E+02  0.31262178363E+03  0.00000000000E+00 0. -1.
          2    1    6    6  503    0 -0.53247931853E+02 -0.11225170466E+02  0.48310079361E+02  0.72768196807E+02  0.00000000000E+00 0.  1.
         -2    1    6    6    0  503 -0.23701724534E+03  0.12206458262E+03  0.10970094791E+03  0.28829019215E+03  0.00000000000E+00 0. -1.
<mgrwt>
<rscale>  0 0.14200887E+04</rscale>
<asrwt>0</asrwt>
<pdfrwt beam="1">  1        1 0.94663473E-01 0.14200887E+04</pdfrwt>
<pdfrwt beam="2">  1       -2 0.12605550E+00 0.14200887E+04</pdfrwt>
<totfact> 0.13201184E+01</totfact>
</mgrwt>
</event>
<event>
12    5  0.5297412E-008  0.1894336E+04  0.7818608E-02  0.8657681E-01
          1   -1    0    0  501    0  0.00000000000E+00  0.00000000000E+00  0.12224638007E+04  0.12224638007E+04  0.00000000000E+00 0. -1.
         -2   -1    0    0    0  501 -0.00000000000E+00 -0.00000000000E+00 -0.73386822528E+03  0.73386822528E+03  0.00000000000E+00 0.  1.
        -24    2    1    2    0    0 -0.49987558862E+03  0.27642437090E+02 -0.36392031969E+03  0.62396968768E+03  0.79123091685E+02 0.  0.
        254    2    1    2    0    0  0.49987558862E+03 -0.27642437090E+02  0.85251589508E+03  0.13323623383E+04  0.89317766467E+03 0.  0.
         23    2    4    4    0    0  0.37876614362E+03  0.12033145258E+03  0.99632492942E+03  0.10764630289E+04  0.90365024227E+02 0.  0.
         23    2    4    4    0    0  0.12110944500E+03 -0.14797388967E+03 -0.14380903434E+03  0.25589930936E+03  0.90772509519E+02 0.  0.
          1    1    3    3  502    0 -0.50500963286E+02  0.21659082459E+02 -0.60434411058E+02  0.81680971993E+02  0.00000000000E+00 0. -1.
         -2    1    3    3    0  502 -0.44937462533E+03  0.59833546301E+01 -0.30348590863E+03  0.54228871569E+03  0.00000000000E+00 0.  1.
         13    1    5    5    0    0  0.18248938244E+03  0.10241652689E+03  0.47160155531E+03  0.51594529425E+03  0.00000000000E+00 0.  1.
        -13    1    5    5    0    0  0.19627676118E+03  0.17914925695E+02  0.52472337411E+03  0.56051773467E+03  0.00000000000E+00 0. -1.
          3    1    6    6  503    0  0.50121110877E+02 -0.43983051355E+02 -0.26367196830E+01  0.66735199504E+02  0.00000000000E+00 0.  1.
         -3    1    6    6    0  503  0.70988334119E+02 -0.10399083832E+03 -0.14117231465E+03  0.18916410986E+03  0.00000000000E+00 0. -1.
<mgrwt>
<rscale>  0 0.18943361E+04</rscale>
<asrwt>0</asrwt>
<pdfrwt beam="1">  1        1 0.18807135E+00 0.18943361E+04</pdfrwt>
<pdfrwt beam="2">  1       -2 0.11290280E+00 0.18943361E+04</pdfrwt>
<totfact> 0.52108759E+00</totfact>
</mgrwt>
</event>
<event>
12    5  0.5297412E-008  0.1159131E+04  0.7818608E-02  0.9149401E-01
          1   -1    0    0  501    0  0.00000000000E+00  0.00000000000E+00  0.10185329287E+04  0.10185329287E+04  0.00000000000E+00 0. -1.
         -2   -1    0    0    0  501 -0.00000000000E+00 -0.00000000000E+00 -0.32978433054E+03  0.32978433054E+03  0.00000000000E+00 0.  1.
        -24    2    1    2    0    0  0.72232580655E+02 -0.22147048597E+03  0.67510091115E+02  0.25406259093E+03  0.75653591061E+02 0.  0.
        254    2    1    2    0    0 -0.72232580655E+02  0.22147048597E+03  0.62123850704E+03  0.10942546683E+04  0.87016623391E+03 0.  0.
         23    2    4    4    0    0  0.12279759925E+03  0.47829668517E+03  0.16558826027E+03  0.52869433200E+03  0.90836420696E+02 0.  0.
         23    2    4    4    0    0 -0.19503017990E+03 -0.25682619920E+03  0.45565024678E+03  0.56556033631E+03  0.90801315819E+02 0.  0.
          1    1    3    3  502    0  0.32313103592E+02 -0.46380252892E+02  0.46614300657E+02  0.73267711496E+02  0.00000000000E+00 0. -1.
         -2    1    3    3    0  502  0.39919477063E+02 -0.17509023308E+03  0.20895790458E+02  0.18079487943E+03  0.00000000000E+00 0.  1.
         13    1    5    5    0    0 -0.12864512994E+02  0.86840772281E+02  0.30119463846E+02  0.92811623880E+02  0.00000000000E+00 0. -1.
        -13    1    5    5    0    0  0.13566211224E+03  0.39145591289E+03  0.13546879642E+03  0.43588270812E+03  0.00000000000E+00 0.  1.
          3    1    6    6  503    0  0.76714445601E+01 -0.19329910881E+02  0.15635857120E+02  0.26018772919E+02  0.00000000000E+00 0. -1.
         -3    1    6    6    0  503 -0.20270162446E+03 -0.23749628832E+03  0.44001438966E+03  0.53954156340E+03  0.00000000000E+00 0.  1.
<mgrwt>
<rscale>  0 0.11591311E+04</rscale>
<asrwt>0</asrwt>
<pdfrwt beam="1">  1        1 0.15669737E+00 0.11591311E+04</pdfrwt>
<pdfrwt beam="2">  1       -2 0.50736051E-01 0.11591311E+04</pdfrwt>
<totfact> 0.46770534E+01</totfact>
</mgrwt>
</event>
<event>
12    5  0.5297412E-008  0.1676188E+04  0.7818608E-02  0.8775063E-01
          1   -1    0    0  501    0  0.00000000000E+00  0.00000000000E+00  0.12313117675E+04  0.12313117675E+04  0.00000000000E+00 0. -1.
         -2   -1    0    0    0  501 -0.00000000000E+00 -0.00000000000E+00 -0.57044998987E+03  0.57044998987E+03  0.00000000000E+00 0.  1.
        -24    2    1    2    0    0  0.45472073572E+03  0.18700550571E+03 -0.10212723760E+03  0.50851021104E+03  0.80066568626E+02 0.  0.
        254    2    1    2    0    0 -0.45472073572E+03 -0.18700550571E+03  0.76298901522E+03  0.12932515463E+04  0.92119776272E+03 0.  0.
         23    2    4    4    0    0 -0.29745320853E+03 -0.46947219068E+03  0.13483368522E+03  0.57966916380E+03  0.94623822082E+02 0.  0.
         23    2    4    4    0    0 -0.15726752719E+03  0.28246668496E+03  0.62815533000E+03  0.71358238252E+03  0.10049972543E+03 0.  0.
          3    1    3    3  502    0  0.13027933218E+03  0.77468139637E+02 -0.14320240607E+01  0.15157858604E+03  0.00000000000E+00 0. -1.
         -4    1    3    3    0  502  0.32444140354E+03  0.10953736608E+03 -0.10069521354E+03  0.35693162500E+03  0.00000000000E+00 0.  1.
         13    1    5    5    0    0 -0.15960870634E+03 -0.16598760026E+03  0.48071145751E+02  0.23523957497E+03  0.00000000000E+00 0.  1.
        -13    1    5    5    0    0 -0.13784450219E+03 -0.30348459041E+03  0.86762539467E+02  0.34442958882E+03  0.00000000000E+00 0. -1.
          3    1    6    6  503    0 -0.57189151990E+02  0.19632657081E+03  0.41894789257E+03  0.46618886537E+03  0.00000000000E+00 0. -1.
         -3    1    6    6    0  503 -0.10007837520E+03  0.86140114149E+02  0.20920743744E+03  0.24739351715E+03  0.00000000000E+00 0.  1.
<mgrwt>
<rscale>  0 0.16761883E+04</rscale>
<asrwt>0</asrwt>
<pdfrwt beam="1">  1        1 0.18943258E+00 0.16761883E+04</pdfrwt>
<pdfrwt beam="2">  1       -2 0.87761537E-01 0.16761883E+04</pdfrwt>
<totfact> 0.94962165E+00</totfact>
</mgrwt>
</event>
<event>
12    5  0.5297412E-008  0.1162124E+04  0.7818608E-02  0.9146671E-01
         -4   -1    0    0    0  501 -0.00000000000E+00  0.00000000000E+00  0.19163732610E+03  0.19163732610E+03  0.00000000000E+00 0.  1.
          1   -1    0    0  501    0  0.00000000000E+00 -0.00000000000E+00 -0.17618328942E+04  0.17618328942E+04  0.00000000000E+00 0. -1.
        -24    2    1    2    0    0 -0.22113910106E+03 -0.50311126437E+02 -0.31558977062E+03  0.39706129816E+03  0.81406754733E+02 0.  0.
        254    2    1    2    0    0  0.22113910106E+03  0.50311126437E+02 -0.12546057975E+04  0.15564089221E+04  0.89271457609E+03 0.  0.
         23    2    4    4    0    0  0.12177574516E+03  0.34821360908E+03 -0.15849573890E+03  0.41257632430E+03  0.94954065049E+02 0.  0.
         23    2    4    4    0    0  0.99363355905E+02 -0.29790248264E+03 -0.10961100586E+04  0.11438325978E+04  0.90976841428E+02 0.  0.
          3    1    3    3  502    0 -0.81306222731E+02 -0.34278648454E+02 -0.18543097894E+03  0.20535426839E+03  0.00000000000E+00 0. -1.
         -4    1    3    3    0  502 -0.13983287833E+03 -0.16032477983E+02 -0.13015879167E+03  0.19170702977E+03  0.00000000000E+00 0.  1.
         13    1    5    5    0    0  0.58254380617E+02  0.53912953627E+02 -0.41477393892E+02  0.89557543702E+02  0.00000000000E+00 0. -1.
        -13    1    5    5    0    0  0.63521364540E+02  0.29430065545E+03 -0.11701834500E+03  0.32301878060E+03  0.00000000000E+00 0.  1.
          2    1    6    6  503    0 -0.11128458309E+02 -0.96943822060E+02 -0.33515124218E+03  0.34906776184E+03  0.00000000000E+00 0. -1.
         -2    1    6    6    0  503  0.11049181421E+03 -0.20095866058E+03 -0.76095881640E+03  0.79476483599E+03  0.00000000000E+00 0.  1.
<mgrwt>
<rscale>  0 0.11621238E+04</rscale>
<asrwt>0</asrwt>
<pdfrwt beam="1">  1        1 0.27105122E+00 0.11621238E+04</pdfrwt>
<pdfrwt beam="2">  1       -4 0.29482664E-01 0.11621238E+04</pdfrwt>
<totfact> 0.23672107E+01</totfact>
</mgrwt>
</event>
<event>
12    5  0.5297412E-008  0.1361473E+04  0.7818608E-02  0.8982188E-01
         -2   -1    0    0    0  501 -0.00000000000E+00  0.00000000000E+00  0.45584277746E+03  0.45584277746E+03  0.00000000000E+00 0.  1.
          1   -1    0    0  501    0  0.00000000000E+00 -0.00000000000E+00 -0.10165833765E+04  0.10165833765E+04  0.00000000000E+00 0. -1.
        -24    2    1    2    0    0 -0.20327889048E+03 -0.31229420184E+03 -0.20989304534E+03  0.43497896504E+03  0.79382830181E+02 0.  0.
        254    2    1    2    0    0  0.20327889048E+03  0.31229420184E+03 -0.35084755374E+03  0.10374471890E+04  0.90241492014E+03 0.  0.
         23    2    4    4    0    0 -0.16713459341E+03  0.50011104215E+03 -0.28734374999E+03  0.60736373544E+03  0.90990382279E+02 0.  0.
         23    2    4    4    0    0  0.37041348389E+03 -0.18781684031E+03 -0.63503803748E+02  0.43008345352E+03  0.91965914038E+02 0.  0.
          1    1    3    3  502    0  0.41856557584E+01 -0.14322217182E+02  0.12384076622E+01  0.14972617429E+02  0.00000000000E+00 0. -1.
         -2    1    3    3    0  502 -0.20746454624E+03 -0.29797198466E+03 -0.21113145301E+03  0.42000634761E+03  0.00000000000E+00 0.  1.
         13    1    5    5    0    0 -0.16318822841E+03  0.39210759612E+03 -0.25102967446E+03  0.49335044571E+03  0.00000000000E+00 0.  1.
        -13    1    5    5    0    0 -0.39463650040E+01  0.10800344604E+03 -0.36314075527E+02  0.11401328972E+03  0.00000000000E+00 0. -1.
          3    1    6    6  503    0  0.18276875954E+03 -0.91767324817E+02 -0.77774143840E+02  0.21880237388E+03  0.00000000000E+00 0. -1.
         -3    1    6    6    0  503  0.18764472435E+03 -0.96049515494E+02  0.14270340091E+02  0.21128107963E+03  0.00000000000E+00 0.  1.
<mgrwt>
<rscale>  0 0.13614730E+04</rscale>
<asrwt>0</asrwt>
<pdfrwt beam="1">  1        1 0.15639744E+00 0.13614730E+04</pdfrwt>
<pdfrwt beam="2">  1       -2 0.70129658E-01 0.13614730E+04</pdfrwt>
<totfact> 0.23315220E+01</totfact>
</mgrwt>
</event>
<event>
12    5  0.5297412E-008  0.3174848E+04  0.7818608E-02  0.8195491E-01
         -2   -1    0    0    0  501 -0.00000000000E+00  0.00000000000E+00  0.71477707779E+03  0.71477707779E+03  0.00000000000E+00 0.  1.
          1   -1    0    0  501    0  0.00000000000E+00 -0.00000000000E+00 -0.35254567069E+04  0.35254567069E+04  0.00000000000E+00 0. -1.
        -24    2    1    2    0    0  0.92098104780E+03 -0.27493519174E+03 -0.27548617146E+04  0.29187984027E+04  0.79533634017E+02 0.  0.
        254    2    1    2    0    0 -0.92098104780E+03  0.27493519174E+03 -0.55817914539E+02  0.13214353820E+04  0.90514108249E+03 0.  0.
         23    2    4    4    0    0 -0.46415876118E+03  0.20196240404E+02 -0.45569897442E+03  0.65732694636E+03  0.92552230774E+02 0.  0.
         23    2    4    4    0    0 -0.45682228662E+03  0.25473895134E+03  0.39988105988E+03  0.66410843566E+03  0.86928806383E+02 0.  0.
          1    1    3    3  502    0  0.53571326563E+03 -0.20066574465E+03 -0.16383725731E+04  0.17353731969E+04  0.00000000000E+00 0. -1.
         -2    1    3    3    0  502  0.38526778217E+03 -0.74269447098E+02 -0.11164891415E+04  0.11834252058E+04  0.00000000000E+00 0.  1.
         13    1    5    5    0    0 -0.19265294580E+03  0.28500367991E+02 -0.24832890339E+03  0.31558623664E+03  0.00000000000E+00 0. -1.
        -13    1    5    5    0    0 -0.27150581538E+03 -0.83041275878E+01 -0.20737007104E+03  0.34174070972E+03  0.00000000000E+00 0.  1.
          1    1    6    6  503    0 -0.42075910392E+03  0.20481210880E+03  0.34224165523E+03  0.57975475334E+03  0.00000000000E+00 0. -1.
         -1    1    6    6    0  503 -0.36063182700E+02  0.49926842546E+02  0.57639404649E+02  0.84353682322E+02  0.00000000000E+00 0.  1.
<mgrwt>
<rscale>  0 0.31748484E+04</rscale>
<asrwt>0</asrwt>
<pdfrwt beam="1">  1        1 0.54237795E+00 0.31748484E+04</pdfrwt>
<pdfrwt beam="2">  1       -2 0.10996571E+00 0.31748484E+04</pdfrwt>
<totfact> 0.11566872E-01</totfact>
</mgrwt>
</event>
<event>
12    5  0.5297412E-008  0.1836217E+04  0.7818608E-02  0.8687273E-01
          1   -1    0    0  501    0  0.00000000000E+00  0.00000000000E+00  0.27379648354E+04  0.27379648354E+04  0.00000000000E+00 0. -1.
         -2   -1    0    0    0  501 -0.00000000000E+00 -0.00000000000E+00 -0.30786500645E+03  0.30786500645E+03  0.00000000000E+00 0.  1.
        -24    2    1    2    0    0  0.68018557836E+03  0.14021948574E+03  0.79529959822E+03  0.10587313862E+04  0.78081828773E+02 0.  0.
        254    2    1    2    0    0 -0.68018557836E+03 -0.14021948574E+03  0.16348002307E+04  0.19870984557E+04  0.89088414110E+03 0.  0.
         23    2    4    4    0    0 -0.70675859516E+03  0.14630412388E+03  0.71861985329E+03  0.10225457790E+04  0.90954758131E+02 0.  0.
         23    2    4    4    0    0  0.26573016801E+02 -0.28652360962E+03  0.91618037744E+03  0.96455267669E+03  0.90407289635E+02 0.  0.
          1    1    3    3  502    0  0.46905915779E+02  0.29911888567E+01  0.86049467649E+02  0.98049084792E+02  0.00000000000E+00 0. -1.
         -2    1    3    3    0  502  0.63327966258E+03  0.13722829688E+03  0.70925013057E+03  0.96068230140E+03  0.00000000000E+00 0.  1.
         13    1    5    5    0    0 -0.53602425692E+03  0.11806073134E+03  0.48967829296E+03  0.73555772777E+03  0.00000000000E+00 0. -1.
        -13    1    5    5    0    0 -0.17073433824E+03  0.28243392539E+02  0.22894156033E+03  0.28698805119E+03  0.00000000000E+00 0.  1.
          1    1    6    6  503    0  0.30807971342E+01 -0.27292620177E+03  0.80134791649E+03  0.84655577854E+03  0.00000000000E+00 0. -1.
         -1    1    6    6    0  503  0.23492219667E+02 -0.13597407851E+02  0.11483246095E+03  0.11799689815E+03  0.00000000000E+00 0.  1.
<mgrwt>
<rscale>  0 0.18362174E+04</rscale>
<asrwt>0</asrwt>
<pdfrwt beam="1">  1        1 0.42122534E+00 0.18362174E+04</pdfrwt>
<pdfrwt beam="2">  1       -2 0.47363849E-01 0.18362174E+04</pdfrwt>
<totfact> 0.32257603E+00</totfact>
</mgrwt>
</event>
<event>
12    5  0.5297412E-008  0.2084846E+04  0.7818608E-02  0.8567948E-01
          1   -1    0    0  501    0  0.00000000000E+00  0.00000000000E+00  0.26969801725E+04  0.26969801725E+04  0.00000000000E+00 0. -1.
         -2   -1    0    0    0  501 -0.00000000000E+00 -0.00000000000E+00 -0.40291210189E+03  0.40291210189E+03  0.00000000000E+00 0.  1.
        -24    2    1    2    0    0 -0.57442187637E+02 -0.49336611143E+03 -0.83234431602E+02  0.51028766238E+03  0.82193691676E+02 0.  0.
        254    2    1    2    0    0  0.57442187637E+02  0.49336611143E+03  0.23773025022E+04  0.25896046120E+04  0.89876311378E+03 0.  0.
         23    2    4    4    0    0  0.44056441225E+03  0.30222420588E+03  0.91804773337E+03  0.10661291140E+04  0.91559680580E+02 0.  0.
         23    2    4    4    0    0 -0.38312222461E+03  0.19114190555E+03  0.14592547688E+04  0.15234754980E+04  0.90748253213E+02 0.  0.
          1    1    3    3  502    0  0.76985336646E+01 -0.49411368456E+01 -0.73378784655E+01  0.11727178445E+02  0.00000000000E+00 0. -1.
         -2    1    3    3    0  502 -0.65140721301E+02 -0.48842497458E+03 -0.75896553137E+02  0.49856048394E+03  0.00000000000E+00 0.  1.
         13    1    5    5    0    0  0.27485925273E+03  0.17243259829E+03  0.63833646896E+03  0.71606847255E+03  0.00000000000E+00 0. -1.
        -13    1    5    5    0    0  0.16570515951E+03  0.12979160759E+03  0.27971126441E+03  0.35006064150E+03  0.00000000000E+00 0.  1.
          4    1    6    6  503    0 -0.38385479675E+03  0.18309189718E+03  0.13861126209E+04  0.14498880458E+04  0.00000000000E+00 0. -1.
         -4    1    6    6    0  503  0.73257213894E+00  0.80500083679E+01  0.73142147994E+02  0.73587452122E+02  0.00000000000E+00 0.  1.
<mgrwt>
<rscale>  0 0.20848462E+04</rscale>
<asrwt>0</asrwt>
<pdfrwt beam="1">  1        1 0.41492002E+00 0.20848462E+04</pdfrwt>
<pdfrwt beam="2">  1       -2 0.61986479E-01 0.20848462E+04</pdfrwt>
<totfact> 0.19297588E+00</totfact>
</mgrwt>
</event>
<event>
12    5  0.5297412E-008  0.1739044E+04  0.7818608E-02  0.8739404E-01
         -2   -1    0    0    0  501 -0.00000000000E+00  0.00000000000E+00  0.69822305569E+03  0.69822305569E+03  0.00000000000E+00 0.  1.
          1   -1    0    0  501    0  0.00000000000E+00 -0.00000000000E+00 -0.10828466817E+04  0.10828466817E+04  0.00000000000E+00 0. -1.
        -24    2    1    2    0    0 -0.18083956429E+02 -0.96722318798E+02 -0.79005421685E+03  0.80002136893E+03  0.78525720335E+02 0.  0.
        254    2    1    2    0    0  0.18083956429E+02  0.96722318798E+02  0.40543059084E+03  0.98104836845E+03  0.88791874674E+03 0.  0.
         23    2    4    4    0    0 -0.29217312985E+03 -0.18498768094E+03  0.42215059794E+03  0.55322802724E+03  0.90909531225E+02 0.  0.
         23    2    4    4    0    0  0.31025708628E+03  0.28170999974E+03 -0.16720007101E+02  0.42782034121E+03  0.84443485094E+02 0.  0.
          1    1    3    3  502    0 -0.42361418464E+02 -0.89140809414E+02 -0.56744062247E+03  0.57595957645E+03  0.00000000000E+00 0. -1.
         -2    1    3    3    0  502  0.24277462035E+02 -0.75815093838E+01 -0.22261359438E+03  0.22406179248E+03  0.00000000000E+00 0.  1.
         13    1    5    5    0    0 -0.67140826587E+02 -0.49804060651E+02  0.16896003674E+03  0.18850949331E+03  0.00000000000E+00 0.  1.
        -13    1    5    5    0    0 -0.22503230327E+03 -0.13518362029E+03  0.25319056120E+03  0.36471853393E+03  0.00000000000E+00 0. -1.
          3    1    6    6  503    0  0.28603406163E+03  0.21894969063E+03 -0.14939523968E+02  0.36052411960E+03  0.00000000000E+00 0. -1.
         -3    1    6    6    0  503  0.24223024657E+02  0.62760309107E+02 -0.17804831328E+01  0.67296221609E+02  0.00000000000E+00 0.  1.
<mgrwt>
<rscale>  0 0.17390440E+04</rscale>
<asrwt>0</asrwt>
<pdfrwt beam="1">  1        1 0.16659180E+00 0.17390440E+04</pdfrwt>
<pdfrwt beam="2">  1       -2 0.10741893E+00 0.17390440E+04</pdfrwt>
<totfact> 0.75602512E+00</totfact>
</mgrwt>
</event>
<event>
12    5  0.5297412E-008  0.1874601E+04  0.7818608E-02  0.8667603E-01
         -2   -1    0    0    0  501 -0.00000000000E+00  0.00000000000E+00  0.12111783442E+04  0.12111783442E+04  0.00000000000E+00 0.  1.
          1   -1    0    0  501    0  0.00000000000E+00 -0.00000000000E+00 -0.72535340416E+03  0.72535340416E+03  0.00000000000E+00 0. -1.
        -24    2    1    2    0    0  0.23514774155E+03 -0.66562152911E+03  0.42133892734E+02  0.71171715953E+03  0.80122218404E+02 0.  0.
        254    2    1    2    0    0 -0.23514774155E+03  0.66562152911E+03  0.44369104730E+03  0.12248145888E+04  0.89719705259E+03 0.  0.
         23    2    4    4    0    0  0.47837173950E+02  0.44258645062E+03 -0.18788214149E+03  0.49162059163E+03  0.90663915307E+02 0.  0.
         23    2    4    4    0    0 -0.28298491550E+03  0.22303507850E+03  0.63157318879E+03  0.73319399720E+03  0.94146885724E+02 0.  0.
          3    1    3    3  502    0  0.13258381862E+03 -0.36308393090E+03  0.62787289003E+02  0.39160011938E+03  0.00000000000E+00 0. -1.
         -4    1    3    3    0  502  0.10256392293E+03 -0.30253759821E+03 -0.20653396269E+02  0.32011704015E+03  0.00000000000E+00 0.  1.
         13    1    5    5    0    0  0.54719522770E+02  0.25540937962E+03 -0.14763959343E+03  0.30004270849E+03  0.00000000000E+00 0. -1.
        -13    1    5    5    0    0 -0.68823488201E+01  0.18717707100E+03 -0.40242548060E+02  0.19157788314E+03  0.00000000000E+00 0.  1.
          1    1    6    6  503    0 -0.20577654770E+03  0.19398664740E+03  0.42225013664E+03  0.50820270055E+03  0.00000000000E+00 0. -1.
         -1    1    6    6    0  503 -0.77208367807E+02  0.29048431098E+02  0.20932305215E+03  0.22499129666E+03  0.00000000000E+00 0.  1.
<mgrwt>
<rscale>  0 0.18746011E+04</rscale>
<asrwt>0</asrwt>
<pdfrwt beam="1">  1        1 0.11159283E+00 0.18746011E+04</pdfrwt>
<pdfrwt beam="2">  1       -2 0.18633513E+00 0.18746011E+04</pdfrwt>
<totfact> 0.34742373E+00</totfact>
</mgrwt>
</event>
<event>
12    5  0.5297412E-008  0.1184406E+04  0.7818608E-02  0.9126617E-01
         -2   -1    0    0    0  501 -0.00000000000E+00  0.00000000000E+00  0.40186676065E+03  0.40186676065E+03  0.00000000000E+00 0.  1.
          1   -1    0    0  501    0  0.00000000000E+00 -0.00000000000E+00 -0.87268817874E+03  0.87268817874E+03  0.00000000000E+00 0. -1.
        -24    2    1    2    0    0  0.24083170945E+03 -0.37393504922E+00 -0.12849584019E+03  0.28469624071E+03  0.80874695823E+02 0.  0.
        254    2    1    2    0    0 -0.24083170945E+03  0.37393504922E+00 -0.34232557790E+03  0.98985869868E+03  0.89701359519E+03 0.  0.
         23    2    4    4    0    0 -0.32831562853E+03  0.27837921111E+03 -0.48333553992E+03  0.65374801826E+03  0.92125404279E+02 0.  0.
         23    2    4    4    0    0  0.87483919080E+02 -0.27800527606E+03  0.14100996202E+03  0.33611068042E+03  0.90256359840E+02 0.  0.
          1    1    3    3  502    0  0.82534609306E+02  0.30032132048E+02 -0.73044957974E+02  0.11423421805E+03  0.00000000000E+00 0. -1.
         -2    1    3    3    0  502  0.15829710014E+03 -0.30406067097E+02 -0.55450882219E+02  0.17046202266E+03  0.00000000000E+00 0.  1.
         13    1    5    5    0    0 -0.10836746643E+03  0.10789882869E+03 -0.11124503814E+03  0.18910611710E+03  0.00000000000E+00 0. -1.
        -13    1    5    5    0    0 -0.21994816210E+03  0.17048038242E+03 -0.37209050177E+03  0.46464190116E+03  0.00000000000E+00 0.  1.
          3    1    6    6  503    0  0.31113758407E+02 -0.13312123589E+03  0.18043926172E+02  0.13789457088E+03  0.00000000000E+00 0. -1.
         -3    1    6    6    0  503  0.56370160673E+02 -0.14488404017E+03  0.12296603584E+03  0.19821610954E+03  0.00000000000E+00 0.  1.
<mgrwt>
<rscale>  0 0.11844060E+04</rscale>
<asrwt>0</asrwt>
<pdfrwt beam="1">  1        1 0.13425972E+00 0.11844060E+04</pdfrwt>
<pdfrwt beam="2">  1       -2 0.61825656E-01 0.11844060E+04</pdfrwt>
<totfact> 0.40454659E+01</totfact>
</mgrwt>
</event>
<event>
12    5  0.5297412E-008  0.1360088E+04  0.7818608E-02  0.8983226E-01
          1   -1    0    0  501    0  0.00000000000E+00  0.00000000000E+00  0.84645981373E+03  0.84645981373E+03  0.00000000000E+00 0. -1.
         -2   -1    0    0    0  501 -0.00000000000E+00 -0.00000000000E+00 -0.54634624303E+03  0.54634624303E+03  0.00000000000E+00 0.  1.
        -24    2    1    2    0    0 -0.24928434278E+03 -0.20673631908E+03 -0.11397791804E+03  0.35246241532E+03  0.79725775177E+02 0.  0.
        254    2    1    2    0    0  0.24928434278E+03  0.20673631908E+03  0.41409148873E+03  0.10403436414E+04  0.89775305182E+03 0.  0.
         23    2    4    4    0    0  0.44046171569E+03  0.36301854972E+03  0.49947070796E+03  0.76397820204E+03  0.91666322327E+02 0.  0.
         23    2    4    4    0    0 -0.19117737290E+03 -0.15628223064E+03 -0.85379219231E+02  0.27636543940E+03  0.90085079186E+02 0.  0.
          1    1    3    3  502    0 -0.57807596384E+02 -0.89854413250E+02 -0.17512313746E+02  0.10826917804E+03  0.00000000000E+00 0. -1.
         -2    1    3    3    0  502 -0.19147674640E+03 -0.11688190583E+03 -0.96465604290E+02  0.24419323728E+03  0.00000000000E+00 0.  1.
         13    1    5    5    0    0  0.42445785251E+03  0.34385419938E+03  0.44688667993E+03  0.70576758476E+03  0.00000000000E+00 0.  1.
        -13    1    5    5    0    0  0.16003863175E+02  0.19164350342E+02  0.52584028032E+02  0.58210617284E+02  0.00000000000E+00 0. -1.
          4    1    6    6  503    0 -0.56646553560E+02 -0.25672942909E+02 -0.61296429134E+02  0.87322301003E+02  0.00000000000E+00 0. -1.
         -4    1    6    6    0  503 -0.13453081934E+03 -0.13060928773E+03 -0.24082790097E+02  0.18904313839E+03  0.00000000000E+00 0.  1.
<mgrwt>
<rscale>  0 0.13600884E+04</rscale>
<asrwt>0</asrwt>
<pdfrwt beam="1">  1        1 0.13022459E+00 0.13600884E+04</pdfrwt>
<pdfrwt beam="2">  1       -2 0.84053268E-01 0.13600884E+04</pdfrwt>
<totfact> 0.21365069E+01</totfact>
</mgrwt>
</event>
<event>
12    5  0.5297412E-008  0.1437294E+04  0.7818608E-02  0.8927257E-01
          1   -1    0    0  501    0  0.00000000000E+00  0.00000000000E+00  0.12598773852E+04  0.12598773852E+04  0.00000000000E+00 0. -1.
         -2   -1    0    0    0  501 -0.00000000000E+00 -0.00000000000E+00 -0.40992389597E+03  0.40992389597E+03  0.00000000000E+00 0.  1.
        -24    2    1    2    0    0  0.23689045239E+03 -0.21092957532E+03 -0.82247372854E+02  0.33753466957E+03  0.80973147669E+02 0.  0.
        254    2    1    2    0    0 -0.23689045239E+03  0.21092957532E+03  0.93220086213E+03  0.13322666117E+04  0.89740041508E+03 0.  0.
         23    2    4    4    0    0 -0.48097766259E+03  0.36589964394E+03  0.43232465372E+03  0.74781643759E+03  0.84277854516E+02 0.  0.
         23    2    4    4    0    0  0.24408721021E+03 -0.15497006861E+03  0.49987620840E+03  0.58445017406E+03  0.90063832264E+02 0.  0.
          1    1    3    3  502    0  0.31192542327E+02 -0.72364228778E+01  0.10263337339E+02  0.33625535033E+02  0.00000000000E+00 0. -1.
         -2    1    3    3    0  502  0.20569791006E+03 -0.20369315244E+03 -0.92510710192E+02  0.30390913454E+03  0.00000000000E+00 0.  1.
         13    1    5    5    0    0 -0.38591793982E+03  0.32544177347E+03  0.38098990060E+03  0.63245419483E+03  0.00000000000E+00 0.  1.
        -13    1    5    5    0    0 -0.95059722775E+02  0.40457870462E+02  0.51334753127E+02  0.11536224276E+03  0.00000000000E+00 0. -1.
          1    1    6    6  503    0  0.19247194532E+03 -0.10722102040E+03  0.44006943297E+03  0.49214114112E+03  0.00000000000E+00 0. -1.
         -1    1    6    6    0  503  0.51615264892E+02 -0.47749048210E+02  0.59806775431E+02  0.92309032940E+02  0.00000000000E+00 0.  1.
<mgrwt>
<rscale>  0 0.14372945E+04</rscale>
<asrwt>0</asrwt>
<pdfrwt beam="1">  1        1 0.19382729E+00 0.14372945E+04</pdfrwt>
<pdfrwt beam="2">  1       -2 0.63065215E-01 0.14372945E+04</pdfrwt>
<totfact> 0.19201795E+01</totfact>
</mgrwt>
</event>
<event>
12    5  0.5297412E-008  0.1656045E+04  0.7818608E-02  0.8786838E-01
          1   -1    0    0  501    0  0.00000000000E+00  0.00000000000E+00  0.28635892956E+04  0.28635892956E+04  0.00000000000E+00 0. -1.
         -2   -1    0    0    0  501 -0.00000000000E+00 -0.00000000000E+00 -0.23942732000E+03  0.23942732000E+03  0.00000000000E+00 0.  1.
        -24    2    1    2    0    0 -0.57064834008E+03 -0.67384922345E+02  0.11474267362E+04  0.12855852994E+04  0.77208750852E+02 0.  0.
        254    2    1    2    0    0  0.57064834008E+03  0.67384922345E+02  0.14767352394E+04  0.18174313162E+04  0.89001649767E+03 0.  0.
         23    2    4    4    0    0 -0.12191171868E+03  0.39211043636E+02  0.89233237639E+03  0.90659259393E+03  0.96192974346E+02 0.  0.
         23    2    4    4    0    0  0.69256005876E+03  0.28173878709E+02  0.58440286299E+03  0.91083872229E+03  0.87562944861E+02 0.  0.
          3    1    3    3  502    0 -0.13654566679E+03  0.49477831813E+01  0.21887142431E+03  0.25801918545E+03  0.00000000000E+00 0. -1.
         -4    1    3    3    0  502 -0.43410267329E+03 -0.72332705527E+02  0.92855531189E+03  0.10275661139E+04  0.00000000000E+00 0.  1.
         13    1    5    5    0    0 -0.50381332260E+02 -0.92810272248E+01  0.58802980551E+03  0.59025712048E+03  0.00000000000E+00 0. -1.
        -13    1    5    5    0    0 -0.71530386418E+02  0.48492070861E+02  0.30430257088E+03  0.31633547345E+03  0.00000000000E+00 0.  1.
          2    1    6    6  503    0  0.31588623821E+02  0.16775630414E+02  0.45942472911E+02  0.58223481070E+02  0.00000000000E+00 0. -1.
         -2    1    6    6    0  503  0.66097143494E+03  0.11398248295E+02  0.53846039008E+03  0.85261524122E+03  0.00000000000E+00 0.  1.
<mgrwt>
<rscale>  0 0.16560453E+04</rscale>
<asrwt>0</asrwt>
<pdfrwt beam="1">  1        1 0.44055217E+00 0.16560453E+04</pdfrwt>
<pdfrwt beam="2">  1       -2 0.36834974E-01 0.16560453E+04</pdfrwt>
<totfact> 0.43862745E+00</totfact>
</mgrwt>
</event>
<event>
12    5  0.5297412E-008  0.2577545E+04  0.7818608E-02  0.8375869E-01
         -4   -1    0    0    0  501 -0.00000000000E+00  0.00000000000E+00  0.73274871361E+03  0.73274871361E+03  0.00000000000E+00 0.  1.
          1   -1    0    0  501    0  0.00000000000E+00 -0.00000000000E+00 -0.22667175620E+04  0.22667175620E+04  0.00000000000E+00 0. -1.
        -24    2    1    2    0    0  0.51902546963E+03 -0.32495292382E+03  0.42294453878E+03  0.74853890680E+03  0.80290542902E+02 0.  0.
        254    2    1    2    0    0 -0.51902546963E+03  0.32495292382E+03 -0.19569133872E+04  0.22509273688E+04  0.92853765353E+03 0.  0.
         23    2    4    4    0    0 -0.56833600103E+03  0.59067372106E+03 -0.13763588123E+04  0.16045095517E+04  0.90476884119E+02 0.  0.
         23    2    4    4    0    0  0.49310531402E+02 -0.26572079724E+03 -0.58055457488E+03  0.64641781711E+03  0.88166372661E+02 0.  0.
          1    1    3    3  502    0  0.14202654737E+02 -0.25771205152E+01  0.26722058446E+02  0.30371456326E+02  0.00000000000E+00 0. -1.
         -2    1    3    3    0  502  0.50482281490E+03 -0.32237580331E+03  0.39622248033E+03  0.71816745047E+03  0.00000000000E+00 0.  1.
         13    1    5    5    0    0 -0.43171181516E+03  0.49836383412E+03 -0.11215304695E+04  0.13009889302E+04  0.00000000000E+00 0.  1.
        -13    1    5    5    0    0 -0.13662418587E+03  0.92309886939E+02 -0.25482834284E+03  0.30352062155E+03  0.00000000000E+00 0. -1.
          4    1    6    6  503    0  0.17997083999E+02 -0.14871863209E+03 -0.41558076737E+03  0.44175615533E+03  0.00000000000E+00 0. -1.
         -4    1    6    6    0  503  0.31313447403E+02 -0.11700216515E+03 -0.16497380751E+03  0.20466166178E+03  0.00000000000E+00 0.  1.
<mgrwt>
<rscale>  0 0.25775449E+04</rscale>
<asrwt>0</asrwt>
<pdfrwt beam="1">  1        1 0.34872578E+00 0.25775449E+04</pdfrwt>
<pdfrwt beam="2">  1       -4 0.11273057E+00 0.25775449E+04</pdfrwt>
<totfact> 0.52614348E-01</totfact>
</mgrwt>
</event>
<event>
12    5  0.5297412E-008  0.1647910E+04  0.7818608E-02  0.8791644E-01
          1   -1    0    0  501    0  0.00000000000E+00  0.00000000000E+00  0.94647311535E+03  0.94647311535E+03  0.00000000000E+00 0. -1.
         -2   -1    0    0    0  501 -0.00000000000E+00 -0.00000000000E+00 -0.71729636047E+03  0.71729636047E+03  0.00000000000E+00 0.  1.
        -24    2    1    2    0    0 -0.13749984986E+03  0.35985656939E+03  0.50128513724E+03  0.63728834303E+03  0.80291245462E+02 0.  0.
        254    2    1    2    0    0  0.13749984986E+03 -0.35985656939E+03 -0.27210838236E+03  0.10264811328E+04  0.91171134960E+03 0.  0.
         23    2    4    4    0    0  0.49027412146E+03 -0.12081420148E+03 -0.77615803280E+00  0.51293177202E+03  0.90186555944E+02 0.  0.
         23    2    4    4    0    0 -0.35277427160E+03 -0.23904236791E+03 -0.27133222433E+03  0.51354936077E+03  0.92308339969E+02 0.  0.
          3    1    3    3  502    0 -0.53852015371E+02  0.22434384233E+03  0.33770240421E+03  0.40899035802E+03  0.00000000000E+00 0. -1.
         -4    1    3    3    0  502 -0.83647834487E+02  0.13551272706E+03  0.16358273304E+03  0.22829798501E+03  0.00000000000E+00 0.  1.
         13    1    5    5    0    0  0.48864774015E+03 -0.10893518211E+03  0.19010015718E+01  0.50064668346E+03  0.00000000000E+00 0. -1.
        -13    1    5    5    0    0  0.16263813110E+01 -0.11879019368E+02 -0.26771596046E+01  0.12285088557E+02  0.00000000000E+00 0.  1.
          2    1    6    6  503    0 -0.30304474204E+03 -0.23354012728E+03 -0.21766105996E+03  0.44017433337E+03  0.00000000000E+00 0. -1.
         -2    1    6    6    0  503 -0.49729529560E+02 -0.55022406305E+01 -0.53671164368E+02  0.73375027406E+02  0.00000000000E+00 0.  1.
<mgrwt>
<rscale>  0 0.16479099E+04</rscale>
<asrwt>0</asrwt>
<pdfrwt beam="1">  1        1 0.14561125E+00 0.16479099E+04</pdfrwt>
<pdfrwt beam="2">  1       -2 0.11035329E+00 0.16479099E+04</pdfrwt>
<totfact> 0.91107687E+00</totfact>
</mgrwt>
</event>
<event>
12    5  0.5297412E-008  0.1212878E+04  0.7818608E-02  0.9101659E-01
          1   -1    0    0  501    0  0.00000000000E+00  0.00000000000E+00  0.26330420928E+04  0.26330420928E+04  0.00000000000E+00 0. -1.
         -2   -1    0    0    0  501 -0.00000000000E+00 -0.00000000000E+00 -0.13967426781E+03  0.13967426781E+03  0.00000000000E+00 0.  1.
        -24    2    1    2    0    0 -0.16389359132E+02  0.21302584008E+02  0.11342994636E+04  0.11374248346E+04  0.79859688955E+02 0.  0.
        254    2    1    2    0    0  0.16389359132E+02 -0.21302584008E+02  0.13590683614E+04  0.16352915261E+04  0.90905948824E+03 0.  0.
         23    2    4    4    0    0  0.44337287999E+03  0.14923122324E+02  0.84947782429E+03  0.96297658053E+03  0.94388083927E+02 0.  0.
         23    2    4    4    0    0 -0.42698352085E+03 -0.36225706332E+02  0.50959053707E+03  0.67231494553E+03  0.93261147488E+02 0.  0.
          3    1    3    3  502    0 -0.81226999634E+01  0.33934042983E+02  0.10912057796E+04  0.10917635051E+04  0.00000000000E+00 0. -1.
         -4    1    3    3    0  502 -0.82666591690E+01 -0.12631458975E+02  0.43093683978E+02  0.45661329465E+02  0.00000000000E+00 0.  1.
         13    1    5    5    0    0  0.18608752625E+02 -0.85784217435E+01  0.91606303824E+02  0.93870069214E+02  0.00000000000E+00 0. -1.
        -13    1    5    5    0    0  0.42476412736E+03  0.23501544067E+02  0.75787152047E+03  0.86910651131E+03  0.00000000000E+00 0.  1.
          1    1    6    6  503    0 -0.67790516473E+02 -0.40801865225E+02  0.10002429322E+03  0.12753511502E+03  0.00000000000E+00 0. -1.
         -1    1    6    6    0  503 -0.35919300438E+03  0.45761588931E+01  0.40956624386E+03  0.54477983051E+03  0.00000000000E+00 0.  1.
<mgrwt>
<rscale>  0 0.12128779E+04</rscale>
<asrwt>0</asrwt>
<pdfrwt beam="1">  1        1 0.40508336E+00 0.12128779E+04</pdfrwt>
<pdfrwt beam="2">  1       -2 0.21488351E-01 0.12128779E+04</pdfrwt>
<totfact> 0.18017206E+01</totfact>
</mgrwt>
</event>
<event>
12    5  0.5297412E-008  0.2714850E+04  0.7818608E-02  0.8330203E-01
          1   -1    0    0  501    0  0.00000000000E+00  0.00000000000E+00  0.11726897391E+04  0.11726897391E+04  0.00000000000E+00 0. -1.
         -2   -1    0    0    0  501 -0.00000000000E+00 -0.00000000000E+00 -0.15712621438E+04  0.15712621438E+04  0.00000000000E+00 0.  1.
        -24    2    1    2    0    0 -0.13103792034E+03 -0.12105039263E+04 -0.13344795993E+03  0.12275676645E+04  0.81383785965E+02 0.  0.
        254    2    1    2    0    0  0.13103792034E+03  0.12105039263E+04 -0.26512444473E+03  0.15163842184E+04  0.86408300201E+03 0.  0.
         23    2    4    4    0    0  0.38153646360E+03  0.42644661300E+03 -0.36007768911E+03  0.68207069893E+03  0.90209253191E+02 0.  0.
         23    2    4    4    0    0 -0.25049854326E+03  0.78405731333E+03  0.94953244376E+02  0.83431351945E+03  0.97813799461E+02 0.  0.
          1    1    3    3  502    0 -0.99774537041E+02 -0.87990282614E+03 -0.60720397060E+02  0.88762092602E+03  0.00000000000E+00 0. -1.
         -2    1    3    3    0  502 -0.31263383301E+02 -0.33060110018E+03 -0.72727562866E+02  0.33994673844E+03  0.00000000000E+00 0.  1.
         13    1    5    5    0    0  0.19592372444E+03  0.21631208555E+03 -0.13050658710E+03  0.31970141293E+03  0.00000000000E+00 0.  1.
        -13    1    5    5    0    0  0.18561273915E+03  0.21013452745E+03 -0.22957110200E+03  0.36236928600E+03  0.00000000000E+00 0. -1.
          4    1    6    6  503    0 -0.77712877066E+02  0.40378356586E+03  0.44960006473E+02  0.41364460773E+03  0.00000000000E+00 0. -1.
         -4    1    6    6    0  503 -0.17278566619E+03  0.38027374747E+03  0.49993237902E+02  0.42066891172E+03  0.00000000000E+00 0.  1.
<mgrwt>
<rscale>  0 0.27148503E+04</rscale>
<asrwt>0</asrwt>
<pdfrwt beam="1">  1        1 0.18041381E+00 0.27148503E+04</pdfrwt>
<pdfrwt beam="2">  1       -2 0.24173264E+00 0.27148503E+04</pdfrwt>
<totfact> 0.61889928E-01</totfact>
</mgrwt>
</event>
<event>
12    5  0.5297412E-008  0.1604404E+04  0.7818608E-02  0.8817847E-01
          1   -1    0    0  501    0  0.00000000000E+00  0.00000000000E+00  0.77670537625E+03  0.77670537625E+03  0.00000000000E+00 0. -1.
         -2   -1    0    0    0  501 -0.00000000000E+00 -0.00000000000E+00 -0.82853601541E+03  0.82853601541E+03  0.00000000000E+00 0.  1.
        -24    2    1    2    0    0 -0.47730593451E+03 -0.31199040694E+03 -0.94431509482E+02  0.58343698195E+03  0.79513727076E+02 0.  0.
        254    2    1    2    0    0  0.47730593451E+03  0.31199040694E+03  0.42600870318E+02  0.10218044097E+04  0.84682374106E+03 0.  0.
         23    2    4    4    0    0  0.25151281555E+03 -0.21103286034E+03 -0.20018820823E+03  0.39500233295E+03  0.90321424872E+02 0.  0.
         23    2    4    4    0    0  0.22579311895E+03  0.52302326728E+03  0.24278907854E+03  0.62680207676E+03  0.96945531581E+02 0.  0.
          3    1    3    3  502    0 -0.21361995409E+03 -0.13763006463E+03 -0.21619154693E+01  0.25412633346E+03  0.00000000000E+00 0. -1.
         -4    1    3    3    0  502 -0.26368598041E+03 -0.17436034230E+03 -0.92269594013E+02  0.32931064850E+03  0.00000000000E+00 0.  1.
         13    1    5    5    0    0  0.23985173481E+03 -0.16755395277E+03 -0.15451769733E+03  0.33087595949E+03  0.00000000000E+00 0. -1.
        -13    1    5    5    0    0  0.11661080743E+02 -0.43478907568E+02 -0.45670510891E+02  0.64126373455E+02  0.00000000000E+00 0.  1.
          4    1    6    6  503    0  0.50438144725E+02  0.22905732670E+03  0.80411215804E+02  0.24794602031E+03  0.00000000000E+00 0. -1.
         -4    1    6    6    0  503  0.17535497423E+03  0.29396594058E+03  0.16237786274E+03  0.37885605646E+03  0.00000000000E+00 0.  1.
<mgrwt>
<rscale>  0 0.16044044E+04</rscale>
<asrwt>0</asrwt>
<pdfrwt beam="1">  1        1 0.11949314E+00 0.16044044E+04</pdfrwt>
<pdfrwt beam="2">  1       -2 0.12746708E+00 0.16044044E+04</pdfrwt>
<totfact> 0.88869742E+00</totfact>
</mgrwt>
</event>
<event>
12    5  0.5297412E-008  0.2100461E+04  0.7818608E-02  0.8561040E-01
         -2   -1    0    0    0  501 -0.00000000000E+00  0.00000000000E+00  0.39549724167E+03  0.39549724167E+03  0.00000000000E+00 0.  1.
          1   -1    0    0  501    0  0.00000000000E+00 -0.00000000000E+00 -0.27888532487E+04  0.27888532487E+04  0.00000000000E+00 0. -1.
        -24    2    1    2    0    0 -0.16199134114E+02  0.68940661675E+01 -0.22422097248E+04  0.22436950845E+04  0.79707227670E+02 0.  0.
        254    2    1    2    0    0  0.16199134114E+02 -0.68940661675E+01 -0.15114628230E+03  0.94065540593E+03  0.92826583151E+03 0.  0.
         23    2    4    4    0    0  0.10697966034E+03 -0.12149461395E+02 -0.52558919887E+03  0.54470647782E+03  0.94174751816E+02 0.  0.
         23    2    4    4    0    0 -0.90780526225E+02  0.52553952271E+01  0.37444291657E+03  0.39594892810E+03  0.91100673857E+02 0.  0.
          3    1    3    3  502    0  0.28819863340E+02 -0.11938090213E+02 -0.11022821440E+04  0.11027234592E+04  0.00000000000E+00 0. -1.
         -4    1    3    3    0  502 -0.45018997455E+02  0.18832156381E+02 -0.11399275808E+04  0.11409716253E+04  0.00000000000E+00 0.  1.
         13    1    5    5    0    0 -0.27683076210E+01 -0.30947125304E+02 -0.13701852067E+03  0.14049719961E+03  0.00000000000E+00 0. -1.
        -13    1    5    5    0    0  0.10974796796E+03  0.18797663910E+02 -0.38857067819E+03  0.40420927821E+03  0.00000000000E+00 0.  1.
          2    1    6    6  503    0 -0.36856213908E+02  0.22224620835E+02  0.47269341272E+02  0.63927340780E+02  0.00000000000E+00 0. -1.
         -2    1    6    6    0  503 -0.53924312318E+02 -0.16969225608E+02  0.32717357530E+03  0.33202158732E+03  0.00000000000E+00 0.  1.
<mgrwt>
<rscale>  0 0.21004607E+04</rscale>
<asrwt>0</asrwt>
<pdfrwt beam="1">  1        1 0.42905436E+00 0.21004607E+04</pdfrwt>
<pdfrwt beam="2">  1       -2 0.60845728E-01 0.21004607E+04</pdfrwt>
<totfact> 0.17257970E+00</totfact>
</mgrwt>
</event>
<event>
12    5  0.5297412E-008  0.2441189E+04  0.7818608E-02  0.8424242E-01
          1   -1    0    0  501    0  0.00000000000E+00  0.00000000000E+00  0.71831769381E+03  0.71831769381E+03  0.00000000000E+00 0. -1.
         -2   -1    0    0    0  501 -0.00000000000E+00 -0.00000000000E+00 -0.20740840405E+04  0.20740840405E+04  0.00000000000E+00 0.  1.
        -24    2    1    2    0    0  0.14151182438E+03 -0.45028311092E+03  0.49126240218E+03  0.68599181654E+03  0.80408632322E+02 0.  0.
        254    2    1    2    0    0 -0.14151182438E+03  0.45028311092E+03 -0.18470287488E+04  0.21064099177E+04  0.89591688572E+03 0.  0.
         23    2    4    4    0    0 -0.15396448346E+03 -0.80049527597E+01  0.21823591994E+02  0.18003824128E+03  0.90378967239E+02 0.  0.
         23    2    4    4    0    0  0.12452659085E+02  0.45828806368E+03 -0.18688523408E+04  0.19263716765E+04  0.90087435363E+02 0.  0.
          1    1    3    3  502    0  0.12417314806E+03 -0.37768331190E+03  0.45087030074E+03  0.60112201995E+03  0.00000000000E+00 0. -1.
         -2    1    3    3    0  502  0.17338676316E+02 -0.72599799020E+02  0.40392101440E+02  0.84869796588E+02  0.00000000000E+00 0.  1.
         13    1    5    5    0    0 -0.12299993748E+03 -0.24306426677E+02  0.50130520782E+02  0.13502909357E+03  0.00000000000E+00 0. -1.
        -13    1    5    5    0    0 -0.30964545988E+02  0.16301473917E+02 -0.28306928789E+02  0.45009147710E+02  0.00000000000E+00 0.  1.
          4    1    6    6  503    0  0.18712420348E+02  0.40970866550E+03 -0.15308385002E+04  0.15848273909E+04  0.00000000000E+00 0. -1.
         -4    1    6    6    0  503 -0.62597612627E+01  0.48579398173E+02 -0.33801384063E+03  0.34154428556E+03  0.00000000000E+00 0.  1.
<mgrwt>
<rscale>  0 0.24411893E+04</rscale>
<asrwt>0</asrwt>
<pdfrwt beam="1">  1        1 0.11051041E+00 0.24411893E+04</pdfrwt>
<pdfrwt beam="2">  1       -2 0.31908985E+00 0.24411893E+04</pdfrwt>
<totfact> 0.49739533E-01</totfact>
</mgrwt>
</event>
<event>
12    5  0.5297412E-008  0.1648168E+04  0.7818608E-02  0.8791491E-01
         -2   -1    0    0    0  501 -0.00000000000E+00  0.00000000000E+00  0.96733940311E+03  0.96733940311E+03  0.00000000000E+00 0.  1.
          1   -1    0    0  501    0  0.00000000000E+00 -0.00000000000E+00 -0.70204352695E+03  0.70204352695E+03  0.00000000000E+00 0. -1.
        -24    2    1    2    0    0 -0.18632875010E+02  0.53707406334E+03  0.28110391872E+03  0.61180878328E+03  0.80590574116E+02 0.  0.
        254    2    1    2    0    0  0.18632875010E+02 -0.53707406334E+03 -0.15808042552E+02  0.10575741468E+04  0.91072358494E+03 0.  0.
         23    2    4    4    0    0 -0.30102469182E+03 -0.56434894661E+03 -0.19927536765E+03  0.67615753735E+03  0.91502702325E+02 0.  0.
         23    2    4    4    0    0  0.31965756683E+03  0.27274883273E+02  0.18346732510E+03  0.38141660942E+03  0.94305308833E+02 0.  0.
          3    1    3    3  502    0 -0.37564730234E+02  0.49127652904E+03  0.24347408071E+03  0.54958472042E+03  0.00000000000E+00 0. -1.
         -4    1    3    3    0  502  0.18931855224E+02  0.45797534301E+02  0.37629838006E+02  0.62224062859E+02  0.00000000000E+00 0.  1.
         13    1    5    5    0    0 -0.18764512645E+03 -0.30159315226E+03 -0.69525101839E+02  0.36194317614E+03  0.00000000000E+00 0. -1.
        -13    1    5    5    0    0 -0.11337956537E+03 -0.26275579435E+03 -0.12975026581E+03  0.31421436121E+03  0.00000000000E+00 0.  1.
          1    1    6    6  503    0  0.21847027731E+03  0.14224157506E+02  0.72380546324E+02  0.23058736351E+03  0.00000000000E+00 0. -1.
         -1    1    6    6    0  503  0.10118728953E+03  0.13050725766E+02  0.11108677878E+03  0.15082924592E+03  0.00000000000E+00 0.  1.
<mgrwt>
<rscale>  0 0.16481679E+04</rscale>
<asrwt>0</asrwt>
<pdfrwt beam="1">  1        1 0.10800670E+00 0.16481679E+04</pdfrwt>
<pdfrwt beam="2">  1       -2 0.14882145E+00 0.16481679E+04</pdfrwt>
<totfact> 0.69409365E+00</totfact>
</mgrwt>
</event>
<event>
12    5  0.5297412E-008  0.1776913E+04  0.7818608E-02  0.8718674E-01
         -2   -1    0    0    0  501 -0.00000000000E+00  0.00000000000E+00  0.18371011936E+04  0.18371011936E+04  0.00000000000E+00 0.  1.
          1   -1    0    0  501    0  0.00000000000E+00 -0.00000000000E+00 -0.42967395115E+03  0.42967395115E+03  0.00000000000E+00 0. -1.
        -24    2    1    2    0    0 -0.15282444783E+03 -0.23988023978E+03 -0.23105466568E+03  0.37541925325E+03  0.81581345232E+02 0.  0.
        254    2    1    2    0    0  0.15282444783E+03  0.23988023978E+03  0.16384819081E+04  0.18913558915E+04  0.90094744783E+03 0.  0.
         23    2    4    4    0    0  0.15391071803E+03 -0.18588533806E+03  0.13345699483E+04  0.13593562948E+04  0.92361903436E+02 0.  0.
         23    2    4    4    0    0 -0.10862702074E+01  0.42576557783E+03  0.30391195975E+03  0.53199959665E+03  0.96868902688E+02 0.  0.
          1    1    3    3  502    0 -0.13050390623E+03 -0.15047905913E+03 -0.12606349122E+03  0.23572700439E+03  0.00000000000E+00 0. -1.
         -2    1    3    3    0  502 -0.22320541591E+02 -0.89401180644E+02 -0.10499117446E+03  0.13969224886E+03  0.00000000000E+00 0.  1.
         13    1    5    5    0    0  0.12029219643E+03 -0.77673963853E+02  0.66214371227E+03  0.67744944673E+03  0.00000000000E+00 0. -1.
        -13    1    5    5    0    0  0.33618521608E+02 -0.10821137420E+03  0.67242623606E+03  0.68190684807E+03  0.00000000000E+00 0.  1.
          2    1    6    6  503    0  0.16134600917E+02  0.40980178013E+03  0.30014526316E+03  0.50821747642E+03  0.00000000000E+00 0. -1.
         -2    1    6    6    0  503 -0.17220871125E+02  0.15963797707E+02  0.37666965906E+01  0.23782120232E+02  0.00000000000E+00 0.  1.
<mgrwt>
<rscale>  0 0.17769125E+04</rscale>
<asrwt>0</asrwt>
<pdfrwt beam="1">  1        1 0.66103686E-01 0.17769125E+04</pdfrwt>
<pdfrwt beam="2">  1       -2 0.28263095E+00 0.17769125E+04</pdfrwt>
<totfact> 0.18314586E+00</totfact>
</mgrwt>
</event>
<event>
12    5  0.5297412E-008  0.1643895E+04  0.7818608E-02  0.8794026E-01
          1   -1    0    0  501    0  0.00000000000E+00  0.00000000000E+00  0.16023642445E+04  0.16023642445E+04  0.00000000000E+00 0. -1.
         -2   -1    0    0    0  501 -0.00000000000E+00 -0.00000000000E+00 -0.42162556798E+03  0.42162556798E+03  0.00000000000E+00 0.  1.
        -24    2    1    2    0    0 -0.10027389080E+02  0.12775723315E+03  0.10973581111E+04  0.11077901313E+04  0.81127626397E+02 0.  0.
        254    2    1    2    0    0  0.10027389080E+02 -0.12775723315E+03  0.83380565347E+02  0.91619968114E+03  0.90335324092E+03 0.  0.
         23    2    4    4    0    0 -0.41531301156E+03 -0.27668910950E+02 -0.93715506463E+02  0.43598637038E+03  0.89727659043E+02 0.  0.
         23    2    4    4    0    0  0.42534040064E+03 -0.10008832220E+03  0.17709607181E+03  0.48021331076E+03  0.91157427124E+02 0.  0.
          1    1    3    3  502    0 -0.13369057631E+02  0.18659452629E+02  0.50101173561E+03  0.50153730279E+03  0.00000000000E+00 0. -1.
         -2    1    3    3    0  502  0.33416685508E+01  0.10909778052E+03  0.59634637553E+03  0.60625282850E+03  0.00000000000E+00 0.  1.
         13    1    5    5    0    0 -0.19438980019E+03 -0.25258208867E+01 -0.88431779123E+02  0.21357423475E+03  0.00000000000E+00 0.  1.
        -13    1    5    5    0    0 -0.22092321137E+03 -0.25143090063E+02 -0.52837273398E+01  0.22241213563E+03  0.00000000000E+00 0. -1.
          4    1    6    6  503    0  0.15461846504E+03 -0.74644879529E+02  0.94751797973E+02  0.19610362309E+03  0.00000000000E+00 0. -1.
         -4    1    6    6    0  503  0.27072193560E+03 -0.25443442670E+02  0.82344273837E+02  0.28410968767E+03  0.00000000000E+00 0.  1.
<mgrwt>
<rscale>  0 0.16438951E+04</rscale>
<asrwt>0</asrwt>
<pdfrwt beam="1">  1        1 0.24651757E+00 0.16438951E+04</pdfrwt>
<pdfrwt beam="2">  1       -2 0.64865473E-01 0.16438951E+04</pdfrwt>
<totfact> 0.10228929E+01</totfact>
</mgrwt>
</event>
<event>
12    5  0.5297412E-008  0.1238259E+04  0.7818608E-02  0.9080012E-01
         -2   -1    0    0    0  501 -0.00000000000E+00  0.00000000000E+00  0.28921523198E+03  0.28921523198E+03  0.00000000000E+00 0.  1.
          1   -1    0    0  501    0  0.00000000000E+00 -0.00000000000E+00 -0.13253842240E+04  0.13253842240E+04  0.00000000000E+00 0. -1.
        -24    2    1    2    0    0  0.12069870261E+03  0.24222644908E+03 -0.12942929855E+03  0.31048758455E+03  0.80054777432E+02 0.  0.
        254    2    1    2    0    0 -0.12069870261E+03 -0.24222644908E+03 -0.90673969345E+03  0.13041118714E+04  0.89737900134E+03 0.  0.
         23    2    4    4    0    0 -0.36854306360E+03 -0.45166788830E+03 -0.47843552033E+03  0.75918020251E+03  0.87327897709E+02 0.  0.
         23    2    4    4    0    0  0.24784436099E+03  0.20944143923E+03 -0.42830417312E+03  0.54493166891E+03  0.90628446547E+02 0.  0.
          1    1    3    3  502    0  0.33174689235E+02  0.73260961662E+02 -0.80977065438E+02  0.11412718185E+03  0.00000000000E+00 0. -1.
         -2    1    3    3    0  502  0.87524013372E+02  0.16896548741E+03 -0.48452233116E+02  0.19636040270E+03  0.00000000000E+00 0.  1.
         13    1    5    5    0    0 -0.29997570544E+03 -0.41247668970E+03 -0.40386675663E+03  0.65056191136E+03  0.00000000000E+00 0. -1.
        -13    1    5    5    0    0 -0.68567358157E+02 -0.39191198603E+02 -0.74568763704E+02  0.10861829115E+03  0.00000000000E+00 0.  1.
          2    1    6    6  503    0  0.89836542026E+02  0.13067410986E+03 -0.23070307103E+03  0.27994684184E+03  0.00000000000E+00 0. -1.
         -2    1    6    6    0  503  0.15800781897E+03  0.78767329363E+02 -0.19760110209E+03  0.26498482707E+03  0.00000000000E+00 0.  1.
<mgrwt>
<rscale>  0 0.12382589E+04</rscale>
<asrwt>0</asrwt>
<pdfrwt beam="1">  1        1 0.20390527E+00 0.12382589E+04</pdfrwt>
<pdfrwt beam="2">  1       -2 0.44494651E-01 0.12382589E+04</pdfrwt>
<totfact> 0.35976739E+01</totfact>
</mgrwt>
</event>
<event>
12    5  0.5297412E-008  0.1897362E+04  0.7818608E-02  0.8656171E-01
         -2   -1    0    0    0  501 -0.00000000000E+00  0.00000000000E+00  0.75127764961E+03  0.75127764961E+03  0.00000000000E+00 0.  1.
          1   -1    0    0  501    0  0.00000000000E+00 -0.00000000000E+00 -0.11979531509E+04  0.11979531509E+04  0.00000000000E+00 0. -1.
        -24    2    1    2    0    0  0.44183710941E+03  0.43609443775E+03 -0.57161284090E+03  0.84774182714E+03  0.80787224924E+02 0.  0.
        254    2    1    2    0    0 -0.44183710941E+03 -0.43609443775E+03  0.12493733962E+03  0.11014889734E+04  0.90126035623E+03 0.  0.
         23    2    4    4    0    0  0.22427706112E+03  0.39273099582E+02 -0.69918551868E+02  0.25551896698E+03  0.92513577881E+02 0.  0.
         23    2    4    4    0    0 -0.66611417053E+03 -0.47536753733E+03  0.19485589149E+03  0.84597000638E+03  0.89521223828E+02 0.  0.
          3    1    3    3  502    0  0.16622904205E+03  0.21261773765E+03 -0.21978205610E+03  0.34805538204E+03  0.00000000000E+00 0. -1.
         -4    1    3    3    0  502  0.27560806736E+03  0.22347670010E+03 -0.35183078480E+03  0.49968644510E+03  0.00000000000E+00 0.  1.
         13    1    5    5    0    0  0.82801035336E+02  0.28547695067E+02 -0.72371008849E+02  0.11361577913E+03  0.00000000000E+00 0.  1.
        -13    1    5    5    0    0  0.14147602579E+03  0.10725404515E+02  0.24524569808E+01  0.14190318784E+03  0.00000000000E+00 0. -1.
          4    1    6    6  503    0 -0.61333314010E+03 -0.43656774193E+03  0.15299486633E+03  0.76822936885E+03  0.00000000000E+00 0. -1.
         -4    1    6    6    0  503 -0.52781030439E+02 -0.38799795398E+02  0.41861025157E+02  0.77740637535E+02  0.00000000000E+00 0.  1.
<mgrwt>
<rscale>  0 0.18973618E+04</rscale>
<asrwt>0</asrwt>
<pdfrwt beam="1">  1        1 0.18430048E+00 0.18973618E+04</pdfrwt>
<pdfrwt beam="2">  1       -2 0.11558118E+00 0.18973618E+04</pdfrwt>
<totfact> 0.51265073E+00</totfact>
</mgrwt>
</event>
<event>
12    5  0.5297412E-008  0.1225733E+04  0.7818608E-02  0.9090626E-01
          1   -1    0    0  501    0  0.00000000000E+00  0.00000000000E+00  0.26678045291E+04  0.26678045291E+04  0.00000000000E+00 0. -1.
         -2   -1    0    0    0  501 -0.00000000000E+00 -0.00000000000E+00 -0.14079194515E+03  0.14079194515E+03  0.00000000000E+00 0.  1.
        -24    2    1    2    0    0  0.77076816285E+01  0.16879732039E+03  0.93847378825E+02  0.20938770455E+03  0.80522894725E+02 0.  0.
        254    2    1    2    0    0 -0.77076816285E+01 -0.16879732039E+03  0.24331652051E+04  0.25992087697E+04  0.89835481260E+03 0.  0.
         23    2    4    4    0    0  0.17505573225E+03 -0.76247345429E+02  0.64818361152E+02  0.22027590676E+03  0.88667288668E+02 0.  0.
         23    2    4    4    0    0 -0.18276341387E+03 -0.92549974966E+02  0.23683468439E+04  0.23789328629E+04  0.91032025728E+02 0.  0.
          1    1    3    3  502    0  0.69028780316E+01 -0.33571775754E+01 -0.65539837495E+01  0.10093318056E+02  0.00000000000E+00 0. -1.
         -2    1    3    3    0  502  0.80480359693E+00  0.17215449797E+03  0.10040136257E+03  0.19929438649E+03  0.00000000000E+00 0.  1.
         13    1    5    5    0    0  0.12452740108E+03 -0.17111467974E+02  0.67047089781E+02  0.14246118139E+03  0.00000000000E+00 0.  1.
        -13    1    5    5    0    0  0.50528331170E+02 -0.59135877455E+02 -0.22287286297E+01  0.77814725371E+02  0.00000000000E+00 0. -1.
          4    1    6    6  503    0 -0.89949538373E+02  0.41975616641E+01  0.97853710478E+03  0.98267156487E+03  0.00000000000E+00 0. -1.
         -4    1    6    6    0  503 -0.92813875501E+02 -0.96747536630E+02  0.13898097392E+04  0.13962612980E+04  0.00000000000E+00 0.  1.
<mgrwt>
<rscale>  0 0.12257331E+04</rscale>
<asrwt>0</asrwt>
<pdfrwt beam="1">  1        1 0.41043143E+00 0.12257331E+04</pdfrwt>
<pdfrwt beam="2">  1       -2 0.21660301E-01 0.12257331E+04</pdfrwt>
<totfact> 0.16778247E+01</totfact>
</mgrwt>
</event>
<event>
12    5  0.5297412E-008  0.1808310E+04  0.7818608E-02  0.8701893E-01
         -2   -1    0    0    0  501 -0.00000000000E+00  0.00000000000E+00  0.15647405865E+04  0.15647405865E+04  0.00000000000E+00 0.  1.
          1   -1    0    0  501    0  0.00000000000E+00 -0.00000000000E+00 -0.52244860783E+03  0.52244860783E+03  0.00000000000E+00 0. -1.
        -24    2    1    2    0    0  0.25368802384E+03 -0.40241534891E+03  0.94990558953E+03  0.10655426140E+04  0.82247836928E+02 0.  0.
        254    2    1    2    0    0 -0.25368802384E+03  0.40241534891E+03  0.92386389169E+02  0.10216465804E+04  0.89940578376E+03 0.  0.
         23    2    4    4    0    0 -0.26835435105E+03 -0.11791941712E+03 -0.24662486309E+03  0.39359032216E+03  0.90390662908E+02 0.  0.
         23    2    4    4    0    0  0.14666327217E+02  0.52033476603E+03  0.33901125226E+03  0.62805625824E+03  0.92534666244E+02 0.  0.
          1    1    3    3  502    0  0.44866568413E+02 -0.73438366119E+02  0.11010663231E+03  0.13974860664E+03  0.00000000000E+00 0. -1.
         -2    1    3    3    0  502  0.20882145542E+03 -0.32897698279E+03  0.83979895721E+03  0.92579400732E+03  0.00000000000E+00 0.  1.
         13    1    5    5    0    0 -0.15761349390E+03 -0.10375662232E+03 -0.19234572597E+03  0.26945190375E+03  0.00000000000E+00 0. -1.
        -13    1    5    5    0    0 -0.11074085715E+03 -0.14162794805E+02 -0.54279137120E+02  0.12413841841E+03  0.00000000000E+00 0.  1.
          1    1    6    6  503    0  0.32902625971E+02  0.50113531721E+03  0.32278546874E+03  0.59700054253E+03  0.00000000000E+00 0. -1.
         -1    1    6    6    0  503 -0.18236298755E+02  0.19199448825E+02  0.16225783519E+02  0.31055715710E+02  0.00000000000E+00 0.  1.
<mgrwt>
<rscale>  0 0.18083103E+04</rscale>
<asrwt>0</asrwt>
<pdfrwt beam="1">  1        1 0.80376709E-01 0.18083103E+04</pdfrwt>
<pdfrwt beam="2">  1       -2 0.24072932E+00 0.18083103E+04</pdfrwt>
<totfact> 0.25217813E+00</totfact>
</mgrwt>
</event>
<event>
12    5  0.5297412E-008  0.1345181E+04  0.7818608E-02  0.8994484E-01
         -2   -1    0    0    0  501 -0.00000000000E+00  0.00000000000E+00  0.19609243438E+03  0.19609243438E+03  0.00000000000E+00 0.  1.
          1   -1    0    0  501    0  0.00000000000E+00 -0.00000000000E+00 -0.23069624669E+04  0.23069624669E+04  0.00000000000E+00 0. -1.
        -24    2    1    2    0    0 -0.52160587611E+02  0.30417246328E+03 -0.99487638362E+03  0.10447595426E+04  0.80634166158E+02 0.  0.
        254    2    1    2    0    0  0.52160587611E+02 -0.30417246328E+03 -0.11159936489E+04  0.14582953588E+04  0.88653365114E+03 0.  0.
         23    2    4    4    0    0  0.45640275744E+03 -0.20590048987E+03 -0.68122216945E+03  0.84968621572E+03  0.84879516409E+02 0.  0.
         23    2    4    4    0    0 -0.40424216983E+03 -0.98271973404E+02 -0.43477147949E+03  0.60860914304E+03  0.91157758796E+02 0.  0.
          3    1    3    3  502    0 -0.64370050034E+02  0.24859889261E+03 -0.87775714696E+03  0.91455044792E+03  0.00000000000E+00 0. -1.
         -4    1    3    3    0  502  0.12209462423E+02  0.55573570670E+02 -0.11711923666E+03  0.13020909464E+03  0.00000000000E+00 0.  1.
         13    1    5    5    0    0  0.25940505163E+03 -0.11754315379E+03 -0.45651143723E+03  0.53806139625E+03  0.00000000000E+00 0.  1.
        -13    1    5    5    0    0  0.19699770581E+03 -0.88357336085E+02 -0.22471073222E+03  0.31162481947E+03  0.00000000000E+00 0. -1.
          3    1    6    6  503    0 -0.55087354713E+02  0.12240197572E+02 -0.86116950452E+02  0.10295906099E+03  0.00000000000E+00 0. -1.
         -3    1    6    6    0  503 -0.34915481512E+03 -0.11051217098E+03 -0.34865452904E+03  0.50565008205E+03  0.00000000000E+00 0.  1.
<mgrwt>
<rscale>  0 0.13451809E+04</rscale>
<asrwt>0</asrwt>
<pdfrwt beam="1">  1        1 0.35491731E+00 0.13451809E+04</pdfrwt>
<pdfrwt beam="2">  1       -2 0.30168066E-01 0.13451809E+04</pdfrwt>
<totfact> 0.16103400E+01</totfact>
</mgrwt>
</event>
<event>
12    5  0.5297412E-008  0.1390636E+04  0.7818608E-02  0.8960625E-01
         -2   -1    0    0    0  501 -0.00000000000E+00  0.00000000000E+00  0.14837159278E+03  0.14837159278E+03  0.00000000000E+00 0.  1.
          1   -1    0    0  501    0  0.00000000000E+00 -0.00000000000E+00 -0.32584873266E+04  0.32584873266E+04  0.00000000000E+00 0. -1.
        -24    2    1    2    0    0  0.32875226950E+01 -0.32544578017E+03 -0.13772028970E+04  0.14179758591E+04  0.89676943046E+02 0.  0.
        254    2    1    2    0    0 -0.32875226950E+01  0.32544578017E+03 -0.17329128368E+04  0.19888830602E+04  0.92018648299E+03 0.  0.
         23    2    4    4    0    0 -0.83375989820E+02 -0.24943102086E+03 -0.10571227466E+04  0.10930375667E+04  0.89750938583E+02 0.  0.
         23    2    4    4    0    0  0.80088467125E+02  0.57487680103E+03 -0.67579009026E+03  0.89584549354E+03  0.94601285802E+02 0.  0.
          3    1    3    3  502    0  0.19777445090E+01 -0.26289414182E+03 -0.12341213388E+04  0.12618132668E+04  0.00000000000E+00 0. -1.
         -4    1    3    3    0  502  0.13097781860E+01 -0.62551638348E+02 -0.14308155813E+03  0.15616259237E+03  0.00000000000E+00 0.  1.
         13    1    5    5    0    0  0.11679134977E+02 -0.78415333981E+02 -0.23741322543E+03  0.25030063205E+03  0.00000000000E+00 0. -1.
        -13    1    5    5    0    0 -0.95055124797E+02 -0.17101568688E+03 -0.81970952115E+03  0.84273693462E+03  0.00000000000E+00 0.  1.
          3    1    6    6  503    0  0.26692531085E+02  0.19074162962E+03 -0.29515191632E+03  0.35243370184E+03  0.00000000000E+00 0. -1.
         -3    1    6    6    0  503  0.53395936041E+02  0.38413517140E+03 -0.38063817394E+03  0.54341179170E+03  0.00000000000E+00 0.  1.
<mgrwt>
<rscale>  0 0.13906358E+04</rscale>
<asrwt>0</asrwt>
<pdfrwt beam="1">  1        1 0.50130571E+00 0.13906358E+04</pdfrwt>
<pdfrwt beam="2">  1       -2 0.22826400E-01 0.13906358E+04</pdfrwt>
<totfact> 0.56251725E+00</totfact>
</mgrwt>
</event>
<event>
12    5  0.5297412E-008  0.1244802E+04  0.7818608E-02  0.9074520E-01
         -2   -1    0    0    0  501 -0.00000000000E+00  0.00000000000E+00  0.31803363508E+03  0.31803363508E+03  0.00000000000E+00 0.  1.
          1   -1    0    0  501    0  0.00000000000E+00 -0.00000000000E+00 -0.12180574203E+04  0.12180574203E+04  0.00000000000E+00 0. -1.
        -24    2    1    2    0    0  0.17549063625E+03  0.18528796799E+03 -0.37944798516E+03  0.46925549276E+03  0.10531547626E+03 0.  0.
        254    2    1    2    0    0 -0.17549063625E+03 -0.18528796799E+03 -0.52057580004E+03  0.10668355626E+04  0.89555031102E+03 0.  0.
         23    2    4    4    0    0 -0.38220397981E+03 -0.44195757570E+03 -0.33097358086E+03  0.67769943356E+03  0.91250370569E+02 0.  0.
         23    2    4    4    0    0  0.20671334355E+03  0.25666960770E+03 -0.18960221919E+03  0.38913612905E+03  0.82874794037E+02 0.  0.
          1    1    3    3  502    0  0.54124359003E+02  0.72665296162E+02 -0.22610423773E+03  0.24358328725E+03  0.00000000000E+00 0. -1.
         -2    1    3    3    0  502  0.12136627725E+03  0.11262267183E+03 -0.15334374743E+03  0.22567220551E+03  0.00000000000E+00 0.  1.
         13    1    5    5    0    0 -0.19295261571E+03 -0.15880455826E+03 -0.15869518697E+03  0.29603000186E+03  0.00000000000E+00 0.  1.
        -13    1    5    5    0    0 -0.18925136410E+03 -0.28315301744E+03 -0.17227839389E+03  0.38166943170E+03  0.00000000000E+00 0. -1.
          1    1    6    6  503    0  0.11345612025E+03  0.19403366298E+03 -0.14906383349E+03  0.26970609938E+03  0.00000000000E+00 0. -1.
         -1    1    6    6    0  503  0.93257223303E+02  0.62635944727E+02 -0.40538385695E+02  0.11943002966E+03  0.00000000000E+00 0.  1.
<mgrwt>
<rscale>  0 0.12448024E+04</rscale>
<asrwt>0</asrwt>
<pdfrwt beam="1">  1        1 0.18739345E+00 0.12448024E+04</pdfrwt>
<pdfrwt beam="2">  1       -2 0.48928252E-01 0.12448024E+04</pdfrwt>
<totfact> 0.35469848E+01</totfact>
</mgrwt>
</event>
<event>
12    5  0.5297412E-008  0.3310036E+04  0.7818608E-02  0.8160347E-01
          1   -1    0    0  501    0  0.00000000000E+00  0.00000000000E+00  0.20333539320E+04  0.20333539320E+04  0.00000000000E+00 0. -1.
         -2   -1    0    0    0  501 -0.00000000000E+00 -0.00000000000E+00 -0.13470768430E+04  0.13470768430E+04  0.00000000000E+00 0.  1.
        -24    2    1    2    0    0 -0.13073476179E+03  0.13277016769E+04 -0.44748172843E+03  0.14096338175E+04  0.83332354445E+02 0.  0.
        254    2    1    2    0    0  0.13073476179E+03 -0.13277016769E+04  0.11337588175E+04  0.19707969574E+04  0.90484709779E+03 0.  0.
         23    2    4    4    0    0  0.44887803968E+03 -0.11121816977E+04  0.96072525778E+03  0.15392003326E+04  0.87778242268E+02 0.  0.
         23    2    4    4    0    0 -0.31814327789E+03 -0.21551997923E+03  0.17303355970E+03  0.43159662482E+03  0.93118349731E+02 0.  0.
          3    1    3    3  502    0 -0.11379370056E+02  0.13147583028E+03 -0.71233550640E+02  0.14996533849E+03  0.00000000000E+00 0. -1.
         -4    1    3    3    0  502 -0.11935539174E+03  0.11962258467E+04 -0.37624817779E+03  0.12596684790E+04  0.00000000000E+00 0.  1.
         13    1    5    5    0    0  0.43504465928E+03 -0.10672228231E+04  0.94231863669E+03  0.14886882893E+04  0.00000000000E+00 0.  1.
        -13    1    5    5    0    0  0.13833380404E+02 -0.44958874609E+02  0.18406621089E+02  0.50512043311E+02  0.00000000000E+00 0. -1.
          4    1    6    6  503    0 -0.30309706262E+03 -0.22391350770E+03  0.17228439611E+03  0.41435130197E+03  0.00000000000E+00 0.  1.
         -4    1    6    6    0  503 -0.15046215271E+02  0.83935284696E+01  0.74916359392E+00  0.17245322851E+02  0.00000000000E+00 0. -1.
<mgrwt>
<rscale>  0 0.33100356E+04</rscale>
<asrwt>0</asrwt>
<pdfrwt beam="1">  1        1 0.31282368E+00 0.33100356E+04</pdfrwt>
<pdfrwt beam="2">  1       -2 0.20724259E+00 0.33100356E+04</pdfrwt>
<totfact> 0.24595377E-01</totfact>
</mgrwt>
</event>
<event>
12    5  0.5297412E-008  0.2016390E+04  0.7818608E-02  0.8598996E-01
          1   -1    0    0  501    0  0.00000000000E+00  0.00000000000E+00  0.15784879231E+04  0.15784879231E+04  0.00000000000E+00 0. -1.
         -4   -1    0    0    0  501 -0.00000000000E+00 -0.00000000000E+00 -0.64394361027E+03  0.64394361027E+03  0.00000000000E+00 0.  1.
        -24    2    1    2    0    0  0.77713243028E+03 -0.56669605422E+02  0.60562027909E+03  0.99034066503E+03  0.82779538448E+02 0.  0.
        254    2    1    2    0    0 -0.77713243028E+03  0.56669605422E+02  0.32892403375E+03  0.12320908684E+04  0.89594119758E+03 0.  0.
         23    2    4    4    0    0  0.10775099742E+03  0.22074615495E+03  0.17422029364E+03  0.31374329911E+03  0.87994344436E+02 0.  0.
         23    2    4    4    0    0 -0.88488342770E+03 -0.16407654952E+03  0.15470374012E+03  0.91834756924E+03  0.97412606991E+02 0.  0.
          3    1    3    3  502    0  0.51770593999E+03 -0.27526804142E+02  0.44944975300E+03  0.68613573418E+03  0.00000000000E+00 0. -1.
         -4    1    3    3    0  502  0.25942649029E+03 -0.29142801280E+02  0.15617052609E+03  0.30420493085E+03  0.00000000000E+00 0.  1.
         13    1    5    5    0    0  0.36676333743E+02  0.46402831846E+02  0.89517591434E+02  0.10729294215E+03  0.00000000000E+00 0.  1.
        -13    1    5    5    0    0  0.71074663679E+02  0.17434332310E+03  0.84702702204E+02  0.20645035696E+03  0.00000000000E+00 0. -1.
          1    1    6    6  503    0 -0.76733690003E+03 -0.16819131727E+03  0.15514964055E+03  0.80072819878E+03  0.00000000000E+00 0. -1.
         -1    1    6    6    0  503 -0.11754652767E+03  0.41147677496E+01 -0.44590043286E+00  0.11761937046E+03  0.00000000000E+00 0.  1.
<mgrwt>
<rscale>  0 0.20163901E+04</rscale>
<asrwt>0</asrwt>
<pdfrwt beam="1">  1        1 0.24284429E+00 0.20163901E+04</pdfrwt>
<pdfrwt beam="2">  1       -4 0.99068248E-01 0.20163901E+04</pdfrwt>
<totfact> 0.22120816E+00</totfact>
</mgrwt>
</event>
<event>
12    5  0.5297412E-008  0.1152383E+04  0.7818608E-02  0.9155588E-01
          1   -1    0    0  501    0  0.00000000000E+00  0.00000000000E+00  0.10825325241E+04  0.10825325241E+04  0.00000000000E+00 0. -1.
         -4   -1    0    0    0  501 -0.00000000000E+00 -0.00000000000E+00 -0.30668508230E+03  0.30668508230E+03  0.00000000000E+00 0.  1.
        -24    2    1    2    0    0 -0.39816349078E+02 -0.85984565336E+02 -0.64380125049E+02  0.13918560033E+03  0.79051525645E+02 0.  0.
        254    2    1    2    0    0  0.39816349078E+02  0.85984565336E+02  0.84022756684E+03  0.12500320061E+04  0.92066224263E+03 0.  0.
         23    2    4    4    0    0  0.79786116046E+02 -0.40108786697E+03  0.46954541122E+03  0.62949662415E+03  0.92497596046E+02 0.  0.
         23    2    4    4    0    0 -0.39969766968E+02  0.48707243231E+03  0.37068215562E+03  0.62053538192E+03  0.93924241489E+02 0.  0.
          3    1    3    3  502    0 -0.53247123102E+02 -0.86536012576E+02 -0.36020810478E+02  0.10780183848E+03  0.00000000000E+00 0. -1.
         -4    1    3    3    0  502  0.13430774024E+02  0.55144724031E+00 -0.28359314571E+02  0.31383761850E+02  0.00000000000E+00 0.  1.
         13    1    5    5    0    0  0.82356118894E+02 -0.35745787720E+03  0.45268610519E+03  0.58265201804E+03  0.00000000000E+00 0.  1.
        -13    1    5    5    0    0 -0.25700028481E+01 -0.43629989771E+02  0.16859306031E+02  0.46844606113E+02  0.00000000000E+00 0. -1.
          4    1    6    6  503    0 -0.14258078946E+02  0.99507088545E+01  0.26383839323E+02  0.31597727756E+02  0.00000000000E+00 0. -1.
         -4    1    6    6    0  503 -0.25711688022E+02  0.47712172345E+03  0.34429831629E+03  0.58893765416E+03  0.00000000000E+00 0.  1.
<mgrwt>
<rscale>  0 0.11523829E+04</rscale>
<asrwt>0</asrwt>
<pdfrwt beam="1">  1        1 0.16654346E+00 0.11523829E+04</pdfrwt>
<pdfrwt beam="2">  1       -4 0.47182321E-01 0.11523829E+04</pdfrwt>
<totfact> 0.27608310E+01</totfact>
</mgrwt>
</event>
<event>
12    5  0.5297412E-008  0.1361589E+04  0.7818608E-02  0.8982101E-01
          1   -1    0    0  501    0  0.00000000000E+00  0.00000000000E+00  0.93099318717E+03  0.93099318717E+03  0.00000000000E+00 0. -1.
         -2   -1    0    0    0  501 -0.00000000000E+00 -0.00000000000E+00 -0.49783549894E+03  0.49783549894E+03  0.00000000000E+00 0.  1.
        -24    2    1    2    0    0  0.25134351381E+03 -0.87619739576E+02 -0.16168375517E+03  0.32187556181E+03  0.81310884307E+02 0.  0.
        254    2    1    2    0    0 -0.25134351381E+03  0.87619739576E+02  0.59484144340E+03  0.11069531243E+04  0.89479500217E+03 0.  0.
         23    2    4    4    0    0 -0.36462539226E+03  0.18787188258E+03 -0.63854359937E+02  0.42521474164E+03  0.92101445581E+02 0.  0.
         23    2    4    4    0    0  0.11328187845E+03 -0.10025214300E+03  0.65869580334E+03  0.68173838266E+03  0.89463874780E+02 0.  0.
          1    1    3    3  502    0  0.78208480726E+02 -0.65283049450E+02 -0.41862880227E+02  0.11014056357E+03  0.00000000000E+00 0. -1.
         -2    1    3    3    0  502  0.17313503309E+03 -0.22336690126E+02 -0.11982087494E+03  0.21173499824E+03  0.00000000000E+00 0.  1.
         13    1    5    5    0    0 -0.32311944330E+03  0.18205036866E+03 -0.31392654096E+02  0.37220157186E+03  0.00000000000E+00 0. -1.
        -13    1    5    5    0    0 -0.41505948962E+02  0.58215139230E+01 -0.32461705841E+02  0.53013169776E+02  0.00000000000E+00 0.  1.
          1    1    6    6  503    0  0.10972029185E+02 -0.26269850755E+02  0.33691097550E+02  0.44108735385E+02  0.00000000000E+00 0. -1.
         -1    1    6    6    0  503  0.10230984926E+03 -0.73982292247E+02  0.62500470579E+03  0.63762964728E+03  0.00000000000E+00 0.  1.
<mgrwt>
<rscale>  0 0.13615895E+04</rscale>
<asrwt>0</asrwt>
<pdfrwt beam="1">  1        1 0.14322972E+00 0.13615895E+04</pdfrwt>
<pdfrwt beam="2">  1       -2 0.76590077E-01 0.13615895E+04</pdfrwt>
<totfact> 0.22430463E+01</totfact>
</mgrwt>
</event>
<event>
12    5  0.5297412E-008  0.1754565E+04  0.7818608E-02  0.8730841E-01
          1   -1    0    0  501    0  0.00000000000E+00  0.00000000000E+00  0.10403711263E+04  0.10403711263E+04  0.00000000000E+00 0. -1.
         -2   -1    0    0    0  501 -0.00000000000E+00 -0.00000000000E+00 -0.73975979841E+03  0.73975979841E+03  0.00000000000E+00 0.  1.
        -24    2    1    2    0    0 -0.21408338820E+03  0.45574789681E+03  0.52285527604E+03  0.73019922454E+03  0.79217581877E+02 0.  0.
        254    2    1    2    0    0  0.21408338820E+03 -0.45574789681E+03 -0.22224394816E+03  0.10499317002E+04  0.89410645899E+03 0.  0.
         23    2    4    4    0    0  0.55605083889E+02 -0.21611382824E+02  0.31622031142E+03  0.33444534367E+03  0.91101181781E+02 0.  0.
         23    2    4    4    0    0  0.15847830431E+03 -0.43413651398E+03 -0.53846425958E+03  0.71548635651E+03  0.91581012204E+02 0.  0.
          1    1    3    3  502    0 -0.14423327772E+03  0.38065194603E+03  0.41183808094E+03  0.57905936426E+03  0.00000000000E+00 0. -1.
         -2    1    3    3    0  502 -0.69850110478E+02  0.75095950774E+02  0.11101719510E+03  0.15113986028E+03  0.00000000000E+00 0.  1.
         13    1    5    5    0    0  0.29767477629E+02 -0.48055298939E+02  0.98160193345E+02  0.11327328916E+03  0.00000000000E+00 0.  1.
        -13    1    5    5    0    0  0.25837606259E+02  0.26443916115E+02  0.21806011808E+03  0.22117205450E+03  0.00000000000E+00 0. -1.
          2    1    6    6  503    0  0.76508835852E+02 -0.27748417770E+03 -0.27423993078E+03  0.39756585677E+03  0.00000000000E+00 0. -1.
         -2    1    6    6    0  503  0.81969468459E+02 -0.15665233628E+03 -0.26422432881E+03  0.31792049974E+03  0.00000000000E+00 0.  1.
<mgrwt>
<rscale>  0 0.17545652E+04</rscale>
<asrwt>0</asrwt>
<pdfrwt beam="1">  1        1 0.16005710E+00 0.17545652E+04</pdfrwt>
<pdfrwt beam="2">  1       -2 0.11380920E+00 0.17545652E+04</pdfrwt>
<totfact> 0.70710474E+00</totfact>
</mgrwt>
</event>
<event>
12    5  0.5297412E-008  0.2744942E+04  0.7818608E-02  0.8320568E-01
          1   -1    0    0  501    0  0.00000000000E+00  0.00000000000E+00  0.18977638792E+04  0.18977638792E+04  0.00000000000E+00 0. -1.
         -2   -1    0    0    0  501 -0.00000000000E+00 -0.00000000000E+00 -0.99257682375E+03  0.99257682375E+03  0.00000000000E+00 0.  1.
        -24    2    1    2    0    0  0.10782490430E+04  0.22018383337E+03 -0.15827433397E+03  0.11147037070E+04  0.80072907272E+02 0.  0.
        254    2    1    2    0    0 -0.10782490430E+04 -0.22018383337E+03  0.10634613894E+04  0.17756369959E+04  0.90046360020E+03 0.  0.
         23    2    4    4    0    0 -0.10750441379E+04 -0.12116066135E+03  0.49768745032E+03  0.11943432483E+04  0.91450490114E+02 0.  0.
         23    2    4    4    0    0 -0.32049050929E+01 -0.99023172016E+02  0.56577393908E+03  0.58129374765E+03  0.89366721463E+02 0.  0.
          1    1    3    3  502    0  0.68522796812E+02 -0.39982656896E+01 -0.21471411024E+01  0.68672920619E+02  0.00000000000E+00 0. -1.
         -2    1    3    3    0  502  0.10097262462E+04  0.22418209906E+03 -0.15612719287E+03  0.10460307864E+04  0.00000000000E+00 0.  1.
         13    1    5    5    0    0 -0.10376198575E+04 -0.10023290916E+03  0.47169415774E+03  0.11442014610E+04  0.00000000000E+00 0.  1.
        -13    1    5    5    0    0 -0.37424280357E+02 -0.20927752196E+02  0.25993292584E+02  0.50141787279E+02  0.00000000000E+00 0. -1.
          3    1    6    6  503    0  0.23818445654E+02  0.17400452410E+01  0.54784446290E+02  0.59763547972E+02  0.00000000000E+00 0. -1.
         -3    1    6    6    0  503 -0.27023350747E+02 -0.10076321726E+03  0.51098949279E+03  0.52153019968E+03  0.00000000000E+00 0.  1.
<mgrwt>
<rscale>  0 0.27449419E+04</rscale>
<asrwt>0</asrwt>
<pdfrwt beam="1">  1        1 0.29196367E+00 0.27449419E+04</pdfrwt>
<pdfrwt beam="2">  1       -2 0.15270413E+00 0.27449419E+04</pdfrwt>
<totfact> 0.76361297E-01</totfact>
</mgrwt>
</event>
<event>
12    5  0.5297412E-008  0.1519053E+04  0.7818608E-02  0.8871881E-01
         -2   -1    0    0    0  501 -0.00000000000E+00  0.00000000000E+00  0.37995750109E+03  0.37995750109E+03  0.00000000000E+00 0.  1.
          1   -1    0    0  501    0  0.00000000000E+00 -0.00000000000E+00 -0.15182760487E+04  0.15182760487E+04  0.00000000000E+00 0. -1.
        -24    2    1    2    0    0 -0.23367956341E+03  0.42420059041E+03 -0.45349296705E+03  0.66819880089E+03  0.79255833103E+02 0.  0.
        254    2    1    2    0    0  0.23367956341E+03 -0.42420059041E+03 -0.68482558053E+03  0.12300347489E+04  0.89969279671E+03 0.  0.
         23    2    4    4    0    0 -0.20963715141E+03 -0.27682498037E+02  0.91304132257E+02  0.24784387501E+03  0.91520958613E+02 0.  0.
         23    2    4    4    0    0  0.44331671482E+03 -0.39651809238E+03 -0.77612971279E+03  0.98219087387E+03  0.92548767780E+02 0.  0.
          3    1    3    3  502    0 -0.10377174793E+02  0.52531650170E+02 -0.78031438402E+02  0.94637019213E+02  0.00000000000E+00 0. -1.
         -2    1    3    3    0  502 -0.22330238861E+03  0.37166894024E+03 -0.37546152865E+03  0.57356178167E+03  0.00000000000E+00 0.  1.
         13    1    5    5    0    0 -0.66547076435E+01  0.39902573736E+01  0.33558393453E+02  0.34443766619E+02  0.00000000000E+00 0. -1.
        -13    1    5    5    0    0 -0.20298244377E+03 -0.31672755411E+02  0.57745738803E+02  0.21340010840E+03  0.00000000000E+00 0.  1.
          1    1    6    6  503    0  0.15858267078E+03 -0.86598434315E+02 -0.24940656796E+03  0.30797952601E+03  0.00000000000E+00 0. -1.
         -1    1    6    6    0  503  0.28473404404E+03 -0.30991965806E+03 -0.52672314483E+03  0.67421134786E+03  0.00000000000E+00 0.  1.
<mgrwt>
<rscale>  0 0.15190528E+04</rscale>
<asrwt>0</asrwt>
<pdfrwt beam="1">  1        1 0.23358093E+00 0.15190528E+04</pdfrwt>
<pdfrwt beam="2">  1       -2 0.58455000E-01 0.15190528E+04</pdfrwt>
<totfact> 0.14736014E+01</totfact>
</mgrwt>
</event>
<event>
12    5  0.5297412E-008  0.1122252E+04  0.7818608E-02  0.9183771E-01
          1   -1    0    0  501    0  0.00000000000E+00  0.00000000000E+00  0.10384145191E+04  0.10384145191E+04  0.00000000000E+00 0. -1.
         -2   -1    0    0    0  501 -0.00000000000E+00 -0.00000000000E+00 -0.30321466919E+03  0.30321466919E+03  0.00000000000E+00 0.  1.
        -24    2    1    2    0    0  0.13309323295E+03 -0.80120601486E+02  0.22894165706E+03  0.28785861507E+03  0.79468109920E+02 0.  0.
        254    2    1    2    0    0 -0.13309323295E+03  0.80120601486E+02  0.50625819281E+03  0.10537705732E+04  0.91104442465E+03 0.  0.
         23    2    4    4    0    0 -0.36748270162E+03 -0.28542416374E+03  0.20195942736E+03  0.51581745954E+03  0.93645886358E+02 0.  0.
         23    2    4    4    0    0  0.23438946867E+03  0.36554476522E+03  0.30429876545E+03  0.53795311364E+03  0.90743679757E+02 0.  0.
          3    1    3    3  502    0  0.87697883563E+02 -0.40101059152E+02  0.19721702244E+03  0.21953033428E+03  0.00000000000E+00 0. -1.
         -4    1    3    3    0  502  0.45395349390E+02 -0.40019542334E+02  0.31724634614E+02  0.68328280794E+02  0.00000000000E+00 0.  1.
         13    1    5    5    0    0 -0.54955420873E+02 -0.10965918615E+02  0.70496906920E+01  0.56480508083E+02  0.00000000000E+00 0.  1.
        -13    1    5    5    0    0 -0.31252728075E+03 -0.27445824512E+03  0.19490973667E+03  0.45933695146E+03  0.00000000000E+00 0. -1.
          2    1    6    6  503    0  0.34895336610E+02  0.15047560692E+02  0.11927129069E+02  0.39829260697E+02  0.00000000000E+00 0.  1.
         -2    1    6    6    0  503  0.19949413206E+03  0.35049720453E+03  0.29237163639E+03  0.49812385295E+03  0.00000000000E+00 0. -1.
<mgrwt>
<rscale>  0 0.11222522E+04</rscale>
<asrwt>0</asrwt>
<pdfrwt beam="1">  1        1 0.15975608E+00 0.11222522E+04</pdfrwt>
<pdfrwt beam="2">  1       -2 0.46648411E-01 0.11222522E+04</pdfrwt>
<totfact> 0.53676546E+01</totfact>
</mgrwt>
</event>
<event>
12    5  0.5297412E-008  0.1263291E+04  0.7818608E-02  0.9059193E-01
         -2   -1    0    0    0  501 -0.00000000000E+00  0.00000000000E+00  0.18502449700E+03  0.18502449700E+03  0.00000000000E+00 0.  1.
          1   -1    0    0  501    0  0.00000000000E+00 -0.00000000000E+00 -0.21563429591E+04  0.21563429591E+04  0.00000000000E+00 0. -1.
        -24    2    1    2    0    0 -0.21712430305E+03  0.78407313188E+02 -0.86708889908E+03  0.90093931711E+03  0.80980395556E+02 0.  0.
        254    2    1    2    0    0  0.21712430305E+03 -0.78407313188E+02 -0.11042295630E+04  0.14404281390E+04  0.89566714019E+03 0.  0.
         23    2    4    4    0    0  0.31680117184E+03 -0.36923022307E+03 -0.30955238738E+03  0.58398410074E+03  0.92308229798E+02 0.  0.
         23    2    4    4    0    0 -0.99676868791E+02  0.29082290988E+03 -0.79467717566E+03  0.85644403826E+03  0.86435722177E+02 0.  0.
          3    1    3    3  502    0 -0.13114998665E+03  0.25735470823E+02 -0.36197608931E+03  0.38586179221E+03  0.00000000000E+00 0. -1.
         -4    1    3    3    0  502 -0.85974316402E+02  0.52671842365E+02 -0.50511280977E+03  0.51507752490E+03  0.00000000000E+00 0.  1.
         13    1    5    5    0    0  0.27225042207E+03 -0.26050288135E+03 -0.22080547193E+03  0.43673458753E+03  0.00000000000E+00 0. -1.
        -13    1    5    5    0    0  0.44550749770E+02 -0.10872734171E+03 -0.88746915444E+02  0.14724951322E+03  0.00000000000E+00 0.  1.
          4    1    6    6  503    0 -0.24754765491E+01 -0.54889084042E+01 -0.67292449543E+01  0.90298857839E+01  0.00000000000E+00 0.  1.
         -4    1    6    6    0  503 -0.97201392242E+02  0.29631181828E+03 -0.78794793071E+03  0.84741415247E+03  0.00000000000E+00 0. -1.
<mgrwt>
<rscale>  0 0.12632914E+04</rscale>
<asrwt>0</asrwt>
<pdfrwt beam="1">  1        1 0.33174506E+00 0.12632914E+04</pdfrwt>
<pdfrwt beam="2">  1       -2 0.28465308E-01 0.12632914E+04</pdfrwt>
<totfact> 0.22870911E+01</totfact>
</mgrwt>
</event>
<event>
12    5  0.5297412E-008  0.1809151E+04  0.7818608E-02  0.8701448E-01
         -2   -1    0    0    0  501 -0.00000000000E+00  0.00000000000E+00  0.35436801222E+03  0.35436801222E+03  0.00000000000E+00 0.  1.
          1   -1    0    0  501    0  0.00000000000E+00 -0.00000000000E+00 -0.23090592828E+04  0.23090592828E+04  0.00000000000E+00 0. -1.
        -24    2    1    2    0    0 -0.40773407016E+03  0.49455107770E+03 -0.10672863141E+04  0.12475415784E+04  0.80200207220E+02 0.  0.
        254    2    1    2    0    0  0.40773407016E+03 -0.49455107770E+03 -0.88740495647E+03  0.14158857166E+04  0.89800721891E+03 0.  0.
         23    2    4    4    0    0  0.68319961300E+03 -0.34909079557E+03 -0.54604226854E+03  0.94518990956E+03  0.81213984951E+02 0.  0.
         23    2    4    4    0    0 -0.27546554284E+03 -0.14546028213E+03 -0.34136268793E+03  0.47069580701E+03  0.89364976681E+02 0.  0.
          1    1    3    3  502    0  0.16598880285E+01 -0.12998422684E+01 -0.87965210603E+01  0.90456398864E+01  0.00000000000E+00 0. -1.
         -2    1    3    3    0  502 -0.40939395818E+03  0.49585091996E+03 -0.10584897930E+04  0.12384959385E+04  0.00000000000E+00 0.  1.
         13    1    5    5    0    0  0.51126506773E+03 -0.28993344152E+03 -0.44469401103E+03  0.73702519186E+03  0.00000000000E+00 0. -1.
        -13    1    5    5    0    0  0.17193454527E+03 -0.59157354054E+02 -0.10134825751E+03  0.20816471771E+03  0.00000000000E+00 0.  1.
          4    1    6    6  503    0 -0.13558737798E+03 -0.61498641386E+02 -0.99926388960E+02  0.17930784470E+03  0.00000000000E+00 0. -1.
         -4    1    6    6    0  503 -0.13987816487E+03 -0.83961640741E+02 -0.24143629897E+03  0.29138796231E+03  0.00000000000E+00 0.  1.
<mgrwt>
<rscale>  0 0.18091509E+04</rscale>
<asrwt>0</asrwt>
<pdfrwt beam="1">  1        1 0.35523990E+00 0.18091509E+04</pdfrwt>
<pdfrwt beam="2">  1       -2 0.54518155E-01 0.18091509E+04</pdfrwt>
<totfact> 0.48133665E+00</totfact>
</mgrwt>
</event>
<event>
12    5  0.5297412E-008  0.2023669E+04  0.7818608E-02  0.8595634E-01
         -2   -1    0    0    0  501 -0.00000000000E+00  0.00000000000E+00  0.60148071794E+03  0.60148071794E+03  0.00000000000E+00 0.  1.
          1   -1    0    0  501    0  0.00000000000E+00 -0.00000000000E+00 -0.17021476616E+04  0.17021476616E+04  0.00000000000E+00 0. -1.
        -24    2    1    2    0    0  0.33590620349E+03  0.56696492129E+03 -0.98196443914E+03  0.11852854906E+04  0.79783049817E+02 0.  0.
        254    2    1    2    0    0 -0.33590620349E+03 -0.56696492129E+03 -0.11870250456E+03  0.11183428890E+04  0.89572224109E+03 0.  0.
         23    2    4    4    0    0 -0.53181008339E+03 -0.85704005541E+02 -0.20848072852E+03  0.58378560086E+03  0.84701075805E+02 0.  0.
         23    2    4    4    0    0  0.19590387990E+03 -0.48126091575E+03  0.89778223964E+02  0.53455728810E+03  0.87755145622E+02 0.  0.
          3    1    3    3  502    0  0.33605294136E+03  0.56943650572E+03 -0.97957493929E+03  0.11818445647E+04  0.00000000000E+00 0. -1.
         -4    1    3    3    0  502 -0.14673786598E+00 -0.24715844375E+01 -0.23894998505E+01  0.34409259173E+01  0.00000000000E+00 0.  1.
         13    1    5    5    0    0 -0.36293681414E+03 -0.42395897368E+02 -0.17929136873E+03  0.40702080791E+03  0.00000000000E+00 0.  1.
        -13    1    5    5    0    0 -0.16887326925E+03 -0.43308108172E+02 -0.29189359797E+02  0.17676479295E+03  0.00000000000E+00 0. -1.
          1    1    6    6  503    0  0.15486150254E+03 -0.30008562771E+03  0.28254339385E+02  0.33886837654E+03  0.00000000000E+00 0. -1.
         -1    1    6    6    0  503  0.41042377359E+02 -0.18117528804E+03  0.61523884579E+02  0.19568891157E+03  0.00000000000E+00 0.  1.
<mgrwt>
<rscale>  0 0.20236689E+04</rscale>
<asrwt>0</asrwt>
<pdfrwt beam="1">  1        1 0.26186887E+00 0.20236689E+04</pdfrwt>
<pdfrwt beam="2">  1       -2 0.92535495E-01 0.20236689E+04</pdfrwt>
<totfact> 0.38256186E+00</totfact>
</mgrwt>
</event>
<event>
12    5  0.5297412E-008  0.1718318E+04  0.7818608E-02  0.8750985E-01
         -2   -1    0    0    0  501 -0.00000000000E+00  0.00000000000E+00  0.80023457170E+03  0.80023457170E+03  0.00000000000E+00 0.  1.
          1   -1    0    0  501    0  0.00000000000E+00 -0.00000000000E+00 -0.92242280289E+03  0.92242280289E+03  0.00000000000E+00 0. -1.
        -24    2    1    2    0    0 -0.23103239016E+03  0.40445199180E+03  0.36956718097E+03  0.60017141807E+03  0.81660583199E+02 0.  0.
        254    2    1    2    0    0  0.23103239016E+03 -0.40445199180E+03 -0.49175541216E+03  0.11224859565E+04  0.89509438508E+03 0.  0.
         23    2    4    4    0    0  0.75655795214E+02 -0.43941329602E+03 -0.70668812565E+03  0.84047030312E+03  0.90412274769E+02 0.  0.
         23    2    4    4    0    0  0.15537659494E+03  0.34961304222E+02  0.21493271349E+03  0.28201565339E+03  0.89289296019E+02 0.  0.
          1    1    3    3  502    0 -0.19514287581E+03  0.26729580889E+03  0.25136853275E+03  0.41558865563E+03  0.00000000000E+00 0. -1.
         -2    1    3    3    0  502 -0.35889514342E+02  0.13715618290E+03  0.11819864822E+03  0.18458276244E+03  0.00000000000E+00 0.  1.
         13    1    5    5    0    0  0.80024233855E+02 -0.42950467595E+03 -0.65283416918E+03  0.78553841225E+03  0.00000000000E+00 0. -1.
        -13    1    5    5    0    0 -0.43684386409E+01 -0.99086200709E+01 -0.53853956467E+02  0.54931890874E+02  0.00000000000E+00 0.  1.
          3    1    6    6  503    0  0.84936774742E+02 -0.11866402609E+02  0.15886471101E+03  0.18053549130E+03  0.00000000000E+00 0. -1.
         -3    1    6    6    0  503  0.70439820199E+02  0.46827706830E+02  0.56068002475E+02  0.10148016209E+03  0.00000000000E+00 0.  1.
<mgrwt>
<rscale>  0 0.17183185E+04</rscale>
<asrwt>0</asrwt>
<pdfrwt beam="1">  1        1 0.14191120E+00 0.17183185E+04</pdfrwt>
<pdfrwt beam="2">  1       -2 0.12311301E+00 0.17183185E+04</pdfrwt>
<totfact> 0.72355907E+00</totfact>
</mgrwt>
</event>
<event>
12    5  0.5297412E-008  0.1407703E+04  0.7818608E-02  0.8948261E-01
         -2   -1    0    0    0  501 -0.00000000000E+00  0.00000000000E+00  0.65952428799E+03  0.65952428799E+03  0.00000000000E+00 0.  1.
          1   -1    0    0  501    0  0.00000000000E+00 -0.00000000000E+00 -0.75115805523E+03  0.75115805523E+03  0.00000000000E+00 0. -1.
        -24    2    1    2    0    0  0.10474890286E+03  0.88067120549E+02 -0.42017590234E+03  0.44903414561E+03  0.79722798813E+02 0.  0.
        254    2    1    2    0    0 -0.10474890286E+03 -0.88067120549E+02  0.32854213510E+03  0.96164819761E+03  0.89336396337E+03 0.  0.
         23    2    4    4    0    0 -0.11093351551E+03  0.38037448696E+03  0.25114154715E+03  0.47821779375E+03  0.92893413988E+02 0.  0.
         23    2    4    4    0    0  0.61846126504E+01 -0.46844160751E+03  0.77400587948E+02  0.48343040386E+03  0.90765165580E+02 0.  0.
          1    1    3    3  502    0  0.46225770635E+02  0.77831385011E+01 -0.22719928211E+03  0.23198472559E+03  0.00000000000E+00 0. -1.
         -2    1    3    3    0  502  0.58523132221E+02  0.80283982048E+02 -0.19297662023E+03  0.21704942003E+03  0.00000000000E+00 0.  1.
         13    1    5    5    0    0 -0.76100593600E+02  0.27512020138E+03  0.12895257794E+03  0.31322706286E+03  0.00000000000E+00 0. -1.
        -13    1    5    5    0    0 -0.34832921905E+02  0.10525428558E+03  0.12218896921E+03  0.16499073089E+03  0.00000000000E+00 0.  1.
          4    1    6    6  503    0 -0.15416560679E+02 -0.41256837391E+03  0.89183630778E+02  0.42237904007E+03  0.00000000000E+00 0. -1.
         -4    1    6    6    0  503  0.21601173330E+02 -0.55873233596E+02 -0.11783042829E+02  0.61051363785E+02  0.00000000000E+00 0.  1.
<mgrwt>
<rscale>  0 0.14077031E+04</rscale>
<asrwt>0</asrwt>
<pdfrwt beam="1">  1        1 0.11556278E+00 0.14077031E+04</pdfrwt>
<pdfrwt beam="2">  1       -2 0.10146528E+00 0.14077031E+04</pdfrwt>
<totfact> 0.16639563E+01</totfact>
</mgrwt>
</event>
<event>
12    5  0.5297412E-008  0.1571427E+04  0.7818608E-02  0.8838297E-01
          1   -1    0    0  501    0  0.00000000000E+00  0.00000000000E+00  0.11421568529E+04  0.11421568529E+04  0.00000000000E+00 0. -1.
         -2   -1    0    0    0  501 -0.00000000000E+00 -0.00000000000E+00 -0.54050848669E+03  0.54050848669E+03  0.00000000000E+00 0.  1.
        -24    2    1    2    0    0  0.34615457804E+03 -0.29349989369E+03 -0.81678775841E+02  0.46820459182E+03  0.81110652084E+02 0.  0.
        254    2    1    2    0    0 -0.34615457804E+03  0.29349989369E+03  0.68332714206E+03  0.12144607478E+04  0.89555220134E+03 0.  0.
         23    2    4    4    0    0  0.11873792693E+03 -0.24272438798E+03  0.23363720637E+03  0.36987929337E+03  0.95971473128E+02 0.  0.
         23    2    4    4    0    0 -0.46489250497E+03  0.53622428167E+03  0.44968993569E+03  0.84458145441E+03  0.86228031600E+02 0.  0.
          3    1    3    3  502    0  0.25195761681E+03 -0.23573390181E+03 -0.92366991889E+02  0.35719010949E+03  0.00000000000E+00 0. -1.
         -4    1    3    3    0  502  0.94196961230E+02 -0.57765991886E+02  0.10688216048E+02  0.11101448232E+03  0.00000000000E+00 0.  1.
         13    1    5    5    0    0  0.72090303662E+02 -0.20659661565E+03  0.21792520851E+03  0.30882125896E+03  0.00000000000E+00 0. -1.
        -13    1    5    5    0    0  0.46647623268E+02 -0.36127772324E+02  0.15711997863E+02  0.61058034415E+02  0.00000000000E+00 0.  1.
          3    1    6    6  503    0 -0.38799019003E+03  0.47540666824E+03  0.35848987039E+03  0.71067775745E+03  0.00000000000E+00 0. -1.
         -3    1    6    6    0  503 -0.76902314941E+02  0.60817613433E+02  0.91200065305E+02  0.13390369696E+03  0.00000000000E+00 0.  1.
<mgrwt>
<rscale>  0 0.15714267E+04</rscale>
<asrwt>0</asrwt>
<pdfrwt beam="1">  1        1 0.17571644E+00 0.15714267E+04</pdfrwt>
<pdfrwt beam="2">  1       -2 0.83155152E-01 0.15714267E+04</pdfrwt>
<totfact> 0.12594638E+01</totfact>
</mgrwt>
</event>
<event>
12    5  0.5297412E-008  0.1857271E+04  0.7818608E-02  0.8676423E-01
         -2   -1    0    0    0  501 -0.00000000000E+00  0.00000000000E+00  0.94667181902E+03  0.94667181902E+03  0.00000000000E+00 0.  1.
          1   -1    0    0  501    0  0.00000000000E+00 -0.00000000000E+00 -0.91094266733E+03  0.91094266733E+03  0.00000000000E+00 0. -1.
        -24    2    1    2    0    0 -0.43669378793E+03  0.31577544321E+02 -0.54262257103E+03  0.70139956393E+03  0.76311781342E+02 0.  0.
        254    2    1    2    0    0  0.43669378793E+03 -0.31577544321E+02  0.57835172272E+03  0.11562149224E+04  0.90035749895E+03 0.  0.
         23    2    4    4    0    0  0.66333243591E+03  0.47011231938E+02  0.59812388876E+03  0.89895570308E+03  0.90272882679E+02 0.  0.
         23    2    4    4    0    0 -0.22663864798E+03 -0.78588776259E+02 -0.19772166035E+02  0.25725921933E+03  0.90830032863E+02 0.  0.
          1    1    3    3  502    0 -0.38331193306E+03  0.33566690487E+02 -0.50977234202E+03  0.63868818795E+03  0.00000000000E+00 0. -1.
         -2    1    3    3    0  502 -0.53381854865E+02 -0.19891461666E+01 -0.32850229006E+02  0.62711375978E+02  0.00000000000E+00 0.  1.
         13    1    5    5    0    0  0.46240178471E+03  0.63765988167E+02  0.37981660454E+03  0.60178248964E+03  0.00000000000E+00 0.  1.
        -13    1    5    5    0    0  0.20093065120E+03 -0.16754756228E+02  0.21830728422E+03  0.29717321344E+03  0.00000000000E+00 0. -1.
          4    1    6    6  503    0 -0.72574517630E+02 -0.65164873114E+02  0.15178132993E+02  0.98711179804E+02  0.00000000000E+00 0. -1.
         -4    1    6    6    0  503 -0.15406413035E+03 -0.13423903145E+02 -0.34950299028E+02  0.15854803953E+03  0.00000000000E+00 0.  1.
<mgrwt>
<rscale>  0 0.18572708E+04</rscale>
<asrwt>0</asrwt>
<pdfrwt beam="1">  1        1 0.14014503E+00 0.18572708E+04</pdfrwt>
<pdfrwt beam="2">  1       -2 0.14564182E+00 0.18572708E+04</pdfrwt>
<totfact> 0.47502256E+00</totfact>
</mgrwt>
</event>
<event>
12    5  0.5297412E-008  0.1881779E+04  0.7818608E-02  0.8663980E-01
         -2   -1    0    0    0  501 -0.00000000000E+00  0.00000000000E+00  0.35153533324E+03  0.35153533324E+03  0.00000000000E+00 0.  1.
          1   -1    0    0  501    0  0.00000000000E+00 -0.00000000000E+00 -0.25183049737E+04  0.25183049737E+04  0.00000000000E+00 0. -1.
        -24    2    1    2    0    0  0.19404756633E+03 -0.59620595147E+03 -0.28886768032E+03  0.69503255457E+03  0.80682839629E+02 0.  0.
        254    2    1    2    0    0 -0.19404756633E+03  0.59620595147E+03 -0.18779019602E+04  0.21748077524E+04  0.90008721431E+03 0.  0.
         23    2    4    4    0    0  0.94978785597E+02  0.28626302454E+03 -0.16590980213E+04  0.16892487899E+04  0.99938686023E+02 0.  0.
         23    2    4    4    0    0 -0.28902635193E+03  0.30994292693E+03 -0.21880393883E+03  0.48555896247E+03  0.91057631873E+02 0.  0.
          3    1    3    3  502    0  0.96156745885E+02 -0.17618176825E+03 -0.99159537875E+02  0.22387217155E+03  0.00000000000E+00 0. -1.
         -4    1    3    3    0  502  0.97890820449E+02 -0.42002418322E+03 -0.18970814245E+03  0.47116038302E+03  0.00000000000E+00 0.  1.
         13    1    5    5    0    0  0.56327700581E+02  0.25455800402E+03 -0.14997642651E+04  0.15222566926E+04  0.00000000000E+00 0. -1.
        -13    1    5    5    0    0  0.38651085016E+02  0.31705020522E+02 -0.15933375619E+03  0.16699209731E+03  0.00000000000E+00 0.  1.
          3    1    6    6  503    0 -0.18892101583E+03  0.21736248742E+03 -0.10044992976E+03  0.30500457299E+03  0.00000000000E+00 0. -1.
         -3    1    6    6    0  503 -0.10010533611E+03  0.92580439514E+02 -0.11835400907E+03  0.18055438948E+03  0.00000000000E+00 0.  1.
<mgrwt>
<rscale>  0 0.18817791E+04</rscale>
<asrwt>0</asrwt>
<pdfrwt beam="1">  1        1 0.38743154E+00 0.18817791E+04</pdfrwt>
<pdfrwt beam="2">  1       -2 0.54082359E-01 0.18817791E+04</pdfrwt>
<totfact> 0.34894172E+00</totfact>
</mgrwt>
</event>
<event>
12    5  0.5297412E-008  0.1775690E+04  0.7818608E-02  0.8719335E-01
          1   -1    0    0  501    0  0.00000000000E+00  0.00000000000E+00  0.26120561262E+03  0.26120561262E+03  0.00000000000E+00 0. -1.
         -2   -1    0    0    0  501 -0.00000000000E+00 -0.00000000000E+00 -0.30178103186E+04  0.30178103186E+04  0.00000000000E+00 0.  1.
        -24    2    1    2    0    0 -0.56211494390E+02 -0.26693547381E+03  0.75724715798E+02  0.29500773844E+03  0.82952117976E+02 0.  0.
        254    2    1    2    0    0  0.56211494390E+02  0.26693547381E+03 -0.28323294218E+04  0.29840081928E+04  0.89877731492E+03 0.  0.
         23    2    4    4    0    0 -0.18404255813E+03 -0.72344148015E+02 -0.22611328129E+04  0.22716454799E+04  0.92445928203E+02 0.  0.
         23    2    4    4    0    0  0.24025405252E+03  0.33927962183E+03 -0.57119660887E+03  0.71236271291E+03  0.91446143807E+02 0.  0.
          3    1    3    3  502    0 -0.34414605073E+02 -0.25940421751E+03  0.73700130150E+02  0.27185772435E+03  0.00000000000E+00 0. -1.
         -4    1    3    3    0  502 -0.21796889317E+02 -0.75312563013E+01  0.20245856480E+01  0.23150014091E+02  0.00000000000E+00 0.  1.
         13    1    5    5    0    0 -0.30449442773E+02  0.42598406556E+00 -0.12095004081E+03  0.12472474654E+03  0.00000000000E+00 0. -1.
        -13    1    5    5    0    0 -0.15359311536E+03 -0.72770132081E+02 -0.21401827721E+04  0.21469207334E+04  0.00000000000E+00 0.  1.
          3    1    6    6  503    0  0.30619491754E+02  0.82604270290E+02 -0.17429678411E+03  0.19529564178E+03  0.00000000000E+00 0. -1.
         -3    1    6    6    0  503  0.20963456077E+03  0.25667535154E+03 -0.39689982476E+03  0.51706707113E+03  0.00000000000E+00 0.  1.
<mgrwt>
<rscale>  0 0.17756903E+04</rscale>
<asrwt>0</asrwt>
<pdfrwt beam="1">  1        1 0.40185477E-01 0.17756903E+04</pdfrwt>
<pdfrwt beam="2">  1       -2 0.46427853E+00 0.17756903E+04</pdfrwt>
<totfact> 0.24316993E-01</totfact>
</mgrwt>
</event>
<event>
12    5  0.5297412E-008  0.1524337E+04  0.7818608E-02  0.8868428E-01
         -2   -1    0    0    0  501 -0.00000000000E+00  0.00000000000E+00  0.49871784764E+03  0.49871784764E+03  0.00000000000E+00 0.  1.
          1   -1    0    0  501    0  0.00000000000E+00 -0.00000000000E+00 -0.11647886795E+04  0.11647886795E+04  0.00000000000E+00 0. -1.
        -24    2    1    2    0    0 -0.41651209133E+03  0.32846065504E+02  0.58530562694E+02  0.42964838467E+03  0.81306343166E+02 0.  0.
        254    2    1    2    0    0  0.41651209133E+03 -0.32846065504E+02 -0.72460139459E+03  0.12338581425E+04  0.90708188634E+03 0.  0.
         23    2    4    4    0    0  0.11505373979E+03  0.21790065891E+03  0.12700891907E+03  0.29178972735E+03  0.91059976239E+02 0.  0.
         23    2    4    4    0    0  0.30145835154E+03 -0.25074672442E+03 -0.85161031366E+03  0.94206841514E+03  0.92204744760E+02 0.  0.
          1    1    3    3  502    0 -0.32643507064E+02 -0.18727735749E+02  0.12238930123E+02  0.39574209408E+02  0.00000000000E+00 0. -1.
         -2    1    3    3    0  502 -0.38386858427E+03  0.51573801252E+02  0.46291632571E+02  0.39007417526E+03  0.00000000000E+00 0.  1.
         13    1    5    5    0    0  0.32416210266E+02  0.19047193306E+02 -0.68759866844E+01  0.38221531284E+02  0.00000000000E+00 0.  1.
        -13    1    5    5    0    0  0.82637529520E+02  0.19885346561E+03  0.13388490576E+03  0.25356819607E+03  0.00000000000E+00 0. -1.
          2    1    6    6  503    0  0.67724177739E+02 -0.85596334567E+02 -0.32319911620E+03  0.34113188865E+03  0.00000000000E+00 0.  1.
         -2    1    6    6    0  503  0.23373417381E+03 -0.16515038985E+03 -0.52841119746E+03  0.60093652650E+03  0.00000000000E+00 0. -1.
<mgrwt>
<rscale>  0 0.15243371E+04</rscale>
<asrwt>0</asrwt>
<pdfrwt beam="1">  1        1 0.17919826E+00 0.15243371E+04</pdfrwt>
<pdfrwt beam="2">  1       -2 0.76725824E-01 0.15243371E+04</pdfrwt>
<totfact> 0.14578557E+01</totfact>
</mgrwt>
</event>
<event>
12    5  0.5297412E-008  0.1571854E+04  0.7818608E-02  0.8838028E-01
          1   -1    0    0  501    0  0.00000000000E+00  0.00000000000E+00  0.24043011753E+04  0.24043011753E+04  0.00000000000E+00 0. -1.
         -2   -1    0    0    0  501 -0.00000000000E+00 -0.00000000000E+00 -0.25690690299E+03  0.25690690299E+03  0.00000000000E+00 0.  1.
        -24    2    1    2    0    0  0.65433597412E+02  0.51070974612E+03  0.57682626937E+03  0.77745466696E+03  0.81247853410E+02 0.  0.
        254    2    1    2    0    0 -0.65433597412E+02 -0.51070974612E+03  0.15705680030E+04  0.18837534114E+04  0.90373506208E+03 0.  0.
         23    2    4    4    0    0  0.20984821833E+03  0.16112522111E+03  0.65063534385E+03  0.70842990853E+03  0.92460656670E+02 0.  0.
         23    2    4    4    0    0 -0.27528181574E+03 -0.67183496723E+03  0.91993265911E+03  0.11753235028E+04  0.89257704003E+02 0.  0.
          3    1    3    3  502    0  0.54267105418E+02  0.34657285666E+03  0.33563840119E+03  0.48550056649E+03  0.00000000000E+00 0. -1.
         -4    1    3    3    0  502  0.11166491995E+02  0.16413688946E+03  0.24118786818E+03  0.29195410047E+03  0.00000000000E+00 0.  1.
         13    1    5    5    0    0 -0.92094904822E+01  0.49748388287E+01  0.36224829242E+02  0.37706789706E+02  0.00000000000E+00 0. -1.
        -13    1    5    5    0    0  0.21905770881E+03  0.15615038228E+03  0.61441051461E+03  0.67072311883E+03  0.00000000000E+00 0.  1.
          4    1    6    6  503    0 -0.18142691767E+03 -0.44044168077E+03  0.66957402522E+03  0.82172621710E+03  0.00000000000E+00 0.  1.
         -4    1    6    6    0  503 -0.93854898063E+02 -0.23139328646E+03  0.25035863389E+03  0.35359728573E+03  0.00000000000E+00 0. -1.
<mgrwt>
<rscale>  0 0.15718544E+04</rscale>
<asrwt>0</asrwt>
<pdfrwt beam="1">  1        1 0.36989247E+00 0.15718544E+04</pdfrwt>
<pdfrwt beam="2">  1       -2 0.39524140E-01 0.15718544E+04</pdfrwt>
<totfact> 0.80818144E+00</totfact>
</mgrwt>
</event>
<event>
12    5  0.5297412E-008  0.1975426E+04  0.7818608E-02  0.8618197E-01
         -2   -1    0    0    0  501 -0.00000000000E+00  0.00000000000E+00  0.11626885349E+04  0.11626885349E+04  0.00000000000E+00 0.  1.
          1   -1    0    0  501    0  0.00000000000E+00 -0.00000000000E+00 -0.83907008956E+03  0.83907008956E+03  0.00000000000E+00 0. -1.
        -24    2    1    2    0    0 -0.51218440835E+02  0.74788144512E+03 -0.38785286478E+02  0.75504949867E+03  0.81519705367E+02 0.  0.
        254    2    1    2    0    0  0.51218440835E+02 -0.74788144512E+03  0.36240373185E+03  0.12467091258E+04  0.92789934524E+03 0.  0.
         23    2    4    4    0    0 -0.28428795620E+03  0.67305939736E+02  0.97380732884E+02  0.32162517782E+03  0.92790173541E+02 0.  0.
         23    2    4    4    0    0  0.33550639704E+03 -0.81518738485E+03  0.26502299896E+03  0.92508394799E+03  0.91913578840E+02 0.  0.
          3    1    3    3  502    0 -0.65983691039E+02  0.69643521620E+03 -0.26085079399E+02  0.70004020542E+03  0.00000000000E+00 0. -1.
         -4    1    3    3    0  502  0.14765250204E+02  0.51446228922E+02 -0.12700207078E+02  0.55009293248E+02  0.00000000000E+00 0.  1.
         13    1    5    5    0    0 -0.40144846465E+02 -0.88254090644E+01  0.44309555070E+02  0.60438673160E+02  0.00000000000E+00 0. -1.
        -13    1    5    5    0    0 -0.24414310974E+03  0.76131348800E+02  0.53071177814E+02  0.26118650466E+03  0.00000000000E+00 0.  1.
          2    1    6    6  503    0  0.18414601677E+03 -0.42765890451E+03  0.18712970022E+03  0.50181612051E+03  0.00000000000E+00 0.  1.
         -2    1    6    6    0  503  0.15136038026E+03 -0.38752848035E+03  0.77893298743E+02  0.42326782748E+03  0.00000000000E+00 0. -1.
<mgrwt>
<rscale>  0 0.19754262E+04</rscale>
<asrwt>0</asrwt>
<pdfrwt beam="1">  1        1 0.12908771E+00 0.19754262E+04</pdfrwt>
<pdfrwt beam="2">  1       -2 0.17887516E+00 0.19754262E+04</pdfrwt>
<totfact> 0.30754710E+00</totfact>
</mgrwt>
</event>
<event>
12    5  0.5297412E-008  0.1776328E+04  0.7818608E-02  0.8718990E-01
          1   -1    0    0  501    0  0.00000000000E+00  0.00000000000E+00  0.22715584026E+04  0.22715584026E+04  0.00000000000E+00 0. -1.
         -2   -1    0    0    0  501 -0.00000000000E+00 -0.00000000000E+00 -0.34726626838E+03  0.34726626838E+03  0.00000000000E+00 0.  1.
        -24    2    1    2    0    0  0.20614539084E+03  0.10280810097E+03 -0.18564725401E+03  0.30621648004E+03  0.78982288765E+02 0.  0.
        254    2    1    2    0    0 -0.20614539084E+03 -0.10280810097E+03  0.21099393882E+04  0.23126081909E+04  0.91828481147E+03 0.  0.
         23    2    4    4    0    0 -0.38595851212E+03  0.74805298709E+02  0.19715736836E+04  0.20124362794E+04  0.90758926360E+02 0.  0.
         23    2    4    4    0    0  0.17981312128E+03 -0.17761339967E+03  0.13836570457E+03  0.30017191154E+03  0.84135782806E+02 0.  0.
          1    1    3    3  502    0  0.11736453102E+02  0.35969641623E+02 -0.32244873990E+02  0.49712084533E+02  0.00000000000E+00 0. -1.
         -2    1    3    3    0  502  0.19440893774E+03  0.66838459342E+02 -0.15340238002E+03  0.25650439551E+03  0.00000000000E+00 0.  1.
         13    1    5    5    0    0 -0.50895382868E+02  0.10095657985E+02  0.45464880938E+03  0.45760004608E+03  0.00000000000E+00 0. -1.
        -13    1    5    5    0    0 -0.33506312925E+03  0.64709640724E+02  0.15169248743E+04  0.15548362333E+04  0.00000000000E+00 0.  1.
          4    1    6    6  503    0  0.93408791591E+02 -0.14676241443E+03  0.80394201027E+02  0.19164455691E+03  0.00000000000E+00 0. -1.
         -4    1    6    6    0  503  0.86404329689E+02 -0.30850985246E+02  0.57971503539E+02  0.10852735463E+03  0.00000000000E+00 0.  1.
<mgrwt>
<rscale>  0 0.17763284E+04</rscale>
<asrwt>0</asrwt>
<pdfrwt beam="1">  1        1 0.34947051E+00 0.17763284E+04</pdfrwt>
<pdfrwt beam="2">  1       -2 0.53425581E-01 0.17763284E+04</pdfrwt>
<totfact> 0.53403870E+00</totfact>
</mgrwt>
</event>
<event>
12    5  0.5297412E-008  0.1696542E+04  0.7818608E-02  0.8763339E-01
          1   -1    0    0  501    0  0.00000000000E+00  0.00000000000E+00  0.26111025443E+04  0.26111025443E+04  0.00000000000E+00 0. -1.
         -2   -1    0    0    0  501 -0.00000000000E+00 -0.00000000000E+00 -0.27557846405E+03  0.27557846405E+03  0.00000000000E+00 0.  1.
        -24    2    1    2    0    0  0.54327107424E+03 -0.23543177703E+03  0.63945531240E+03  0.87574780830E+03  0.86368660091E+02 0.  0.
        254    2    1    2    0    0 -0.54327107424E+03  0.23543177703E+03  0.16960687678E+04  0.20109332000E+04  0.90367665014E+03 0.  0.
         23    2    4    4    0    0 -0.69118403138E+03  0.87867499293E+02  0.16278106493E+04  0.17730071759E+04  0.91273617784E+02 0.  0.
         23    2    4    4    0    0  0.14791295714E+03  0.14756427774E+03  0.68258118563E+02  0.23792602411E+03  0.91083276430E+02 0.  0.
          3    1    3    3  502    0  0.23710518572E+03 -0.74639461131E+02  0.21847932362E+03  0.33094279431E+03  0.00000000000E+00 0. -1.
         -4    1    3    3    0  502  0.30616588852E+03 -0.16079231590E+03  0.42097598878E+03  0.54480501400E+03  0.00000000000E+00 0.  1.
         13    1    5    5    0    0 -0.60844997738E+03  0.88694122659E+02  0.14953030485E+04  0.16167897913E+04  0.00000000000E+00 0.  1.
        -13    1    5    5    0    0 -0.82734053995E+02 -0.82662336605E+00  0.13250760077E+03  0.15621738463E+03  0.00000000000E+00 0. -1.
          2    1    6    6  503    0  0.96081966606E+02  0.41035568229E+02  0.73995464803E+01  0.10473975107E+03  0.00000000000E+00 0.  1.
         -2    1    6    6    0  503  0.51830990531E+02  0.10652870951E+03  0.60858572083E+02  0.13318627304E+03  0.00000000000E+00 0. -1.
<mgrwt>
<rscale>  0 0.16965419E+04</rscale>
<asrwt>0</asrwt>
<pdfrwt beam="1">  1        1 0.40170807E+00 0.16965419E+04</pdfrwt>
<pdfrwt beam="2">  1       -2 0.42396689E-01 0.16965419E+04</pdfrwt>
<totfact> 0.50062791E+00</totfact>
</mgrwt>
</event>
<event>
12    5  0.5297412E-008  0.2040700E+04  0.7818608E-02  0.8587825E-01
          1   -1    0    0  501    0  0.00000000000E+00  0.00000000000E+00  0.77840940088E+03  0.77840940088E+03  0.00000000000E+00 0. -1.
         -2   -1    0    0    0  501 -0.00000000000E+00 -0.00000000000E+00 -0.13374893429E+04  0.13374893429E+04  0.00000000000E+00 0.  1.
        -24    2    1    2    0    0 -0.46357949781E+03  0.60707273036E+03  0.81294850347E+02  0.77250271159E+03  0.81904431980E+02 0.  0.
        254    2    1    2    0    0  0.46357949781E+03 -0.60707273036E+03 -0.64037479237E+03  0.13433960322E+04  0.90066074295E+03 0.  0.
         23    2    4    4    0    0  0.32217743850E+03 -0.73437915794E+03 -0.16577117357E+03  0.82397806484E+03  0.91371329529E+02 0.  0.
         23    2    4    4    0    0  0.14140205931E+03  0.12730642758E+03 -0.47460361881E+03  0.51941796736E+03  0.91350757823E+02 0.  0.
          3    1    3    3  502    0 -0.45101298765E+03  0.58558942373E+03  0.93056802381E+02  0.74497466849E+03  0.00000000000E+00 0. -1.
         -4    1    3    3    0  502 -0.12566510159E+02  0.21483306632E+02 -0.11761952034E+02  0.27528043103E+02  0.00000000000E+00 0.  1.
         13    1    5    5    0    0  0.10422818323E+03 -0.30359931482E+03 -0.29540228711E+02  0.32234869823E+03  0.00000000000E+00 0. -1.
        -13    1    5    5    0    0  0.21794925527E+03 -0.43077984312E+03 -0.13623094485E+03  0.50162936661E+03  0.00000000000E+00 0.  1.
          4    1    6    6  503    0  0.76642266463E+02  0.12337744187E+03 -0.34985791616E+03  0.37880943978E+03  0.00000000000E+00 0.  1.
         -4    1    6    6    0  503  0.64759792851E+02  0.39289857069E+01 -0.12474570265E+03  0.14060852758E+03  0.00000000000E+00 0. -1.
<mgrwt>
<rscale>  0 0.20407002E+04</rscale>
<asrwt>0</asrwt>
<pdfrwt beam="1">  1        1 0.11975529E+00 0.20407002E+04</pdfrwt>
<pdfrwt beam="2">  1       -2 0.20576759E+00 0.20407002E+04</pdfrwt>
<totfact> 0.22804278E+00</totfact>
</mgrwt>
</event>
<event>
12    5  0.5297412E-008  0.2195601E+04  0.7818608E-02  0.8520261E-01
         -2   -1    0    0    0  501 -0.00000000000E+00  0.00000000000E+00  0.13591391563E+04  0.13591391563E+04  0.00000000000E+00 0.  1.
          1   -1    0    0  501    0  0.00000000000E+00 -0.00000000000E+00 -0.88671239829E+03  0.88671239829E+03  0.00000000000E+00 0. -1.
        -24    2    1    2    0    0  0.32189000198E+03  0.36276951072E+03 -0.59812657885E+03  0.77423655762E+03  0.80448440278E+02 0.  0.
        254    2    1    2    0    0 -0.32189000198E+03 -0.36276951072E+03  0.10705533368E+04  0.14716149969E+04  0.88563613348E+03 0.  0.
         23    2    4    4    0    0  0.52655213802E+02 -0.49131517358E+03  0.90041342251E+03  0.10311255298E+04  0.91172120064E+02 0.  0.
         23    2    4    4    0    0 -0.37454521578E+03  0.12854566287E+03  0.17013991433E+03  0.44048946712E+03  0.90968533518E+02 0.  0.
          3    1    3    3  502    0  0.25831730413E+03  0.31929602860E+03 -0.46472278963E+03  0.62019759327E+03  0.00000000000E+00 0. -1.
         -2    1    3    3    0  502  0.63572697845E+02  0.43473482114E+02 -0.13340378923E+03  0.15403896435E+03  0.00000000000E+00 0.  1.
         13    1    5    5    0    0  0.38874068727E+02 -0.21350840362E+03  0.48315855627E+03  0.52965953416E+03  0.00000000000E+00 0. -1.
        -13    1    5    5    0    0  0.13781145075E+02 -0.27780676996E+03  0.41725486625E+03  0.50146599566E+03  0.00000000000E+00 0.  1.
          3    1    6    6  503    0 -0.12516654235E+03  0.13250767554E+02  0.20138099848E+02  0.12746681619E+03  0.00000000000E+00 0. -1.
         -3    1    6    6    0  503 -0.24937867343E+03  0.11529489531E+03  0.15000181448E+03  0.31302265093E+03  0.00000000000E+00 0.  1.
<mgrwt>
<rscale>  0 0.21956006E+04</rscale>
<asrwt>0</asrwt>
<pdfrwt beam="1">  1        1 0.13641729E+00 0.21956006E+04</pdfrwt>
<pdfrwt beam="2">  1       -2 0.20909833E+00 0.21956006E+04</pdfrwt>
<totfact> 0.17309325E+00</totfact>
</mgrwt>
</event>
<event>
12    5  0.5297412E-008  0.1185507E+04  0.7818608E-02  0.9125638E-01
         -2   -1    0    0    0  501 -0.00000000000E+00  0.00000000000E+00  0.19219748081E+03  0.19219748081E+03  0.00000000000E+00 0.  1.
          1   -1    0    0  501    0  0.00000000000E+00 -0.00000000000E+00 -0.18281013772E+04  0.18281013772E+04  0.00000000000E+00 0. -1.
        -24    2    1    2    0    0  0.66358631049E+01 -0.58235150013E+02 -0.74643481086E+03  0.75293871353E+03  0.79475858581E+02 0.  0.
        254    2    1    2    0    0 -0.66358631049E+01  0.58235150013E+02 -0.88946908552E+03  0.12673601445E+04  0.90089461887E+03 0.  0.
         23    2    4    4    0    0 -0.17435101748E+03 -0.14962253047E+03 -0.94755310085E+03  0.97915910019E+03  0.90058234726E+02 0.  0.
         23    2    4    4    0    0  0.16771515438E+03  0.20785768049E+03  0.58084015332E+02  0.28820104427E+03  0.91394205153E+02 0.  0.
          1    1    3    3  502    0  0.56506176607E+01 -0.70362601671E+02 -0.72385981115E+03  0.72729351117E+03  0.00000000000E+00 0. -1.
         -2    1    3    3    0  502  0.98524544422E+00  0.12127451658E+02 -0.22574999716E+02  0.25645202368E+02  0.00000000000E+00 0.  1.
         13    1    5    5    0    0 -0.87756449571E+02 -0.11053434352E+03 -0.69814656663E+03  0.71226937603E+03  0.00000000000E+00 0.  1.
        -13    1    5    5    0    0 -0.86594567912E+02 -0.39088186958E+02 -0.24940653422E+03  0.26688972416E+03  0.00000000000E+00 0. -1.
          3    1    6    6  503    0  0.90567542299E+02  0.13474410379E+03 -0.88475843039E+01  0.16259376670E+03  0.00000000000E+00 0. -1.
         -3    1    6    6    0  503  0.77147612080E+02  0.73113576703E+02  0.66931599636E+02  0.12560727757E+03  0.00000000000E+00 0.  1.
<mgrwt>
<rscale>  0 0.11855066E+04</rscale>
<asrwt>0</asrwt>
<pdfrwt beam="1">  1        1 0.28124638E+00 0.11855066E+04</pdfrwt>
<pdfrwt beam="2">  1       -2 0.29568842E-01 0.11855066E+04</pdfrwt>
<totfact> 0.35754492E+01</totfact>
</mgrwt>
</event>
<event>
12    5  0.5297412E-008  0.1435112E+04  0.7818608E-02  0.8928787E-01
         -2   -1    0    0    0  501 -0.00000000000E+00  0.00000000000E+00  0.32844137724E+03  0.32844137724E+03  0.00000000000E+00 0.  1.
          1   -1    0    0  501    0  0.00000000000E+00 -0.00000000000E+00 -0.15676672664E+04  0.15676672664E+04  0.00000000000E+00 0. -1.
        -24    2    1    2    0    0  0.98892775278E+02 -0.23471319159E+03  0.79594461317E+02  0.27834399625E+03  0.79183575747E+02 0.  0.
        254    2    1    2    0    0 -0.98892775278E+02  0.23471319159E+03 -0.13188203504E+04  0.16177646473E+04  0.90166805099E+03 0.  0.
         23    2    4    4    0    0 -0.98963533615E+02 -0.26824347294E+03 -0.92433967056E+03  0.97193302656E+03  0.92204337110E+02 0.  0.
         23    2    4    4    0    0  0.70758337233E-01  0.50295666453E+03 -0.39448067987E+03  0.64583162078E+03  0.92293359531E+02 0.  0.
          1    1    3    3  502    0 -0.59386242020E+01 -0.64261845365E+02  0.34654850782E+02  0.73251694246E+02  0.00000000000E+00 0. -1.
         -2    1    3    3    0  502  0.10483139948E+03 -0.17045134622E+03  0.44939610535E+02  0.20509230200E+03  0.00000000000E+00 0.  1.
         13    1    5    5    0    0 -0.11548049443E+03 -0.22187673026E+03 -0.73975502291E+03  0.78089853499E+03  0.00000000000E+00 0.  1.
        -13    1    5    5    0    0  0.16516960816E+02 -0.46366742679E+02 -0.18458464766E+03  0.19103449158E+03  0.00000000000E+00 0. -1.
          1    1    6    6  503    0  0.11658710807E+01  0.16289113578E+02  0.40277178932E+01  0.16820136383E+02  0.00000000000E+00 0. -1.
         -1    1    6    6    0  503 -0.10951127435E+01  0.48666755095E+03 -0.39850839776E+03  0.62901148440E+03  0.00000000000E+00 0.  1.
<mgrwt>
<rscale>  0 0.14351123E+04</rscale>
<asrwt>0</asrwt>
<pdfrwt beam="1">  1        1 0.24117958E+00 0.14351123E+04</pdfrwt>
<pdfrwt beam="2">  1       -2 0.50529443E-01 0.14351123E+04</pdfrwt>
<totfact> 0.18562011E+01</totfact>
</mgrwt>
</event>
<event>
12    5  0.5297412E-008  0.1271084E+04  0.7818608E-02  0.9052815E-01
          1   -1    0    0  501    0  0.00000000000E+00  0.00000000000E+00  0.22138614546E+03  0.22138614546E+03  0.00000000000E+00 0. -1.
         -4   -1    0    0    0  501 -0.00000000000E+00 -0.00000000000E+00 -0.18244766224E+04  0.18244766224E+04  0.00000000000E+00 0.  1.
        -24    2    1    2    0    0  0.22126054072E+03 -0.20415782766E+03 -0.25888313050E+03  0.40509156056E+03  0.80262392850E+02 0.  0.
        254    2    1    2    0    0 -0.22126054072E+03  0.20415782766E+03 -0.13442073464E+04  0.16407712073E+04  0.89140345466E+03 0.  0.
         23    2    4    4    0    0 -0.52564277380E+03 -0.29373237908E+02 -0.64896489050E+03  0.84159202425E+03  0.99792752374E+02 0.  0.
         23    2    4    4    0    0  0.30438223309E+03  0.23353106557E+03 -0.69524245590E+03  0.79917918300E+03  0.90221902347E+02 0.  0.
          1    1    3    3  502    0  0.21105415221E+03 -0.18853603713E+03 -0.20893633743E+03  0.35177277547E+03  0.00000000000E+00 0. -1.
         -2    1    3    3    0  502  0.10206388504E+02 -0.15621790529E+02 -0.49946793064E+02  0.53318785085E+02  0.00000000000E+00 0.  1.
         13    1    5    5    0    0 -0.41505554509E+03 -0.11460413968E+02 -0.56702939816E+03  0.70279782653E+03  0.00000000000E+00 0. -1.
        -13    1    5    5    0    0 -0.11058722872E+03 -0.17912823940E+02 -0.81935492340E+02  0.13879419772E+03  0.00000000000E+00 0.  1.
          2    1    6    6  503    0  0.24754818426E+03  0.21798906479E+03 -0.63097900229E+03  0.71199286319E+03  0.00000000000E+00 0. -1.
         -2    1    6    6    0  503  0.56834048822E+02  0.15542000781E+02 -0.64263453605E+02  0.87186319816E+02  0.00000000000E+00 0.  1.
<mgrwt>
<rscale>  0 0.12710843E+04</rscale>
<asrwt>0</asrwt>
<pdfrwt beam="1">  1        1 0.34059406E-01 0.12710843E+04</pdfrwt>
<pdfrwt beam="2">  1       -4 0.28068872E+00 0.12710843E+04</pdfrwt>
<totfact> 0.24805560E+00</totfact>
</mgrwt>
</event>
<event>
12    5  0.5297412E-008  0.1592079E+04  0.7818608E-02  0.8825429E-01
         -2   -1    0    0    0  501 -0.00000000000E+00  0.00000000000E+00  0.48768161245E+03  0.48768161245E+03  0.00000000000E+00 0.  1.
          1   -1    0    0  501    0  0.00000000000E+00 -0.00000000000E+00 -0.12993701339E+04  0.12993701339E+04  0.00000000000E+00 0. -1.
        -24    2    1    2    0    0 -0.10801922397E+03  0.10717791389E+03  0.30278707785E+03  0.34786803069E+03  0.78593220389E+02 0.  0.
        254    2    1    2    0    0  0.10801922397E+03 -0.10717791389E+03 -0.11144755993E+04  0.14391837157E+04  0.89779655159E+03 0.  0.
         23    2    4    4    0    0  0.66046050507E+02  0.57438759176E+02 -0.12152496877E+04  0.12217776136E+04  0.90815427631E+02 0.  0.
         23    2    4    4    0    0  0.41973173458E+02 -0.16461667307E+03  0.10077408839E+03  0.21740610204E+03  0.90827308501E+02 0.  0.
          1    1    3    3  502    0 -0.19850266979E+02 -0.63666775438E+01  0.13514697322E+02  0.24843806588E+02  0.00000000000E+00 0. -1.
         -2    1    3    3    0  502 -0.88168956986E+02  0.11354459144E+03  0.28927238053E+03  0.32302422410E+03  0.00000000000E+00 0.  1.
         13    1    5    5    0    0  0.79907354015E+02  0.54775375637E+02 -0.11774459268E+04  0.11814247490E+04  0.00000000000E+00 0. -1.
        -13    1    5    5    0    0 -0.13861303508E+02  0.26633835388E+01 -0.37803760883E+02  0.40352864628E+02  0.00000000000E+00 0.  1.
          1    1    6    6  503    0 -0.19507163679E+02 -0.84330129742E+02  0.22237007715E+02  0.89367693990E+02  0.00000000000E+00 0. -1.
         -1    1    6    6    0  503  0.61480337137E+02 -0.80286543327E+02  0.78537080677E+02  0.12803840805E+03  0.00000000000E+00 0.  1.
<mgrwt>
<rscale>  0 0.15920790E+04</rscale>
<asrwt>0</asrwt>
<pdfrwt beam="1">  1        1 0.19990310E+00 0.15920790E+04</pdfrwt>
<pdfrwt beam="2">  1       -2 0.75027941E-01 0.15920790E+04</pdfrwt>
<totfact> 0.12168425E+01</totfact>
</mgrwt>
</event>
<event>
12    5  0.5297412E-008  0.1866637E+04  0.7818608E-02  0.8671644E-01
         -2   -1    0    0    0  501 -0.00000000000E+00  0.00000000000E+00  0.39301982682E+03  0.39301982682E+03  0.00000000000E+00 0.  1.
          1   -1    0    0  501    0  0.00000000000E+00 -0.00000000000E+00 -0.22163850701E+04  0.22163850701E+04  0.00000000000E+00 0. -1.
        -24    2    1    2    0    0 -0.53922383760E+03  0.24522958297E+03 -0.12432472785E+04  0.13794082728E+04  0.78762250921E+02 0.  0.
        254    2    1    2    0    0  0.53922383760E+03 -0.24522958297E+03 -0.58011796477E+03  0.12299966241E+04  0.90854551172E+03 0.  0.
         23    2    4    4    0    0  0.28308088243E+03 -0.36034713779E+03 -0.75210777460E+03  0.88559606442E+03  0.92894773778E+02 0.  0.
         23    2    4    4    0    0  0.25614295517E+03  0.11511755482E+03  0.17198980984E+03  0.34440055968E+03  0.10084634803E+03 0.  0.
          3    1    3    3  502    0 -0.51438004685E+03  0.24009365885E+03 -0.12171428861E+04  0.13430072981E+04  0.00000000000E+00 0. -1.
         -4    1    3    3    0  502 -0.24843790749E+02  0.51359241136E+01 -0.26104392421E+02  0.36400974698E+02  0.00000000000E+00 0.  1.
         13    1    5    5    0    0  0.21410219087E+03 -0.21432965002E+03 -0.53777551779E+03  0.61723533157E+03  0.00000000000E+00 0.  1.
        -13    1    5    5    0    0  0.68978691564E+02 -0.14601748777E+03 -0.21433225681E+03  0.26836073285E+03  0.00000000000E+00 0. -1.
          1    1    6    6  503    0  0.38559538931E+02 -0.18449695613E+02  0.19154163204E+02  0.46841341557E+02  0.00000000000E+00 0. -1.
         -1    1    6    6    0  503  0.21758341624E+03  0.13356725043E+03  0.15283564663E+03  0.29755921813E+03  0.00000000000E+00 0.  1.
<mgrwt>
<rscale>  0 0.18666368E+04</rscale>
<asrwt>0</asrwt>
<pdfrwt beam="1">  1        1 0.34098232E+00 0.18666368E+04</pdfrwt>
<pdfrwt beam="2">  1       -2 0.60464589E-01 0.18666368E+04</pdfrwt>
<totfact> 0.44590246E+00</totfact>
</mgrwt>
</event>
<event>
12    5  0.5297412E-008  0.2910471E+04  0.7818608E-02  0.8269769E-01
         -2   -1    0    0    0  501 -0.00000000000E+00  0.00000000000E+00  0.11502903617E+04  0.11502903617E+04  0.00000000000E+00 0.  1.
          1   -1    0    0  501    0  0.00000000000E+00 -0.00000000000E+00 -0.18410223784E+04  0.18410223784E+04  0.00000000000E+00 0. -1.
        -24    2    1    2    0    0 -0.11846330573E+04 -0.28326726223E+03  0.19025865977E+03  0.12353108384E+04  0.78731744629E+02 0.  0.
        254    2    1    2    0    0  0.11846330573E+04  0.28326726223E+03 -0.88099067653E+03  0.17560019017E+04  0.90763554609E+03 0.  0.
         23    2    4    4    0    0  0.34327293138E+03  0.21450145264E+03 -0.80195845458E+03  0.90282404529E+03  0.90037299415E+02 0.  0.
         23    2    4    4    0    0  0.84136012587E+03  0.68765809593E+02 -0.79032221956E+02  0.85317785643E+03  0.95135506622E+02 0.  0.
          3    1    3    3  502    0 -0.47853280926E+03 -0.77123218610E+02  0.62473975709E+02  0.48871733961E+03  0.00000000000E+00 0. -1.
         -4    1    3    3    0  502 -0.70610024799E+03 -0.20614404362E+03  0.12778468406E+03  0.74659349878E+03  0.00000000000E+00 0.  1.
         13    1    5    5    0    0  0.73985633748E+02  0.69461755526E+01 -0.15893538693E+03  0.17544965253E+03  0.00000000000E+00 0. -1.
        -13    1    5    5    0    0  0.26928729764E+03  0.20755527708E+03 -0.64302306765E+03  0.72737439276E+03  0.00000000000E+00 0.  1.
          3    1    6    6  503    0  0.73228552528E+03  0.68956048205E+02 -0.37555086439E+02  0.73648313738E+03  0.00000000000E+00 0. -1.
         -3    1    6    6    0  503  0.10907460059E+03 -0.19023861225E+00 -0.41477135517E+02  0.11669471906E+03  0.00000000000E+00 0.  1.
<mgrwt>
<rscale>  0 0.29104710E+04</rscale>
<asrwt>0</asrwt>
<pdfrwt beam="1">  1        1 0.28323421E+00 0.29104710E+04</pdfrwt>
<pdfrwt beam="2">  1       -2 0.17696775E+00 0.29104710E+04</pdfrwt>
<totfact> 0.54813963E-01</totfact>
</mgrwt>
</event>
<event>
12    5  0.5297412E-008  0.1391895E+04  0.7818608E-02  0.8959706E-01
         -2   -1    0    0    0  501 -0.00000000000E+00  0.00000000000E+00  0.40685010391E+03  0.40685010391E+03  0.00000000000E+00 0.  1.
          1   -1    0    0  501    0  0.00000000000E+00 -0.00000000000E+00 -0.11904707143E+04  0.11904707143E+04  0.00000000000E+00 0. -1.
        -24    2    1    2    0    0 -0.12633719374E+03  0.32333606963E+03 -0.46069104621E+03  0.58161276004E+03  0.74363042857E+02 0.  0.
        254    2    1    2    0    0  0.12633719374E+03 -0.32333606963E+03 -0.32292956423E+03  0.10157080582E+04  0.89826057224E+03 0.  0.
         23    2    4    4    0    0  0.37107368445E+03 -0.34773366474E+03 -0.48285453517E+03  0.70716657841E+03  0.91223278872E+02 0.  0.
         23    2    4    4    0    0 -0.24473649071E+03  0.24397595116E+02  0.15992497094E+03  0.30854147981E+03  0.95554465638E+02 0.  0.
          1    1    3    3  502    0 -0.12524229420E+03  0.32276848610E+03 -0.46350852368E+03  0.57853718930E+03  0.00000000000E+00 0. -1.
         -2    1    3    3    0  502 -0.10948995413E+01  0.56758353002E+00  0.28174774760E+01  0.30755707433E+01  0.00000000000E+00 0.  1.
         13    1    5    5    0    0  0.37135111805E+03 -0.32443205365E+03 -0.45632744831E+03  0.67185753728E+03  0.00000000000E+00 0.  1.
        -13    1    5    5    0    0 -0.27743360472E+00 -0.23301611091E+02 -0.26527086851E+02  0.35309041131E+02  0.00000000000E+00 0. -1.
          3    1    6    6  503    0 -0.35987279029E+02  0.39857541009E+01  0.73022994118E+02  0.81506614196E+02  0.00000000000E+00 0. -1.
         -3    1    6    6    0  503 -0.20874921168E+03  0.20411841016E+02  0.86901976819E+02  0.22703486561E+03  0.00000000000E+00 0.  1.
<mgrwt>
<rscale>  0 0.13918953E+04</rscale>
<asrwt>0</asrwt>
<pdfrwt beam="1">  1        1 0.18314934E+00 0.13918953E+04</pdfrwt>
<pdfrwt beam="2">  1       -2 0.62592324E-01 0.13918953E+04</pdfrwt>
<totfact> 0.21995607E+01</totfact>
</mgrwt>
</event>
<event>
12    5  0.5297412E-008  0.1333968E+04  0.7818608E-02  0.9003054E-01
         -2   -1    0    0    0  501 -0.00000000000E+00  0.00000000000E+00  0.16199516320E+03  0.16199516320E+03  0.00000000000E+00 0.  1.
          1   -1    0    0  501    0  0.00000000000E+00 -0.00000000000E+00 -0.27461781156E+04  0.27461781156E+04  0.00000000000E+00 0. -1.
        -24    2    1    2    0    0 -0.12106854286E+03 -0.25606543317E+03 -0.25350329985E+03  0.38807108130E+03  0.78154609411E+02 0.  0.
        254    2    1    2    0    0  0.12106854286E+03  0.25606543317E+03 -0.23306796525E+04  0.25201021975E+04  0.91576216613E+03 0.  0.
         23    2    4    4    0    0 -0.12744969032E+03  0.42040039402E+03 -0.53855794302E+03  0.70110589096E+03  0.92330371492E+02 0.  0.
         23    2    4    4    0    0  0.24851823317E+03 -0.16433496085E+03 -0.17921217095E+04  0.18189963065E+04  0.90994779312E+02 0.  0.
          1    1    3    3  502    0  0.32039471111E+01 -0.67630199444E+01 -0.30033800974E+02  0.30952106824E+02  0.00000000000E+00 0. -1.
         -2    1    3    3    0  502 -0.12427248997E+03 -0.24930241323E+03 -0.22346949888E+03  0.35711897448E+03  0.00000000000E+00 0.  1.
         13    1    5    5    0    0 -0.11464517410E+03  0.25943413101E+03 -0.29824934964E+03  0.41158505662E+03  0.00000000000E+00 0. -1.
        -13    1    5    5    0    0 -0.12804516217E+02  0.16096626301E+03 -0.24030859338E+03  0.28952083434E+03  0.00000000000E+00 0.  1.
          2    1    6    6  503    0  0.15310747859E+01 -0.30555707942E+02 -0.16757692217E+03  0.17034676492E+03  0.00000000000E+00 0.  1.
         -2    1    6    6    0  503  0.24698715839E+03 -0.13377925291E+03 -0.16245447873E+04  0.16486495416E+04  0.00000000000E+00 0. -1.
<mgrwt>
<rscale>  0 0.13339679E+04</rscale>
<asrwt>0</asrwt>
<pdfrwt beam="1">  1        1 0.42248893E+00 0.13339679E+04</pdfrwt>
<pdfrwt beam="2">  1       -2 0.24922334E-01 0.13339679E+04</pdfrwt>
<totfact> 0.11373348E+01</totfact>
</mgrwt>
</event>
<event>
12    5  0.5297412E-008  0.1211071E+04  0.7818608E-02  0.9103221E-01
         -2   -1    0    0    0  501 -0.00000000000E+00  0.00000000000E+00  0.92426519737E+03  0.92426519737E+03  0.00000000000E+00 0.  1.
          1   -1    0    0  501    0  0.00000000000E+00 -0.00000000000E+00 -0.39671868196E+03  0.39671868196E+03  0.00000000000E+00 0. -1.
        -24    2    1    2    0    0 -0.85076154390E+02  0.53409673548E+01  0.38141640288E+03  0.39922889913E+03  0.81478607870E+02 0.  0.
        254    2    1    2    0    0  0.85076154390E+02 -0.53409673548E+01  0.14613011253E+03  0.92175498020E+03  0.90609699026E+03 0.  0.
         23    2    4    4    0    0  0.40466421854E+03  0.79083467812E+01 -0.18334130581E+03  0.45334523111E+03  0.89956614228E+02 0.  0.
         23    2    4    4    0    0 -0.31958806415E+03 -0.13249314136E+02  0.32947141833E+03  0.46840974908E+03  0.92434855245E+02 0.  0.
          3    1    3    3  502    0 -0.24242871375E+01  0.26456250290E+02  0.15529855859E+03  0.15755460211E+03  0.00000000000E+00 0. -1.
         -4    1    3    3    0  502 -0.82651867253E+02 -0.21115282935E+02  0.22611784429E+03  0.24167429702E+03  0.00000000000E+00 0.  1.
         13    1    5    5    0    0  0.25124310529E+03  0.23525027471E+02 -0.15616287461E+03  0.29675472747E+03  0.00000000000E+00 0.  1.
        -13    1    5    5    0    0  0.15342111326E+03 -0.15616680690E+02 -0.27178431195E+02  0.15659050364E+03  0.00000000000E+00 0. -1.
          3    1    6    6  503    0  0.30807187147E+01  0.41763609227E+01  0.21148235124E+02  0.21775689822E+02  0.00000000000E+00 0. -1.
         -3    1    6    6    0  503 -0.32266878287E+03 -0.17425675059E+02  0.30832318321E+03  0.44663405926E+03  0.00000000000E+00 0.  1.
<mgrwt>
<rscale>  0 0.12110710E+04</rscale>
<asrwt>0</asrwt>
<pdfrwt beam="1">  1        1 0.61033644E-01 0.12110710E+04</pdfrwt>
<pdfrwt beam="2">  1       -2 0.14219464E+00 0.12110710E+04</pdfrwt>
<totfact> 0.18059407E+01</totfact>
</mgrwt>
</event>
<event>
12    5  0.5297412E-008  0.1219292E+04  0.7818608E-02  0.9096136E-01
          1   -1    0    0  501    0  0.00000000000E+00  0.00000000000E+00  0.11460286756E+04  0.11460286756E+04  0.00000000000E+00 0. -1.
         -2   -1    0    0    0  501 -0.00000000000E+00 -0.00000000000E+00 -0.32430963068E+03  0.32430963068E+03  0.00000000000E+00 0.  1.
        -24    2    1    2    0    0  0.29963142843E+02  0.17823960677E+03  0.33653471190E+03  0.38948414071E+03  0.75994316900E+02 0.  0.
        254    2    1    2    0    0 -0.29963142843E+02 -0.17823960677E+03  0.48518433305E+03  0.10808541656E+04  0.94877539117E+03 0.  0.
         23    2    4    4    0    0 -0.18069385178E+03 -0.26528759831E+03 -0.18559225951E+03  0.38155582082E+03  0.90069860250E+02 0.  0.
         23    2    4    4    0    0  0.15073070893E+03  0.87047991537E+02  0.67077659256E+03  0.69929834477E+03  0.93700791996E+02 0.  0.
          1    1    3    3  502    0  0.26874124673E+02  0.16308661285E+03  0.23812760134E+03  0.28986930916E+03  0.00000000000E+00 0. -1.
         -4    1    3    3    0  502  0.30890181698E+01  0.15152993921E+02  0.98407110557E+02  0.99614831558E+02  0.00000000000E+00 0.  1.
         13    1    5    5    0    0 -0.88404233329E+02 -0.20458546660E+03 -0.12703567717E+03  0.25653183991E+03  0.00000000000E+00 0. -1.
        -13    1    5    5    0    0 -0.92289618447E+02 -0.60702131714E+02 -0.58556582338E+02  0.12502398091E+03  0.00000000000E+00 0.  1.
          1    1    6    6  503    0  0.39779446485E+02  0.76109438064E+02  0.27254561134E+03  0.28575542197E+03  0.00000000000E+00 0. -1.
         -1    1    6    6    0  503  0.11095126245E+03  0.10938553473E+02  0.39823098122E+03  0.41354292280E+03  0.00000000000E+00 0.  1.
<mgrwt>
<rscale>  0 0.12192918E+04</rscale>
<asrwt>0</asrwt>
<pdfrwt beam="1">  1        1 0.17631210E+00 0.12192918E+04</pdfrwt>
<pdfrwt beam="2">  1       -2 0.49893790E-01 0.12192918E+04</pdfrwt>
<totfact> 0.38575939E+01</totfact>
</mgrwt>
</event>
<event>
12    5  0.5297412E-008  0.1491881E+04  0.7818608E-02  0.8889870E-01
         -2   -1    0    0    0  501 -0.00000000000E+00  0.00000000000E+00  0.70828195945E+03  0.70828195945E+03  0.00000000000E+00 0.  1.
          1   -1    0    0  501    0  0.00000000000E+00 -0.00000000000E+00 -0.78560165796E+03  0.78560165796E+03  0.00000000000E+00 0. -1.
        -24    2    1    2    0    0 -0.11195311870E+03  0.24937399105E+03 -0.40800104000E+03  0.49662366664E+03  0.73819573459E+02 0.  0.
        254    2    1    2    0    0  0.11195311870E+03 -0.24937399105E+03  0.33068134149E+03  0.99725995077E+03  0.90025350407E+03 0.  0.
         23    2    4    4    0    0  0.27473020001E+03 -0.44779927587E+03  0.45242086535E+03  0.69921877973E+03  0.90671871390E+02 0.  0.
         23    2    4    4    0    0 -0.16277708131E+03  0.19842528482E+03 -0.12173952385E+03  0.29804117104E+03  0.90216717468E+02 0.  0.
          3    1    3    3  502    0 -0.63902968117E+02  0.18400788720E+03 -0.33486179894E+03  0.38739503905E+03  0.00000000000E+00 0. -1.
         -4    1    3    3    0  502 -0.48050150583E+02  0.65366103848E+02 -0.73139241060E+02  0.10922862759E+03  0.00000000000E+00 0.  1.
         13    1    5    5    0    0  0.20223279458E+03 -0.39070727623E+03  0.35806090202E+03  0.56723706548E+03  0.00000000000E+00 0. -1.
        -13    1    5    5    0    0  0.72497405428E+02 -0.57091999638E+02  0.94359963325E+02  0.13198171425E+03  0.00000000000E+00 0.  1.
          2    1    6    6  503    0 -0.14102605148E+02  0.81458221270E+02 -0.31749933491E+02  0.88557233251E+02  0.00000000000E+00 0. -1.
         -2    1    6    6    0  503 -0.14867447616E+03  0.11696706355E+03 -0.89989590361E+02  0.20948393779E+03  0.00000000000E+00 0.  1.
<mgrwt>
<rscale>  0 0.14918813E+04</rscale>
<asrwt>0</asrwt>
<pdfrwt beam="1">  1        1 0.12086179E+00 0.14918813E+04</pdfrwt>
<pdfrwt beam="2">  1       -2 0.10896646E+00 0.14918813E+04</pdfrwt>
<totfact> 0.12973648E+01</totfact>
</mgrwt>
</event>
<event>
12    5  0.5297412E-008  0.1942118E+04  0.7818608E-02  0.8634171E-01
          1   -1    0    0  501    0  0.00000000000E+00  0.00000000000E+00  0.23696821480E+04  0.23696821480E+04  0.00000000000E+00 0. -1.
         -2   -1    0    0    0  501 -0.00000000000E+00 -0.00000000000E+00 -0.39792491122E+03  0.39792491122E+03  0.00000000000E+00 0.  1.
        -24    2    1    2    0    0  0.28957837150E+03  0.59496494886E+03  0.13120736814E+04  0.14718138845E+04  0.82824159532E+02 0.  0.
        254    2    1    2    0    0 -0.28957837150E+03 -0.59496494886E+03  0.65968355541E+03  0.12957931748E+04  0.89780768263E+03 0.  0.
         23    2    4    4    0    0 -0.20595907703E+03 -0.78995212676E+03  0.31272349186E+03  0.87905237251E+03  0.92160660098E+02 0.  0.
         23    2    4    4    0    0 -0.83619294475E+02  0.19498717790E+03  0.34696006355E+03  0.41674080230E+03  0.90991343802E+02 0.  0.
          3    1    3    3  502    0  0.17215575369E+03  0.28910561595E+03  0.73148708302E+03  0.80516645070E+03  0.00000000000E+00 0. -1.
         -4    1    3    3    0  502  0.11742261782E+03  0.30585933291E+03  0.58058659839E+03  0.66664743376E+03  0.00000000000E+00 0.  1.
         13    1    5    5    0    0 -0.16238117207E+03 -0.66401242665E+03  0.22564120611E+03  0.71985700086E+03  0.00000000000E+00 0. -1.
        -13    1    5    5    0    0 -0.43577904954E+02 -0.12593970011E+03  0.87082285748E+02  0.15919537165E+03  0.00000000000E+00 0.  1.
          4    1    6    6  503    0 -0.34066041785E+02  0.14293249491E+02  0.10100290799E+03  0.10754710413E+03  0.00000000000E+00 0. -1.
         -4    1    6    6    0  503 -0.49553252690E+02  0.18069392841E+03  0.24595715555E+03  0.30919369816E+03  0.00000000000E+00 0.  1.
<mgrwt>
<rscale>  0 0.19421180E+04</rscale>
<asrwt>0</asrwt>
<pdfrwt beam="1">  1        1 0.36456648E+00 0.19421180E+04</pdfrwt>
<pdfrwt beam="2">  1       -2 0.61219218E-01 0.19421180E+04</pdfrwt>
<totfact> 0.33889672E+00</totfact>
</mgrwt>
</event>
<event>
12    5  0.5297412E-008  0.1709872E+04  0.7818608E-02  0.8755754E-01
          1   -1    0    0  501    0  0.00000000000E+00  0.00000000000E+00  0.21597862787E+04  0.21597862787E+04  0.00000000000E+00 0. -1.
         -2   -1    0    0    0  501 -0.00000000000E+00 -0.00000000000E+00 -0.33842039295E+03  0.33842039295E+03  0.00000000000E+00 0.  1.
        -24    2    1    2    0    0 -0.50756491142E+03  0.34822567631E+03  0.64547903076E+03  0.89589823860E+03  0.84304293111E+02 0.  0.
        254    2    1    2    0    0  0.50756491142E+03 -0.34822567631E+03  0.11758868550E+04  0.16023084330E+04  0.89766316505E+03 0.  0.
         23    2    4    4    0    0  0.43739792737E+03 -0.23227369100E+02  0.11750014999E+04  0.12573399876E+04  0.91754357358E+02 0.  0.
         23    2    4    4    0    0  0.70166984049E+02 -0.32499830721E+03  0.88535506956E+00  0.34496844543E+03  0.91951830568E+02 0.  0.
          1    1    3    3  502    0 -0.39383991300E+03  0.27614960073E+03  0.45107754017E+03  0.65942355607E+03  0.00000000000E+00 0. -1.
         -4    1    3    3    0  502 -0.11372499843E+03  0.72076075583E+02  0.19440149058E+03  0.23647468253E+03  0.00000000000E+00 0.  1.
         13    1    5    5    0    0  0.23346275595E+03 -0.39704015741E+02  0.52598147702E+03  0.57683427555E+03  0.00000000000E+00 0. -1.
        -13    1    5    5    0    0  0.20393517143E+03  0.16476646641E+02  0.64902002287E+03  0.68050571204E+03  0.00000000000E+00 0.  1.
          1    1    6    6  503    0  0.70307970785E+02 -0.33126142867E+03  0.17457093212E+01  0.33864493556E+03  0.00000000000E+00 0. -1.
         -1    1    6    6    0  503 -0.14098673647E+00  0.62631214543E+01 -0.86035425161E+00  0.63235098679E+01  0.00000000000E+00 0.  1.
<mgrwt>
<rscale>  0 0.17098722E+04</rscale>
<asrwt>0</asrwt>
<pdfrwt beam="1">  1        1 0.33227480E+00 0.17098722E+04</pdfrwt>
<pdfrwt beam="2">  1       -2 0.52064677E-01 0.17098722E+04</pdfrwt>
<totfact> 0.67512427E+00</totfact>
</mgrwt>
</event>
<event>
12    5  0.5297412E-008  0.2015334E+04  0.7818608E-02  0.8599485E-01
         -2   -1    0    0    0  501 -0.00000000000E+00  0.00000000000E+00  0.89783492009E+03  0.89783492009E+03  0.00000000000E+00 0.  1.
          1   -1    0    0  501    0  0.00000000000E+00 -0.00000000000E+00 -0.11309350810E+04  0.11309350810E+04  0.00000000000E+00 0. -1.
        -24    2    1    2    0    0 -0.10946502604E+03 -0.79031710286E+03 -0.18277770408E+03  0.82244644969E+03  0.80167066158E+02 0.  0.
        254    2    1    2    0    0  0.10946502604E+03  0.79031710286E+03 -0.50322456807E+02  0.12063235514E+04  0.90338277932E+03 0.  0.
         23    2    4    4    0    0 -0.30364924833E+03  0.70397397919E+03 -0.56876495894E+02  0.77420274367E+03  0.91502585402E+02 0.  0.
         23    2    4    4    0    0  0.41311427437E+03  0.86343123672E+02  0.65540390861E+01  0.43212080771E+03  0.92557540673E+02 0.  0.
          1    1    3    3  502    0 -0.29602413097E+02 -0.34781421177E+03 -0.43811820401E+02  0.35181032443E+03  0.00000000000E+00 0. -1.
         -4    1    3    3    0  502 -0.79862612941E+02 -0.44250289109E+03 -0.13896588368E+03  0.47063612526E+03  0.00000000000E+00 0.  1.
         13    1    5    5    0    0 -0.21430128453E+03  0.58672364081E+03 -0.42166318007E+02  0.62605724148E+03  0.00000000000E+00 0.  1.
        -13    1    5    5    0    0 -0.89347963804E+02  0.11725033838E+03 -0.14710177887E+02  0.14814550219E+03  0.00000000000E+00 0. -1.
          1    1    6    6  503    0  0.36700064100E+03  0.10411123208E+03 -0.43801420308E+01  0.38150728012E+03  0.00000000000E+00 0. -1.
         -1    1    6    6    0  503  0.46113633371E+02 -0.17768108403E+02  0.10934181117E+02  0.50613527594E+02  0.00000000000E+00 0.  1.
<mgrwt>
<rscale>  0 0.20153342E+04</rscale>
<asrwt>0</asrwt>
<pdfrwt beam="1">  1        1 0.17399001E+00 0.20153342E+04</pdfrwt>
<pdfrwt beam="2">  1       -2 0.13812845E+00 0.20153342E+04</pdfrwt>
<totfact> 0.36319669E+00</totfact>
</mgrwt>
</event>
<event>
12    5  0.5936895E-008  0.2314195E+04  0.7818608E-02  0.8472345E-01
          1   -1    0    0  501    0  0.00000000000E+00  0.00000000000E+00  0.13514593614E+04  0.13514593614E+04  0.00000000000E+00 0. -1.
         -2   -1    0    0    0  501 -0.00000000000E+00 -0.00000000000E+00 -0.99068804574E+03  0.99068804574E+03  0.00000000000E+00 0.  1.
        -24    2    1    2    0    0  0.49160575002E+02 -0.33585631996E+03  0.10660395093E+04  0.11216402244E+04  0.80126948131E+02 0.  0.
        254    2    1    2    0    0 -0.49160575002E+02  0.33585631996E+03 -0.70526819368E+03  0.12205071827E+04  0.93649256710E+03 0.  0.
         23    2    4    4    0    0 -0.31105163778E+03  0.13460922171E+03 -0.79216859160E+03  0.86703075636E+03  0.96635868162E+02 0.  0.
         23    2    4    4    0    0  0.26189106277E+03  0.20124709825E+03  0.86900397927E+02  0.35347642635E+03  0.91140449370E+02 0.  0.
          3    1    3    3  502    0  0.41310352327E+02 -0.32980589835E+03  0.10576701683E+04  0.11086679668E+04  0.00000000000E+00 0. -1.
         -4    1    3    3    0  502  0.78502226754E+01 -0.60504216074E+01  0.83693410423E+01  0.12972257597E+02  0.00000000000E+00 0.  1.
         13    1    5    5    0    0 -0.11905867403E+03  0.16037077783E+02 -0.19978063171E+03  0.23311897506E+03  0.00000000000E+00 0. -1.
        -13    1    5    5    0    0 -0.19199296374E+03  0.11857214392E+03 -0.59238795990E+03  0.63391178130E+03  0.00000000000E+00 0.  1.
          3    1    6    6  503    0 -0.56783655480E+01  0.18611311413E+01  0.90201088264E+01  0.10819889448E+02  0.00000000000E+00 0. -1.
         -3    1    6    6    0  503  0.26756942832E+03  0.19938596711E+03  0.77880289100E+02  0.34265653690E+03  0.00000000000E+00 0.  1.
<mgrwt>
<rscale>  0 0.23141950E+04</rscale>
<asrwt>0</asrwt>
<pdfrwt beam="1">  1        1 0.20791683E+00 0.23141950E+04</pdfrwt>
<pdfrwt beam="2">  1       -2 0.15241355E+00 0.23141950E+04</pdfrwt>
<totfact> 0.18916854E+00</totfact>
</mgrwt>
</event>
<event>
12    5  0.5297412E-008  0.3074904E+04  0.7818608E-02  0.8222659E-01
          1   -1    0    0  501    0  0.00000000000E+00  0.00000000000E+00  0.24525523162E+04  0.24525523162E+04  0.00000000000E+00 0. -1.
         -2   -1    0    0    0  501 -0.00000000000E+00 -0.00000000000E+00 -0.96379549817E+03  0.96379549817E+03  0.00000000000E+00 0.  1.
        -24    2    1    2    0    0 -0.26772870081E+02  0.14050452745E+04  0.69866851260E+03  0.15714470830E+04  0.80244838593E+02 0.  0.
        254    2    1    2    0    0  0.26772870081E+02 -0.14050452745E+04  0.79008830547E+03  0.18449007314E+04  0.89696720584E+03 0.  0.
         23    2    4    4    0    0 -0.16103960350E+03 -0.63304079442E+03 -0.79377460555E+02  0.66399407849E+03  0.88954784713E+02 0.  0.
         23    2    4    4    0    0  0.18781247359E+03 -0.77200448009E+03  0.86946576602E+03  0.11809066529E+04  0.85471411256E+02 0.  0.
          3    1    3    3  502    0 -0.22951305574E+02  0.10353798044E+03  0.55139097794E+02  0.11952905892E+03  0.00000000000E+00 0. -1.
         -4    1    3    3    0  502 -0.38215645068E+01  0.13015072941E+04  0.64352941480E+03  0.14519180241E+04  0.00000000000E+00 0.  1.
         13    1    5    5    0    0 -0.14942401423E+03 -0.42034243589E+03 -0.59283474983E+02  0.45003314306E+03  0.00000000000E+00 0.  1.
        -13    1    5    5    0    0 -0.11615589272E+02 -0.21269835853E+03 -0.20093985572E+02  0.21396093543E+03  0.00000000000E+00 0. -1.
          3    1    6    6  503    0  0.49391915349E+00 -0.40311221927E+01 -0.18344187835E+01  0.44563431798E+01  0.00000000000E+00 0. -1.
         -3    1    6    6    0  503  0.18731855443E+03 -0.76797335789E+03  0.87130018480E+03  0.11764503097E+04  0.00000000000E+00 0.  1.
<mgrwt>
<rscale>  0 0.30749041E+04</rscale>
<asrwt>0</asrwt>
<pdfrwt beam="1">  1        1 0.37731574E+00 0.30749041E+04</pdfrwt>
<pdfrwt beam="2">  1       -2 0.14827623E+00 0.30749041E+04</pdfrwt>
<totfact> 0.33576740E-01</totfact>
</mgrwt>
</event>
<event>
12    5  0.5297412E-008  0.2046745E+04  0.7818608E-02  0.8585072E-01
          1   -1    0    0  501    0  0.00000000000E+00  0.00000000000E+00  0.84273051646E+03  0.84273051646E+03  0.00000000000E+00 0. -1.
         -2   -1    0    0    0  501 -0.00000000000E+00 -0.00000000000E+00 -0.12427359099E+04  0.12427359099E+04  0.00000000000E+00 0.  1.
        -24    2    1    2    0    0 -0.43358972440E+03 -0.12385695835E+03  0.53814334566E+03  0.70676734546E+03  0.81124748950E+02 0.  0.
        254    2    1    2    0    0  0.43358972440E+03  0.12385695835E+03 -0.93814873906E+03  0.13786990809E+04  0.90407273143E+03 0.  0.
         23    2    4    4    0    0 -0.57364104807E+02  0.27294432522E+03  0.13819070050E+02  0.29390992878E+03  0.91666975228E+02 0.  0.
         23    2    4    4    0    0  0.49095382921E+03 -0.14908736687E+03 -0.95196780911E+03  0.10847891521E+04  0.85217894298E+02 0.  0.
          1    1    3    3  502    0 -0.34972453178E+03 -0.80298097394E+02  0.38079211741E+03  0.52321856738E+03  0.00000000000E+00 0. -1.
         -2    1    3    3    0  502 -0.83865192623E+02 -0.43558860959E+02  0.15735122826E+03  0.18354877808E+03  0.00000000000E+00 0.  1.
         13    1    5    5    0    0 -0.68014527763E+02  0.26747549304E+03  0.25525449079E+02  0.27716540894E+03  0.00000000000E+00 0. -1.
        -13    1    5    5    0    0  0.10650422956E+02  0.54688321786E+01 -0.11706379028E+02  0.16744519834E+02  0.00000000000E+00 0.  1.
          3    1    6    6  503    0  0.36200203887E+03 -0.14811781004E+03 -0.71067001780E+03  0.81119432690E+03  0.00000000000E+00 0. -1.
         -3    1    6    6    0  503  0.12895179034E+03 -0.96955682827E+00 -0.24129779131E+03  0.27359482517E+03  0.00000000000E+00 0.  1.
<mgrwt>
<rscale>  0 0.20467452E+04</rscale>
<asrwt>0</asrwt>
<pdfrwt beam="1">  1        1 0.12965085E+00 0.20467452E+04</pdfrwt>
<pdfrwt beam="2">  1       -2 0.19119014E+00 0.20467452E+04</pdfrwt>
<totfact> 0.25018953E+00</totfact>
</mgrwt>
</event>
<event>
12    5  0.5297412E-008  0.1337728E+04  0.7818608E-02  0.9000170E-01
          1   -1    0    0  501    0  0.00000000000E+00  0.00000000000E+00  0.20808506447E+04  0.20808506447E+04  0.00000000000E+00 0. -1.
         -2   -1    0    0    0  501 -0.00000000000E+00 -0.00000000000E+00 -0.21499803520E+03  0.21499803520E+03  0.00000000000E+00 0.  1.
        -24    2    1    2    0    0  0.25970274602E+03 -0.25547396056E+03  0.50027895777E+03  0.62409568568E+03  0.80646937249E+02 0.  0.
        254    2    1    2    0    0 -0.25970274602E+03  0.25547396056E+03  0.13655736517E+04  0.16717529942E+04  0.89289093092E+03 0.  0.
         23    2    4    4    0    0 -0.37517998905E+03  0.15407727220E+03  0.14853177104E+03  0.44160702907E+03  0.91952439494E+02 0.  0.
         23    2    4    4    0    0  0.11547724303E+03  0.10139668836E+03  0.12170418807E+04  0.12301459651E+04  0.91934074797E+02 0.  0.
          3    1    3    3  502    0  0.51951784410E+02 -0.90910632686E+02  0.18146129178E+03  0.20950401298E+03  0.00000000000E+00 0. -1.
         -4    1    3    3    0  502  0.20775096161E+03 -0.16456332787E+03  0.31881766598E+03  0.41459167270E+03  0.00000000000E+00 0.  1.
         13    1    5    5    0    0 -0.20412673247E+03  0.89311026734E+02  0.32921948286E+02  0.22522885491E+03  0.00000000000E+00 0.  1.
        -13    1    5    5    0    0 -0.17105325658E+03  0.64766245467E+02  0.11560982275E+03  0.21637817416E+03  0.00000000000E+00 0. -1.
          2    1    6    6  503    0  0.64191935820E+02  0.37595583730E+01  0.58841100981E+03  0.59191406080E+03  0.00000000000E+00 0. -1.
         -2    1    6    6    0  503  0.51285307208E+02  0.97637129985E+02  0.62863087085E+03  0.63823190431E+03  0.00000000000E+00 0.  1.
<mgrwt>
<rscale>  0 0.13377276E+04</rscale>
<asrwt>0</asrwt>
<pdfrwt beam="1">  1        1 0.32013086E+00 0.13377276E+04</pdfrwt>
<pdfrwt beam="2">  1       -2 0.33076622E-01 0.13377276E+04</pdfrwt>
<totfact> 0.19301228E+01</totfact>
</mgrwt>
</event>
<event>
12    5  0.5297412E-008  0.1728367E+04  0.7818608E-02  0.8745349E-01
          1   -1    0    0  501    0  0.00000000000E+00  0.00000000000E+00  0.15032242513E+04  0.15032242513E+04  0.00000000000E+00 0. -1.
         -2   -1    0    0    0  501 -0.00000000000E+00 -0.00000000000E+00 -0.49680775790E+03  0.49680775790E+03  0.00000000000E+00 0.  1.
        -24    2    1    2    0    0 -0.57526548036E+03 -0.20625739740E+03  0.19038740896E+03  0.64515175580E+03  0.80628379931E+02 0.  0.
        254    2    1    2    0    0  0.57526548036E+03  0.20625739740E+03  0.81602908448E+03  0.13548802534E+04  0.89237018527E+03 0.  0.
         23    2    4    4    0    0  0.65322475687E+03  0.26224202214E+03  0.21766078549E+03  0.74209624217E+03  0.88640588575E+02 0.  0.
         23    2    4    4    0    0 -0.77959276515E+02 -0.55984624732E+02  0.59836829899E+03  0.61278401126E+03  0.90816827868E+02 0.  0.
          3    1    3    3  502    0 -0.56701213575E+02 -0.20134271952E+02  0.45581390974E+02  0.75485625989E+02  0.00000000000E+00 0. -1.
         -4    1    3    3    0  502 -0.51856426678E+03 -0.18612312545E+03  0.14480601799E+03  0.56966612981E+03  0.00000000000E+00 0.  1.
         13    1    5    5    0    0  0.44024572336E+03  0.21724177321E+03  0.13395081671E+03  0.50887435213E+03  0.00000000000E+00 0.  1.
        -13    1    5    5    0    0  0.21297903352E+03  0.45000248925E+02  0.83709968785E+02  0.23322189004E+03  0.00000000000E+00 0. -1.
          4    1    6    6  503    0  0.11148910756E+02 -0.10201403089E+02  0.16581050687E+02  0.22434305826E+02  0.00000000000E+00 0. -1.
         -4    1    6    6    0  503 -0.89108187271E+02 -0.45783221643E+02  0.58178724830E+03  0.59034970543E+03  0.00000000000E+00 0.  1.
<mgrwt>
<rscale>  0 0.17283674E+04</rscale>
<asrwt>0</asrwt>
<pdfrwt beam="1">  1        1 0.23126527E+00 0.17283674E+04</pdfrwt>
<pdfrwt beam="2">  1       -2 0.76431963E-01 0.17283674E+04</pdfrwt>
<totfact> 0.83008684E+00</totfact>
</mgrwt>
</event>
<event>
12    5  0.5297412E-008  0.2418580E+04  0.7818608E-02  0.8432580E-01
          1   -1    0    0  501    0  0.00000000000E+00  0.00000000000E+00  0.18629478699E+04  0.18629478699E+04  0.00000000000E+00 0. -1.
         -2   -1    0    0    0  501 -0.00000000000E+00 -0.00000000000E+00 -0.78498268669E+03  0.78498268669E+03  0.00000000000E+00 0.  1.
        -24    2    1    2    0    0  0.65133738904E+03  0.22851604897E+03  0.13069983400E+04  0.14810826816E+04  0.94346541379E+02 0.  0.
        254    2    1    2    0    0 -0.65133738904E+03 -0.22851604897E+03 -0.22903315681E+03  0.11668478750E+04  0.91247892988E+03 0.  0.
         23    2    4    4    0    0 -0.50071396224E+03 -0.57310278066E+02  0.29313791432E+03  0.58997278029E+03  0.90216986853E+02 0.  0.
         23    2    4    4    0    0 -0.15062342680E+03 -0.17120577090E+03 -0.52217107113E+03  0.57687509471E+03  0.90129987714E+02 0.  0.
          3    1    3    3  502    0  0.45794603461E+03  0.15133568496E+03  0.81804916422E+03  0.94964282509E+03  0.00000000000E+00 0. -1.
         -4    1    3    3    0  502  0.19339135443E+03  0.77180364006E+02  0.48894917579E+03  0.53143985649E+03  0.00000000000E+00 0.  1.
         13    1    5    5    0    0 -0.21743426369E+02 -0.14482938818E+02 -0.12173828074E+01  0.26153663758E+02  0.00000000000E+00 0. -1.
        -13    1    5    5    0    0 -0.47897053587E+03 -0.42827339248E+02  0.29435529712E+03  0.56381911653E+03  0.00000000000E+00 0.  1.
          4    1    6    6  503    0 -0.10329826535E+03 -0.15537044741E+03 -0.33814712312E+03  0.38620458882E+03  0.00000000000E+00 0.  1.
         -4    1    6    6    0  503 -0.47325161449E+02 -0.15835323493E+02 -0.18402394800E+03  0.19067050589E+03  0.00000000000E+00 0. -1.
<mgrwt>
<rscale>  0 0.24185796E+04</rscale>
<asrwt>0</asrwt>
<pdfrwt beam="1">  1        1 0.28660736E+00 0.24185796E+04</pdfrwt>
<pdfrwt beam="2">  1       -2 0.12076657E+00 0.24185796E+04</pdfrwt>
<totfact> 0.15166430E+00</totfact>
</mgrwt>
</event>
<event>
12    5  0.5297412E-008  0.1659097E+04  0.7818608E-02  0.8785043E-01
          1   -1    0    0  501    0  0.00000000000E+00  0.00000000000E+00  0.17903353816E+04  0.17903353816E+04  0.00000000000E+00 0. -1.
         -2   -1    0    0    0  501 -0.00000000000E+00 -0.00000000000E+00 -0.38436991254E+03  0.38436991254E+03  0.00000000000E+00 0.  1.
        -24    2    1    2    0    0 -0.91980349951E+02  0.27386480084E+03 -0.16505296358E+03  0.34192432837E+03  0.78787382403E+02 0.  0.
        254    2    1    2    0    0  0.91980349951E+02 -0.27386480084E+03  0.15710184326E+04  0.18327809658E+04  0.89862385839E+03 0.  0.
         23    2    4    4    0    0  0.64108701745E+02  0.27099030378E+03  0.98243063032E+03  0.10250875433E+04  0.89938077351E+02 0.  0.
         23    2    4    4    0    0  0.27871648206E+02 -0.54485510463E+03  0.58858780233E+03  0.80769342242E+03  0.91044767914E+02 0.  0.
          1    1    3    3  502    0 -0.17231814820E+02  0.12725896775E+02  0.42719791698E+01  0.21843390230E+02  0.00000000000E+00 0. -1.
         -2    1    3    3    0  502 -0.74748535131E+02  0.26113890407E+03 -0.16932494275E+03  0.32008093814E+03  0.00000000000E+00 0.  1.
         13    1    5    5    0    0  0.13764737851E+02  0.30853790332E+01  0.11425315579E+03  0.11512068094E+03  0.00000000000E+00 0.  1.
        -13    1    5    5    0    0  0.50343963893E+02  0.26790492475E+03  0.86817747453E+03  0.90996686241E+03  0.00000000000E+00 0. -1.
          4    1    6    6  503    0  0.12461324568E+02 -0.45910112283E+03  0.53630721834E+03  0.70608395962E+03  0.00000000000E+00 0. -1.
         -4    1    6    6    0  503  0.15410323638E+02 -0.85753981791E+02  0.52280583990E+02  0.10160946280E+03  0.00000000000E+00 0.  1.
<mgrwt>
<rscale>  0 0.16590974E+04</rscale>
<asrwt>0</asrwt>
<pdfrwt beam="1">  1        1 0.27543621E+00 0.16590974E+04</pdfrwt>
<pdfrwt beam="2">  1       -2 0.59133834E-01 0.16590974E+04</pdfrwt>
<totfact> 0.92600834E+00</totfact>
</mgrwt>
</event>
<event>
12    5  0.5297412E-008  0.1217726E+04  0.7818608E-02  0.9097481E-01
         -2   -1    0    0    0  501 -0.00000000000E+00  0.00000000000E+00  0.75181565102E+03  0.75181565102E+03  0.00000000000E+00 0.  1.
          1   -1    0    0  501    0  0.00000000000E+00 -0.00000000000E+00 -0.49309152163E+03  0.49309152163E+03  0.00000000000E+00 0. -1.
        -24    2    1    2    0    0 -0.82926014176E+02 -0.74059594909E+02  0.31362552740E+03  0.34234814065E+03  0.80496773520E+02 0.  0.
        254    2    1    2    0    0  0.82926014176E+02  0.74059594909E+02 -0.54901398002E+02  0.90255903200E+03  0.89400061259E+03 0.  0.
         23    2    4    4    0    0  0.27042633012E+03  0.46750670332E+02  0.34536265162E+03  0.45056740361E+03  0.91758372186E+02 0.  0.
         23    2    4    4    0    0 -0.18750031594E+03  0.27308924577E+02 -0.40026404962E+03  0.45199162838E+03  0.90459808027E+02 0.  0.
          1    1    3    3  502    0 -0.33907414241E+02  0.30395559270E+01  0.33748970820E+02  0.47936882170E+02  0.00000000000E+00 0. -1.
         -2    1    3    3    0  502 -0.49018599935E+02 -0.77099150836E+02  0.27987655658E+03  0.29441125848E+03  0.00000000000E+00 0.  1.
         13    1    5    5    0    0  0.21649441113E+02 -0.22386195131E+02  0.35403021449E+02  0.47150969880E+02  0.00000000000E+00 0. -1.
        -13    1    5    5    0    0  0.24877688901E+03  0.69136865463E+02  0.30995963017E+03  0.40341643373E+03  0.00000000000E+00 0.  1.
          2    1    6    6  503    0 -0.69589749523E+02  0.45271762881E+02 -0.10720986469E+03  0.13559579949E+03  0.00000000000E+00 0. -1.
         -2    1    6    6    0  503 -0.11791056642E+03 -0.17962838304E+02 -0.29305418493E+03  0.31639582889E+03  0.00000000000E+00 0.  1.
<mgrwt>
<rscale>  0 0.12177256E+04</rscale>
<asrwt>0</asrwt>
<pdfrwt beam="1">  1        1 0.75860234E-01 0.12177256E+04</pdfrwt>
<pdfrwt beam="2">  1       -2 0.11566395E+00 0.12177256E+04</pdfrwt>
<totfact> 0.22700732E+01</totfact>
</mgrwt>
</event>
<event>
12    5  0.5297412E-008  0.1225960E+04  0.7818608E-02  0.9090432E-01
          1   -1    0    0  501    0  0.00000000000E+00  0.00000000000E+00  0.67018883352E+03  0.67018883352E+03  0.00000000000E+00 0. -1.
         -2   -1    0    0    0  501 -0.00000000000E+00 -0.00000000000E+00 -0.56065502928E+03  0.56065502928E+03  0.00000000000E+00 0.  1.
        -24    2    1    2    0    0  0.11050931835E+03 -0.34140056467E+02 -0.22908344391E+03  0.26628583104E+03  0.71070856470E+02 0.  0.
        254    2    1    2    0    0 -0.11050931835E+03  0.34140056467E+02  0.33861724816E+03  0.96455803176E+03  0.89573026240E+03 0.  0.
         23    2    4    4    0    0 -0.19800441073E+03 -0.29183197093E+03 -0.12403807666E+03  0.38470918114E+03  0.90796826304E+02 0.  0.
         23    2    4    4    0    0  0.87495092380E+02  0.32597202740E+03  0.46265532482E+03  0.57984885062E+03  0.90893267904E+02 0.  0.
          3    1    3    3  502    0  0.43015493420E+02 -0.43186501660E+02 -0.67553095197E+02  0.90988061143E+02  0.00000000000E+00 0. -1.
         -4    1    3    3    0  502  0.67493824933E+02  0.90464451934E+01 -0.16153034872E+03  0.17529776990E+03  0.00000000000E+00 0.  1.
         13    1    5    5    0    0 -0.12370408374E+03 -0.10300046021E+03 -0.47527903233E+02  0.16784128432E+03  0.00000000000E+00 0.  1.
        -13    1    5    5    0    0 -0.74300326989E+02 -0.18883151072E+03 -0.76510173426E+02  0.21686789682E+03  0.00000000000E+00 0. -1.
          3    1    6    6  503    0  0.42908360671E+02  0.25980481898E+03  0.30347867309E+03  0.40179469434E+03  0.00000000000E+00 0. -1.
         -3    1    6    6    0  503  0.44586731709E+02  0.66167208421E+02  0.15917665172E+03  0.17805415628E+03  0.00000000000E+00 0.  1.
<mgrwt>
<rscale>  0 0.12259604E+04</rscale>
<asrwt>0</asrwt>
<pdfrwt beam="1">  1        1 0.10310597E+00 0.12259604E+04</pdfrwt>
<pdfrwt beam="2">  1       -2 0.86254620E-01 0.12259604E+04</pdfrwt>
<totfact> 0.29333834E+01</totfact>
</mgrwt>
</event>
<event>
12    5  0.5297412E-008  0.2434711E+04  0.7818608E-02  0.8426621E-01
          1   -1    0    0  501    0  0.00000000000E+00  0.00000000000E+00  0.33009906447E+04  0.33009906447E+04  0.00000000000E+00 0. -1.
         -2   -1    0    0    0  501 -0.00000000000E+00 -0.00000000000E+00 -0.44894244634E+03  0.44894244634E+03  0.00000000000E+00 0.  1.
        -24    2    1    2    0    0 -0.12295668264E+03  0.59239678295E+03 -0.87029860826E+02  0.61643113021E+03  0.79754920591E+02 0.  0.
        254    2    1    2    0    0  0.12295668264E+03 -0.59239678295E+03  0.29390780592E+04  0.31335019608E+04  0.90255327062E+03 0.  0.
         23    2    4    4    0    0  0.41640060123E+03 -0.41483667508E+03  0.10112500376E+04  0.11731133923E+04  0.89941453331E+02 0.  0.
         23    2    4    4    0    0 -0.29344391859E+03 -0.17756010787E+03  0.19278280216E+04  0.19603885685E+04  0.94686500787E+02 0.  0.
          1    1    3    3  502    0  0.50500022706E+01  0.12609391244E+03 -0.78619019857E+01  0.12643965668E+03  0.00000000000E+00 0. -1.
         -2    1    3    3    0  502 -0.12800668491E+03  0.46630287051E+03 -0.79167958840E+02  0.48999147353E+03  0.00000000000E+00 0.  1.
         13    1    5    5    0    0  0.27679286345E+02 -0.36416918590E+02  0.13481906036E+03  0.14236753102E+03  0.00000000000E+00 0. -1.
        -13    1    5    5    0    0  0.38872131488E+03 -0.37841975649E+03  0.87643097723E+03  0.10307458613E+04  0.00000000000E+00 0.  1.
          2    1    6    6  503    0 -0.22943929107E+03 -0.95874602701E+02  0.12297336449E+04  0.12546231167E+04  0.00000000000E+00 0. -1.
         -2    1    6    6    0  503 -0.64004627526E+02 -0.81685505171E+02  0.69809437672E+03  0.70576545176E+03  0.00000000000E+00 0.  1.
<mgrwt>
<rscale>  0 0.24347113E+04</rscale>
<asrwt>0</asrwt>
<pdfrwt beam="1">  1        1 0.50784470E+00 0.24347113E+04</pdfrwt>
<pdfrwt beam="2">  1       -2 0.69068071E-01 0.24347113E+04</pdfrwt>
<totfact> 0.53643359E-01</totfact>
</mgrwt>
</event>
<event>
12    5  0.5297412E-008  0.1505877E+04  0.7818608E-02  0.8880554E-01
         -2   -1    0    0    0  501 -0.00000000000E+00  0.00000000000E+00  0.12131313663E+04  0.12131313663E+04  0.00000000000E+00 0.  1.
          1   -1    0    0  501    0  0.00000000000E+00 -0.00000000000E+00 -0.46731644937E+03  0.46731644937E+03  0.00000000000E+00 0. -1.
        -24    2    1    2    0    0  0.40891143717E+03  0.12762104514E+03  0.48195235673E+03  0.64969566549E+03  0.79565626905E+02 0.  0.
        254    2    1    2    0    0 -0.40891143717E+03 -0.12762104514E+03  0.26386256023E+03  0.10307521502E+04  0.89962817310E+03 0.  0.
         23    2    4    4    0    0 -0.45360981293E+03 -0.23475147655E+03  0.52038680600E+03  0.73482704567E+03  0.91094681795E+02 0.  0.
         23    2    4    4    0    0  0.44698375762E+02  0.10713043141E+03 -0.25652424578E+03  0.29592510453E+03  0.91060994359E+02 0.  0.
          1    1    3    3  502    0  0.66105422818E+01 -0.85938172000E+01  0.98072106397E+01  0.14619656079E+02  0.00000000000E+00 0. -1.
         -2    1    3    3    0  502  0.40230089489E+03  0.13621486234E+03  0.47214514609E+03  0.63507600941E+03  0.00000000000E+00 0.  1.
         13    1    5    5    0    0 -0.20573350085E+03 -0.14861775039E+03  0.29263350756E+03  0.38736014101E+03  0.00000000000E+00 0. -1.
        -13    1    5    5    0    0 -0.24787631209E+03 -0.86133726152E+02  0.22775329845E+03  0.34746690465E+03  0.00000000000E+00 0.  1.
          4    1    6    6  503    0 -0.70377103739E+00  0.15632058734E+02  0.39504069866E+01  0.16138843493E+02  0.00000000000E+00 0. -1.
         -4    1    6    6    0  503  0.45402146800E+02  0.91498372671E+02 -0.26047465276E+03  0.27978626104E+03  0.00000000000E+00 0.  1.
<mgrwt>
<rscale>  0 0.15058768E+04</rscale>
<asrwt>0</asrwt>
<pdfrwt beam="1">  1        1 0.71894839E-01 0.15058768E+04</pdfrwt>
<pdfrwt beam="2">  1       -2 0.18663559E+00 0.15058768E+04</pdfrwt>
<totfact> 0.67092049E+00</totfact>
</mgrwt>
</event>
<event>
12    5  0.5297412E-008  0.1811075E+04  0.7818608E-02  0.8700432E-01
          1   -1    0    0  501    0  0.00000000000E+00  0.00000000000E+00  0.13964952239E+04  0.13964952239E+04  0.00000000000E+00 0. -1.
         -2   -1    0    0    0  501 -0.00000000000E+00 -0.00000000000E+00 -0.58718281499E+03  0.58718281499E+03  0.00000000000E+00 0.  1.
        -24    2    1    2    0    0 -0.64432974837E+03 -0.18988757985E+03  0.38985195556E+03  0.78041148031E+03  0.76416056726E+02 0.  0.
        254    2    1    2    0    0  0.64432974837E+03  0.18988757985E+03  0.41946045336E+03  0.12032665586E+04  0.90591678508E+03 0.  0.
         23    2    4    4    0    0  0.65363408287E+03  0.48201995822E+03  0.35146156928E+03  0.88958145057E+03  0.90824931085E+02 0.  0.
         23    2    4    4    0    0 -0.93043344967E+01 -0.29213237837E+03  0.67998884078E+02  0.31368510803E+03  0.91359737449E+02 0.  0.
          3    1    3    3  502    0 -0.32360554690E+03 -0.11354657545E+03  0.15949556950E+03  0.37822243650E+03  0.00000000000E+00 0. -1.
         -4    1    3    3    0  502 -0.32072420147E+03 -0.76341004406E+02  0.23035638606E+03  0.40218904381E+03  0.00000000000E+00 0.  1.
         13    1    5    5    0    0  0.47817286021E+03  0.37994287797E+03  0.22753943175E+03  0.65175153837E+03  0.00000000000E+00 0.  1.
        -13    1    5    5    0    0  0.17546122266E+03  0.10207708026E+03  0.12392213753E+03  0.23782991221E+03  0.00000000000E+00 0. -1.
          4    1    6    6  503    0 -0.32051725579E+01 -0.25142253987E+03  0.22682992149E+02  0.25246402678E+03  0.00000000000E+00 0. -1.
         -4    1    6    6    0  503 -0.60991619388E+01 -0.40709838500E+02  0.45315891928E+02  0.61221081241E+02  0.00000000000E+00 0.  1.
<mgrwt>
<rscale>  0 0.18110748E+04</rscale>
<asrwt>0</asrwt>
<pdfrwt beam="1">  1        1 0.21484542E+00 0.18110748E+04</pdfrwt>
<pdfrwt beam="2">  1       -2 0.90335818E-01 0.18110748E+04</pdfrwt>
<totfact> 0.66966611E+00</totfact>
</mgrwt>
</event>
<event>
12    5  0.5297412E-008  0.2106921E+04  0.7818608E-02  0.8558201E-01
         -2   -1    0    0    0  501 -0.00000000000E+00  0.00000000000E+00  0.60389162154E+03  0.60389162154E+03  0.00000000000E+00 0.  1.
          1   -1    0    0  501    0  0.00000000000E+00 -0.00000000000E+00 -0.18377121504E+04  0.18377121504E+04  0.00000000000E+00 0. -1.
        -24    2    1    2    0    0 -0.47494856494E+03 -0.51045005969E+02 -0.13387373812E+04  0.14236489005E+04  0.79854143357E+02 0.  0.
        254    2    1    2    0    0  0.47494856494E+03  0.51045005969E+02  0.10491685229E+03  0.10179548715E+04  0.89277255919E+03 0.  0.
         23    2    4    4    0    0  0.67375129620E+03  0.65848819278E+02 -0.13035067522E+03  0.69582624449E+03  0.94371541561E+02 0.  0.
         23    2    4    4    0    0 -0.19880273126E+03 -0.14803813310E+02  0.23526752751E+03  0.32212862696E+03  0.93136265573E+02 0.  0.
          1    1    3    3  502    0 -0.29680102927E+03 -0.67871638449E+02 -0.88463809144E+03  0.93556505018E+03  0.00000000000E+00 0. -1.
         -2    1    3    3    0  502 -0.17814753567E+03  0.16826632481E+02 -0.45409928974E+03  0.48808385035E+03  0.00000000000E+00 0.  1.
         13    1    5    5    0    0  0.31087524537E+03 -0.71622245107E+01 -0.88582943162E+02  0.32332901735E+03  0.00000000000E+00 0. -1.
        -13    1    5    5    0    0  0.36287605083E+03  0.73011043789E+02 -0.41767732054E+02  0.37249722713E+03  0.00000000000E+00 0.  1.
          2    1    6    6  503    0 -0.12317810875E+03 -0.19092012701E+02  0.20629833936E+03  0.24103185733E+03  0.00000000000E+00 0. -1.
         -2    1    6    6    0  503 -0.75624622509E+02  0.42881993913E+01  0.28969188152E+02  0.81096769639E+02  0.00000000000E+00 0.  1.
<mgrwt>
<rscale>  0 0.21069209E+04</rscale>
<asrwt>0</asrwt>
<pdfrwt beam="1">  1        1 0.28272495E+00 0.21069209E+04</pdfrwt>
<pdfrwt beam="2">  1       -2 0.92906403E-01 0.21069209E+04</pdfrwt>
<totfact> 0.30432588E+00</totfact>
</mgrwt>
</event>
<event>
12    5  0.5297412E-008  0.1363165E+04  0.7818608E-02  0.8980921E-01
         -2   -1    0    0    0  501 -0.00000000000E+00  0.00000000000E+00  0.28104682285E+03  0.28104682285E+03  0.00000000000E+00 0.  1.
          1   -1    0    0  501    0  0.00000000000E+00 -0.00000000000E+00 -0.16529450884E+04  0.16529450884E+04  0.00000000000E+00 0. -1.
        -24    2    1    2    0    0  0.29252426232E+03  0.16085024605E+03 -0.52036277082E+03  0.62346393938E+03  0.80539584998E+02 0.  0.
        254    2    1    2    0    0 -0.29252426232E+03 -0.16085024605E+03 -0.85153549474E+03  0.13105279719E+04  0.93857744516E+03 0.  0.
         23    2    4    4    0    0  0.25361456559E+03 -0.25466383550E+03 -0.57330437409E+03  0.68319519808E+03  0.94359717760E+02 0.  0.
         23    2    4    4    0    0 -0.54613882791E+03  0.93813589449E+02 -0.27823112065E+03  0.62733277380E+03  0.95211573146E+02 0.  0.
          1    1    3    3  502    0  0.26594835767E+03  0.11802814705E+03 -0.41709519648E+03  0.50855439765E+03  0.00000000000E+00 0. -1.
         -2    1    3    3    0  502  0.26575904657E+02  0.42822098999E+02 -0.10326757434E+03  0.11490954174E+03  0.00000000000E+00 0.  1.
         13    1    5    5    0    0  0.22328392407E+03 -0.24204515296E+03 -0.55564927042E+03  0.64590067235E+03  0.00000000000E+00 0. -1.
        -13    1    5    5    0    0  0.30330641519E+02 -0.12618682544E+02 -0.17655103672E+02  0.37294525734E+02  0.00000000000E+00 0.  1.
          2    1    6    6  503    0 -0.38068002553E+03  0.35716433075E+02 -0.22691727146E+03  0.44461713138E+03  0.00000000000E+00 0. -1.
         -2    1    6    6    0  503 -0.16545880238E+03  0.58097156374E+02 -0.51313849187E+02  0.18271564242E+03  0.00000000000E+00 0.  1.
<mgrwt>
<rscale>  0 0.13631654E+04</rscale>
<asrwt>0</asrwt>
<pdfrwt beam="1">  1        1 0.25429925E+00 0.13631654E+04</pdfrwt>
<pdfrwt beam="2">  1       -2 0.43237972E-01 0.13631654E+04</pdfrwt>
<totfact> 0.22341277E+01</totfact>
</mgrwt>
</event>
<event>
12    5  0.5297412E-008  0.1329884E+04  0.7818608E-02  0.9006197E-01
         -2   -1    0    0    0  501 -0.00000000000E+00  0.00000000000E+00  0.37873762940E+03  0.37873762940E+03  0.00000000000E+00 0.  1.
          1   -1    0    0  501    0  0.00000000000E+00 -0.00000000000E+00 -0.11674247200E+04  0.11674247200E+04  0.00000000000E+00 0. -1.
        -24    2    1    2    0    0  0.18604427046E+03  0.15798160229E+03  0.83451082484E+02  0.27012753723E+03  0.80213128434E+02 0.  0.
        254    2    1    2    0    0 -0.18604427046E+03 -0.15798160229E+03 -0.87213817310E+03  0.12760348122E+04  0.89892668871E+03 0.  0.
         23    2    4    4    0    0 -0.23797492461E+03 -0.43674527687E+03 -0.82879289417E+03  0.97159884279E+03  0.98631375726E+02 0.  0.
         23    2    4    4    0    0  0.51930654152E+02  0.27876367458E+03 -0.43345278933E+02  0.30443596939E+03  0.10196306754E+03 0.  0.
          3    1    3    3  502    0  0.15511566588E+02  0.15692481545E+01 -0.12140213936E+02  0.19759960329E+02  0.00000000000E+00 0. -1.
         -4    1    3    3    0  502  0.17053270387E+03  0.15641235413E+03  0.95591296420E+02  0.25036757690E+03  0.00000000000E+00 0.  1.
         13    1    5    5    0    0 -0.55051883485E+02 -0.17903722108E+03 -0.25317334440E+03  0.31493138733E+03  0.00000000000E+00 0.  1.
        -13    1    5    5    0    0 -0.18292304112E+03 -0.25770805579E+03 -0.57561954976E+03  0.65666745546E+03  0.00000000000E+00 0. -1.
          4    1    6    6  503    0  0.51636122733E+02  0.25221387932E+03 -0.46253481013E+01  0.25748693936E+03  0.00000000000E+00 0. -1.
         -4    1    6    6    0  503  0.29453141869E+00  0.26549795260E+02 -0.38719930832E+02  0.46949030030E+02  0.00000000000E+00 0.  1.
<mgrwt>
<rscale>  0 0.13298837E+04</rscale>
<asrwt>0</asrwt>
<pdfrwt beam="1">  1        1 0.17960380E+00 0.13298837E+04</pdfrwt>
<pdfrwt beam="2">  1       -2 0.58267327E-01 0.13298837E+04</pdfrwt>
<totfact> 0.26746632E+01</totfact>
</mgrwt>
</event>
<event>
12    5  0.5297412E-008  0.1169058E+04  0.7818608E-02  0.9140380E-01
          3   -1    0    0  501    0  0.00000000000E+00  0.00000000000E+00  0.67975632677E+03  0.67975632677E+03  0.00000000000E+00 0. -1.
         -4   -1    0    0    0  501 -0.00000000000E+00 -0.00000000000E+00 -0.50264180053E+03  0.50264180053E+03  0.00000000000E+00 0.  1.
        -24    2    1    2    0    0  0.48241555141E+02 -0.11613769167E+03  0.22664023563E+03  0.27096934291E+03  0.79015044914E+02 0.  0.
        254    2    1    2    0    0 -0.48241555141E+02  0.11613769167E+03 -0.49525709383E+02  0.91142878439E+03  0.90135144203E+03 0.  0.
         23    2    4    4    0    0 -0.14763004820E+03  0.39777409821E+03  0.23101609214E+03  0.49141566409E+03  0.90011420102E+02 0.  0.
         23    2    4    4    0    0  0.99388493056E+02 -0.28163640654E+03 -0.28054180153E+03  0.42001312030E+03  0.92250641073E+02 0.  0.
          1    1    3    3  502    0  0.24865290606E+02 -0.10850474912E+03  0.21822757513E+03  0.24497925995E+03  0.00000000000E+00 0. -1.
         -2    1    3    3    0  502  0.23376264534E+02 -0.76329425434E+01  0.84126604980E+01  0.25990082957E+02  0.00000000000E+00 0.  1.
         13    1    5    5    0    0 -0.36742308303E+02  0.32406865415E+02  0.92351440917E+01  0.49854689166E+02  0.00000000000E+00 0.  1.
        -13    1    5    5    0    0 -0.11088773989E+03  0.36536723279E+03  0.22178094805E+03  0.44156097492E+03  0.00000000000E+00 0. -1.
          4    1    6    6  503    0  0.48077334392E+01 -0.13778827204E+03 -0.98386226540E+02  0.16937701080E+03  0.00000000000E+00 0. -1.
         -4    1    6    6    0  503  0.94580759617E+02 -0.14384813450E+03 -0.18215557499E+03  0.25063610950E+03  0.00000000000E+00 0.  1.
<mgrwt>
<rscale>  0 0.11690576E+04</rscale>
<asrwt>0</asrwt>
<pdfrwt beam="1">  1        3 0.10457790E+00 0.11690576E+04</pdfrwt>
<pdfrwt beam="2">  1       -4 0.77329507E-01 0.11690576E+04</pdfrwt>
<totfact> 0.26684035E+00</totfact>
</mgrwt>
</event>
<event>
12    5  0.5297412E-008  0.2374780E+04  0.7818608E-02  0.8449006E-01
         -2   -1    0    0    0  501 -0.00000000000E+00  0.00000000000E+00  0.37883665395E+03  0.37883665395E+03  0.00000000000E+00 0.  1.
          1   -1    0    0  501    0  0.00000000000E+00 -0.00000000000E+00 -0.37216435368E+04  0.37216435368E+04  0.00000000000E+00 0. -1.
        -24    2    1    2    0    0 -0.52034786236E+03 -0.57899594430E+03 -0.25436388519E+04  0.26613124168E+04  0.80541725761E+02 0.  0.
        254    2    1    2    0    0  0.52034786236E+03  0.57899594430E+03 -0.79916803091E+03  0.14391677739E+04  0.90914032932E+03 0.  0.
         23    2    4    4    0    0  0.63784381611E+03  0.13579246702E+03 -0.69830236103E+03  0.96005819634E+03  0.93814844672E+02 0.  0.
         23    2    4    4    0    0 -0.11749595375E+03  0.44320347728E+03 -0.10086566987E+03  0.47910957755E+03  0.95590180047E+02 0.  0.
          3    1    3    3  502    0 -0.92871385727E+02 -0.78808196720E+02 -0.48620143164E+03  0.50122615483E+03  0.00000000000E+00 0. -1.
         -4    1    3    3    0  502 -0.42747647664E+03 -0.50018774758E+03 -0.20574374203E+04  0.21600862620E+04  0.00000000000E+00 0.  1.
         13    1    5    5    0    0  0.98471878020E+02 -0.73093345756E+01 -0.13382563163E+03  0.16631126484E+03  0.00000000000E+00 0.  1.
        -13    1    5    5    0    0  0.53937193809E+03  0.14310180159E+03 -0.56447672941E+03  0.79374693150E+03  0.00000000000E+00 0. -1.
          4    1    6    6  503    0 -0.62723229196E+02  0.37413736021E+03 -0.70337197470E+02  0.38582416868E+03  0.00000000000E+00 0. -1.
         -4    1    6    6    0  503 -0.54772724550E+02  0.69066117072E+02 -0.30528472403E+02  0.93285408877E+02  0.00000000000E+00 0.  1.
<mgrwt>
<rscale>  0 0.23747800E+04</rscale>
<asrwt>0</asrwt>
<pdfrwt beam="1">  1        1 0.57256051E+00 0.23747800E+04</pdfrwt>
<pdfrwt beam="2">  1       -2 0.58282565E-01 0.23747800E+04</pdfrwt>
<totfact> 0.36090359E-01</totfact>
</mgrwt>
</event>
<event>
12    5  0.5297412E-008  0.1937610E+04  0.7818608E-02  0.8636359E-01
          1   -1    0    0  501    0  0.00000000000E+00  0.00000000000E+00  0.16646509568E+04  0.16646509568E+04  0.00000000000E+00 0. -1.
         -2   -1    0    0    0  501 -0.00000000000E+00 -0.00000000000E+00 -0.56383158532E+03  0.56383158532E+03  0.00000000000E+00 0.  1.
        -24    2    1    2    0    0 -0.64479896334E+03  0.24433494404E+03  0.80411354218E+03  0.10624724002E+04  0.82363490208E+02 0.  0.
        254    2    1    2    0    0  0.64479896334E+03 -0.24433494404E+03  0.29670582930E+03  0.11660101419E+04  0.89223317237E+03 0.  0.
         23    2    4    4    0    0  0.51676505756E+03  0.24227295882E+03  0.30608428476E+03  0.65403238464E+03  0.91260393878E+02 0.  0.
         23    2    4    4    0    0  0.12803390578E+03 -0.48660790287E+03 -0.93784554564E+01  0.51197775726E+03  0.94092169419E+02 0.  0.
          1    1    3    3  502    0 -0.86183320118E+02  0.59074498701E+02  0.98029186089E+02  0.14327275522E+03  0.00000000000E+00 0. -1.
         -2    1    3    3    0  502 -0.55861564322E+03  0.18526044534E+03  0.70608435609E+03  0.91919964501E+03  0.00000000000E+00 0.  1.
         13    1    5    5    0    0  0.44785672494E+03  0.17728811013E+03  0.27328191412E+03  0.55379574272E+03  0.00000000000E+00 0.  1.
        -13    1    5    5    0    0  0.68908332622E+02  0.64984848696E+02  0.32802370634E+02  0.10023664192E+03  0.00000000000E+00 0. -1.
          3    1    6    6  503    0  0.18891657245E+02 -0.78949065260E+02 -0.36678160287E+02  0.89079386285E+02  0.00000000000E+00 0. -1.
         -3    1    6    6    0  503  0.10914224853E+03 -0.40765883761E+03  0.27299704830E+02  0.42289837098E+03  0.00000000000E+00 0.  1.
<mgrwt>
<rscale>  0 0.19376096E+04</rscale>
<asrwt>0</asrwt>
<pdfrwt beam="1">  1        1 0.25610015E+00 0.19376096E+04</pdfrwt>
<pdfrwt beam="2">  1       -2 0.86743322E-01 0.19376096E+04</pdfrwt>
<totfact> 0.47451136E+00</totfact>
</mgrwt>
</event>
<event>
12    5  0.5297412E-008  0.1304817E+04  0.7818608E-02  0.9025754E-01
          1   -1    0    0  501    0  0.00000000000E+00  0.00000000000E+00  0.77165710399E+03  0.77165710399E+03  0.00000000000E+00 0. -1.
         -2   -1    0    0    0  501 -0.00000000000E+00 -0.00000000000E+00 -0.55158768623E+03  0.55158768623E+03  0.00000000000E+00 0.  1.
        -24    2    1    2    0    0  0.20798866443E+03  0.32157051325E+02 -0.82120700487E+02  0.23959536559E+03  0.79804569304E+02 0.  0.
        254    2    1    2    0    0 -0.20798866443E+03 -0.32157051325E+02  0.30219011825E+03  0.10836494246E+04  0.10191584016E+04 0.  0.
         23    2    4    4    0    0 -0.53223312105E+03  0.25070371275E+03  0.23565091512E+03  0.63934854056E+03  0.84325297450E+02 0.  0.
         23    2    4    4    0    0  0.32424445662E+03 -0.28286076408E+03  0.66539203125E+02  0.44430088407E+03  0.88493675087E+02 0.  0.
          1    1    3    3  502    0  0.14459412041E+03 -0.36910406883E+01 -0.24438690012E+02  0.14669128471E+03  0.00000000000E+00 0. -1.
         -2    1    3    3    0  502  0.63394544016E+02  0.35848092014E+02 -0.57682010475E+02  0.92904080881E+02  0.00000000000E+00 0.  1.
         13    1    5    5    0    0 -0.30302998710E+03  0.13815201063E+03  0.88328468539E+02  0.34455053254E+03  0.00000000000E+00 0. -1.
        -13    1    5    5    0    0 -0.22920313395E+03  0.11255170212E+03  0.14732244658E+03  0.29479800802E+03  0.00000000000E+00 0.  1.
          2    1    6    6  503    0  0.28967910131E+03 -0.21378171937E+03  0.70882850471E+02  0.36693457695E+03  0.00000000000E+00 0. -1.
         -2    1    6    6    0  503  0.34565355316E+02 -0.69079044701E+02 -0.43436473462E+01  0.77366307119E+02  0.00000000000E+00 0.  1.
<mgrwt>
<rscale>  0 0.13048165E+04</rscale>
<asrwt>0</asrwt>
<pdfrwt beam="1">  1        1 0.11871648E+00 0.13048165E+04</pdfrwt>
<pdfrwt beam="2">  1       -2 0.84859644E-01 0.13048165E+04</pdfrwt>
<totfact> 0.24374421E+01</totfact>
</mgrwt>
</event>
<event>
12    5  0.5297412E-008  0.1646154E+04  0.7818608E-02  0.8792685E-01
         -2   -1    0    0    0  501 -0.00000000000E+00  0.00000000000E+00  0.35215971328E+03  0.35215971328E+03  0.00000000000E+00 0.  1.
          1   -1    0    0  501    0  0.00000000000E+00 -0.00000000000E+00 -0.19237167392E+04  0.19237167392E+04  0.00000000000E+00 0. -1.
        -24    2    1    2    0    0  0.15637578421E+03 -0.56578857682E+03 -0.61912082213E+03  0.85704569441E+03  0.81526868976E+02 0.  0.
        254    2    1    2    0    0 -0.15637578421E+03  0.56578857682E+03 -0.95243620375E+03  0.14188307580E+04  0.87256856358E+03 0.  0.
         23    2    4    4    0    0 -0.23783983837E+03  0.11554523474E+03  0.74150353194E+02  0.29141392753E+03  0.97495191114E+02 0.  0.
         23    2    4    4    0    0  0.81464054157E+02  0.45024334208E+03 -0.10265865569E+04  0.11274168305E+04  0.88505884398E+02 0.  0.
          1    1    3    3  502    0  0.14150029963E+03 -0.51655595122E+03 -0.52610991423E+03  0.75076229753E+03  0.00000000000E+00 0. -1.
         -2    1    3    3    0  502  0.14875484586E+02 -0.49232625599E+02 -0.93010907896E+02  0.10628339688E+03  0.00000000000E+00 0.  1.
         13    1    5    5    0    0 -0.17426909282E+03  0.11038523995E+03  0.19114543377E+02  0.20717138721E+03  0.00000000000E+00 0.  1.
        -13    1    5    5    0    0 -0.63570745551E+02  0.51599947872E+01  0.55035809818E+02  0.84242540313E+02  0.00000000000E+00 0. -1.
          1    1    6    6  503    0  0.81266386756E+02  0.35196712171E+03 -0.72120335168E+03  0.80660979095E+03  0.00000000000E+00 0. -1.
         -1    1    6    6    0  503  0.19766740109E+00  0.98276220367E+02 -0.30538320527E+03  0.32080703955E+03  0.00000000000E+00 0.  1.
<mgrwt>
<rscale>  0 0.16461537E+04</rscale>
<asrwt>0</asrwt>
<pdfrwt beam="1">  1        1 0.29595643E+00 0.16461537E+04</pdfrwt>
<pdfrwt beam="2">  1       -2 0.54178416E-01 0.16461537E+04</pdfrwt>
<totfact> 0.90397513E+00</totfact>
</mgrwt>
</event>
<event>
12    5  0.5297412E-008  0.2015661E+04  0.7818608E-02  0.8599334E-01
          1   -1    0    0  501    0  0.00000000000E+00  0.00000000000E+00  0.22002881440E+04  0.22002881440E+04  0.00000000000E+00 0. -1.
         -2   -1    0    0    0  501 -0.00000000000E+00 -0.00000000000E+00 -0.46163143014E+03  0.46163143014E+03  0.00000000000E+00 0.  1.
        -24    2    1    2    0    0 -0.70222899665E+03 -0.38291083559E+03  0.82241169211E+03  0.11496237783E+04  0.74347619407E+02 0.  0.
        254    2    1    2    0    0  0.70222899665E+03  0.38291083559E+03  0.91624502173E+03  0.15122957958E+04  0.89876991635E+03 0.  0.
         23    2    4    4    0    0  0.18121475846E+03  0.20506083799E+03  0.90968645432E+03  0.95441260450E+03  0.92115354334E+02 0.  0.
         23    2    4    4    0    0  0.52101423819E+03  0.17784999761E+03  0.65585674161E+01  0.55788319135E+03  0.90023232204E+02 0.  0.
          1    1    3    3  502    0 -0.63897367836E+03 -0.33983777843E+03  0.71167513017E+03  0.10150165359E+04  0.00000000000E+00 0. -1.
         -2    1    3    3    0  502 -0.63255318293E+02 -0.43073057162E+02  0.11073656194E+03  0.13460724236E+03  0.00000000000E+00 0.  1.
         13    1    5    5    0    0 -0.82416472137E+01  0.15067286095E+02  0.98991649509E+02  0.10047036643E+03  0.00000000000E+00 0. -1.
        -13    1    5    5    0    0  0.18945640568E+03  0.18999355189E+03  0.81069480481E+03  0.85394223807E+03  0.00000000000E+00 0.  1.
          3    1    6    6  503    0  0.41255128575E+03  0.13537798724E+03  0.41757779734E+02  0.43619889382E+03  0.00000000000E+00 0.  1.
         -3    1    6    6    0  503  0.10846295244E+03  0.42472010370E+02 -0.35199212318E+02  0.12168429753E+03  0.00000000000E+00 0. -1.
<mgrwt>
<rscale>  0 0.20156608E+04</rscale>
<asrwt>0</asrwt>
<pdfrwt beam="1">  1        1 0.33850586E+00 0.20156608E+04</pdfrwt>
<pdfrwt beam="2">  1       -2 0.71020221E-01 0.20156608E+04</pdfrwt>
<totfact> 0.31913649E+00</totfact>
</mgrwt>
</event>
<event>
12    5  0.5297412E-008  0.1959597E+04  0.7818608E-02  0.8625747E-01
         -2   -1    0    0    0  501 -0.00000000000E+00  0.00000000000E+00  0.81376788352E+03  0.81376788352E+03  0.00000000000E+00 0.  1.
          1   -1    0    0  501    0  0.00000000000E+00 -0.00000000000E+00 -0.11797041676E+04  0.11797041676E+04  0.00000000000E+00 0. -1.
        -24    2    1    2    0    0  0.18653190256E+03 -0.40374101057E+03  0.49446838409E+03  0.67019576217E+03  0.82839739697E+02 0.  0.
        254    2    1    2    0    0 -0.18653190256E+03  0.40374101057E+03 -0.86040466815E+03  0.13232762889E+04  0.90164460269E+03 0.  0.
         23    2    4    4    0    0 -0.10894282507E+03 -0.17918179632E+03 -0.65532541181E+03  0.69391166352E+03  0.89929673260E+02 0.  0.
         23    2    4    4    0    0 -0.77589077487E+02  0.58292280689E+03 -0.20507925634E+03  0.62936462541E+03  0.90682228650E+02 0.  0.
          1    1    3    3  502    0  0.96195114184E+02 -0.13147704242E+03  0.14520499460E+03  0.21822970268E+03  0.00000000000E+00 0. -1.
         -2    1    3    3    0  502  0.90336788378E+02 -0.27226396815E+03  0.34926338949E+03  0.45196605948E+03  0.00000000000E+00 0.  1.
         13    1    5    5    0    0 -0.11748725682E+03 -0.11975654631E+03 -0.49952958550E+03  0.52694847252E+03  0.00000000000E+00 0. -1.
        -13    1    5    5    0    0  0.85444317451E+01 -0.59425250015E+02 -0.15579582630E+03  0.16696319099E+03  0.00000000000E+00 0.  1.
          2    1    6    6  503    0 -0.82723124013E+02  0.40535360504E+03 -0.17497186095E+03  0.44918794784E+03  0.00000000000E+00 0. -1.
         -2    1    6    6    0  503  0.51340465257E+01  0.17756920186E+03 -0.30107395393E+02  0.18017667757E+03  0.00000000000E+00 0.  1.
<mgrwt>
<rscale>  0 0.19595973E+04</rscale>
<asrwt>0</asrwt>
<pdfrwt beam="1">  1        1 0.18149295E+00 0.19595973E+04</pdfrwt>
<pdfrwt beam="2">  1       -2 0.12519506E+00 0.19595973E+04</pdfrwt>
<totfact> 0.43125324E+00</totfact>
</mgrwt>
</event>
<event>
12    5  0.5297412E-008  0.1686275E+04  0.7818608E-02  0.8769231E-01
         -2   -1    0    0    0  501 -0.00000000000E+00  0.00000000000E+00  0.32914680059E+03  0.32914680059E+03  0.00000000000E+00 0.  1.
          1   -1    0    0  501    0  0.00000000000E+00 -0.00000000000E+00 -0.21597673871E+04  0.21597673871E+04  0.00000000000E+00 0. -1.
        -24    2    1    2    0    0 -0.18589249055E+03  0.56040711003E+03 -0.49074678732E+03  0.77197218638E+03  0.80600870089E+02 0.  0.
        254    2    1    2    0    0  0.18589249055E+03 -0.56040711003E+03 -0.13398737992E+04  0.17169420013E+04  0.89666933207E+03 0.  0.
         23    2    4    4    0    0 -0.33770310401E+03 -0.24655780620E+03 -0.75017007011E+03  0.86352444871E+03  0.89917746754E+02 0.  0.
         23    2    4    4    0    0  0.52359559456E+03 -0.31384930383E+03 -0.58970372904E+03  0.85341755256E+03  0.88979204424E+02 0.  0.
          1    1    3    3  502    0 -0.18858645486E+03  0.50789700200E+03 -0.43038564478E+03  0.69192197452E+03  0.00000000000E+00 0. -1.
         -2    1    3    3    0  502  0.26939643076E+01  0.52510108034E+02 -0.60361142538E+02  0.80050211855E+02  0.00000000000E+00 0.  1.
         13    1    5    5    0    0 -0.52347693375E+02 -0.40821627690E+02 -0.19782270195E+03  0.20866362331E+03  0.00000000000E+00 0. -1.
        -13    1    5    5    0    0 -0.28535541063E+03 -0.20573617851E+03 -0.55234736816E+03  0.65486082540E+03  0.00000000000E+00 0.  1.
          2    1    6    6  503    0  0.15547417825E+03 -0.90469891185E+02 -0.23241204762E+03  0.29389178484E+03  0.00000000000E+00 0. -1.
         -2    1    6    6    0  503  0.36812141631E+03 -0.22337941265E+03 -0.35729168142E+03  0.55952576773E+03  0.00000000000E+00 0.  1.
<mgrwt>
<rscale>  0 0.16862746E+04</rscale>
<asrwt>0</asrwt>
<pdfrwt beam="1">  1        1 0.33227191E+00 0.16862746E+04</pdfrwt>
<pdfrwt beam="2">  1       -2 0.50637969E-01 0.16862746E+04</pdfrwt>
<totfact> 0.71623010E+00</totfact>
</mgrwt>
</event>
<event>
12    5  0.5297412E-008  0.1864538E+04  0.7818608E-02  0.8672712E-01
          3   -1    0    0  501    0  0.00000000000E+00  0.00000000000E+00  0.18138737138E+04  0.18138737138E+04  0.00000000000E+00 0. -1.
         -4   -1    0    0    0  501 -0.00000000000E+00 -0.00000000000E+00 -0.47915418237E+03  0.47915418237E+03  0.00000000000E+00 0.  1.
        -24    2    1    2    0    0 -0.41318211628E+03  0.97059888198E+02  0.12147060085E+04  0.12892502000E+04  0.80717458263E+02 0.  0.
        254    2    1    2    0    0  0.41318211628E+03 -0.97059888198E+02  0.12001352296E+03  0.10037776962E+04  0.90167972946E+03 0.  0.
         23    2    4    4    0    0  0.56407087456E+03 -0.59736027977E+02  0.37886719926E+03  0.68778030540E+03  0.88074112337E+02 0.  0.
         23    2    4    4    0    0 -0.15088875828E+03 -0.37323860221E+02 -0.25885367631E+03  0.31599739076E+03  0.93212860234E+02 0.  0.
          1    1    3    3  502    0 -0.38729886600E+03  0.10503207624E+03  0.10870677891E+04  0.11587702649E+04  0.00000000000E+00 0. -1.
         -2    1    3    3    0  502 -0.25883250276E+02 -0.79721880377E+01  0.12763821937E+03  0.13047993513E+03  0.00000000000E+00 0.  1.
         13    1    5    5    0    0  0.11362976468E+03 -0.21628832381E+02  0.38465175137E+02  0.12189790609E+03  0.00000000000E+00 0. -1.
        -13    1    5    5    0    0  0.45044110988E+03 -0.38107195596E+02  0.34040202412E+03  0.56588239931E+03  0.00000000000E+00 0.  1.
          3    1    6    6  503    0 -0.56239934474E+01 -0.12978977744E+02  0.39908301653E+01  0.14697274951E+02  0.00000000000E+00 0. -1.
         -3    1    6    6    0  503 -0.14526476483E+03 -0.24344882477E+02 -0.26284450647E+03  0.30130011581E+03  0.00000000000E+00 0.  1.
<mgrwt>
<rscale>  0 0.18645377E+04</rscale>
<asrwt>0</asrwt>
<pdfrwt beam="1">  1        3 0.27905749E+00 0.18645377E+04</pdfrwt>
<pdfrwt beam="2">  1       -4 0.73716029E-01 0.18645377E+04</pdfrwt>
<totfact> 0.18189851E-01</totfact>
</mgrwt>
</event>
<event>
12    5  0.5297412E-008  0.1882651E+04  0.7818608E-02  0.8663541E-01
          1   -1    0    0  501    0  0.00000000000E+00  0.00000000000E+00  0.16603429362E+04  0.16603429362E+04  0.00000000000E+00 0. -1.
         -2   -1    0    0    0  501 -0.00000000000E+00 -0.00000000000E+00 -0.53368111162E+03  0.53368111162E+03  0.00000000000E+00 0.  1.
        -24    2    1    2    0    0  0.45647456723E+03 -0.75906386235E+02 -0.19383705042E+03  0.50795236849E+03  0.79448074455E+02 0.  0.
        254    2    1    2    0    0 -0.45647456723E+03  0.75906386235E+02  0.13204988750E+04  0.16860716794E+04  0.94073886866E+03 0.  0.
         23    2    4    4    0    0  0.10612364556E+03  0.26771347056E+03  0.87879346612E+02  0.31461330226E+03  0.91247026988E+02 0.  0.
         23    2    4    4    0    0 -0.56259821279E+03 -0.19180708433E+03  0.12326195284E+04  0.13714583771E+04  0.90777043679E+02 0.  0.
          3    1    3    3  502    0  0.87693666803E+02  0.14241256144E+02 -0.23812201270E+02  0.91978331705E+02  0.00000000000E+00 0. -1.
         -4    1    3    3    0  502  0.36878090043E+03 -0.90147642380E+02 -0.17002484915E+03  0.41597403678E+03  0.00000000000E+00 0.  1.
         13    1    5    5    0    0  0.93816912719E+02  0.13702475358E+03  0.76549185850E+02  0.18285834424E+03  0.00000000000E+00 0. -1.
        -13    1    5    5    0    0  0.12306732837E+02  0.13068871698E+03  0.11330160762E+02  0.13175495802E+03  0.00000000000E+00 0.  1.
          1    1    6    6  503    0 -0.37627082800E+03 -0.16905973969E+03  0.80835823436E+03  0.90752628978E+03  0.00000000000E+00 0. -1.
         -1    1    6    6    0  503 -0.18632738479E+03 -0.22747344634E+02  0.42426129407E+03  0.46393208733E+03  0.00000000000E+00 0.  1.
<mgrwt>
<rscale>  0 0.18826510E+04</rscale>
<asrwt>0</asrwt>
<pdfrwt beam="1">  1        1 0.25543737E+00 0.18826510E+04</pdfrwt>
<pdfrwt beam="2">  1       -2 0.82104787E-01 0.18826510E+04</pdfrwt>
<totfact> 0.54391721E+00</totfact>
</mgrwt>
</event>
<event>
12    5  0.5297412E-008  0.2360608E+04  0.7818608E-02  0.8454400E-01
         -2   -1    0    0    0  501 -0.00000000000E+00  0.00000000000E+00  0.12926323504E+04  0.12926323504E+04  0.00000000000E+00 0.  1.
          1   -1    0    0  501    0  0.00000000000E+00 -0.00000000000E+00 -0.10777366864E+04  0.10777366864E+04  0.00000000000E+00 0. -1.
        -24    2    1    2    0    0  0.53642620453E+03  0.28298628739E+03  0.89724242767E+03  0.10858663945E+04  0.78914769743E+02 0.  0.
        254    2    1    2    0    0 -0.53642620453E+03 -0.28298628739E+03 -0.68234676362E+03  0.12845026423E+04  0.90361253888E+03 0.  0.
         23    2    4    4    0    0  0.14765804979E+03 -0.24256754919E+01 -0.48321887960E+03  0.51358437900E+03  0.91976329460E+02 0.  0.
         23    2    4    4    0    0 -0.68408425431E+03 -0.28056061189E+03 -0.19912788402E+03  0.77091826327E+03  0.89317022523E+02 0.  0.
          1    1    3    3  502    0  0.18775490535E+03  0.10350653763E+03  0.25264843955E+03  0.33135591412E+03  0.00000000000E+00 0. -1.
         -2    1    3    3    0  502  0.34867129918E+03  0.17947974975E+03  0.64459398812E+03  0.75451048035E+03  0.00000000000E+00 0.  1.
         13    1    5    5    0    0 -0.73711511992E+01 -0.11127981685E+02 -0.87154916735E+02  0.88171114076E+02  0.00000000000E+00 0. -1.
        -13    1    5    5    0    0  0.15502920098E+03  0.87023061932E+01 -0.39606396287E+03  0.42541326492E+03  0.00000000000E+00 0.  1.
          1    1    6    6  503    0 -0.31304462937E+03 -0.17580442055E+03 -0.87535009247E+02  0.36954906590E+03  0.00000000000E+00 0. -1.
         -1    1    6    6    0  503 -0.37103962494E+03 -0.10475619134E+03 -0.11159287478E+03  0.40136919738E+03  0.00000000000E+00 0.  1.
<mgrwt>
<rscale>  0 0.23606078E+04</rscale>
<asrwt>0</asrwt>
<pdfrwt beam="1">  1        1 0.16580564E+00 0.23606078E+04</pdfrwt>
<pdfrwt beam="2">  1       -2 0.19886652E+00 0.23606078E+04</pdfrwt>
<totfact> 0.14063228E+00</totfact>
</mgrwt>
</event>
<event>
12    5  0.5297412E-008  0.3112564E+04  0.7818608E-02  0.8212298E-01
          1   -1    0    0  501    0  0.00000000000E+00  0.00000000000E+00  0.29992477621E+04  0.29992477621E+04  0.00000000000E+00 0. -1.
         -2   -1    0    0    0  501 -0.00000000000E+00 -0.00000000000E+00 -0.80754012653E+03  0.80754012653E+03  0.00000000000E+00 0.  1.
        -24    2    1    2    0    0 -0.13637889118E+03 -0.11432299113E+04  0.20325765422E+04  0.23375152762E+04  0.83883457505E+02 0.  0.
        254    2    1    2    0    0  0.13637889118E+03  0.11432299113E+04  0.15913109336E+03  0.14692726124E+04  0.89881336926E+03 0.  0.
         23    2    4    4    0    0  0.43003389823E+03  0.24783201310E+03 -0.22235734058E+02  0.50540350499E+03  0.92673699795E+02 0.  0.
         23    2    4    4    0    0 -0.29365500706E+03  0.89539789819E+03  0.18136682742E+03  0.96386910746E+03  0.90438216318E+02 0.  0.
          3    1    3    3  502    0 -0.83553168350E+02 -0.90018812051E+03  0.15415700075E+04  0.17871088026E+04  0.00000000000E+00 0. -1.
         -4    1    3    3    0  502 -0.52825722829E+02 -0.24304179078E+03  0.49100653471E+03  0.55040647360E+03  0.00000000000E+00 0.  1.
         13    1    5    5    0    0  0.38150457946E+03  0.22199946544E+03 -0.49275991015E+02  0.44413694971E+03  0.00000000000E+00 0.  1.
        -13    1    5    5    0    0  0.48529318776E+02  0.25832547662E+02  0.27040256957E+02  0.61266555280E+02  0.00000000000E+00 0. -1.
          1    1    6    6  503    0 -0.32435193963E+02  0.21344353222E+03  0.28476001331E+02  0.21776378465E+03  0.00000000000E+00 0. -1.
         -1    1    6    6    0  503 -0.26121981309E+03  0.68195436597E+03  0.15289082609E+03  0.74610532281E+03  0.00000000000E+00 0.  1.
<mgrwt>
<rscale>  0 0.31125635E+04</rscale>
<asrwt>0</asrwt>
<pdfrwt beam="1">  1        1 0.46142273E+00 0.31125635E+04</pdfrwt>
<pdfrwt beam="2">  1       -2 0.12423694E+00 0.31125635E+04</pdfrwt>
<totfact> 0.21605679E-01</totfact>
</mgrwt>
</event>
<event>
12    5  0.5297412E-008  0.2831071E+04  0.7818608E-02  0.8293687E-01
         -2   -1    0    0    0  501 -0.00000000000E+00  0.00000000000E+00  0.15811972352E+04  0.15811972352E+04  0.00000000000E+00 0.  1.
          1   -1    0    0  501    0  0.00000000000E+00 -0.00000000000E+00 -0.12672299585E+04  0.12672299585E+04  0.00000000000E+00 0. -1.
        -24    2    1    2    0    0  0.69840282275E+03 -0.33403794567E+03  0.11588996552E+04  0.13959912924E+04  0.79971406179E+02 0.  0.
        254    2    1    2    0    0 -0.69840282275E+03  0.33403794567E+03 -0.84493237846E+03  0.14524359013E+04  0.89236285844E+03 0.  0.
         23    2    4    4    0    0 -0.42488667259E+03 -0.12383080367E+03 -0.22579229336E+01  0.45099356113E+03  0.86760252879E+02 0.  0.
         23    2    4    4    0    0 -0.27351615016E+03  0.45786874935E+03 -0.84267445552E+03  0.10014423401E+04  0.91277853786E+02 0.  0.
          3    1    3    3  502    0  0.23833630952E+03 -0.13867961321E+03  0.46906359418E+03  0.54411109797E+03  0.00000000000E+00 0. -1.
         -4    1    3    3    0  502  0.46006651323E+03 -0.19535833246E+03  0.68983606101E+03  0.85188019447E+03  0.00000000000E+00 0.  1.
         13    1    5    5    0    0 -0.29367281433E+03 -0.12646530239E+03 -0.97713327245E+00  0.31974700839E+03  0.00000000000E+00 0.  1.
        -13    1    5    5    0    0 -0.13121385827E+03  0.26344987190E+01 -0.12807896611E+01  0.13124655274E+03  0.00000000000E+00 0. -1.
          3    1    6    6  503    0 -0.51241561354E+01  0.70273932135E+01 -0.50657228605E+02  0.51398405048E+02  0.00000000000E+00 0. -1.
         -3    1    6    6    0  503 -0.26839199403E+03  0.45084135613E+03 -0.79201722692E+03  0.95004393509E+03  0.00000000000E+00 0.  1.
<mgrwt>
<rscale>  0 0.28310708E+04</rscale>
<asrwt>0</asrwt>
<pdfrwt beam="1">  1        1 0.19495846E+00 0.28310708E+04</pdfrwt>
<pdfrwt beam="2">  1       -2 0.24326111E+00 0.28310708E+04</pdfrwt>
<totfact> 0.51177776E-01</totfact>
</mgrwt>
</event>
<event>
12    5  0.5297412E-008  0.1377836E+04  0.7818608E-02  0.8970020E-01
         -2   -1    0    0    0  501 -0.00000000000E+00  0.00000000000E+00  0.24779261065E+03  0.24779261065E+03  0.00000000000E+00 0.  1.
          1   -1    0    0  501    0  0.00000000000E+00 -0.00000000000E+00 -0.19153427465E+04  0.19153427465E+04  0.00000000000E+00 0. -1.
        -24    2    1    2    0    0  0.42901287551E+03  0.94200882102E+02 -0.55304946664E+03  0.71066390023E+03  0.79079788838E+02 0.  0.
        254    2    1    2    0    0 -0.42901287551E+03 -0.94200882102E+02 -0.11145006692E+04  0.14524714569E+04  0.82136212351E+03 0.  0.
         23    2    4    4    0    0 -0.91233426670E+02 -0.19284965056E+03 -0.10604064709E+04  0.10850927092E+04  0.86312097375E+02 0.  0.
         23    2    4    4    0    0 -0.33777944884E+03  0.98648768463E+02 -0.54094198282E+02  0.36737874769E+03  0.90633472797E+02 0.  0.
          1    1    3    3  502    0  0.16791832122E+02  0.21590249136E+02 -0.41355191335E+02  0.49581814550E+02  0.00000000000E+00 0. -1.
         -2    1    3    3    0  502  0.41222104339E+03  0.72610632966E+02 -0.51169427531E+03  0.66108208568E+03  0.00000000000E+00 0.  1.
         13    1    5    5    0    0 -0.52976867156E+02 -0.14647378474E+03 -0.56587771906E+03  0.58692308780E+03  0.00000000000E+00 0. -1.
        -13    1    5    5    0    0 -0.38256559514E+02 -0.46375865820E+02 -0.49452875188E+03  0.49816962142E+03  0.00000000000E+00 0.  1.
          2    1    6    6  503    0 -0.13749435663E+03  0.71526882690E+02  0.10102241707E+02  0.15531531908E+03  0.00000000000E+00 0. -1.
         -2    1    6    6    0  503 -0.20028509221E+03  0.27121885773E+02 -0.64196439989E+02  0.21206342862E+03  0.00000000000E+00 0.  1.
<mgrwt>
<rscale>  0 0.13778357E+04</rscale>
<asrwt>0</asrwt>
<pdfrwt beam="1">  1        1 0.29466812E+00 0.13778357E+04</pdfrwt>
<pdfrwt beam="2">  1       -2 0.38121940E-01 0.13778357E+04</pdfrwt>
<totfact> 0.18959902E+01</totfact>
</mgrwt>
</event>
<event>
12    5  0.5297412E-008  0.1588271E+04  0.7818608E-02  0.8827786E-01
          1   -1    0    0  501    0  0.00000000000E+00  0.00000000000E+00  0.95955072048E+03  0.95955072048E+03  0.00000000000E+00 0. -1.
         -2   -1    0    0    0  501 -0.00000000000E+00 -0.00000000000E+00 -0.65723622365E+03  0.65723622365E+03  0.00000000000E+00 0.  1.
        -24    2    1    2    0    0  0.42639642670E+03  0.12982182759E+03 -0.19660486614E+03  0.49335366818E+03  0.77953504710E+02 0.  0.
        254    2    1    2    0    0 -0.42639642670E+03 -0.12982182759E+03  0.49891936297E+03  0.11234332759E+04  0.90250439065E+03 0.  0.
         23    2    4    4    0    0 -0.21076013028E+03  0.34399175459E+03  0.27395703994E+02  0.41512620835E+03  0.93963208298E+02 0.  0.
         23    2    4    4    0    0 -0.21563629642E+03 -0.47381358218E+03  0.47152365897E+03  0.70830706760E+03  0.91465939290E+02 0.  0.
          3    1    3    3  502    0  0.11687913034E+03  0.33173676310E+02 -0.17001102147E+02  0.12267950678E+03  0.00000000000E+00 0. -1.
         -4    1    3    3    0  502  0.30951729636E+03  0.96648151276E+02 -0.17960376399E+03  0.37067416141E+03  0.00000000000E+00 0.  1.
         13    1    5    5    0    0 -0.13221531626E+03  0.28452711978E+03  0.38011487842E+02  0.31604025843E+03  0.00000000000E+00 0. -1.
        -13    1    5    5    0    0 -0.78544814021E+02  0.59464634816E+02 -0.10615783848E+02  0.99085949912E+02  0.00000000000E+00 0.  1.
          4    1    6    6  503    0 -0.12265087916E+03 -0.32004419707E+03  0.35872386233E+03  0.49613943165E+03  0.00000000000E+00 0. -1.
         -4    1    6    6    0  503 -0.92985417263E+02 -0.15376938511E+03  0.11279979664E+03  0.21216763595E+03  0.00000000000E+00 0.  1.
<mgrwt>
<rscale>  0 0.15882714E+04</rscale>
<asrwt>0</asrwt>
<pdfrwt beam="1">  1        1 0.14762319E+00 0.15882714E+04</pdfrwt>
<pdfrwt beam="2">  1       -2 0.10111326E+00 0.15882714E+04</pdfrwt>
<totfact> 0.11030919E+01</totfact>
</mgrwt>
</event>
<event>
12    5  0.5297412E-008  0.1756606E+04  0.7818608E-02  0.8729722E-01
         -2   -1    0    0    0  501 -0.00000000000E+00  0.00000000000E+00  0.99636202921E+03  0.99636202921E+03  0.00000000000E+00 0.  1.
          1   -1    0    0  501    0  0.00000000000E+00 -0.00000000000E+00 -0.77423282053E+03  0.77423282053E+03  0.00000000000E+00 0. -1.
        -24    2    1    2    0    0  0.11138049865E+03 -0.43385613328E+03  0.55101724868E+03  0.71360503966E+03  0.70536405010E+02 0.  0.
        254    2    1    2    0    0 -0.11138049865E+03  0.43385613328E+03 -0.32888804000E+03  0.10569898101E+04  0.89912365995E+03 0.  0.
         23    2    4    4    0    0 -0.63222261530E+02  0.52051496439E+03  0.15483047645E+03  0.55438610011E+03  0.91861793205E+02 0.  0.
         23    2    4    4    0    0 -0.48158237117E+02 -0.86658831106E+02 -0.48371851645E+03  0.50260370997E+03  0.93797213750E+02 0.  0.
          1    1    3    3  502    0  0.17319035582E+02 -0.12949006486E+03  0.11812917182E+03  0.17613099422E+03  0.00000000000E+00 0. -1.
         -2    1    3    3    0  502  0.94061463066E+02 -0.30436606842E+03  0.43288807686E+03  0.53747404544E+03  0.00000000000E+00 0.  1.
         13    1    5    5    0    0  0.60124006684E+01  0.13056105036E+03  0.45440674465E+01  0.13077838271E+03  0.00000000000E+00 0.  1.
        -13    1    5    5    0    0 -0.69234662199E+02  0.38995391402E+03  0.15028640901E+03  0.42360771740E+03  0.00000000000E+00 0. -1.
          3    1    6    6  503    0 -0.11618495398E+02 -0.38142908976E+02 -0.38241333638E+03  0.38448645072E+03  0.00000000000E+00 0. -1.
         -3    1    6    6    0  503 -0.36539741719E+02 -0.48515922130E+02 -0.10130518007E+03  0.11811725925E+03  0.00000000000E+00 0.  1.
<mgrwt>
<rscale>  0 0.17566060E+04</rscale>
<asrwt>0</asrwt>
<pdfrwt beam="1">  1        1 0.11911274E+00 0.17566060E+04</pdfrwt>
<pdfrwt beam="2">  1       -2 0.15328647E+00 0.17566060E+04</pdfrwt>
<totfact> 0.54634589E+00</totfact>
</mgrwt>
</event>
<event>
12    5  0.5297412E-008  0.1911447E+04  0.7818608E-02  0.8649179E-01
          1   -1    0    0  501    0  0.00000000000E+00  0.00000000000E+00  0.26650080697E+04  0.26650080697E+04  0.00000000000E+00 0. -1.
         -2   -1    0    0    0  501 -0.00000000000E+00 -0.00000000000E+00 -0.34274089454E+03  0.34274089454E+03  0.00000000000E+00 0.  1.
        -24    2    1    2    0    0  0.32012752189E+03  0.41432911139E+01  0.20005233456E+04  0.20275233952E+04  0.79111720633E+02 0.  0.
        254    2    1    2    0    0 -0.32012752189E+03 -0.41432911139E+01  0.32174382950E+03  0.98022556906E+03  0.86880623690E+03 0.  0.
         23    2    4    4    0    0  0.19615640340E+03 -0.16314699240E+03  0.33745226831E+03  0.43209361799E+03  0.87957862599E+02 0.  0.
         23    2    4    4    0    0 -0.51628392530E+03  0.15900370129E+03 -0.15708438815E+02  0.54813195107E+03  0.91491049783E+02 0.  0.
          1    1    3    3  502    0  0.29195427808E+03  0.23288616625E+02  0.18607879336E+04  0.18836962054E+04  0.00000000000E+00 0. -1.
         -2    1    3    3    0  502  0.28173243812E+02 -0.19145325511E+02  0.13973541200E+03  0.14382718979E+03  0.00000000000E+00 0.  1.
         13    1    5    5    0    0  0.15954944145E+03 -0.16921701473E+03  0.29645970686E+03  0.37680071674E+03  0.00000000000E+00 0. -1.
        -13    1    5    5    0    0  0.36606961952E+02  0.60700223314E+01  0.40992561449E+02  0.55292901250E+02  0.00000000000E+00 0.  1.
          3    1    6    6  503    0 -0.32401100435E+03  0.10126124458E+03  0.34436311668E+02  0.34120789873E+03  0.00000000000E+00 0. -1.
         -3    1    6    6    0  503 -0.19227292094E+03  0.57742456706E+02 -0.50144750482E+02  0.20692405233E+03  0.00000000000E+00 0.  1.
<mgrwt>
<rscale>  0 0.19114468E+04</rscale>
<asrwt>0</asrwt>
<pdfrwt beam="1">  1        1 0.41000123E+00 0.19114468E+04</pdfrwt>
<pdfrwt beam="2">  1       -2 0.52729370E-01 0.19114468E+04</pdfrwt>
<totfact> 0.28971373E+00</totfact>
</mgrwt>
</event>
<event>
12    5  0.5297412E-008  0.1794118E+04  0.7818608E-02  0.8709434E-01
          1   -1    0    0  501    0  0.00000000000E+00  0.00000000000E+00  0.42300520358E+04  0.42300520358E+04  0.00000000000E+00 0. -1.
         -2   -1    0    0    0  501 -0.00000000000E+00 -0.00000000000E+00 -0.19023760921E+03  0.19023760921E+03  0.00000000000E+00 0.  1.
        -24    2    1    2    0    0  0.53977839632E+03 -0.32049667204E+03  0.20957927814E+04  0.21892445544E+04  0.79784099300E+02 0.  0.
        254    2    1    2    0    0 -0.53977839632E+03  0.32049667204E+03  0.19440216452E+04  0.22310450906E+04  0.89680722866E+03 0.  0.
         23    2    4    4    0    0 -0.67452581627E+03 -0.22792670142E+02  0.96618420504E+03  0.11819957634E+04  0.89986021159E+02 0.  0.
         23    2    4    4    0    0  0.13474741995E+03  0.34328934218E+03  0.97783744013E+03  0.10490493272E+04  0.91290699898E+02 0.  0.
          1    1    3    3  502    0  0.41233659835E+03 -0.22319808954E+03  0.16576790514E+04  0.17227125979E+04  0.00000000000E+00 0. -1.
         -2    1    3    3    0  502  0.12744179797E+03 -0.97298582504E+02  0.43811373005E+03  0.46653195655E+03  0.00000000000E+00 0.  1.
         13    1    5    5    0    0 -0.52528658025E+02 -0.14769927355E+02  0.11949473133E+03  0.13136362314E+03  0.00000000000E+00 0. -1.
        -13    1    5    5    0    0 -0.62199715825E+03 -0.80227427868E+01  0.84668947371E+03  0.10506321403E+04  0.00000000000E+00 0.  1.
          1    1    6    6  503    0  0.56792986162E+02  0.11795407780E+03  0.47221501781E+03  0.49002615317E+03  0.00000000000E+00 0. -1.
         -1    1    6    6    0  503  0.77954433790E+02  0.22533526438E+03  0.50562242232E+03  0.55902317400E+03  0.00000000000E+00 0.  1.
<mgrwt>
<rscale>  0 0.17941182E+04</rscale>
<asrwt>0</asrwt>
<pdfrwt beam="1">  1        1 0.65077717E+00 0.17941182E+04</pdfrwt>
<pdfrwt beam="2">  1       -2 0.29267328E-01 0.17941182E+04</pdfrwt>
<totfact> 0.53578853E-01</totfact>
</mgrwt>
</event>
<event>
12    5  0.5297412E-008  0.1716573E+04  0.7818608E-02  0.8751968E-01
         -2   -1    0    0    0  501 -0.00000000000E+00  0.00000000000E+00  0.91575770414E+03  0.91575770414E+03  0.00000000000E+00 0.  1.
          1   -1    0    0  501    0  0.00000000000E+00 -0.00000000000E+00 -0.80442231049E+03  0.80442231049E+03  0.00000000000E+00 0. -1.
        -24    2    1    2    0    0 -0.17044333787E+03  0.58277166882E+03  0.15998299675E+03  0.63392240590E+03  0.87116634774E+02 0.  0.
        254    2    1    2    0    0  0.17044333787E+03 -0.58277166882E+03 -0.48647603102E+02  0.10862576087E+04  0.89939716133E+03 0.  0.
         23    2    4    4    0    0 -0.13985835055E+03  0.13379102190E+03  0.16650645735E+03  0.27065748053E+03  0.89836939336E+02 0.  0.
         23    2    4    4    0    0  0.31030168842E+03 -0.71656269072E+03 -0.21515406045E+03  0.81560012819E+03  0.95723935410E+02 0.  0.
          1    1    3    3  502    0 -0.17641848271E+03  0.51081432708E+03  0.15127533920E+03  0.56119424983E+03  0.00000000000E+00 0. -1.
         -2    1    3    3    0  502  0.59751448360E+01  0.71957341743E+02  0.87076575509E+01  0.72728156079E+02  0.00000000000E+00 0.  1.
         13    1    5    5    0    0  0.85998739236E+01 -0.48404835249E+01  0.45248623771E+01  0.10856449318E+02  0.00000000000E+00 0.  1.
        -13    1    5    5    0    0 -0.14845822447E+03  0.13863150542E+03  0.16198159497E+03  0.25980103121E+03  0.00000000000E+00 0. -1.
          3    1    6    6  503    0  0.16419682513E+03 -0.38341763775E+03 -0.16428886089E+03  0.44828619445E+03  0.00000000000E+00 0. -1.
         -3    1    6    6    0  503  0.14610486329E+03 -0.33314505297E+03 -0.50865199558E+02  0.36731393374E+03  0.00000000000E+00 0.  1.
<mgrwt>
<rscale>  0 0.17165732E+04</rscale>
<asrwt>0</asrwt>
<pdfrwt beam="1">  1        1 0.12375728E+00 0.17165732E+04</pdfrwt>
<pdfrwt beam="2">  1       -2 0.14088580E+00 0.17165732E+04</pdfrwt>
<totfact> 0.64433427E+00</totfact>
</mgrwt>
</event>
<event>
12    5  0.5297412E-008  0.2349356E+04  0.7818608E-02  0.8458711E-01
         -2   -1    0    0    0  501 -0.00000000000E+00  0.00000000000E+00  0.63801350757E+03  0.63801350757E+03  0.00000000000E+00 0.  1.
          1   -1    0    0  501    0  0.00000000000E+00 -0.00000000000E+00 -0.21627565603E+04  0.21627565603E+04  0.00000000000E+00 0. -1.
        -24    2    1    2    0    0  0.82735457281E+03  0.55314192529E+03 -0.69169469452E+03  0.12146703102E+04  0.80627745512E+02 0.  0.
        254    2    1    2    0    0 -0.82735457281E+03 -0.55314192529E+03 -0.83304835818E+03  0.15860997576E+04  0.91173532096E+03 0.  0.
         23    2    4    4    0    0 -0.99215221400E+03 -0.41704479578E+03 -0.52622147889E+03  0.12014572752E+04  0.91094246733E+02 0.  0.
         23    2    4    4    0    0  0.16479764119E+03 -0.13609712951E+03 -0.30682687929E+03  0.38464248248E+03  0.90146626499E+02 0.  0.
          3    1    3    3  502    0  0.29515385690E+03  0.23726349785E+03 -0.23754265284E+03  0.44703051190E+03  0.00000000000E+00 0. -1.
         -4    1    3    3    0  502  0.53220071591E+03  0.31587842744E+03 -0.45415204168E+03  0.76763979828E+03  0.00000000000E+00 0.  1.
         13    1    5    5    0    0 -0.68489050675E+03 -0.24229264641E+03 -0.34545433613E+03  0.80443733821E+03  0.00000000000E+00 0. -1.
        -13    1    5    5    0    0 -0.30726170725E+03 -0.17475214937E+03 -0.18076714276E+03  0.39701993697E+03  0.00000000000E+00 0.  1.
          1    1    6    6  503    0  0.12956574718E+03 -0.68687518447E+02 -0.14699999210E+03  0.20763972575E+03  0.00000000000E+00 0. -1.
         -1    1    6    6    0  503  0.35231894004E+02 -0.67409611065E+02 -0.15982688719E+03  0.17700275672E+03  0.00000000000E+00 0.  1.
<mgrwt>
<rscale>  0 0.23493556E+04</rscale>
<asrwt>0</asrwt>
<pdfrwt beam="1">  1        1 0.33273178E+00 0.23493556E+04</pdfrwt>
<pdfrwt beam="2">  1       -2 0.98155925E-01 0.23493556E+04</pdfrwt>
<totfact> 0.15766130E+00</totfact>
</mgrwt>
</event>
<event>
12    5  0.5297412E-008  0.1403815E+04  0.7818608E-02  0.8951062E-01
         -2   -1    0    0    0  501 -0.00000000000E+00  0.00000000000E+00  0.33904039596E+03  0.33904039596E+03  0.00000000000E+00 0.  1.
          1   -1    0    0  501    0  0.00000000000E+00 -0.00000000000E+00 -0.14531433688E+04  0.14531433688E+04  0.00000000000E+00 0. -1.
        -24    2    1    2    0    0 -0.17405958840E+03  0.27515714501E+03 -0.11917408725E+02  0.33205172974E+03  0.64094709827E+02 0.  0.
        254    2    1    2    0    0  0.17405958840E+03 -0.27515714501E+03 -0.11021855641E+04  0.14601320350E+04  0.90064662725E+03 0.  0.
         23    2    4    4    0    0  0.45282868130E+03 -0.41084619882E+03 -0.83197303452E+03  0.10367059552E+04  0.93443531744E+02 0.  0.
         23    2    4    4    0    0 -0.27876909290E+03  0.13568905381E+03 -0.27021252958E+03  0.42342607984E+03  0.10075270451E+03 0.  0.
          1    1    3    3  502    0 -0.11183547600E+02  0.51138779100E+02 -0.16986830989E+02  0.55034524544E+02  0.00000000000E+00 0. -1.
         -2    1    3    3    0  502 -0.16287604080E+03  0.22401836591E+03  0.50694222643E+01  0.27701720520E+03  0.00000000000E+00 0.  1.
         13    1    5    5    0    0  0.33161918976E+03 -0.28120281024E+03 -0.65416262042E+03  0.78547758813E+03  0.00000000000E+00 0.  1.
        -13    1    5    5    0    0  0.12120949154E+03 -0.12964338858E+03 -0.17781041410E+03  0.25122836703E+03  0.00000000000E+00 0. -1.
          3    1    6    6  503    0 -0.21180068004E+03  0.14555605558E+03 -0.22869574483E+03  0.34401720463E+03  0.00000000000E+00 0. -1.
         -3    1    6    6    0  503 -0.66968412862E+02 -0.98670017747E+01 -0.41516784751E+02  0.79408875205E+02  0.00000000000E+00 0.  1.
<mgrwt>
<rscale>  0 0.14038152E+04</rscale>
<asrwt>0</asrwt>
<pdfrwt beam="1">  1        1 0.22356052E+00 0.14038152E+04</pdfrwt>
<pdfrwt beam="2">  1       -2 0.52160061E-01 0.14038152E+04</pdfrwt>
<totfact> 0.20925442E+01</totfact>
</mgrwt>
</event>
<event>
12    5  0.5297412E-008  0.1539459E+04  0.7818608E-02  0.8858629E-01
         -2   -1    0    0    0  501 -0.00000000000E+00  0.00000000000E+00  0.61790051188E+03  0.61790051188E+03  0.00000000000E+00 0.  1.
          1   -1    0    0  501    0  0.00000000000E+00 -0.00000000000E+00 -0.95886604107E+03  0.95886604107E+03  0.00000000000E+00 0. -1.
        -24    2    1    2    0    0  0.48869397299E+03  0.29544987324E+02 -0.80949375769E+01  0.49625527697E+03  0.80678785259E+02 0.  0.
        254    2    1    2    0    0 -0.48869397299E+03 -0.29544987324E+02 -0.33287059161E+03  0.10805112760E+04  0.90388444022E+03 0.  0.
         23    2    4    4    0    0 -0.68784894966E+03  0.38568328428E+02 -0.44600927838E+03  0.82549036765E+03  0.88805276741E+02 0.  0.
         23    2    4    4    0    0  0.19915497667E+03 -0.68113315752E+02  0.11313868677E+03  0.25502090834E+03  0.89068359871E+02 0.  0.
          1    1    3    3  502    0  0.98782344606E+02 -0.50545860337E+01 -0.32332267150E+02  0.10406188517E+03  0.00000000000E+00 0. -1.
         -2    1    3    3    0  502  0.38991162838E+03  0.34599573358E+02  0.24237329573E+02  0.39219339180E+03  0.00000000000E+00 0.  1.
         13    1    5    5    0    0 -0.35262366656E+03  0.66061663300E+01 -0.27847145469E+03  0.44937005099E+03  0.00000000000E+00 0.  1.
        -13    1    5    5    0    0 -0.33522528311E+03  0.31962162098E+02 -0.16753782369E+03  0.37612031666E+03  0.00000000000E+00 0. -1.
          1    1    6    6  503    0  0.20864507533E+03 -0.65200476861E+02  0.10902760451E+03  0.24427625384E+03  0.00000000000E+00 0. -1.
         -1    1    6    6    0  503 -0.94900986612E+01 -0.29128388915E+01  0.41110822591E+01  0.10744654501E+02  0.00000000000E+00 0.  1.
<mgrwt>
<rscale>  0 0.15394594E+04</rscale>
<asrwt>0</asrwt>
<pdfrwt beam="1">  1        1 0.14751785E+00 0.15394594E+04</pdfrwt>
<pdfrwt beam="2">  1       -2 0.95061617E-01 0.15394594E+04</pdfrwt>
<totfact> 0.12826593E+01</totfact>
</mgrwt>
</event>
<event>
12    5  0.5297412E-008  0.1336356E+04  0.7818608E-02  0.9001221E-01
          1   -1    0    0  501    0  0.00000000000E+00  0.00000000000E+00  0.50188382923E+03  0.50188382923E+03  0.00000000000E+00 0. -1.
         -2   -1    0    0    0  501 -0.00000000000E+00 -0.00000000000E+00 -0.88957254071E+03  0.88957254071E+03  0.00000000000E+00 0.  1.
        -24    2    1    2    0    0  0.30796057275E+03  0.34883340802E+02 -0.29375698430E+03  0.43557548958E+03  0.85885269188E+02 0.  0.
        254    2    1    2    0    0 -0.30796057275E+03 -0.34883340802E+02 -0.93931727181E+02  0.95588088035E+03  0.89934894575E+03 0.  0.
         23    2    4    4    0    0  0.13881759198E+01 -0.41254516980E+03  0.78189184868E+02  0.43032731868E+03  0.94194524333E+02 0.  0.
         23    2    4    4    0    0 -0.30934874867E+03  0.37766182899E+03 -0.17212091205E+03  0.52555356167E+03  0.90861611466E+02 0.  0.
          1    1    3    3  502    0  0.42814623445E+01 -0.98598581939E+01 -0.26418510137E+02  0.28521665472E+02  0.00000000000E+00 0. -1.
         -2    1    3    3    0  502  0.30367911041E+03  0.44743198996E+02 -0.26733847416E+03  0.40705382411E+03  0.00000000000E+00 0.  1.
         13    1    5    5    0    0 -0.15396422020E+02 -0.14243426314E+02  0.17010186618E+02  0.27005026438E+02  0.00000000000E+00 0.  1.
        -13    1    5    5    0    0  0.16784597940E+02 -0.39830174348E+03  0.61178998251E+02  0.40332229224E+03  0.00000000000E+00 0. -1.
          4    1    6    6  503    0 -0.28616589070E+03  0.29736529743E+03 -0.13624825365E+03  0.43460398495E+03  0.00000000000E+00 0. -1.
         -4    1    6    6    0  503 -0.23182857977E+02  0.80296531561E+02 -0.35872658404E+02  0.90949576721E+02  0.00000000000E+00 0.  1.
<mgrwt>
<rscale>  0 0.13363563E+04</rscale>
<asrwt>0</asrwt>
<pdfrwt beam="1">  1        1 0.77212898E-01 0.13363563E+04</pdfrwt>
<pdfrwt beam="2">  1       -2 0.13685731E+00 0.13363563E+04</pdfrwt>
<totfact> 0.14382760E+01</totfact>
</mgrwt>
</event>
<event>
12    5  0.5297412E-008  0.1991056E+04  0.7818608E-02  0.8610814E-01
          1   -1    0    0  501    0  0.00000000000E+00  0.00000000000E+00  0.22523089934E+04  0.22523089934E+04  0.00000000000E+00 0. -1.
         -2   -1    0    0    0  501 -0.00000000000E+00 -0.00000000000E+00 -0.44002679999E+03  0.44002679999E+03  0.00000000000E+00 0.  1.
        -24    2    1    2    0    0 -0.35828567856E+03  0.93187803723E+01 -0.23147828785E+03  0.43391801816E+03  0.79039114418E+02 0.  0.
        254    2    1    2    0    0  0.35828567856E+03 -0.93187803723E+01  0.20437604812E+04  0.22584177752E+04  0.89164930076E+03 0.  0.
         23    2    4    4    0    0 -0.22149877305E+03  0.17541200699E+03  0.10328677174E+04  0.10747510576E+04  0.91885991973E+02 0.  0.
         23    2    4    4    0    0  0.57978445161E+03 -0.18473078736E+03  0.10108927639E+04  0.11836667176E+04  0.94272181673E+02 0.  0.
          1    1    3    3  502    0 -0.95003889677E+02 -0.31740943006E+02 -0.54457662374E+02  0.11401255855E+03  0.00000000000E+00 0. -1.
         -2    1    3    3    0  502 -0.26328178889E+03  0.41059723378E+02 -0.17702062547E+03  0.31990545961E+03  0.00000000000E+00 0.  1.
         13    1    5    5    0    0 -0.14211152025E+03  0.63804162597E+02  0.64029869915E+03  0.65897578065E+03  0.00000000000E+00 0. -1.
        -13    1    5    5    0    0 -0.79387252802E+02  0.11160784439E+03  0.39256901824E+03  0.41577527694E+03  0.00000000000E+00 0.  1.
          1    1    6    6  503    0  0.12554384601E+03 -0.96476022419E+01  0.16312466614E+03  0.20606792619E+03  0.00000000000E+00 0. -1.
         -1    1    6    6    0  503  0.45424060560E+03 -0.17508318512E+03  0.84776809772E+03  0.97759879143E+03  0.00000000000E+00 0.  1.
<mgrwt>
<rscale>  0 0.19910563E+04</rscale>
<asrwt>0</asrwt>
<pdfrwt beam="1">  1        1 0.34650907E+00 0.19910563E+04</pdfrwt>
<pdfrwt beam="2">  1       -2 0.67696432E-01 0.19910563E+04</pdfrwt>
<totfact> 0.32720507E+00</totfact>
</mgrwt>
</event>
<event>
12    5  0.5297412E-008  0.1531737E+04  0.7818608E-02  0.8863618E-01
          1   -1    0    0  501    0  0.00000000000E+00  0.00000000000E+00  0.15473629981E+04  0.15473629981E+04  0.00000000000E+00 0. -1.
         -2   -1    0    0    0  501 -0.00000000000E+00 -0.00000000000E+00 -0.37906726611E+03  0.37906726611E+03  0.00000000000E+00 0.  1.
        -24    2    1    2    0    0 -0.46005309127E+03 -0.13331888162E+03  0.20464151045E+03  0.52721946818E+03  0.81605446179E+02 0.  0.
        254    2    1    2    0    0  0.46005309127E+03  0.13331888162E+03  0.96365422151E+03  0.13992107960E+04  0.89428106434E+03 0.  0.
         23    2    4    4    0    0  0.16707311509E+03 -0.95237322228E+02  0.99281807224E+03  0.10155488329E+04  0.93102814477E+02 0.  0.
         23    2    4    4    0    0  0.29297997618E+03  0.22855620385E+03 -0.29163850723E+02  0.38366196313E+03  0.90943757372E+02 0.  0.
          3    1    3    3  502    0 -0.35827895480E+03 -0.13768667382E+03  0.16768311964E+03  0.41885445947E+03  0.00000000000E+00 0. -1.
         -4    1    3    3    0  502 -0.10177413646E+03  0.43677922028E+01  0.36958390809E+02  0.10836500871E+03  0.00000000000E+00 0.  1.
         13    1    5    5    0    0  0.12109664344E+03 -0.88680143955E+02  0.89210692087E+03  0.90464541299E+03  0.00000000000E+00 0. -1.
        -13    1    5    5    0    0  0.45976471647E+02 -0.65571782732E+01  0.10071115137E+03  0.11090341988E+03  0.00000000000E+00 0.  1.
          1    1    6    6  503    0  0.26391780883E+03  0.16144075110E+03 -0.25622353856E+02  0.31043877166E+03  0.00000000000E+00 0. -1.
         -1    1    6    6    0  503  0.29062167348E+02  0.67115452752E+02 -0.35414968665E+01  0.73223191471E+02  0.00000000000E+00 0.  1.
<mgrwt>
<rscale>  0 0.15317371E+04</rscale>
<asrwt>0</asrwt>
<pdfrwt beam="1">  1        1 0.23805584E+00 0.15317371E+04</pdfrwt>
<pdfrwt beam="2">  1       -2 0.58318042E-01 0.15317371E+04</pdfrwt>
<totfact> 0.14124886E+01</totfact>
</mgrwt>
</event>
<event>
12    5  0.5297412E-008  0.2806049E+04  0.7818608E-02  0.8301393E-01
         -2   -1    0    0    0  501 -0.00000000000E+00  0.00000000000E+00  0.14154306815E+04  0.14154306815E+04  0.00000000000E+00 0.  1.
          1   -1    0    0  501    0  0.00000000000E+00 -0.00000000000E+00 -0.13907274628E+04  0.13907274628E+04  0.00000000000E+00 0. -1.
        -24    2    1    2    0    0 -0.40691821561E+03  0.51628038962E+03 -0.10222220418E+04  0.12179666944E+04  0.79856690452E+02 0.  0.
        254    2    1    2    0    0  0.40691821561E+03 -0.51628038962E+03  0.10469252605E+04  0.15881914499E+04  0.99708159434E+03 0.  0.
         23    2    4    4    0    0  0.19634710470E+03 -0.63252746674E+03  0.19192349995E+03  0.69544286881E+03  0.90349168493E+02 0.  0.
         23    2    4    4    0    0  0.21057111091E+03  0.11624707712E+03  0.85500176052E+03  0.89274858113E+03  0.90102402477E+02 0.  0.
          1    1    3    3  502    0 -0.37294038094E+03  0.49862697016E+03 -0.94378690127E+03  0.11306843495E+04  0.00000000000E+00 0. -1.
         -2    1    3    3    0  502 -0.33977834664E+02  0.17653419459E+02 -0.78435140493E+02  0.87282344900E+02  0.00000000000E+00 0.  1.
         13    1    5    5    0    0  0.11583320603E+03 -0.50041751429E+03  0.15190189868E+03  0.53563906416E+03  0.00000000000E+00 0. -1.
        -13    1    5    5    0    0  0.80513898666E+02 -0.13210995245E+03  0.40021601269E+02  0.15980380466E+03  0.00000000000E+00 0.  1.
          3    1    6    6  503    0  0.78600791361E+02  0.33808182905E+01  0.19469924188E+03  0.20999359305E+03  0.00000000000E+00 0. -1.
         -3    1    6    6    0  503  0.13197031955E+03  0.11286625883E+03  0.66030251864E+03  0.68275498808E+03  0.00000000000E+00 0.  1.
<mgrwt>
<rscale>  0 0.28060494E+04</rscale>
<asrwt>0</asrwt>
<pdfrwt beam="1">  1        1 0.21395807E+00 0.28060494E+04</pdfrwt>
<pdfrwt beam="2">  1       -2 0.21775857E+00 0.28060494E+04</pdfrwt>
<totfact> 0.60513758E-01</totfact>
</mgrwt>
</event>
<event>
12    5  0.5297412E-008  0.1554586E+04  0.7818608E-02  0.8848943E-01
         -2   -1    0    0    0  501 -0.00000000000E+00  0.00000000000E+00  0.55106090678E+03  0.55106090678E+03  0.00000000000E+00 0.  1.
          1   -1    0    0  501    0  0.00000000000E+00 -0.00000000000E+00 -0.10964028855E+04  0.10964028855E+04  0.00000000000E+00 0. -1.
        -24    2    1    2    0    0  0.39514507754E+02 -0.32118342723E+03 -0.59220993915E+03  0.67959909582E+03  0.80138185443E+02 0.  0.
        254    2    1    2    0    0 -0.39514507754E+02  0.32118342723E+03  0.46867960454E+02  0.96786469642E+03  0.91095843737E+03 0.  0.
         23    2    4    4    0    0 -0.30913336906E+03  0.50856024693E+03  0.13414281991E+03  0.61642256629E+03  0.88235590743E+02 0.  0.
         23    2    4    4    0    0  0.26961886131E+03 -0.18737681970E+03 -0.87274859460E+02  0.35144213013E+03  0.89945910438E+02 0.  0.
          1    1    3    3  502    0  0.41915179613E+02 -0.27230369962E+03 -0.54926195948E+03  0.61448749966E+03  0.00000000000E+00 0. -1.
         -2    1    3    3    0  502 -0.24006718585E+01 -0.48879727617E+02 -0.42947979665E+02  0.65111596161E+02  0.00000000000E+00 0.  1.
         13    1    5    5    0    0 -0.16109471208E+03  0.29279770208E+03  0.32712762636E+02  0.33578583270E+03  0.00000000000E+00 0. -1.
        -13    1    5    5    0    0 -0.14803865698E+03  0.21576254485E+03  0.10143005728E+03  0.28063673359E+03  0.00000000000E+00 0.  1.
          1    1    6    6  503    0  0.13383705724E+03 -0.12549265610E+03 -0.10847127398E+02  0.18378907693E+03  0.00000000000E+00 0. -1.
         -1    1    6    6    0  503  0.13578180406E+03 -0.61884163597E+02 -0.76427732061E+02  0.16765305320E+03  0.00000000000E+00 0.  1.
<mgrwt>
<rscale>  0 0.15545865E+04</rscale>
<asrwt>0</asrwt>
<pdfrwt beam="1">  1        1 0.16867736E+00 0.15545865E+04</pdfrwt>
<pdfrwt beam="2">  1       -2 0.84778602E-01 0.15545865E+04</pdfrwt>
<totfact> 0.13059991E+01</totfact>
</mgrwt>
</event>
<event>
12    5  0.5297412E-008  0.1725376E+04  0.7818608E-02  0.8747022E-01
         -2   -1    0    0    0  501 -0.00000000000E+00  0.00000000000E+00  0.89429686447E+03  0.89429686447E+03  0.00000000000E+00 0.  1.
          1   -1    0    0  501    0  0.00000000000E+00 -0.00000000000E+00 -0.83219617605E+03  0.83219617605E+03  0.00000000000E+00 0. -1.
        -24    2    1    2    0    0 -0.17605186970E+03  0.44090972304E+03 -0.38923552229E+03  0.61911216526E+03  0.79999604171E+02 0.  0.
        254    2    1    2    0    0  0.17605186970E+03 -0.44090972304E+03  0.45133621071E+03  0.11073808753E+04  0.89285630596E+03 0.  0.
         23    2    4    4    0    0 -0.95820924287E+02 -0.51683496119E+03  0.57729323551E+03  0.78619136716E+03  0.92354530960E+02 0.  0.
         23    2    4    4    0    0  0.27187279398E+03  0.75925238150E+02 -0.12595702480E+03  0.32118950810E+03  0.87281556589E+02 0.  0.
          3    1    3    3  502    0 -0.15686286382E+03  0.42974011821E+03 -0.35857210745E+03  0.58125423309E+03  0.00000000000E+00 0. -1.
         -4    1    3    3    0  502 -0.19189005876E+02  0.11169604829E+02 -0.30663414839E+02  0.37857932169E+02  0.00000000000E+00 0.  1.
         13    1    5    5    0    0 -0.40265219105E+02 -0.40998393704E+03  0.42290276429E+03  0.59038535258E+03  0.00000000000E+00 0.  1.
        -13    1    5    5    0    0 -0.55555705182E+02 -0.10685102415E+03  0.15439047122E+03  0.19580601457E+03  0.00000000000E+00 0. -1.
          2    1    6    6  503    0  0.25601528914E+03  0.44060859790E+02 -0.10816379694E+03  0.28139757392E+03  0.00000000000E+00 0. -1.
         -2    1    6    6    0  503  0.15857504842E+02  0.31864378360E+02 -0.17793227861E+02  0.39791934180E+02  0.00000000000E+00 0.  1.
<mgrwt>
<rscale>  0 0.17253758E+04</rscale>
<asrwt>0</asrwt>
<pdfrwt beam="1">  1        1 0.12803018E+00 0.17253758E+04</pdfrwt>
<pdfrwt beam="2">  1       -2 0.13758413E+00 0.17253758E+04</pdfrwt>
<totfact> 0.64810900E+00</totfact>
</mgrwt>
</event>
<event>
12    5  0.5297412E-008  0.2252594E+04  0.7818608E-02  0.8496851E-01
         -2   -1    0    0    0  501 -0.00000000000E+00  0.00000000000E+00  0.53519928012E+03  0.53519928012E+03  0.00000000000E+00 0.  1.
          1   -1    0    0  501    0  0.00000000000E+00 -0.00000000000E+00 -0.23702290793E+04  0.23702290793E+04  0.00000000000E+00 0. -1.
        -24    2    1    2    0    0 -0.87128265157E+03 -0.28345497652E+02 -0.30792448650E+03  0.92801622091E+03  0.80372201171E+02 0.  0.
        254    2    1    2    0    0  0.87128265157E+03  0.28345497652E+02 -0.15271053127E+04  0.19774121385E+04  0.90452816616E+03 0.  0.
         23    2    4    4    0    0 -0.16179427667E+02  0.26970494586E+03 -0.15969653226E+03  0.32687748756E+03  0.91342091933E+02 0.  0.
         23    2    4    4    0    0  0.88746207923E+03 -0.24135944821E+03 -0.13674087804E+04  0.16505346509E+04  0.92814524367E+02 0.  0.
          1    1    3    3  502    0 -0.82130215839E+03 -0.45581203880E+02 -0.28851564493E+03  0.87169728627E+03  0.00000000000E+00 0. -1.
         -2    1    3    3    0  502 -0.49980493178E+02  0.17235706228E+02 -0.19408841572E+02  0.56318934637E+02  0.00000000000E+00 0.  1.
         13    1    5    5    0    0 -0.75123956800E+01  0.27492647319E+03 -0.15528462612E+03  0.31583906798E+03  0.00000000000E+00 0. -1.
        -13    1    5    5    0    0 -0.86670319871E+01 -0.52215273339E+01 -0.44119061413E+01  0.11038419586E+02  0.00000000000E+00 0.  1.
          2    1    6    6  503    0  0.38526670518E+03 -0.94324544781E+02 -0.67057326843E+03  0.77909952008E+03  0.00000000000E+00 0. -1.
         -2    1    6    6    0  503  0.50219537406E+03 -0.14703490342E+03 -0.69683551197E+03  0.87143513086E+03  0.00000000000E+00 0.  1.
<mgrwt>
<rscale>  0 0.22525940E+04</rscale>
<asrwt>0</asrwt>
<pdfrwt beam="1">  1        1 0.36465062E+00 0.22525940E+04</pdfrwt>
<pdfrwt beam="2">  1       -2 0.82338352E-01 0.22525940E+04</pdfrwt>
<totfact> 0.17203258E+00</totfact>
</mgrwt>
</event>
<event>
12    5  0.5297412E-008  0.1593060E+04  0.7818608E-02  0.8824823E-01
         -2   -1    0    0    0  501 -0.00000000000E+00  0.00000000000E+00  0.73183299879E+03  0.73183299879E+03  0.00000000000E+00 0.  1.
          1   -1    0    0  501    0  0.00000000000E+00 -0.00000000000E+00 -0.86694603452E+03  0.86694603452E+03  0.00000000000E+00 0. -1.
        -24    2    1    2    0    0 -0.98706354448E+02  0.41133591135E+03  0.28465238683E+03  0.51607779518E+03  0.79806847920E+02 0.  0.
        254    2    1    2    0    0  0.98706354448E+02 -0.41133591135E+03 -0.41976542256E+03  0.10827012381E+04  0.90393516620E+03 0.  0.
         23    2    4    4    0    0 -0.43080926122E+02 -0.51593562470E+03 -0.61181032238E+03  0.80687063920E+03  0.93181665569E+02 0.  0.
         23    2    4    4    0    0  0.14178728057E+03  0.10459971335E+03  0.19204489982E+03  0.27583059893E+03  0.90313580366E+02 0.  0.
          1    1    3    3  502    0 -0.16478488049E+02  0.13617754899E+03  0.13408153364E+03  0.19181689988E+03  0.00000000000E+00 0. -1.
         -2    1    3    3    0  502 -0.82227866399E+02  0.27515836236E+03  0.15057085319E+03  0.32426089530E+03  0.00000000000E+00 0.  1.
         13    1    5    5    0    0  0.13588067478E+02 -0.29547928974E+03 -0.38533593634E+03  0.48577405249E+03  0.00000000000E+00 0. -1.
        -13    1    5    5    0    0 -0.56668993599E+02 -0.22045633496E+03 -0.22647438604E+03  0.32109658670E+03  0.00000000000E+00 0.  1.
          2    1    6    6  503    0  0.10561546212E+03  0.98905652437E+02  0.19044517524E+03  0.23917842439E+03  0.00000000000E+00 0. -1.
         -2    1    6    6    0  503  0.36171818452E+02  0.56940609150E+01  0.15997245733E+01  0.36652174540E+02  0.00000000000E+00 0.  1.
<mgrwt>
<rscale>  0 0.15930596E+04</rscale>
<asrwt>0</asrwt>
<pdfrwt beam="1">  1        1 0.13337631E+00 0.15930596E+04</pdfrwt>
<pdfrwt beam="2">  1       -2 0.11258969E+00 0.15930596E+04</pdfrwt>
<totfact> 0.10123244E+01</totfact>
</mgrwt>
</event>
<event>
12    5  0.5297412E-008  0.1925241E+04  0.7818608E-02  0.8642393E-01
          1   -1    0    0  501    0  0.00000000000E+00  0.00000000000E+00  0.22603533756E+04  0.22603533756E+04  0.00000000000E+00 0. -1.
         -2   -1    0    0    0  501 -0.00000000000E+00 -0.00000000000E+00 -0.40995270859E+03  0.40995270859E+03  0.00000000000E+00 0.  1.
        -24    2    1    2    0    0  0.39754749615E+03 -0.58345368436E+03  0.96105237096E+03  0.11948297862E+04  0.74393177648E+02 0.  0.
        254    2    1    2    0    0 -0.39754749615E+03  0.58345368436E+03  0.88934829602E+03  0.14754762979E+04  0.94213995807E+03 0.  0.
         23    2    4    4    0    0 -0.66458004379E+03  0.34658237843E+03  0.79355317078E+03  0.10953301952E+04  0.90750328101E+02 0.  0.
         23    2    4    4    0    0  0.26703254764E+03  0.23687130592E+03  0.95795125239E+02  0.38014610270E+03  0.88994136367E+02 0.  0.
          1    1    3    3  502    0  0.28524939867E+02 -0.66678874276E+02  0.13100656232E+03  0.14974132309E+03  0.00000000000E+00 0. -1.
         -2    1    3    3    0  502  0.36902255628E+03 -0.51677481008E+03  0.83004580864E+03  0.10450884632E+04  0.00000000000E+00 0.  1.
         13    1    5    5    0    0 -0.59077232841E+03  0.27724861721E+03  0.66554412818E+03  0.93210928882E+03  0.00000000000E+00 0.  1.
        -13    1    5    5    0    0 -0.73807715381E+02  0.69333761229E+02  0.12800904260E+03  0.16322090640E+03  0.00000000000E+00 0. -1.
          2    1    6    6  503    0  0.17072149980E+03  0.13361815326E+03  0.14642467103E+02  0.21728792699E+03  0.00000000000E+00 0. -1.
         -2    1    6    6    0  503  0.96311047842E+02  0.10325315266E+03  0.81152658136E+02  0.16285817571E+03  0.00000000000E+00 0.  1.
<mgrwt>
<rscale>  0 0.19252408E+04</rscale>
<asrwt>0</asrwt>
<pdfrwt beam="1">  1        1 0.34774666E+00 0.19252408E+04</pdfrwt>
<pdfrwt beam="2">  1       -2 0.63069649E-01 0.19252408E+04</pdfrwt>
<totfact> 0.37847239E+00</totfact>
</mgrwt>
</event>
<event>
12    5  0.5297412E-008  0.2740976E+04  0.7818608E-02  0.8321831E-01
          1   -1    0    0  501    0  0.00000000000E+00  0.00000000000E+00  0.31737523725E+04  0.31737523725E+04  0.00000000000E+00 0. -1.
         -2   -1    0    0    0  501 -0.00000000000E+00 -0.00000000000E+00 -0.59180339068E+03  0.59180339068E+03  0.00000000000E+00 0.  1.
        -24    2    1    2    0    0 -0.10217424104E+04 -0.72502913022E+02  0.20442487889E+04  0.22879201060E+04  0.80069187247E+02 0.  0.
        254    2    1    2    0    0  0.10217424104E+04  0.72502913022E+02  0.53770019290E+03  0.14776356572E+04  0.91927765790E+03 0.  0.
         23    2    4    4    0    0  0.38495164711E+03  0.46858426532E+03  0.31664023323E+03  0.69057562461E+03  0.94205475855E+02 0.  0.
         23    2    4    4    0    0  0.63679076331E+03 -0.39608135230E+03  0.22105995966E+03  0.78706003258E+03  0.90626018561E+02 0.  0.
          1    1    3    3  502    0 -0.49821664787E+03 -0.70419839117E+02  0.10452145458E+04  0.11600225122E+04  0.00000000000E+00 0. -1.
         -2    1    3    3    0  502 -0.52352576255E+03 -0.20830739052E+01  0.99903424308E+03  0.11278975938E+04  0.00000000000E+00 0.  1.
         13    1    5    5    0    0  0.25224208096E+03  0.25879912091E+03  0.14826215822E+03  0.39062094152E+03  0.00000000000E+00 0.  1.
        -13    1    5    5    0    0  0.13270956615E+03  0.20978514441E+03  0.16837807501E+03  0.29995468310E+03  0.00000000000E+00 0. -1.
          1    1    6    6  503    0  0.53726639678E+02 -0.12992837074E+02  0.18037518868E+00  0.55275656138E+02  0.00000000000E+00 0. -1.
         -1    1    6    6    0  503  0.58306412363E+03 -0.38308851523E+03  0.22087958447E+03  0.73178437644E+03  0.00000000000E+00 0.  1.
<mgrwt>
<rscale>  0 0.27409760E+04</rscale>
<asrwt>0</asrwt>
<pdfrwt beam="1">  1        1 0.48826959E+00 0.27409760E+04</pdfrwt>
<pdfrwt beam="2">  1       -2 0.91046677E-01 0.27409760E+04</pdfrwt>
<totfact> 0.35016090E-01</totfact>
</mgrwt>
</event>
<event>
12    5  0.5297412E-008  0.1634698E+04  0.7818608E-02  0.8799511E-01
         -2   -1    0    0    0  501 -0.00000000000E+00  0.00000000000E+00  0.68543403877E+03  0.68543403877E+03  0.00000000000E+00 0.  1.
          1   -1    0    0  501    0  0.00000000000E+00 -0.00000000000E+00 -0.97465142456E+03  0.97465142456E+03  0.00000000000E+00 0. -1.
        -24    2    1    2    0    0  0.34080032118E+02  0.85023543631E+02 -0.66827545772E+03  0.67916254279E+03  0.79241533206E+02 0.  0.
        254    2    1    2    0    0 -0.34080032118E+02 -0.85023543631E+02  0.37905807193E+03  0.98092292053E+03  0.90007460944E+03 0.  0.
         23    2    4    4    0    0  0.36012059475E+03 -0.15039653912E+03 -0.29706574108E+02  0.40177088393E+03  0.90727068110E+02 0.  0.
         23    2    4    4    0    0 -0.39420062687E+03  0.65372995487E+02  0.40876464604E+03  0.57915203660E+03  0.93063327260E+02 0.  0.
          1    1    3    3  502    0  0.27523629854E+02  0.31771621928E+02 -0.51603239878E+03  0.51774165638E+03  0.00000000000E+00 0. -1.
         -2    1    3    3    0  502  0.65564022642E+01  0.53251921703E+02 -0.15224305894E+03  0.16142088641E+03  0.00000000000E+00 0.  1.
         13    1    5    5    0    0  0.38492971575E+02 -0.85108333903E+00  0.20370123773E+02  0.43558869889E+02  0.00000000000E+00 0.  1.
        -13    1    5    5    0    0  0.32162762318E+03 -0.14954545578E+03 -0.50076697880E+02  0.35821201404E+03  0.00000000000E+00 0. -1.
          3    1    6    6  503    0 -0.27088457288E+03  0.54937039293E+02  0.21920738870E+03  0.35277246119E+03  0.00000000000E+00 0. -1.
         -3    1    6    6    0  503 -0.12331605398E+03  0.10435956195E+02  0.18955725734E+03  0.22637957541E+03  0.00000000000E+00 0.  1.
<mgrwt>
<rscale>  0 0.16346978E+04</rscale>
<asrwt>0</asrwt>
<pdfrwt beam="1">  1        1 0.14994637E+00 0.16346978E+04</pdfrwt>
<pdfrwt beam="2">  1       -2 0.10545139E+00 0.16346978E+04</pdfrwt>
<totfact> 0.96669058E+00</totfact>
</mgrwt>
</event>
<event>
12    5  0.5297412E-008  0.1794261E+04  0.7818608E-02  0.8709357E-01
          1   -1    0    0  501    0  0.00000000000E+00  0.00000000000E+00  0.11618008443E+04  0.11618008443E+04  0.00000000000E+00 0. -1.
         -2   -1    0    0    0  501 -0.00000000000E+00 -0.00000000000E+00 -0.69275481665E+03  0.69275481665E+03  0.00000000000E+00 0.  1.
        -24    2    1    2    0    0  0.54554863555E+03  0.35293111190E+03  0.25196200775E+03  0.70190578248E+03  0.83685068187E+02 0.  0.
        254    2    1    2    0    0 -0.54554863555E+03 -0.35293111190E+03  0.21708401990E+03  0.11526498785E+04  0.92698035964E+03 0.  0.
         23    2    4    4    0    0 -0.57145991108E+03 -0.27532957490E+03 -0.23554877975E+03  0.68361769909E+03  0.97350532003E+02 0.  0.
         23    2    4    4    0    0  0.25911275528E+02 -0.77601537004E+02  0.45263279965E+03  0.46903217939E+03  0.91767866072E+02 0.  0.
          1    1    3    3  502    0  0.25655568748E+01  0.65516458974E+01 -0.48395899062E+01  0.85397761389E+01  0.00000000000E+00 0. -1.
         -2    1    3    3    0  502  0.54298307867E+03  0.34637946600E+03  0.25680159766E+03  0.69336600635E+03  0.00000000000E+00 0.  1.
         13    1    5    5    0    0 -0.53096535859E+03 -0.27448300084E+03 -0.23724503514E+03  0.64307879491E+03  0.00000000000E+00 0. -1.
        -13    1    5    5    0    0 -0.40494552491E+02 -0.84657405808E+00  0.16962553951E+01  0.40538904172E+02  0.00000000000E+00 0.  1.
          1    1    6    6  503    0  0.52229950118E+02 -0.13960616650E+02  0.19606997412E+03  0.20338707250E+03  0.00000000000E+00 0. -1.
         -1    1    6    6    0  503 -0.26318674590E+02 -0.63640920354E+02  0.25656282553E+03  0.26564510690E+03  0.00000000000E+00 0.  1.
<mgrwt>
<rscale>  0 0.17942610E+04</rscale>
<asrwt>0</asrwt>
<pdfrwt beam="1">  1        1 0.17873859E+00 0.17942610E+04</pdfrwt>
<pdfrwt beam="2">  1       -2 0.10657766E+00 0.17942610E+04</pdfrwt>
<totfact> 0.66943520E+00</totfact>
</mgrwt>
</event>
<event>
12    5  0.5297412E-008  0.2011976E+04  0.7818608E-02  0.8601042E-01
          1   -1    0    0  501    0  0.00000000000E+00  0.00000000000E+00  0.73638227238E+03  0.73638227238E+03  0.00000000000E+00 0. -1.
         -2   -1    0    0    0  501 -0.00000000000E+00 -0.00000000000E+00 -0.13743020850E+04  0.13743020850E+04  0.00000000000E+00 0.  1.
        -24    2    1    2    0    0 -0.27051208462E+03  0.55979494072E+03 -0.79113459118E+03  0.10095701983E+04  0.82406797845E+02 0.  0.
        254    2    1    2    0    0  0.27051208462E+03 -0.55979494072E+03  0.15321477857E+03  0.11011141591E+04  0.89578482873E+03 0.  0.
         23    2    4    4    0    0 -0.20232521227E+03 -0.54035524133E+03 -0.31562947614E+02  0.58503841221E+03  0.91402657213E+02 0.  0.
         23    2    4    4    0    0  0.47283729689E+03 -0.19439699391E+02  0.18477772618E+03  0.51607574687E+03  0.90765396335E+02 0.  0.
          3    1    3    3  502    0 -0.27621668059E+03  0.54316213994E+03 -0.76423548055E+03  0.97743369833E+03  0.00000000000E+00 0. -1.
         -4    1    3    3    0  502  0.57045959681E+01  0.16632800784E+02 -0.26899110634E+02  0.32136499965E+02  0.00000000000E+00 0.  1.
         13    1    5    5    0    0 -0.95974181205E+02 -0.25143425493E+03  0.30887275668E+02  0.27089527831E+03  0.00000000000E+00 0. -1.
        -13    1    5    5    0    0 -0.10635103107E+03 -0.28892098640E+03 -0.62450223282E+02  0.31414313391E+03  0.00000000000E+00 0.  1.
          3    1    6    6  503    0  0.40007096526E+03 -0.27257410401E+02  0.18786861378E+03  0.44282542803E+03  0.00000000000E+00 0. -1.
         -3    1    6    6    0  503  0.72766331634E+02  0.78177110097E+01 -0.30908875944E+01  0.73250318846E+02  0.00000000000E+00 0.  1.
<mgrwt>
<rscale>  0 0.20119758E+04</rscale>
<asrwt>0</asrwt>
<pdfrwt beam="1">  1        1 0.11328958E+00 0.20119758E+04</pdfrwt>
<pdfrwt beam="2">  1       -2 0.21143109E+00 0.20119758E+04</pdfrwt>
<totfact> 0.22924461E+00</totfact>
</mgrwt>
</event>
<event>
12    5  0.5297412E-008  0.1357928E+04  0.7818608E-02  0.8984848E-01
         -2   -1    0    0    0  501 -0.00000000000E+00  0.00000000000E+00  0.17925169010E+03  0.17925169010E+03  0.00000000000E+00 0.  1.
          1   -1    0    0  501    0  0.00000000000E+00 -0.00000000000E+00 -0.25717587969E+04  0.25717587969E+04  0.00000000000E+00 0. -1.
        -24    2    1    2    0    0  0.31955114689E+03  0.20500896187E+03 -0.70781909845E+03  0.80704546109E+03  0.78567742824E+02 0.  0.
        254    2    1    2    0    0 -0.31955114689E+03 -0.20500896187E+03 -0.16846880084E+04  0.19439650259E+04  0.89257197277E+03 0.  0.
         23    2    4    4    0    0 -0.14028440153E+01  0.32891747889E+03 -0.59500809754E+03  0.68618274101E+03  0.92862489850E+02 0.  0.
         23    2    4    4    0    0 -0.31814830287E+03 -0.53392644077E+03 -0.10896799108E+04  0.12577822849E+04  0.91204064840E+02 0.  0.
          3    1    3    3  502    0  0.14245160851E+03  0.88768532376E+02 -0.23346600416E+03  0.28753902032E+03  0.00000000000E+00 0. -1.
         -4    1    3    3    0  502  0.17709953838E+03  0.11624042950E+03 -0.47435309428E+03  0.51950644077E+03  0.00000000000E+00 0.  1.
         13    1    5    5    0    0 -0.41604075957E+01  0.30097586117E+03 -0.47048696201E+03  0.55853536989E+03  0.00000000000E+00 0. -1.
        -13    1    5    5    0    0  0.27575635803E+01  0.27941617720E+02 -0.12452113554E+03  0.12764737112E+03  0.00000000000E+00 0.  1.
          2    1    6    6  503    0 -0.32068155423E+03 -0.49905271205E+03 -0.10270743304E+04  0.11860741751E+04  0.00000000000E+00 0. -1.
         -2    1    6    6    0  503  0.25332513546E+01 -0.34873728718E+02 -0.62605580424E+02  0.71708109844E+02  0.00000000000E+00 0.  1.
<mgrwt>
<rscale>  0 0.13579280E+04</rscale>
<asrwt>0</asrwt>
<pdfrwt beam="1">  1        1 0.39565521E+00 0.13579280E+04</pdfrwt>
<pdfrwt beam="2">  1       -2 0.27577182E-01 0.13579280E+04</pdfrwt>
<totfact> 0.12490914E+01</totfact>
</mgrwt>
</event>
<event>
12    5  0.5297412E-008  0.1572672E+04  0.7818608E-02  0.8837515E-01
         -2   -1    0    0    0  501 -0.00000000000E+00  0.00000000000E+00  0.76443080223E+03  0.76443080223E+03  0.00000000000E+00 0.  1.
          1   -1    0    0  501    0  0.00000000000E+00 -0.00000000000E+00 -0.80886923299E+03  0.80886923299E+03  0.00000000000E+00 0. -1.
        -24    2    1    2    0    0  0.46830176502E+03  0.60024935220E+02  0.21848401388E+03  0.52610211670E+03  0.78349453774E+02 0.  0.
        254    2    1    2    0    0 -0.46830176502E+03 -0.60024935220E+02 -0.26292244464E+03  0.10471979185E+04  0.89698703040E+03 0.  0.
         23    2    4    4    0    0 -0.71165314408E+03  0.16247971472E+02 -0.29157408903E+03  0.77494255072E+03  0.93841960059E+02 0.  0.
         23    2    4    4    0    0  0.24335137906E+03 -0.76272906692E+02  0.28651644387E+02  0.27225536781E+03  0.90909947672E+02 0.  0.
          1    1    3    3  502    0  0.19993620872E+03  0.28700393945E+02  0.13637539557E+03  0.24371386642E+03  0.00000000000E+00 0. -1.
         -2    1    3    3    0  502  0.26836555630E+03  0.31324541275E+02  0.82108618314E+02  0.28238825028E+03  0.00000000000E+00 0.  1.
         13    1    5    5    0    0 -0.63102552333E+03  0.44402233201E+02 -0.25556936628E+03  0.68226129187E+03  0.00000000000E+00 0. -1.
        -13    1    5    5    0    0 -0.80627620748E+02 -0.28154261729E+02 -0.36004722747E+02  0.92681258844E+02  0.00000000000E+00 0.  1.
          1    1    6    6  503    0  0.20421284086E+03 -0.73854278992E+02  0.56225267066E+02  0.22431812132E+03  0.00000000000E+00 0. -1.
         -1    1    6    6    0  503  0.39138538207E+02 -0.24186277002E+01 -0.27573622680E+02  0.47937246485E+02  0.00000000000E+00 0.  1.
<mgrwt>
<rscale>  0 0.15726723E+04</rscale>
<asrwt>0</asrwt>
<pdfrwt beam="1">  1        1 0.12444142E+00 0.15726723E+04</pdfrwt>
<pdfrwt beam="2">  1       -2 0.11760474E+00 0.15726723E+04</pdfrwt>
<totfact> 0.10212210E+01</totfact>
</mgrwt>
</event>
<event>
12    5  0.5297412E-008  0.1820027E+04  0.7818608E-02  0.8695721E-01
         -2   -1    0    0    0  501 -0.00000000000E+00  0.00000000000E+00  0.15109876832E+04  0.15109876832E+04  0.00000000000E+00 0.  1.
          1   -1    0    0  501    0  0.00000000000E+00 -0.00000000000E+00 -0.54806835714E+03  0.54806835714E+03  0.00000000000E+00 0. -1.
        -24    2    1    2    0    0 -0.22504923518E+03 -0.39058632830E+03  0.94867400319E+03  0.10538820306E+04  0.86487756690E+02 0.  0.
        254    2    1    2    0    0  0.22504923518E+03  0.39058632830E+03  0.14245322879E+02  0.10051740097E+04  0.89831343221E+03 0.  0.
         23    2    4    4    0    0 -0.33182360002E+03  0.10743857527E+03  0.83321748074E+02  0.36994075810E+03  0.90904905333E+02 0.  0.
         23    2    4    4    0    0  0.55687283520E+03  0.28314775303E+03 -0.69076425195E+02  0.63523325162E+03  0.92031118728E+02 0.  0.
          3    1    3    3  502    0  0.69865549751E+01 -0.18714379072E+02  0.54667311179E+02  0.58202704800E+02  0.00000000000E+00 0. -1.
         -4    1    3    3    0  502 -0.23203579016E+03 -0.37187194923E+03  0.89400669201E+03  0.99567932584E+03  0.00000000000E+00 0.  1.
         13    1    5    5    0    0  0.12650982638E+01  0.14552770502E+02  0.24373649187E+01  0.14809603325E+02  0.00000000000E+00 0. -1.
        -13    1    5    5    0    0 -0.33308869829E+03  0.92885804765E+02  0.80884383155E+02  0.35513115477E+03  0.00000000000E+00 0.  1.
          1    1    6    6  503    0  0.98037452269E+02  0.62501081206E+02 -0.47649444888E+02  0.12565109151E+03  0.00000000000E+00 0. -1.
         -1    1    6    6    0  503  0.45883538293E+03  0.22064667183E+03 -0.21426980306E+02  0.50958216011E+03  0.00000000000E+00 0.  1.
<mgrwt>
<rscale>  0 0.18200270E+04</rscale>
<asrwt>0</asrwt>
<pdfrwt beam="1">  1        1 0.84318209E-01 0.18200270E+04</pdfrwt>
<pdfrwt beam="2">  1       -2 0.23245964E+00 0.18200270E+04</pdfrwt>
<totfact> 0.26513021E+00</totfact>
</mgrwt>
</event>
<event>
12    5  0.5297412E-008  0.2083203E+04  0.7818608E-02  0.8568679E-01
         -2   -1    0    0    0  501 -0.00000000000E+00  0.00000000000E+00  0.45006643512E+03  0.45006643512E+03  0.00000000000E+00 0.  1.
          1   -1    0    0  501    0  0.00000000000E+00 -0.00000000000E+00 -0.24106076412E+04  0.24106076412E+04  0.00000000000E+00 0. -1.
        -24    2    1    2    0    0  0.22409395293E+03 -0.73278310642E+03 -0.12739568107E+04  0.14888314175E+04  0.80398093179E+02 0.  0.
        254    2    1    2    0    0 -0.22409395293E+03  0.73278310642E+03 -0.68658439540E+03  0.13718426588E+04  0.90739460424E+03 0.  0.
         23    2    4    4    0    0 -0.15247249551E+03  0.44175201925E+02  0.18159097376E+03  0.25774204859E+03  0.90864577851E+02 0.  0.
         23    2    4    4    0    0 -0.71621457421E+02  0.68860790449E+03 -0.86817536916E+03  0.11141006103E+04  0.90450090387E+02 0.  0.
          3    1    3    3  502    0  0.15740602563E+03 -0.46214989259E+03 -0.74078356960E+03  0.88719754121E+03  0.00000000000E+00 0. -1.
         -2    1    3    3    0  502  0.66687927304E+02 -0.27063321383E+03 -0.53317324107E+03  0.60163387626E+03  0.00000000000E+00 0.  1.
         13    1    5    5    0    0 -0.15186139367E+03  0.51427904403E+02  0.13216844407E+03  0.20778645251E+03  0.00000000000E+00 0. -1.
        -13    1    5    5    0    0 -0.61110183818E+00 -0.72527024784E+01  0.49422529688E+02  0.49955596077E+02  0.00000000000E+00 0.  1.
          2    1    6    6  503    0  0.10233433006E+02  0.19494460747E+03 -0.20193838459E+03  0.28086871364E+03  0.00000000000E+00 0. -1.
         -2    1    6    6    0  503 -0.81854890427E+02  0.49366329702E+03 -0.66623698458E+03  0.83323189661E+03  0.00000000000E+00 0.  1.
<mgrwt>
<rscale>  0 0.20832029E+04</rscale>
<asrwt>0</asrwt>
<pdfrwt beam="1">  1        1 0.37086271E+00 0.20832029E+04</pdfrwt>
<pdfrwt beam="2">  1       -2 0.69240991E-01 0.20832029E+04</pdfrwt>
<totfact> 0.24067768E+00</totfact>
</mgrwt>
</event>
<event>
12    5  0.5297412E-008  0.1500080E+04  0.7818608E-02  0.8884400E-01
         -2   -1    0    0    0  501 -0.00000000000E+00  0.00000000000E+00  0.16608302349E+03  0.16608302349E+03  0.00000000000E+00 0.  1.
          1   -1    0    0  501    0  0.00000000000E+00 -0.00000000000E+00 -0.33872196924E+04  0.33872196924E+04  0.00000000000E+00 0. -1.
        -24    2    1    2    0    0  0.11841105718E+03  0.23344021102E+03 -0.96377197047E+02  0.29053473135E+03  0.81279489596E+02 0.  0.
        254    2    1    2    0    0 -0.11841105718E+03 -0.23344021102E+03 -0.31247594719E+04  0.32627679846E+04  0.90167491556E+03 0.  0.
         23    2    4    4    0    0 -0.69158288339E+02 -0.97677000651E+02 -0.17635606179E+02  0.15093911207E+03  0.90265916292E+02 0.  0.
         23    2    4    4    0    0 -0.49252768844E+02 -0.13576321037E+03 -0.31071238657E+04  0.31118288725E+04  0.91666407758E+02 0.  0.
          3    1    3    3  502    0  0.11659921102E+02 -0.19084894565E+01  0.51375936468E+01  0.12883747925E+02  0.00000000000E+00 0. -1.
         -4    1    3    3    0  502  0.10675113608E+03  0.23534870048E+03 -0.10151479069E+03  0.27765098343E+03  0.00000000000E+00 0.  1.
         13    1    5    5    0    0 -0.14345765386E+01  0.19637990699E+01 -0.29754551614E+02  0.29853774608E+02  0.00000000000E+00 0. -1.
        -13    1    5    5    0    0 -0.67723711801E+02 -0.99640799721E+02  0.12118945434E+02  0.12108533746E+03  0.00000000000E+00 0.  1.
          4    1    6    6  503    0 -0.12026530157E+02 -0.57908552595E+02 -0.53527618143E+03  0.53853377638E+03  0.00000000000E+00 0. -1.
         -4    1    6    6    0  503 -0.37226238687E+02 -0.77854657773E+02 -0.25718476843E+04  0.25732950961E+04  0.00000000000E+00 0.  1.
<mgrwt>
<rscale>  0 0.15000796E+04</rscale>
<asrwt>0</asrwt>
<pdfrwt beam="1">  1        1 0.52111069E+00 0.15000796E+04</pdfrwt>
<pdfrwt beam="2">  1       -2 0.25551236E-01 0.15000796E+04</pdfrwt>
<totfact> 0.36224133E+00</totfact>
</mgrwt>
</event>
<event>
12    5  0.5375268E-008  0.2184712E+04  0.7818608E-02  0.8524818E-01
          1   -1    0    0  501    0  0.00000000000E+00  0.00000000000E+00  0.11634338271E+04  0.11634338271E+04  0.00000000000E+00 0. -1.
         -2   -1    0    0    0  501 -0.00000000000E+00 -0.00000000000E+00 -0.10256206511E+04  0.10256206511E+04  0.00000000000E+00 0.  1.
        -24    2    1    2    0    0 -0.24452029377E+03  0.11474220235E+03  0.94328240656E+03  0.98445282335E+03  0.80060700805E+02 0.  0.
        254    2    1    2    0    0  0.24452029377E+03 -0.11474220235E+03 -0.80546923054E+03  0.12046016548E+04  0.85400732923E+03 0.  0.
         23    2    4    4    0    0  0.19106898488E+03  0.33776773299E+03 -0.53647683016E+03  0.66853628082E+03  0.92406553007E+02 0.  0.
         23    2    4    4    0    0  0.53451308890E+02 -0.45250993535E+03 -0.26899240038E+03  0.53606537400E+03  0.85947017014E+02 0.  0.
          1    1    3    3  502    0 -0.22648425836E+03  0.10176962891E+03  0.75308592713E+03  0.79296317083E+03  0.00000000000E+00 0. -1.
         -2    1    3    3    0  502 -0.18036035411E+02  0.12972573447E+02  0.19019647943E+03  0.19148965252E+03  0.00000000000E+00 0.  1.
         13    1    5    5    0    0  0.27963631857E+02  0.38326542138E+02 -0.24480764458E+02  0.53387230376E+02  0.00000000000E+00 0.  1.
        -13    1    5    5    0    0  0.16310535302E+03  0.29944119086E+03 -0.51199606570E+03  0.61514905044E+03  0.00000000000E+00 0. -1.
          2    1    6    6  503    0  0.27055369961E+02 -0.25958848601E+03 -0.20238511911E+03  0.33026945294E+03  0.00000000000E+00 0. -1.
         -2    1    6    6    0  503  0.26395938929E+02 -0.19292144934E+03 -0.66607281278E+02  0.20579592106E+03  0.00000000000E+00 0.  1.
<mgrwt>
<rscale>  0 0.21847121E+04</rscale>
<asrwt>0</asrwt>
<pdfrwt beam="1">  1        1 0.17898982E+00 0.21847121E+04</pdfrwt>
<pdfrwt beam="2">  1       -2 0.15778779E+00 0.21847121E+04</pdfrwt>
<totfact> 0.23817247E+00</totfact>
</mgrwt>
</event>
<event>
12    5  0.5297412E-008  0.1348659E+04  0.7818608E-02  0.8991844E-01
         -2   -1    0    0    0  501 -0.00000000000E+00  0.00000000000E+00  0.47294172085E+03  0.47294172085E+03  0.00000000000E+00 0.  1.
          1   -1    0    0  501    0  0.00000000000E+00 -0.00000000000E+00 -0.96147165107E+03  0.96147165107E+03  0.00000000000E+00 0. -1.
        -24    2    1    2    0    0  0.96728372265E+02 -0.10873259461E+03 -0.50830641580E+03  0.53477031285E+03  0.80154351285E+02 0.  0.
        254    2    1    2    0    0 -0.96728372265E+02  0.10873259461E+03  0.19776485586E+02  0.89964305907E+03  0.88757386691E+03 0.  0.
         23    2    4    4    0    0  0.33528884558E+02  0.39198080281E+03  0.27358715436E+03  0.48770783661E+03  0.90751677579E+02 0.  0.
         23    2    4    4    0    0 -0.13025725682E+03 -0.28324820820E+03 -0.25381066877E+03  0.41193522246E+03  0.89856950311E+02 0.  0.
          3    1    3    3  502    0  0.26171841962E+02 -0.43051144544E+02 -0.31234924994E+03  0.31638650461E+03  0.00000000000E+00 0. -1.
         -4    1    3    3    0  502  0.70556530303E+02 -0.65681450070E+02 -0.19595716586E+03  0.21838380825E+03  0.00000000000E+00 0.  1.
         13    1    5    5    0    0  0.61369421752E+02  0.32054567863E+03  0.20990594609E+03  0.38804154960E+03  0.00000000000E+00 0. -1.
        -13    1    5    5    0    0 -0.27840537195E+02  0.71435124182E+02  0.63681208271E+02  0.99666287003E+02  0.00000000000E+00 0.  1.
          3    1    6    6  503    0 -0.11209506975E+03 -0.27434817377E+03 -0.25595909666E+03  0.39159581749E+03  0.00000000000E+00 0. -1.
         -3    1    6    6    0  503 -0.18162187073E+02 -0.89000344311E+01  0.21484278915E+01  0.20339404970E+02  0.00000000000E+00 0.  1.
<mgrwt>
<rscale>  0 0.13486587E+04</rscale>
<asrwt>0</asrwt>
<pdfrwt beam="1">  1        1 0.14791872E+00 0.13486587E+04</pdfrwt>
<pdfrwt beam="2">  1       -2 0.72760265E-01 0.13486587E+04</pdfrwt>
<totfact> 0.23782042E+01</totfact>
</mgrwt>
</event>
<event>
12    5  0.5297412E-008  0.1374497E+04  0.7818608E-02  0.8972489E-01
          1   -1    0    0  501    0  0.00000000000E+00  0.00000000000E+00  0.66682274634E+03  0.66682274634E+03  0.00000000000E+00 0. -1.
         -2   -1    0    0    0  501 -0.00000000000E+00 -0.00000000000E+00 -0.70829990654E+03  0.70829990654E+03  0.00000000000E+00 0.  1.
        -24    2    1    2    0    0 -0.26138926897E+03  0.28944519869E+03 -0.67094778929E+01  0.39840142937E+03  0.81091361126E+02 0.  0.
        254    2    1    2    0    0  0.26138926897E+03 -0.28944519869E+03 -0.34767682311E+02  0.97672122352E+03  0.89480315364E+03 0.  0.
         23    2    4    4    0    0  0.34807514817E+03  0.18239252693E+03 -0.21377107858E+03  0.45652378650E+03  0.91063444641E+02 0.  0.
         23    2    4    4    0    0 -0.86685879199E+02 -0.47183772562E+03  0.17900339627E+03  0.52019743702E+03  0.91748987060E+02 0.  0.
          3    1    3    3  502    0 -0.14037464131E+03  0.96221429706E+02  0.28351057493E+01  0.17021057923E+03  0.00000000000E+00 0. -1.
         -4    1    3    3    0  502 -0.12101462766E+03  0.19322376898E+03 -0.95445836422E+01  0.22819085014E+03  0.00000000000E+00 0.  1.
         13    1    5    5    0    0  0.27106718494E+03  0.11708750981E+03 -0.12000040395E+03  0.31872715707E+03  0.00000000000E+00 0. -1.
        -13    1    5    5    0    0  0.77007963229E+02  0.65305017126E+02 -0.93770674631E+02  0.13779662943E+03  0.00000000000E+00 0.  1.
          2    1    6    6  503    0 -0.10248125291E+03 -0.44224870829E+03  0.17452266999E+03  0.48635839616E+03  0.00000000000E+00 0. -1.
         -2    1    6    6    0  503  0.15795373712E+02 -0.29589017337E+02  0.44807262813E+01  0.33839040851E+02  0.00000000000E+00 0.  1.
<mgrwt>
<rscale>  0 0.13744970E+04</rscale>
<asrwt>0</asrwt>
<pdfrwt beam="1">  1        1 0.10258812E+00 0.13744970E+04</pdfrwt>
<pdfrwt beam="2">  1       -2 0.10896922E+00 0.13744970E+04</pdfrwt>
<totfact> 0.16854340E+01</totfact>
</mgrwt>
</event>
<event>
12    5  0.5297412E-008  0.1473175E+04  0.7818608E-02  0.8902490E-01
          1   -1    0    0  501    0  0.00000000000E+00  0.00000000000E+00  0.38212041071E+03  0.38212041071E+03  0.00000000000E+00 0. -1.
         -2   -1    0    0    0  501 -0.00000000000E+00 -0.00000000000E+00 -0.14198695727E+04  0.14198695727E+04  0.00000000000E+00 0.  1.
        -24    2    1    2    0    0  0.90580380791E+02  0.67357473910E+02  0.21399587024E+03  0.25530790955E+03  0.81523380237E+02 0.  0.
        254    2    1    2    0    0 -0.90580380791E+02 -0.67357473910E+02 -0.12517450322E+04  0.15466820738E+04  0.90145325845E+03 0.  0.
         23    2    4    4    0    0 -0.49933054693E+02  0.37931121431E+03 -0.30935265530E+03  0.49949427693E+03  0.86169368590E+02 0.  0.
         23    2    4    4    0    0 -0.40647326097E+02 -0.44666868822E+03 -0.94239237689E+03  0.10471877969E+04  0.85637420448E+02 0.  0.
          3    1    3    3  502    0  0.10016730166E+03  0.36359009530E+02  0.17008266288E+03  0.20070769320E+03  0.00000000000E+00 0. -1.
         -4    1    3    3    0  502 -0.95869208689E+01  0.30998464379E+02  0.43913207355E+02  0.54600216354E+02  0.00000000000E+00 0.  1.
         13    1    5    5    0    0 -0.43292480398E+01  0.49895349111E+02 -0.80163876330E+01  0.50720318633E+02  0.00000000000E+00 0.  1.
        -13    1    5    5    0    0 -0.45603806654E+02  0.32941586520E+03 -0.30133626767E+03  0.44877395829E+03  0.00000000000E+00 0. -1.
          2    1    6    6  503    0 -0.13046783559E+02 -0.41222858124E+03 -0.85564090043E+03  0.94985471112E+03  0.00000000000E+00 0. -1.
         -2    1    6    6    0  503 -0.27600542538E+02 -0.34440106980E+02 -0.86751476465E+02  0.97333085773E+02  0.00000000000E+00 0.  1.
<mgrwt>
<rscale>  0 0.14731750E+04</rscale>
<asrwt>0</asrwt>
<pdfrwt beam="1">  1        1 0.58787755E-01 0.14731750E+04</pdfrwt>
<pdfrwt beam="2">  1       -2 0.21844147E+00 0.14731750E+04</pdfrwt>
<totfact> 0.54589718E+00</totfact>
</mgrwt>
</event>
<event>
12    5  0.5297412E-008  0.1646697E+04  0.7818608E-02  0.8792363E-01
         -2   -1    0    0    0  501 -0.00000000000E+00  0.00000000000E+00  0.22597164406E+03  0.22597164406E+03  0.00000000000E+00 0.  1.
          1   -1    0    0  501    0  0.00000000000E+00 -0.00000000000E+00 -0.29999450227E+04  0.29999450227E+04  0.00000000000E+00 0. -1.
        -24    2    1    2    0    0  0.33934295832E+03 -0.15956679429E+03 -0.12784440161E+03  0.40348394141E+03  0.76419204079E+02 0.  0.
        254    2    1    2    0    0 -0.33934295832E+03  0.15956679429E+03 -0.26461289770E+04  0.28224327254E+04  0.90747601668E+03 0.  0.
         23    2    4    4    0    0 -0.31353189973E+03 -0.31580994161E+03 -0.86696420660E+03  0.97856422083E+03  0.89010265636E+02 0.  0.
         23    2    4    4    0    0 -0.25811058587E+02  0.47537673590E+03 -0.17791647704E+04  0.18438685045E+04  0.88173294421E+02 0.  0.
          1    1    3    3  502    0  0.31881061938E+03 -0.14470875968E+03 -0.96491920094E+02  0.36316873049E+03  0.00000000000E+00 0. -1.
         -2    1    3    3    0  502  0.20532338937E+02 -0.14858034607E+02 -0.31352481516E+02  0.40315210923E+02  0.00000000000E+00 0.  1.
         13    1    5    5    0    0 -0.10058058977E+03 -0.13090954385E+03 -0.40449982336E+03  0.43689114297E+03  0.00000000000E+00 0. -1.
        -13    1    5    5    0    0 -0.21295130997E+03 -0.18490039776E+03 -0.46246438324E+03  0.54167307786E+03  0.00000000000E+00 0.  1.
          2    1    6    6  503    0  0.22146757256E+02  0.25609890876E+03 -0.85289388332E+03  0.89078903570E+03  0.00000000000E+00 0. -1.
         -2    1    6    6    0  503 -0.47957815842E+02  0.21927782714E+03 -0.92627088711E+03  0.95307946882E+03  0.00000000000E+00 0.  1.
<mgrwt>
<rscale>  0 0.16466967E+04</rscale>
<asrwt>0</asrwt>
<pdfrwt beam="1">  1        1 0.46152995E+00 0.16466967E+04</pdfrwt>
<pdfrwt beam="2">  1       -2 0.34764873E-01 0.16466967E+04</pdfrwt>
<totfact> 0.39119845E+00</totfact>
</mgrwt>
</event>
<event>
12    5  0.5297412E-008  0.1110766E+04  0.7818608E-02  0.9194761E-01
         -2   -1    0    0    0  501 -0.00000000000E+00  0.00000000000E+00  0.10263886561E+03  0.10263886561E+03  0.00000000000E+00 0.  1.
          1   -1    0    0  501    0  0.00000000000E+00 -0.00000000000E+00 -0.30052013633E+04  0.30052013633E+04  0.00000000000E+00 0. -1.
        -24    2    1    2    0    0 -0.58199504336E+02 -0.38857254342E+02 -0.96067539081E+03  0.96639089678E+03  0.78211829909E+02 0.  0.
        254    2    1    2    0    0  0.58199504336E+02  0.38857254342E+02 -0.19418871069E+04  0.21414493321E+04  0.89999035424E+03 0.  0.
         23    2    4    4    0    0  0.18721640858E+03 -0.36474342126E+03 -0.60919823718E+03  0.73999418688E+03  0.91548661571E+02 0.  0.
         23    2    4    4    0    0 -0.12901690425E+03  0.40360067560E+03 -0.13326888697E+04  0.14014551453E+04  0.92076239207E+02 0.  0.
          1    1    3    3  502    0 -0.38981087084E+02  0.13019691712E+02 -0.60955930925E+03  0.61094319623E+03  0.00000000000E+00 0. -1.
         -2    1    3    3    0  502 -0.19218417253E+02 -0.51876946053E+02 -0.35111608156E+03  0.35544770055E+03  0.00000000000E+00 0.  1.
         13    1    5    5    0    0  0.75724850308E+02 -0.12008064200E+03 -0.28821707453E+03  0.32128289028E+03  0.00000000000E+00 0. -1.
        -13    1    5    5    0    0  0.11149155828E+03 -0.24466277926E+03 -0.32098116266E+03  0.41871129660E+03  0.00000000000E+00 0.  1.
          1    1    6    6  503    0 -0.35129626321E+02  0.19140184049E+03 -0.48507219846E+03  0.52265073702E+03  0.00000000000E+00 0. -1.
         -1    1    6    6    0  503 -0.93887277927E+02  0.21219883511E+03 -0.84761667123E+03  0.87880440823E+03  0.00000000000E+00 0.  1.
<mgrwt>
<rscale>  0 0.11107663E+04</rscale>
<asrwt>0</asrwt>
<pdfrwt beam="1">  1        1 0.46233864E+00 0.11107663E+04</pdfrwt>
<pdfrwt beam="2">  1       -2 0.15790596E-01 0.11107663E+04</pdfrwt>
<totfact> 0.16954277E+01</totfact>
</mgrwt>
</event>
<event>
12    5  0.5297412E-008  0.3629642E+04  0.7818608E-02  0.8083735E-01
         -2   -1    0    0    0  501 -0.00000000000E+00  0.00000000000E+00  0.13060149338E+04  0.13060149338E+04  0.00000000000E+00 0.  1.
          1   -1    0    0  501    0  0.00000000000E+00 -0.00000000000E+00 -0.25218512117E+04  0.25218512117E+04  0.00000000000E+00 0. -1.
        -24    2    1    2    0    0  0.50557713068E+03 -0.15693470124E+04 -0.13394169305E+03  0.16561491538E+04  0.80195774608E+02 0.  0.
        254    2    1    2    0    0 -0.50557713068E+03  0.15693470124E+04 -0.10818945849E+04  0.21717169917E+04  0.90961558860E+03 0.  0.
         23    2    4    4    0    0 -0.29363468349E+03  0.51943669681E+03  0.56165599382E+02  0.60623976794E+03  0.91303189068E+02 0.  0.
         23    2    4    4    0    0 -0.21194244719E+03  0.10499103155E+04 -0.11380601842E+04  0.15654772238E+04  0.91141009134E+02 0.  0.
          3    1    3    3  502    0  0.34089405927E+02 -0.58457244037E+02 -0.11844271333E+02  0.68699517759E+02  0.00000000000E+00 0. -1.
         -4    1    3    3    0  502  0.47148772475E+03 -0.15108897683E+04 -0.12209742171E+03  0.15874496360E+04  0.00000000000E+00 0.  1.
         13    1    5    5    0    0 -0.97080813156E+02  0.95382030443E+02  0.71625932353E+01  0.13628543120E+03  0.00000000000E+00 0. -1.
        -13    1    5    5    0    0 -0.19655387033E+03  0.42405466637E+03  0.49003006146E+02  0.46995433674E+03  0.00000000000E+00 0.  1.
          3    1    6    6  503    0 -0.64785529145E+02  0.55085747450E+03 -0.58410101292E+03  0.80549060534E+03  0.00000000000E+00 0. -1.
         -3    1    6    6    0  503 -0.14715691804E+03  0.49905284104E+03 -0.55395917132E+03  0.75998661842E+03  0.00000000000E+00 0.  1.
<mgrwt>
<rscale>  0 0.36296420E+04</rscale>
<asrwt>0</asrwt>
<pdfrwt beam="1">  1        1 0.38797711E+00 0.36296420E+04</pdfrwt>
<pdfrwt beam="2">  1       -2 0.20092538E+00 0.36296420E+04</pdfrwt>
<totfact> 0.12183476E-01</totfact>
</mgrwt>
</event>
<event>
12    5  0.5297412E-008  0.1557949E+04  0.7818608E-02  0.8846806E-01
          3   -1    0    0  501    0  0.00000000000E+00  0.00000000000E+00  0.89424727625E+03  0.89424727625E+03  0.00000000000E+00 0. -1.
         -4   -1    0    0    0  501 -0.00000000000E+00 -0.00000000000E+00 -0.67856131803E+03  0.67856131803E+03  0.00000000000E+00 0.  1.
        -24    2    1    2    0    0  0.47544028782E+02  0.38015068505E+03  0.42712004058E+03  0.57925907398E+03  0.79589997477E+02 0.  0.
        254    2    1    2    0    0 -0.47544028782E+02 -0.38015068505E+03 -0.21143408236E+03  0.99354952030E+03  0.89199848659E+03 0.  0.
         23    2    4    4    0    0 -0.10006543272E+03 -0.65726894340E+03 -0.10393660372E+03  0.67880183757E+03  0.89182746715E+02 0.  0.
         23    2    4    4    0    0  0.52521403942E+02  0.27711825835E+03 -0.10749747864E+03  0.31474768272E+03  0.89204085565E+02 0.  0.
          1    1    3    3  502    0  0.58949740637E+02  0.33572977006E+03  0.40166781048E+03  0.52680791604E+03  0.00000000000E+00 0. -1.
         -2    1    3    3    0  502 -0.11405711855E+02  0.44420914997E+02  0.25452230102E+02  0.52451157940E+02  0.00000000000E+00 0.  1.
         13    1    5    5    0    0 -0.72336034191E+02 -0.23681717258E+03 -0.62634983886E+02  0.25541733747E+03  0.00000000000E+00 0.  1.
        -13    1    5    5    0    0 -0.27729398533E+02 -0.42045177082E+03 -0.41301619835E+02  0.42338450011E+03  0.00000000000E+00 0. -1.
          1    1    6    6  503    0 -0.14050696750E+02  0.50902699363E+02 -0.48436398207E+02  0.71656064313E+02  0.00000000000E+00 0. -1.
         -1    1    6    6    0  503  0.66572100691E+02  0.22621555899E+03 -0.59061080434E+02  0.24309161841E+03  0.00000000000E+00 0.  1.
<mgrwt>
<rscale>  0 0.15579494E+04</rscale>
<asrwt>0</asrwt>
<pdfrwt beam="1">  1        3 0.13757650E+00 0.15579494E+04</pdfrwt>
<pdfrwt beam="2">  1       -4 0.10439405E+00 0.15579494E+04</pdfrwt>
<totfact> 0.66226106E-01</totfact>
</mgrwt>
</event>
<event>
12    5  0.5393375E-008  0.2160505E+04  0.7818608E-02  0.8535049E-01
          1   -1    0    0  501    0  0.00000000000E+00  0.00000000000E+00  0.23210447211E+04  0.23210447211E+04  0.00000000000E+00 0. -1.
         -2   -1    0    0    0  501 -0.00000000000E+00 -0.00000000000E+00 -0.50276754039E+03  0.50276754039E+03  0.00000000000E+00 0.  1.
        -24    2    1    2    0    0 -0.39518400482E+03  0.45208638805E+03 -0.10536190270E+03  0.61477067408E+03  0.79305430079E+02 0.  0.
        254    2    1    2    0    0  0.39518400482E+03 -0.45208638805E+03  0.19236390834E+04  0.22090415874E+04  0.90494470095E+03 0.  0.
         23    2    4    4    0    0 -0.12883983046E+03 -0.96102323791E+02  0.13094985233E+04  0.13221626765E+04  0.86558661682E+02 0.  0.
         23    2    4    4    0    0  0.52402383528E+03 -0.35598406426E+03  0.61414056009E+03  0.88687891095E+03  0.89777175234E+02 0.  0.
          1    1    3    3  502    0 -0.57652719161E+02  0.75629927359E+02 -0.46134626232E+02  0.10569827660E+03  0.00000000000E+00 0. -1.
         -2    1    3    3    0  502 -0.33753128566E+03  0.37645646069E+03 -0.59227276470E+02  0.50907239748E+03  0.00000000000E+00 0.  1.
         13    1    5    5    0    0 -0.13397847288E+03 -0.90607027682E+02  0.10350276522E+04  0.10475887100E+04  0.00000000000E+00 0. -1.
        -13    1    5    5    0    0  0.51386424246E+01 -0.54952961089E+01  0.27447087115E+03  0.27457396642E+03  0.00000000000E+00 0.  1.
          3    1    6    6  503    0  0.49637206931E+03 -0.30932077774E+03  0.54961600644E+03  0.80258478011E+03  0.00000000000E+00 0. -1.
         -3    1    6    6    0  503  0.27651765969E+02 -0.46663286521E+02  0.64524553646E+02  0.84294130836E+02  0.00000000000E+00 0.  1.
<mgrwt>
<rscale>  0 0.21605054E+04</rscale>
<asrwt>0</asrwt>
<pdfrwt beam="1">  1        1 0.35708380E+00 0.21605054E+04</pdfrwt>
<pdfrwt beam="2">  1       -2 0.77348854E-01 0.21605054E+04</pdfrwt>
<totfact> 0.21573552E+00</totfact>
</mgrwt>
</event>
<event>
12    5  0.5542995E-008  0.1651744E+04  0.7818608E-02  0.8789375E-01
          1   -1    0    0  501    0  0.00000000000E+00  0.00000000000E+00  0.20112492413E+04  0.20112492413E+04  0.00000000000E+00 0. -1.
         -2   -1    0    0    0  501 -0.00000000000E+00 -0.00000000000E+00 -0.33912480701E+03  0.33912480701E+03  0.00000000000E+00 0.  1.
        -24    2    1    2    0    0 -0.13783959347E+03  0.45069670891E+03  0.13582584745E+03  0.49715998225E+03  0.81191810961E+02 0.  0.
        254    2    1    2    0    0  0.13783959347E+03 -0.45069670891E+03  0.15362985869E+04  0.18532140661E+04  0.92307190932E+03 0.  0.
         23    2    4    4    0    0 -0.13080503178E+01  0.26041459441E+03  0.63807552062E+03  0.69554710970E+03  0.93957116881E+02 0.  0.
         23    2    4    4    0    0  0.13914764379E+03 -0.71111130332E+03  0.89822306625E+03  0.11576669564E+04  0.91360564265E+02 0.  0.
          3    1    3    3  502    0  0.43708140614E+01  0.13048897195E+01 -0.33802341890E+01  0.56773881241E+01  0.00000000000E+00 0. -1.
         -4    1    3    3    0  502 -0.14221040753E+03  0.44939181919E+03  0.13920608164E+03  0.49148259412E+03  0.00000000000E+00 0.  1.
         13    1    5    5    0    0 -0.13273578025E+02 -0.20667583142E+01  0.21964421815E+02  0.25746751041E+02  0.00000000000E+00 0. -1.
        -13    1    5    5    0    0  0.11965527707E+02  0.26248135272E+03  0.61611109881E+03  0.66980035865E+03  0.00000000000E+00 0.  1.
          1    1    6    6  503    0  0.15607356170E+02 -0.16112594568E+02  0.45101636973E+02  0.50372243627E+02  0.00000000000E+00 0. -1.
         -1    1    6    6    0  503  0.12354028762E+03 -0.69499870875E+03  0.85312142927E+03  0.11072947128E+04  0.00000000000E+00 0.  1.
<mgrwt>
<rscale>  0 0.16517439E+04</rscale>
<asrwt>0</asrwt>
<pdfrwt beam="1">  1        1 0.30942295E+00 0.16517439E+04</pdfrwt>
<pdfrwt beam="2">  1       -2 0.52173048E-01 0.16517439E+04</pdfrwt>
<totfact> 0.85211170E+00</totfact>
</mgrwt>
</event>
<event>
12    5  0.5297412E-008  0.2432808E+04  0.7818608E-02  0.8427322E-01
          1   -1    0    0  501    0  0.00000000000E+00  0.00000000000E+00  0.31755712273E+04  0.31755712273E+04  0.00000000000E+00 0. -1.
         -2   -1    0    0    0  501 -0.00000000000E+00 -0.00000000000E+00 -0.46594392503E+03  0.46594392503E+03  0.00000000000E+00 0.  1.
        -24    2    1    2    0    0  0.46116698081E+03  0.26872304574E+03 -0.17842761883E+03  0.57037637202E+03  0.92767079754E+02 0.  0.
        254    2    1    2    0    0 -0.46116698081E+03 -0.26872304574E+03  0.28880549211E+04  0.30711387803E+04  0.89785584656E+03 0.  0.
         23    2    4    4    0    0 -0.57977250856E+03 -0.58425552878E+02  0.96608891441E+03  0.11319129382E+04  0.91375063729E+02 0.  0.
         23    2    4    4    0    0  0.11860552774E+03 -0.21029749287E+03  0.19219660067E+04  0.19392258421E+04  0.91385059256E+02 0.  0.
          1    1    3    3  502    0  0.92480126338E+02  0.14149081152E+02 -0.36025294451E+02  0.10025264139E+03  0.00000000000E+00 0. -1.
         -2    1    3    3    0  502  0.36868685447E+03  0.25457396459E+03 -0.14240232438E+03  0.47012373063E+03  0.00000000000E+00 0.  1.
         13    1    5    5    0    0 -0.53509032857E+03 -0.75468549773E+02  0.86225454000E+03  0.10175952307E+04  0.00000000000E+00 0. -1.
        -13    1    5    5    0    0 -0.44682179981E+02  0.17042996895E+02  0.10383437440E+03  0.11431770755E+03  0.00000000000E+00 0.  1.
          3    1    6    6  503    0  0.50136758365E+02 -0.10769450575E+03  0.12811700060E+04  0.12866656074E+04  0.00000000000E+00 0. -1.
         -3    1    6    6    0  503  0.68468769378E+02 -0.10260298712E+03  0.64079600075E+03  0.65256023471E+03  0.00000000000E+00 0.  1.
<mgrwt>
<rscale>  0 0.24328075E+04</rscale>
<asrwt>0</asrwt>
<pdfrwt beam="1">  1        1 0.48854940E+00 0.24328075E+04</pdfrwt>
<pdfrwt beam="2">  1       -2 0.71683683E-01 0.24328075E+04</pdfrwt>
<totfact> 0.61494904E-01</totfact>
</mgrwt>
</event>
<event>
12    5  0.5297412E-008  0.1841508E+04  0.7818608E-02  0.8684532E-01
         -2   -1    0    0    0  501 -0.00000000000E+00  0.00000000000E+00  0.21328811799E+04  0.21328811799E+04  0.00000000000E+00 0.  1.
          1   -1    0    0  501    0  0.00000000000E+00 -0.00000000000E+00 -0.39748476573E+03  0.39748476573E+03  0.00000000000E+00 0. -1.
        -24    2    1    2    0    0  0.27234423050E+03 -0.43001913818E+03  0.18134611629E+01  0.51543752803E+03  0.81146272700E+02 0.  0.
        254    2    1    2    0    0 -0.27234423050E+03  0.43001913818E+03  0.17335829530E+04  0.20149284176E+04  0.89192983692E+03 0.  0.
         23    2    4    4    0    0 -0.76294740031E+02  0.51583876477E+03  0.40655038045E+03  0.66757163083E+03  0.91968211115E+02 0.  0.
         23    2    4    4    0    0 -0.19604949047E+03 -0.85819626591E+02  0.13270325726E+04  0.13473567868E+04  0.92490276143E+02 0.  0.
          1    1    3    3  502    0  0.20150417925E+03 -0.34740991174E+03 -0.28030780350E+02  0.40259570996E+03  0.00000000000E+00 0. -1.
         -2    1    3    3    0  502  0.70840051249E+02 -0.82609226434E+02  0.29844241513E+02  0.11284181807E+03  0.00000000000E+00 0.  1.
         13    1    5    5    0    0 -0.47534497716E+02  0.43294460839E+03  0.29679732395E+03  0.52705712585E+03  0.00000000000E+00 0. -1.
        -13    1    5    5    0    0 -0.28760242315E+02  0.82894156382E+02  0.10975305650E+03  0.14051450498E+03  0.00000000000E+00 0.  1.
          4    1    6    6  503    0 -0.69507314548E+02 -0.23383160639E+01  0.64168241425E+03  0.64544020269E+03  0.00000000000E+00 0. -1.
         -4    1    6    6    0  503 -0.12654217592E+03 -0.83481310527E+02  0.68535015830E+03  0.70191658406E+03  0.00000000000E+00 0.  1.
<mgrwt>
<rscale>  0 0.18415078E+04</rscale>
<asrwt>0</asrwt>
<pdfrwt beam="1">  1        1 0.61151503E-01 0.18415078E+04</pdfrwt>
<pdfrwt beam="2">  1       -2 0.32813556E+00 0.18415078E+04</pdfrwt>
<totfact> 0.10636398E+00</totfact>
</mgrwt>
</event>
<event>
12    5  0.5297412E-008  0.2350900E+04  0.7818608E-02  0.8458118E-01
         -2   -1    0    0    0  501 -0.00000000000E+00  0.00000000000E+00  0.29874892896E+03  0.29874892896E+03  0.00000000000E+00 0.  1.
          1   -1    0    0  501    0  0.00000000000E+00 -0.00000000000E+00 -0.46248976275E+04  0.46248976275E+04  0.00000000000E+00 0. -1.
        -24    2    1    2    0    0 -0.80338540132E+03  0.47400692224E+03 -0.10693345680E+04  0.14212075939E+04  0.79018613376E+02 0.  0.
        254    2    1    2    0    0  0.80338540132E+03 -0.47400692224E+03 -0.32568141305E+04  0.35024389626E+04  0.88889242334E+03 0.  0.
         23    2    4    4    0    0  0.22573247798E+03  0.21364243589E+03 -0.45076126212E+03  0.55482641393E+03  0.89712831504E+02 0.  0.
         23    2    4    4    0    0  0.57765292334E+03 -0.68764935813E+03 -0.28060528684E+04  0.29476125486E+04  0.89120687754E+02 0.  0.
          3    1    3    3  502    0 -0.97845237813E+02  0.50216446422E+02 -0.16636022260E+03  0.19942694331E+03  0.00000000000E+00 0. -1.
         -4    1    3    3    0  502 -0.70554016351E+03  0.42379047582E+03 -0.90297434544E+03  0.12217806506E+04  0.00000000000E+00 0.  1.
         13    1    5    5    0    0  0.17439048191E+03  0.14195742157E+03 -0.25413888004E+03  0.33933835632E+03  0.00000000000E+00 0.  1.
        -13    1    5    5    0    0  0.51341996072E+02  0.71685014319E+02 -0.19662238208E+03  0.21548805761E+03  0.00000000000E+00 0. -1.
          1    1    6    6  503    0  0.31536606918E+03 -0.30914547067E+03 -0.13313932120E+04  0.14027239802E+04  0.00000000000E+00 0. -1.
         -1    1    6    6    0  503  0.26228685415E+03 -0.37850388746E+03 -0.14746596564E+04  0.15448885685E+04  0.00000000000E+00 0.  1.
<mgrwt>
<rscale>  0 0.23509004E+04</rscale>
<asrwt>0</asrwt>
<pdfrwt beam="1">  1        1 0.71152262E+00 0.23509004E+04</pdfrwt>
<pdfrwt beam="2">  1       -2 0.45961380E-01 0.23509004E+04</pdfrwt>
<totfact> 0.85211959E-02</totfact>
</mgrwt>
</event>
<event>
12    5  0.5297412E-008  0.3535835E+04  0.7818608E-02  0.8105350E-01
         -2   -1    0    0    0  501 -0.00000000000E+00  0.00000000000E+00  0.19049537208E+04  0.19049537208E+04  0.00000000000E+00 0.  1.
          1   -1    0    0  501    0  0.00000000000E+00 -0.00000000000E+00 -0.16407391949E+04  0.16407391949E+04  0.00000000000E+00 0. -1.
        -24    2    1    2    0    0  0.11113660448E+03  0.57706938929E+03  0.17050565538E+04  0.18052884494E+04  0.80548800610E+02 0.  0.
        254    2    1    2    0    0 -0.11113660448E+03 -0.57706938929E+03 -0.14408420279E+04  0.17404044663E+04  0.77950082239E+03 0.  0.
         23    2    4    4    0    0  0.30791674408E+03 -0.34510521722E+03 -0.86491676322E+03  0.98505667507E+03  0.91352687809E+02 0.  0.
         23    2    4    4    0    0 -0.41905334857E+03 -0.23196417206E+03 -0.57592526467E+03  0.75534779123E+03  0.97197166462E+02 0.  0.
          1    1    3    3  502    0  0.55981632270E+01 -0.84865295481E+00  0.14581308479E+02  0.15642065091E+02  0.00000000000E+00 0. -1.
         -2    1    3    3    0  502  0.10553844126E+03  0.57791804224E+03  0.16904752453E+04  0.17896463844E+04  0.00000000000E+00 0.  1.
         13    1    5    5    0    0  0.84799790850E+01 -0.68311766862E+01 -0.69096297435E+02  0.69949076759E+02  0.00000000000E+00 0. -1.
        -13    1    5    5    0    0  0.29943676500E+03 -0.33827404054E+03 -0.79582046578E+03  0.91510759831E+03  0.00000000000E+00 0.  1.
          3    1    6    6  503    0 -0.23637472354E+02 -0.46112533084E+02 -0.60662701876E+02  0.79781321158E+02  0.00000000000E+00 0. -1.
         -3    1    6    6    0  503 -0.39541587621E+03 -0.18585163898E+03 -0.51526256279E+03  0.67556647007E+03  0.00000000000E+00 0.  1.
<mgrwt>
<rscale>  0 0.35358350E+04</rscale>
<asrwt>0</asrwt>
<pdfrwt beam="1">  1        1 0.25242142E+00 0.35358350E+04</pdfrwt>
<pdfrwt beam="2">  1       -2 0.29306980E+00 0.35358350E+04</pdfrwt>
<totfact> 0.13101574E-01</totfact>
</mgrwt>
</event>
<event>
12    5  0.5297412E-008  0.1912573E+04  0.7818608E-02  0.8648623E-01
          1   -1    0    0  501    0  0.00000000000E+00  0.00000000000E+00  0.18917277930E+04  0.18917277930E+04  0.00000000000E+00 0. -1.
         -2   -1    0    0    0  501 -0.00000000000E+00 -0.00000000000E+00 -0.48341210029E+03  0.48341210029E+03  0.00000000000E+00 0.  1.
        -24    2    1    2    0    0 -0.26609740470E+03 -0.39294664533E+02  0.14039651884E+04  0.14312901696E+04  0.71563957139E+02 0.  0.
        254    2    1    2    0    0  0.26609740470E+03  0.39294664533E+02  0.43505042856E+01  0.94384972366E+03  0.90469965984E+03 0.  0.
         23    2    4    4    0    0 -0.28630782904E+03 -0.13687702269E+03 -0.10455830819E+03  0.34734533500E+03  0.94914959956E+02 0.  0.
         23    2    4    4    0    0  0.55240523374E+03  0.17617168722E+03  0.10890881247E+03  0.59650438866E+03  0.88138247137E+02 0.  0.
          1    1    3    3  502    0 -0.79573014116E+02  0.16494952664E+02  0.50377247883E+03  0.51028487972E+03  0.00000000000E+00 0. -1.
         -2    1    3    3    0  502 -0.18652439058E+03 -0.55789617197E+02  0.90019270959E+03  0.92100528992E+03  0.00000000000E+00 0.  1.
         13    1    5    5    0    0 -0.17161059932E+03 -0.30118554989E+02 -0.47572233982E+02  0.18061130253E+03  0.00000000000E+00 0.  1.
        -13    1    5    5    0    0 -0.11469722972E+03 -0.10675846770E+03 -0.56986074207E+02  0.16673403247E+03  0.00000000000E+00 0. -1.
          3    1    6    6  503    0  0.41617923885E+03  0.17087528568E+03  0.91005487560E+02  0.45900492467E+03  0.00000000000E+00 0. -1.
         -3    1    6    6    0  503  0.13622599490E+03  0.52964015436E+01  0.17903324914E+02  0.13749946399E+03  0.00000000000E+00 0.  1.
<mgrwt>
<rscale>  0 0.19125732E+04</rscale>
<asrwt>0</asrwt>
<pdfrwt beam="1">  1        1 0.29103504E+00 0.19125732E+04</pdfrwt>
<pdfrwt beam="2">  1       -2 0.74371094E-01 0.19125732E+04</pdfrwt>
<totfact> 0.47121658E+00</totfact>
</mgrwt>
</event>
<event>
12    5  0.5297412E-008  0.1361311E+04  0.7818608E-02  0.8982310E-01
         -2   -1    0    0    0  501 -0.00000000000E+00  0.00000000000E+00  0.21661642521E+03  0.21661642521E+03  0.00000000000E+00 0.  1.
          1   -1    0    0  501    0  0.00000000000E+00 -0.00000000000E+00 -0.21387652080E+04  0.21387652080E+04  0.00000000000E+00 0. -1.
        -24    2    1    2    0    0  0.51126845801E+02  0.22477274832E+02 -0.11736814023E+04  0.11777544698E+04  0.80364014161E+02 0.  0.
        254    2    1    2    0    0 -0.51126845801E+02 -0.22477274832E+02 -0.74846738044E+03  0.11776271634E+04  0.90745971485E+03 0.  0.
         23    2    4    4    0    0  0.97877543687E+02 -0.89215492225E+02 -0.91401546618E+03  0.92811240276E+03  0.91809270339E+02 0.  0.
         23    2    4    4    0    0 -0.14900438949E+03  0.66738217392E+02  0.16554808574E+03  0.24951476062E+03  0.90527064067E+02 0.  0.
          3    1    3    3  502    0  0.30964948633E+02  0.52217967388E+02 -0.64367971820E+03  0.64653625094E+03  0.00000000000E+00 0. -1.
         -4    1    3    3    0  502  0.20161897168E+02 -0.29740692555E+02 -0.53000168414E+03  0.53121821889E+03  0.00000000000E+00 0.  1.
         13    1    5    5    0    0 -0.72796971950E+01  0.87653078277E+01 -0.24015542653E+02  0.26581401421E+02  0.00000000000E+00 0.  1.
        -13    1    5    5    0    0  0.10515724088E+03 -0.97980800052E+02 -0.88999992353E+03  0.90153100133E+03  0.00000000000E+00 0. -1.
          3    1    6    6  503    0 -0.91169995257E+02  0.82770790667E+02  0.13296249323E+03  0.18122360892E+03  0.00000000000E+00 0. -1.
         -3    1    6    6    0  503 -0.57834394232E+02 -0.16032573275E+02  0.32585592506E+02  0.68291151703E+02  0.00000000000E+00 0.  1.
<mgrwt>
<rscale>  0 0.13613107E+04</rscale>
<asrwt>0</asrwt>
<pdfrwt beam="1">  1        1 0.32904080E+00 0.13613107E+04</pdfrwt>
<pdfrwt beam="2">  1       -2 0.33325604E-01 0.13613107E+04</pdfrwt>
<totfact> 0.17350219E+01</totfact>
</mgrwt>
</event>
<event>
12    5  0.5297412E-008  0.3500894E+04  0.7818608E-02  0.8113578E-01
          1   -1    0    0  501    0  0.00000000000E+00  0.00000000000E+00  0.15857279708E+04  0.15857279708E+04  0.00000000000E+00 0. -1.
         -2   -1    0    0    0  501 -0.00000000000E+00 -0.00000000000E+00 -0.19322764423E+04  0.19322764423E+04  0.00000000000E+00 0.  1.
        -24    2    1    2    0    0  0.11955473404E+04  0.59205900794E+03  0.78467577051E+03  0.15498335200E+04  0.80003517711E+02 0.  0.
        254    2    1    2    0    0 -0.11955473404E+04 -0.59205900794E+03 -0.11312242421E+04  0.19681708931E+04  0.90230874223E+03 0.  0.
         23    2    4    4    0    0 -0.38516218000E+03 -0.56044715274E+02 -0.87078358343E+03  0.95813128726E+03  0.90887839949E+02 0.  0.
         23    2    4    4    0    0 -0.81038516045E+03 -0.53601429267E+03 -0.26044065864E+03  0.10100396058E+04  0.91187928942E+02 0.  0.
          3    1    3    3  502    0  0.73099488226E+03  0.38730685800E+03  0.52260944274E+03  0.97850945309E+03  0.00000000000E+00 0. -1.
         -4    1    3    3    0  502  0.46455245819E+03  0.20475214994E+03  0.26206632777E+03  0.57132406694E+03  0.00000000000E+00 0.  1.
         13    1    5    5    0    0 -0.29825376692E+03 -0.81342185829E+02 -0.67818973172E+03  0.74532756080E+03  0.00000000000E+00 0. -1.
        -13    1    5    5    0    0 -0.86908413078E+02  0.25297470555E+02 -0.19259385170E+03  0.21280372646E+03  0.00000000000E+00 0.  1.
          2    1    6    6  503    0 -0.61552022219E+03 -0.36392644431E+03 -0.20956350024E+03  0.74513385471E+03  0.00000000000E+00 0. -1.
         -2    1    6    6    0  503 -0.19486493825E+03 -0.17208784835E+03 -0.50877158398E+02  0.26490575109E+03  0.00000000000E+00 0.  1.
<mgrwt>
<rscale>  0 0.35008941E+04</rscale>
<asrwt>0</asrwt>
<pdfrwt beam="1">  1        1 0.24395815E+00 0.35008941E+04</pdfrwt>
<pdfrwt beam="2">  1       -2 0.29727330E+00 0.35008941E+04</pdfrwt>
<totfact> 0.13508397E-01</totfact>
</mgrwt>
</event>
<event>
12    5  0.5297412E-008  0.2455843E+04  0.7818608E-02  0.8418888E-01
         -2   -1    0    0    0  501 -0.00000000000E+00  0.00000000000E+00  0.81617737056E+03  0.81617737056E+03  0.00000000000E+00 0.  1.
          1   -1    0    0  501    0  0.00000000000E+00 -0.00000000000E+00 -0.18473825347E+04  0.18473825347E+04  0.00000000000E+00 0. -1.
        -24    2    1    2    0    0  0.31721724796E+03  0.73186307435E+03 -0.12032319694E+04  0.14457729356E+04  0.79005486458E+02 0.  0.
        254    2    1    2    0    0 -0.31721724796E+03 -0.73186307435E+03  0.17202680533E+03  0.12177869697E+04  0.90396987769E+03 0.  0.
         23    2    4    4    0    0 -0.20393195955E+01 -0.68392442760E+01 -0.28499819797E+03  0.29971537639E+03  0.92489998965E+02 0.  0.
         23    2    4    4    0    0 -0.31517792836E+03 -0.72502383008E+03  0.45702500330E+03  0.91807159329E+03  0.94799346322E+02 0.  0.
          3    1    3    3  502    0  0.31636470142E+03  0.68783257510E+03 -0.11471871892E+04  0.13744958067E+04  0.00000000000E+00 0. -1.
         -4    1    3    3    0  502  0.85254653657E+00  0.44030499260E+02 -0.56044780267E+02  0.71277128841E+02  0.00000000000E+00 0.  1.
         13    1    5    5    0    0 -0.13804403026E+02 -0.36693000076E+02 -0.55299811022E+02  0.67786480190E+02  0.00000000000E+00 0.  1.
        -13    1    5    5    0    0  0.11765083431E+02  0.29853755800E+02 -0.22969838695E+03  0.23192889620E+03  0.00000000000E+00 0. -1.
          1    1    6    6  503    0 -0.23335170649E+03 -0.46295638022E+03  0.33763114789E+03  0.61868927656E+03  0.00000000000E+00 0. -1.
         -1    1    6    6    0  503 -0.81826221867E+02 -0.26206744986E+03  0.11939385541E+03  0.29938231673E+03  0.00000000000E+00 0.  1.
<mgrwt>
<rscale>  0 0.24558435E+04</rscale>
<asrwt>0</asrwt>
<pdfrwt beam="1">  1        1 0.28421270E+00 0.24558435E+04</pdfrwt>
<pdfrwt beam="2">  1       -2 0.12556575E+00 0.24558435E+04</pdfrwt>
<totfact> 0.14050761E+00</totfact>
</mgrwt>
</event>
<event>
12    5  0.5297412E-008  0.2638180E+04  0.7818608E-02  0.8355347E-01
          1   -1    0    0  501    0  0.00000000000E+00  0.00000000000E+00  0.20825617737E+04  0.20825617737E+04  0.00000000000E+00 0. -1.
         -2   -1    0    0    0  501 -0.00000000000E+00 -0.00000000000E+00 -0.83550895160E+03  0.83550895160E+03  0.00000000000E+00 0.  1.
        -24    2    1    2    0    0  0.65885582377E+03 -0.46186580540E+00  0.16114441558E+04  0.17427490504E+04  0.79566170235E+02 0.  0.
        254    2    1    2    0    0 -0.65885582377E+03  0.46186580540E+00 -0.36439133368E+03  0.11753216750E+04  0.90250140484E+03 0.  0.
         23    2    4    4    0    0 -0.20358963321E+03  0.42555939717E+03 -0.90495232591E+02  0.48920171310E+03  0.92624995048E+02 0.  0.
         23    2    4    4    0    0 -0.45526619056E+03 -0.42509753136E+03 -0.27389610109E+03  0.68611996186E+03  0.88126684005E+02 0.  0.
          1    1    3    3  502    0  0.59546663238E+03  0.21414663505E+02  0.14222688469E+04  0.15420401327E+04  0.00000000000E+00 0. -1.
         -2    1    3    3    0  502  0.63389191386E+02 -0.21876529310E+02  0.18917530890E+03  0.20070891763E+03  0.00000000000E+00 0.  1.
         13    1    5    5    0    0 -0.13455957275E+03  0.32316253321E+03 -0.29031113496E+02  0.35125931595E+03  0.00000000000E+00 0.  1.
        -13    1    5    5    0    0 -0.69030060460E+02  0.10239686396E+03 -0.61464119095E+02  0.13794239715E+03  0.00000000000E+00 0. -1.
          3    1    6    6  503    0 -0.12990878409E+03 -0.14061528613E+03 -0.43357083462E+02  0.19628751250E+03  0.00000000000E+00 0. -1.
         -3    1    6    6    0  503 -0.32535740647E+03 -0.28448224523E+03 -0.23053901763E+03  0.48983244936E+03  0.00000000000E+00 0.  1.
<mgrwt>
<rscale>  0 0.26381804E+04</rscale>
<asrwt>0</asrwt>
<pdfrwt beam="1">  1        1 0.32039412E+00 0.26381804E+04</pdfrwt>
<pdfrwt beam="2">  1       -2 0.12853984E+00 0.26381804E+04</pdfrwt>
<totfact> 0.90302963E-01</totfact>
</mgrwt>
</event>
<event>
12    5  0.5297412E-008  0.1453820E+04  0.7818608E-02  0.8915756E-01
         -2   -1    0    0    0  501 -0.00000000000E+00  0.00000000000E+00  0.25486896130E+03  0.25486896130E+03  0.00000000000E+00 0.  1.
          1   -1    0    0  501    0  0.00000000000E+00 -0.00000000000E+00 -0.20732157855E+04  0.20732157855E+04  0.00000000000E+00 0. -1.
        -24    2    1    2    0    0  0.24452653391E+03  0.50558350500E+02 -0.11638199576E+04  0.11930462243E+04  0.80827142049E+02 0.  0.
        254    2    1    2    0    0 -0.24452653391E+03 -0.50558350500E+02 -0.65452686657E+03  0.11350385225E+04  0.89306083554E+03 0.  0.
         23    2    4    4    0    0 -0.33542445109E+03  0.35796276977E+03 -0.35073786653E+03  0.61004887871E+03  0.92171993949E+02 0.  0.
         23    2    4    4    0    0  0.90897917183E+02 -0.40852112027E+03 -0.30378900004E+03  0.52498964382E+03  0.90412568380E+02 0.  0.
          1    1    3    3  502    0  0.16100277366E+03  0.43186602237E+02 -0.58866879930E+03  0.61181527523E+03  0.00000000000E+00 0. -1.
         -2    1    3    3    0  502  0.83523760250E+02  0.73717482630E+01 -0.57515115831E+03  0.58123094903E+03  0.00000000000E+00 0.  1.
         13    1    5    5    0    0 -0.26393316195E+03  0.26224402688E+03 -0.21700984069E+03  0.43072719274E+03  0.00000000000E+00 0. -1.
        -13    1    5    5    0    0 -0.71491289139E+02  0.95718742883E+02 -0.13372802584E+03  0.17932168597E+03  0.00000000000E+00 0.  1.
          3    1    6    6  503    0  0.22444550662E+02 -0.23672304153E+02 -0.47318389769E+02  0.57473175035E+02  0.00000000000E+00 0. -1.
         -3    1    6    6    0  503  0.68453366521E+02 -0.38484881611E+03 -0.25647061027E+03  0.46751646878E+03  0.00000000000E+00 0.  1.
<mgrwt>
<rscale>  0 0.14538203E+04</rscale>
<asrwt>0</asrwt>
<pdfrwt beam="1">  1        1 0.31895627E+00 0.14538203E+04</pdfrwt>
<pdfrwt beam="2">  1       -2 0.39210610E-01 0.14538203E+04</pdfrwt>
<totfact> 0.13944545E+01</totfact>
</mgrwt>
</event>
<event>
12    5  0.5297412E-008  0.1430548E+04  0.7818608E-02  0.8931999E-01
         -2   -1    0    0    0  501 -0.00000000000E+00  0.00000000000E+00  0.11011050748E+04  0.11011050748E+04  0.00000000000E+00 0.  1.
          1   -1    0    0  501    0  0.00000000000E+00 -0.00000000000E+00 -0.46463940117E+03  0.46463940117E+03  0.00000000000E+00 0. -1.
        -24    2    1    2    0    0  0.19526815108E+03  0.19402476899E+03 -0.10959734473E+03  0.30667879557E+03  0.79152030115E+02 0.  0.
        254    2    1    2    0    0 -0.19526815108E+03 -0.19402476899E+03  0.74606301838E+03  0.12590656804E+04  0.97614604360E+03 0.  0.
         23    2    4    4    0    0 -0.41702697235E+03 -0.46527571227E+03  0.34989705221E+03  0.72194711476E+03  0.91578956448E+02 0.  0.
         23    2    4    4    0    0  0.22175882126E+03  0.27125094328E+03  0.39616596616E+03  0.53711856567E+03  0.93780764566E+02 0.  0.
          1    1    3    3  502    0  0.19550719210E+03  0.16428047504E+03 -0.88717510026E+02  0.27033670344E+03  0.00000000000E+00 0. -1.
         -2    1    3    3    0  502 -0.23904101563E+00  0.29744293942E+02 -0.20879834705E+02  0.36342092125E+02  0.00000000000E+00 0.  1.
         13    1    5    5    0    0 -0.34456778920E+02 -0.14742982640E+02  0.39110308808E+02  0.54168638581E+02  0.00000000000E+00 0.  1.
        -13    1    5    5    0    0 -0.38257019343E+03 -0.45053272963E+03  0.31078674341E+03  0.66777847617E+03  0.00000000000E+00 0. -1.
          3    1    6    6  503    0  0.51808784702E+02  0.11181896367E+03  0.91197306851E+02  0.15331203340E+03  0.00000000000E+00 0. -1.
         -3    1    6    6    0  503  0.16995003656E+03  0.15943197961E+03  0.30496865931E+03  0.38380653227E+03  0.00000000000E+00 0.  1.
<mgrwt>
<rscale>  0 0.14305479E+04</rscale>
<asrwt>0</asrwt>
<pdfrwt beam="1">  1        1 0.71482985E-01 0.14305479E+04</pdfrwt>
<pdfrwt beam="2">  1       -2 0.16940078E+00 0.14305479E+04</pdfrwt>
<totfact> 0.89643315E+00</totfact>
</mgrwt>
</event>
<event>
12    5  0.5297412E-008  0.3411253E+04  0.7818608E-02  0.8135150E-01
         -2   -1    0    0    0  501 -0.00000000000E+00  0.00000000000E+00  0.13592299383E+04  0.13592299383E+04  0.00000000000E+00 0.  1.
          1   -1    0    0  501    0  0.00000000000E+00 -0.00000000000E+00 -0.21403009903E+04  0.21403009903E+04  0.00000000000E+00 0. -1.
        -24    2    1    2    0    0  0.40093261902E+03 -0.42041774385E+03  0.11483349196E+04  0.12893323441E+04  0.78783003516E+02 0.  0.
        254    2    1    2    0    0 -0.40093261902E+03  0.42041774385E+03 -0.19294059716E+04  0.22101985844E+04  0.90822482635E+03 0.  0.
         23    2    4    4    0    0  0.92180879257E+02  0.43628294362E+03 -0.14374192031E+04  0.15078333067E+04  0.92451036894E+02 0.  0.
         23    2    4    4    0    0 -0.49311349828E+03 -0.15865199768E+02 -0.49198676852E+03  0.70236527770E+03  0.88619276522E+02 0.  0.
          3    1    3    3  502    0  0.89915746924E+02 -0.51860184151E+02  0.21692491152E+03  0.24048022265E+03  0.00000000000E+00 0. -1.
         -4    1    3    3    0  502  0.31101687210E+03 -0.36855755970E+03  0.93141000806E+03  0.10488521214E+04  0.00000000000E+00 0.  1.
         13    1    5    5    0    0  0.28820458455E+02  0.24693200620E+02 -0.94829237675E+02  0.10214184892E+03  0.00000000000E+00 0. -1.
        -13    1    5    5    0    0  0.63360420802E+02  0.41158974300E+03 -0.13425899654E+04  0.14056914578E+04  0.00000000000E+00 0.  1.
          2    1    6    6  503    0 -0.51434412835E+02  0.24045934036E+02 -0.70767459860E+02  0.90728932223E+02  0.00000000000E+00 0. -1.
         -2    1    6    6    0  503 -0.44167908545E+03 -0.39911133804E+02 -0.42121930866E+03  0.61163634548E+03  0.00000000000E+00 0.  1.
<mgrwt>
<rscale>  0 0.34112527E+04</rscale>
<asrwt>0</asrwt>
<pdfrwt beam="1">  1        1 0.32927707E+00 0.34112527E+04</pdfrwt>
<pdfrwt beam="2">  1       -2 0.20911230E+00 0.34112527E+04</pdfrwt>
<totfact> 0.20065946E-01</totfact>
</mgrwt>
</event>
<event>
12    5  0.5297412E-008  0.1342507E+04  0.7818608E-02  0.8996520E-01
         -2   -1    0    0    0  501 -0.00000000000E+00  0.00000000000E+00  0.18698395098E+03  0.18698395098E+03  0.00000000000E+00 0.  1.
          1   -1    0    0  501    0  0.00000000000E+00 -0.00000000000E+00 -0.24097307378E+04  0.24097307378E+04  0.00000000000E+00 0. -1.
        -24    2    1    2    0    0  0.13132349088E+03  0.14376119876E+02 -0.12725599043E+04  0.12816484611E+04  0.75904781245E+02 0.  0.
        254    2    1    2    0    0 -0.13132349088E+03 -0.14376119876E+02 -0.95018688260E+03  0.13150662277E+04  0.89949515806E+03 0.  0.
         23    2    4    4    0    0  0.26771672481E+03  0.42935505695E+02 -0.83976894450E+03  0.88714959743E+03  0.91141788928E+02 0.  0.
         23    2    4    4    0    0 -0.39904021569E+03 -0.57311625571E+02 -0.11041793811E+03  0.42791663030E+03  0.91666816624E+02 0.  0.
          1    1    3    3  502    0  0.93152920995E+02  0.92579508208E+01 -0.11333535959E+04  0.11372130625E+04  0.00000000000E+00 0. -1.
         -2    1    3    3    0  502  0.38170569884E+02  0.51181690554E+01 -0.13920630841E+03  0.14443539857E+03  0.00000000000E+00 0.  1.
         13    1    5    5    0    0 -0.19205007923E+01 -0.10106403958E+02 -0.46676567139E+02  0.47796753490E+02  0.00000000000E+00 0. -1.
        -13    1    5    5    0    0  0.26963722560E+03  0.53041909653E+02 -0.79309237736E+03  0.83935284394E+03  0.00000000000E+00 0.  1.
          2    1    6    6  503    0 -0.34500135451E+03 -0.66125218645E+02 -0.12216516880E+03  0.37191774308E+03  0.00000000000E+00 0.  1.
         -2    1    6    6    0  503 -0.54038861180E+02  0.88135930735E+01  0.11747230692E+02  0.55998887216E+02  0.00000000000E+00 0. -1.
<mgrwt>
<rscale>  0 0.13425066E+04</rscale>
<asrwt>0</asrwt>
<pdfrwt beam="1">  1        1 0.37072781E+00 0.13425066E+04</pdfrwt>
<pdfrwt beam="2">  1       -2 0.28766761E-01 0.13425066E+04</pdfrwt>
<totfact> 0.14966872E+01</totfact>
</mgrwt>
</event>
<event>
12    5  0.5297412E-008  0.1123719E+04  0.7818608E-02  0.9182377E-01
          1   -1    0    0  501    0  0.00000000000E+00  0.00000000000E+00  0.27914224848E+04  0.27914224848E+04  0.00000000000E+00 0. -1.
         -2   -1    0    0    0  501 -0.00000000000E+00 -0.00000000000E+00 -0.11309147606E+03  0.11309147606E+03  0.00000000000E+00 0.  1.
        -24    2    1    2    0    0 -0.74307344661E+02  0.33850708045E+02  0.90399824447E+03  0.91114603873E+03  0.79415527318E+02 0.  0.
        254    2    1    2    0    0  0.74307344661E+02 -0.33850708045E+02  0.17743327643E+04  0.19933679221E+04  0.90476044492E+03 0.  0.
         23    2    4    4    0    0  0.38596293019E+03 -0.12513305601E+03  0.39417722955E+03  0.57258501553E+03  0.88612902669E+02 0.  0.
         23    2    4    4    0    0 -0.31165558553E+03  0.91282347968E+02  0.13801555347E+04  0.14207829066E+04  0.91285796329E+02 0.  0.
          3    1    3    3  502    0 -0.56836269605E+02  0.59501535495E+02  0.69548276246E+03  0.70033353992E+03  0.00000000000E+00 0. -1.
         -4    1    3    3    0  502 -0.17471075057E+02 -0.25650827450E+02  0.20851548201E+03  0.21081249880E+03  0.00000000000E+00 0.  1.
         13    1    5    5    0    0  0.76044962649E+02  0.18668212977E+01  0.43358555135E+02  0.87557327902E+02  0.00000000000E+00 0. -1.
        -13    1    5    5    0    0  0.30991796755E+03 -0.12699987731E+03  0.35081867441E+03  0.48502768762E+03  0.00000000000E+00 0.  1.
          4    1    6    6  503    0 -0.15020054884E+03  0.17989151625E+02  0.47793529719E+03  0.50130426165E+03  0.00000000000E+00 0. -1.
         -4    1    6    6    0  503 -0.16145503670E+03  0.73293196343E+02  0.90222023753E+03  0.91947864495E+03  0.00000000000E+00 0.  1.
<mgrwt>
<rscale>  0 0.11237190E+04</rscale>
<asrwt>0</asrwt>
<pdfrwt beam="1">  1        1 0.42944956E+00 0.11237190E+04</pdfrwt>
<pdfrwt beam="2">  1       -2 0.17398691E-01 0.11237190E+04</pdfrwt>
<totfact> 0.20371478E+01</totfact>
</mgrwt>
</event>
<event>
12    5  0.5297412E-008  0.3440740E+04  0.7818608E-02  0.8127979E-01
         -2   -1    0    0    0  501 -0.00000000000E+00  0.00000000000E+00  0.12005753243E+04  0.12005753243E+04  0.00000000000E+00 0.  1.
          1   -1    0    0  501    0  0.00000000000E+00 -0.00000000000E+00 -0.24652123000E+04  0.24652123000E+04  0.00000000000E+00 0. -1.
        -24    2    1    2    0    0 -0.92038464001E+03  0.13055577087E+04 -0.44809393580E+03  0.16614497887E+04  0.89657174113E+02 0.  0.
        254    2    1    2    0    0  0.92038464001E+03 -0.13055577087E+04 -0.81654303986E+03  0.20043378356E+04  0.89388970639E+03 0.  0.
         23    2    4    4    0    0  0.80267892870E+03 -0.13279002930E+04 -0.93382204879E+03  0.18134152614E+04  0.94014044251E+02 0.  0.
         23    2    4    4    0    0  0.11770571131E+03  0.22342584394E+02  0.11727900893E+03  0.19092257425E+03  0.91341326189E+02 0.  0.
          3    1    3    3  502    0 -0.44507717747E+03  0.57936283564E+03 -0.17042208773E+03  0.75019909172E+03  0.00000000000E+00 0. -1.
         -4    1    3    3    0  502 -0.47530746254E+03  0.72619487301E+03 -0.27767184807E+03  0.91125069698E+03  0.00000000000E+00 0.  1.
         13    1    5    5    0    0  0.69017927831E+03 -0.11299883631E+04 -0.75744573697E+03  0.15254327850E+04  0.00000000000E+00 0.  1.
        -13    1    5    5    0    0  0.11249965039E+03 -0.19791192994E+03 -0.17637631183E+03  0.28798247641E+03  0.00000000000E+00 0. -1.
          3    1    6    6  503    0  0.38535809042E+02  0.20955650583E+02 -0.61339378833E+01  0.44291907430E+02  0.00000000000E+00 0. -1.
         -3    1    6    6    0  503  0.79169902273E+02  0.13869338114E+01  0.12341294682E+03  0.14663066682E+03  0.00000000000E+00 0.  1.
<mgrwt>
<rscale>  0 0.34407401E+04</rscale>
<asrwt>0</asrwt>
<pdfrwt beam="1">  1        1 0.37926343E+00 0.34407401E+04</pdfrwt>
<pdfrwt beam="2">  1       -2 0.18470390E+00 0.34407401E+04</pdfrwt>
<totfact> 0.17389208E-01</totfact>
</mgrwt>
</event>
<event>
12    5  0.5297412E-008  0.2961852E+04  0.7818608E-02  0.8254709E-01
         -2   -1    0    0    0  501 -0.00000000000E+00  0.00000000000E+00  0.55608503961E+03  0.55608503961E+03  0.00000000000E+00 0.  1.
          1   -1    0    0  501    0  0.00000000000E+00 -0.00000000000E+00 -0.39438967070E+04  0.39438967070E+04  0.00000000000E+00 0. -1.
        -24    2    1    2    0    0  0.10678316631E+04  0.35162463130E+02 -0.27636198258E+04  0.29640499986E+04  0.80603926790E+02 0.  0.
        254    2    1    2    0    0 -0.10678316631E+04 -0.35162463130E+02 -0.62419184158E+03  0.15359317480E+04  0.90992857960E+03 0.  0.
         23    2    4    4    0    0  0.98190567788E+02  0.16728626408E+03 -0.92023549376E+02  0.23485387651E+03  0.95194159054E+02 0.  0.
         23    2    4    4    0    0 -0.11660222309E+04 -0.20244872721E+03 -0.53216829220E+03  0.13010778715E+04  0.94906303573E+02 0.  0.
          3    1    3    3  502    0  0.10436329907E+04  0.23830916310E+02 -0.27108620826E+04  0.29049115241E+04  0.00000000000E+00 0. -1.
         -4    1    3    3    0  502  0.24198672345E+02  0.11331546820E+02 -0.52757743165E+02  0.59138474452E+02  0.00000000000E+00 0.  1.
         13    1    5    5    0    0  0.62752353928E+02  0.16761659653E+03 -0.65496669818E+02  0.19058592580E+03  0.00000000000E+00 0. -1.
        -13    1    5    5    0    0  0.35438213860E+02 -0.33033244323E+00 -0.26526879558E+02  0.44267950712E+02  0.00000000000E+00 0.  1.
          4    1    6    6  503    0 -0.10806893102E+04 -0.21104493306E+03 -0.50228501525E+03  0.12102560000E+04  0.00000000000E+00 0. -1.
         -4    1    6    6    0  503 -0.85332920660E+02  0.85962058482E+01 -0.29883276949E+02  0.90821871510E+02  0.00000000000E+00 0.  1.
<mgrwt>
<rscale>  0 0.29618521E+04</rscale>
<asrwt>0</asrwt>
<pdfrwt beam="1">  1        1 0.60675332E+00 0.29618521E+04</pdfrwt>
<pdfrwt beam="2">  1       -2 0.85551548E-01 0.29618521E+04</pdfrwt>
<totfact> 0.95796176E-02</totfact>
</mgrwt>
</event>
<event>
12    5  0.5297412E-008  0.2075350E+04  0.7818608E-02  0.8572180E-01
         -2   -1    0    0    0  501 -0.00000000000E+00  0.00000000000E+00  0.44219704101E+03  0.44219704101E+03  0.00000000000E+00 0.  1.
          1   -1    0    0  501    0  0.00000000000E+00 -0.00000000000E+00 -0.24350451560E+04  0.24350451560E+04  0.00000000000E+00 0. -1.
        -24    2    1    2    0    0  0.28740969107E+03 -0.34247045527E+03 -0.17999195031E+04  0.18563757839E+04  0.80811447957E+02 0.  0.
        254    2    1    2    0    0 -0.28740969107E+03  0.34247045527E+03 -0.19292861188E+03  0.10208664131E+04  0.89724937497E+03 0.  0.
         23    2    4    4    0    0 -0.54552807288E+03 -0.10269937326E+01 -0.17672219227E+03  0.58174519777E+03  0.97953095313E+02 0.  0.
         23    2    4    4    0    0  0.25811838181E+03  0.34349744900E+03 -0.16206419612E+02  0.43912121534E+03  0.89158270631E+02 0.  0.
          3    1    3    3  502    0  0.26565660082E+03 -0.27060407192E+03 -0.15114103724E+04  0.15582558542E+04  0.00000000000E+00 0. -1.
         -4    1    3    3    0  502  0.21753090249E+02 -0.71866383347E+02 -0.28850913069E+03  0.29811992970E+03  0.00000000000E+00 0.  1.
         13    1    5    5    0    0 -0.39008379305E+03  0.16130133450E+02 -0.16824956776E+03  0.42512758539E+03  0.00000000000E+00 0. -1.
        -13    1    5    5    0    0 -0.15544427982E+03 -0.17157127183E+02 -0.84726245059E+01  0.15661761238E+03  0.00000000000E+00 0.  1.
          1    1    6    6  503    0  0.18710062708E+03  0.25123090589E+03  0.28186252872E+02  0.31451244424E+03  0.00000000000E+00 0. -1.
         -1    1    6    6    0  503  0.71017754730E+02  0.92266543111E+02 -0.44392672484E+02  0.12460877110E+03  0.00000000000E+00 0.  1.
<mgrwt>
<rscale>  0 0.20753503E+04</rscale>
<asrwt>0</asrwt>
<pdfrwt beam="1">  1        1 0.37462234E+00 0.20753503E+04</pdfrwt>
<pdfrwt beam="2">  1       -2 0.68030313E-01 0.20753503E+04</pdfrwt>
<totfact> 0.24074392E+00</totfact>
</mgrwt>
</event>
<event>
12    5  0.5297412E-008  0.1498974E+04  0.7818608E-02  0.8885136E-01
         -2   -1    0    0    0  501 -0.00000000000E+00  0.00000000000E+00  0.12751487139E+04  0.12751487139E+04  0.00000000000E+00 0.  1.
          1   -1    0    0  501    0  0.00000000000E+00 -0.00000000000E+00 -0.44052161670E+03  0.44052161670E+03  0.00000000000E+00 0. -1.
        -24    2    1    2    0    0  0.42257848022E+03  0.14195438578E+03  0.42181509350E+03  0.61876117442E+03  0.78827649206E+02 0.  0.
        254    2    1    2    0    0 -0.42257848022E+03 -0.14195438578E+03  0.41281200366E+03  0.10969091561E+04  0.91327560291E+03 0.  0.
         23    2    4    4    0    0  0.11545584692E+03  0.74342590168E+02 -0.19278523808E+03  0.25418673793E+03  0.92670795924E+02 0.  0.
         23    2    4    4    0    0 -0.53803432714E+03 -0.21629697595E+03  0.60559724174E+03  0.84272241820E+03  0.84662482591E+02 0.  0.
          3    1    3    3  502    0  0.19054133450E+03  0.88962364887E+02  0.15515465789E+03  0.26132981151E+03  0.00000000000E+00 0. -1.
         -4    1    3    3    0  502  0.23203714572E+03  0.52992020892E+02  0.26666043561E+03  0.35743136291E+03  0.00000000000E+00 0.  1.
         13    1    5    5    0    0  0.12206125489E+03  0.82861269004E+02 -0.19356733381E+03  0.24337882521E+03  0.00000000000E+00 0.  1.
        -13    1    5    5    0    0 -0.66054079716E+01 -0.85186788364E+01  0.78209572208E+00  0.10807912717E+02  0.00000000000E+00 0. -1.
          3    1    6    6  503    0 -0.51425449347E+02 -0.22339688647E+02  0.27030871445E+02  0.62243927740E+02  0.00000000000E+00 0. -1.
         -3    1    6    6    0  503 -0.48660887779E+03 -0.19395728730E+03  0.57856637029E+03  0.78047849046E+03  0.00000000000E+00 0.  1.
<mgrwt>
<rscale>  0 0.14989737E+04</rscale>
<asrwt>0</asrwt>
<pdfrwt beam="1">  1        1 0.67772557E-01 0.14989737E+04</pdfrwt>
<pdfrwt beam="2">  1       -2 0.19617672E+00 0.14989737E+04</pdfrwt>
<totfact> 0.62771590E+00</totfact>
</mgrwt>
</event>
<event>
12    5  0.5297412E-008  0.1343684E+04  0.7818608E-02  0.8995623E-01
         -2   -1    0    0    0  501 -0.00000000000E+00  0.00000000000E+00  0.84495442716E+03  0.84495442716E+03  0.00000000000E+00 0.  1.
          1   -1    0    0  501    0  0.00000000000E+00 -0.00000000000E+00 -0.53419648846E+03  0.53419648846E+03  0.00000000000E+00 0. -1.
        -24    2    1    2    0    0 -0.16753023923E+03  0.17021519103E+03 -0.20159525976E+03  0.32218245695E+03  0.78238702040E+02 0.  0.
        254    2    1    2    0    0  0.16753023923E+03 -0.17021519103E+03  0.51235319847E+03  0.10569684587E+04  0.89310521795E+03 0.  0.
         23    2    4    4    0    0  0.85706317338E+01 -0.10546250223E+03  0.74113882492E+03  0.75401727144E+03  0.89774677528E+02 0.  0.
         23    2    4    4    0    0  0.15895960750E+03 -0.64752688795E+02 -0.22878562645E+03  0.30295118723E+03  0.99877382094E+02 0.  0.
          3    1    3    3  502    0 -0.13614941229E+03  0.11267037777E+03 -0.18220233367E+03  0.25382861716E+03  0.00000000000E+00 0. -1.
         -4    1    3    3    0  502 -0.31380826936E+02  0.57544813257E+02 -0.19392926093E+02  0.68353839793E+02  0.00000000000E+00 0.  1.
         13    1    5    5    0    0  0.27238171720E+02 -0.32173921612E+02  0.10125722352E+03  0.10968183325E+03  0.00000000000E+00 0. -1.
        -13    1    5    5    0    0 -0.18667539986E+02 -0.73288580620E+02  0.63988160140E+03  0.64433543819E+03  0.00000000000E+00 0.  1.
          1    1    6    6  503    0 -0.41070621344E+01  0.16014877852E+02 -0.16748671442E+02  0.23534278554E+02  0.00000000000E+00 0. -1.
         -1    1    6    6    0  503  0.16306666963E+03 -0.80767566647E+02 -0.21203695501E+03  0.27941690868E+03  0.00000000000E+00 0.  1.
<mgrwt>
<rscale>  0 0.13436840E+04</rscale>
<asrwt>0</asrwt>
<pdfrwt beam="1">  1        1 0.82184075E-01 0.13436840E+04</pdfrwt>
<pdfrwt beam="2">  1       -2 0.12999299E+00 0.13436840E+04</pdfrwt>
<totfact> 0.15031260E+01</totfact>
</mgrwt>
</event>
<event>
12    5  0.5297412E-008  0.1749318E+04  0.7818608E-02  0.8733726E-01
          1   -1    0    0  501    0  0.00000000000E+00  0.00000000000E+00  0.79517725598E+03  0.79517725598E+03  0.00000000000E+00 0. -1.
         -2   -1    0    0    0  501 -0.00000000000E+00 -0.00000000000E+00 -0.96208566938E+03  0.96208566938E+03  0.00000000000E+00 0.  1.
        -24    2    1    2    0    0  0.46031759692E+02  0.60833863026E+03 -0.29072175092E+03  0.67993168356E+03  0.74787337742E+02 0.  0.
        254    2    1    2    0    0 -0.46031759692E+02 -0.60833863026E+03  0.12381333752E+03  0.10773312418E+04  0.87927131766E+03 0.  0.
         23    2    4    4    0    0 -0.15084899956E+03  0.14697805287E+03 -0.13627765585E+03  0.26691867521E+03  0.91192165227E+02 0.  0.
         23    2    4    4    0    0  0.10481723987E+03 -0.75531668313E+03  0.26009099337E+03  0.81041256659E+03  0.87357070008E+02 0.  0.
          3    1    3    3  502    0  0.22394448511E+02  0.42870252610E+03 -0.23982043275E+03  0.49173286160E+03  0.00000000000E+00 0. -1.
         -4    1    3    3    0  502  0.23637311181E+02  0.17963610416E+03 -0.50901318164E+02  0.18819882196E+03  0.00000000000E+00 0.  1.
         13    1    5    5    0    0 -0.14401250318E+03  0.10318034662E+03 -0.13471661274E+03  0.22256313879E+03  0.00000000000E+00 0. -1.
        -13    1    5    5    0    0 -0.68364963812E+01  0.43797706249E+02 -0.15610431091E+01  0.44355536419E+02  0.00000000000E+00 0.  1.
          3    1    6    6  503    0  0.71862163134E+02 -0.69532428519E+03  0.23991526085E+03  0.73905301871E+03  0.00000000000E+00 0. -1.
         -3    1    6    6    0  503  0.32955076732E+02 -0.59992397935E+02  0.20175732513E+02  0.71359547889E+02  0.00000000000E+00 0.  1.
<mgrwt>
<rscale>  0 0.17493183E+04</rscale>
<asrwt>0</asrwt>
<pdfrwt beam="1">  1        1 0.12233496E+00 0.17493183E+04</pdfrwt>
<pdfrwt beam="2">  1       -2 0.14801318E+00 0.17493183E+04</pdfrwt>
<totfact> 0.57504642E+00</totfact>
</mgrwt>
</event>
<event>
12    5  0.5297412E-008  0.1849094E+04  0.7818608E-02  0.8680619E-01
         -2   -1    0    0    0  501 -0.00000000000E+00  0.00000000000E+00  0.34509971577E+03  0.34509971577E+03  0.00000000000E+00 0.  1.
          1   -1    0    0  501    0  0.00000000000E+00 -0.00000000000E+00 -0.24769277765E+04  0.24769277765E+04  0.00000000000E+00 0. -1.
        -24    2    1    2    0    0 -0.34141198988E+03  0.35836614099E+03 -0.53832244750E+02  0.50466255571E+03  0.82449661696E+02 0.  0.
        254    2    1    2    0    0  0.34141198988E+03 -0.35836614099E+03 -0.20779958160E+04  0.23173649366E+04  0.89840146933E+03 0.  0.
         23    2    4    4    0    0 -0.14379383301E+03 -0.48599401788E+03 -0.10779404843E+04  0.11947266888E+04  0.92462540467E+02 0.  0.
         23    2    4    4    0    0  0.48520582289E+03  0.12762787689E+03 -0.10000553317E+04  0.11226382478E+04  0.92154236973E+02 0.  0.
          1    1    3    3  502    0 -0.16481850362E+02  0.14369748843E+01  0.73854381934E+01  0.18117974100E+02  0.00000000000E+00 0. -1.
         -2    1    3    3    0  502 -0.32493013952E+03  0.35692916611E+03 -0.61217682943E+02  0.48654458161E+03  0.00000000000E+00 0.  1.
         13    1    5    5    0    0 -0.14906895614E+03 -0.41159307649E+03 -0.96125021259E+03  0.10562350049E+04  0.00000000000E+00 0.  1.
        -13    1    5    5    0    0  0.52751231302E+01 -0.74400941397E+02 -0.11669027167E+03  0.13849168389E+03  0.00000000000E+00 0. -1.
          3    1    6    6  503    0  0.75158619320E+02 -0.10543980675E+02 -0.12047832752E+03  0.14239038236E+03  0.00000000000E+00 0. -1.
         -3    1    6    6    0  503  0.41004720357E+03  0.13817185757E+03 -0.87957700422E+03  0.98024786545E+03  0.00000000000E+00 0.  1.
<mgrwt>
<rscale>  0 0.18490939E+04</rscale>
<asrwt>0</asrwt>
<pdfrwt beam="1">  1        1 0.38106580E+00 0.18490939E+04</pdfrwt>
<pdfrwt beam="2">  1       -2 0.53092266E-01 0.18490939E+04</pdfrwt>
<totfact> 0.38839522E+00</totfact>
</mgrwt>
</event>
<event>
12    5  0.5297412E-008  0.1350701E+04  0.7818608E-02  0.8990297E-01
          1   -1    0    0  501    0  0.00000000000E+00  0.00000000000E+00  0.10975445944E+04  0.10975445944E+04  0.00000000000E+00 0. -1.
         -2   -1    0    0    0  501 -0.00000000000E+00 -0.00000000000E+00 -0.41556259187E+03  0.41556259187E+03  0.00000000000E+00 0.  1.
        -24    2    1    2    0    0 -0.54144191927E+02 -0.20985016429E+03  0.36460135062E+03  0.43152732628E+03  0.79454411322E+02 0.  0.
        254    2    1    2    0    0  0.54144191927E+02  0.20985016429E+03  0.31738065187E+03  0.10815798600E+04  0.10109974433E+04 0.  0.
         23    2    4    4    0    0 -0.35193500435E+03  0.42740303853E+03  0.21488058802E+03  0.60087500076E+03  0.91353679701E+02 0.  0.
         23    2    4    4    0    0  0.40607919628E+03 -0.21755287425E+03  0.10250006386E+03  0.48070485919E+03  0.91330891882E+02 0.  0.
          1    1    3    3  502    0 -0.91643872314E+01 -0.11511034750E+03  0.12608895861E+03  0.17097603217E+03  0.00000000000E+00 0. -1.
         -2    1    3    3    0  502 -0.44979804695E+02 -0.94739816788E+02  0.23851239201E+03  0.26055129410E+03  0.00000000000E+00 0.  1.
         13    1    5    5    0    0 -0.26050539464E+03  0.32438603344E+03  0.11791058748E+03  0.43242602369E+03  0.00000000000E+00 0.  1.
        -13    1    5    5    0    0 -0.91429609717E+02  0.10301700509E+03  0.96970000535E+02  0.16844897707E+03  0.00000000000E+00 0. -1.
          4    1    6    6  503    0  0.21206733432E+03 -0.74127142018E+02  0.19239217143E+02  0.22547180521E+03  0.00000000000E+00 0. -1.
         -4    1    6    6    0  503  0.19401186196E+03 -0.14342573223E+03  0.83260846715E+02  0.25523305398E+03  0.00000000000E+00 0.  1.
<mgrwt>
<rscale>  0 0.13507013E+04</rscale>
<asrwt>0</asrwt>
<pdfrwt beam="1">  1        1 0.16885301E+00 0.13507013E+04</pdfrwt>
<pdfrwt beam="2">  1       -2 0.63932707E-01 0.13507013E+04</pdfrwt>
<totfact> 0.24722378E+01</totfact>
</mgrwt>
</event>
<event>
12    5  0.5297412E-008  0.2349777E+04  0.7818608E-02  0.8458549E-01
          1   -1    0    0  501    0  0.00000000000E+00  0.00000000000E+00  0.81658711089E+03  0.81658711089E+03  0.00000000000E+00 0. -1.
         -2   -1    0    0    0  501 -0.00000000000E+00 -0.00000000000E+00 -0.16904044107E+04  0.16904044107E+04  0.00000000000E+00 0.  1.
        -24    2    1    2    0    0 -0.65311437512E+03  0.49494208191E+03 -0.98177911645E+03  0.12816115377E+04  0.84331776856E+02 0.  0.
        254    2    1    2    0    0  0.65311437512E+03 -0.49494208191E+03  0.10796181661E+03  0.12253799839E+04  0.90464042568E+03 0.  0.
         23    2    4    4    0    0  0.45422709965E+03  0.92826780081E+02  0.31121428766E+03  0.56594867590E+03  0.92219855543E+02 0.  0.
         23    2    4    4    0    0  0.19888727546E+03 -0.58776886199E+03 -0.20325247105E+03  0.65943130804E+03  0.92248032884E+02 0.  0.
          1    1    3    3  502    0 -0.61440795023E+02  0.49418481918E+02 -0.59682397034E+02  0.98889565495E+02  0.00000000000E+00 0. -1.
         -2    1    3    3    0  502 -0.59167358009E+03  0.44552359999E+03 -0.92209671941E+03  0.11827219722E+04  0.00000000000E+00 0.  1.
         13    1    5    5    0    0  0.25268552242E+03  0.22015548581E+02  0.12599293544E+03  0.28321171833E+03  0.00000000000E+00 0. -1.
        -13    1    5    5    0    0  0.20154157724E+03  0.70811231500E+02  0.18522135222E+03  0.28273695757E+03  0.00000000000E+00 0.  1.
          1    1    6    6  503    0  0.26791977364E+02 -0.29165269716E+02 -0.30309685500E+02  0.49870833598E+02  0.00000000000E+00 0. -1.
         -1    1    6    6    0  503  0.17209529810E+03 -0.55860359228E+03 -0.17294278555E+03  0.60956047444E+03  0.00000000000E+00 0.  1.
<mgrwt>
<rscale>  0 0.23497765E+04</rscale>
<asrwt>0</asrwt>
<pdfrwt beam="1">  1        1 0.12562879E+00 0.23497765E+04</pdfrwt>
<pdfrwt beam="2">  1       -2 0.26006221E+00 0.23497765E+04</pdfrwt>
<totfact> 0.94058746E-01</totfact>
</mgrwt>
</event>
<event>
12    5  0.5297412E-008  0.1498350E+04  0.7818608E-02  0.8885551E-01
         -2   -1    0    0    0  501 -0.00000000000E+00  0.00000000000E+00  0.57047931785E+03  0.57047931785E+03  0.00000000000E+00 0.  1.
          1   -1    0    0  501    0  0.00000000000E+00 -0.00000000000E+00 -0.98384505153E+03  0.98384505153E+03  0.00000000000E+00 0. -1.
        -24    2    1    2    0    0  0.21343724737E+03 -0.53390813081E+01 -0.58055266101E+03  0.62218925979E+03  0.67038186403E+02 0.  0.
        254    2    1    2    0    0 -0.21343724737E+03  0.53390813081E+01  0.16718692733E+03  0.93213510959E+03  0.89181860796E+03 0.  0.
         23    2    4    4    0    0 -0.14386098400E+03 -0.29314515017E+03  0.40910951591E+03  0.53127911818E+03  0.90867175672E+02 0.  0.
         23    2    4    4    0    0 -0.69576263370E+02  0.29848423148E+03 -0.24192258858E+03  0.40085599141E+03  0.90693407250E+02 0.  0.
          1    1    3    3  502    0  0.20515150225E+03 -0.54472007352E+01 -0.48976301443E+03  0.53102224169E+03  0.00000000000E+00 0. -1.
         -2    1    3    3    0  502  0.82857451218E+01  0.10811942715E+00 -0.90789646582E+02  0.91167018096E+02  0.00000000000E+00 0.  1.
         13    1    5    5    0    0 -0.10603353834E+03 -0.17060504078E+03  0.30915644534E+03  0.36868265336E+03  0.00000000000E+00 0.  1.
        -13    1    5    5    0    0 -0.37827445663E+02 -0.12254010939E+03  0.99953070573E+02  0.16259646482E+03  0.00000000000E+00 0. -1.
          4    1    6    6  503    0  0.22359080927E+02  0.59129098942E+02 -0.48639356052E+02  0.79761932015E+02  0.00000000000E+00 0. -1.
         -4    1    6    6    0  503 -0.91935344297E+02  0.23935513254E+03 -0.19328323253E+03  0.32109405940E+03  0.00000000000E+00 0.  1.
<mgrwt>
<rscale>  0 0.14983501E+04</rscale>
<asrwt>0</asrwt>
<pdfrwt beam="1">  1        1 0.15136078E+00 0.14983501E+04</pdfrwt>
<pdfrwt beam="2">  1       -2 0.87766049E-01 0.14983501E+04</pdfrwt>
<totfact> 0.14796831E+01</totfact>
</mgrwt>
</event>
<event>
12    5  0.5297412E-008  0.3208045E+04  0.7818608E-02  0.8186696E-01
          1   -1    0    0  501    0  0.00000000000E+00  0.00000000000E+00  0.18053761143E+04  0.18053761143E+04  0.00000000000E+00 0. -1.
         -2   -1    0    0    0  501 -0.00000000000E+00 -0.00000000000E+00 -0.14251262758E+04  0.14251262758E+04  0.00000000000E+00 0.  1.
        -24    2    1    2    0    0  0.68779636674E+03 -0.10019448558E+04 -0.66167160037E+03  0.13860858899E+04  0.80420465926E+02 0.  0.
        254    2    1    2    0    0 -0.68779636674E+03  0.10019448558E+04  0.10419214388E+04  0.18444165002E+04  0.91614114927E+03 0.  0.
         23    2    4    4    0    0 -0.82194578723E+03  0.10174529664E+04  0.10551010732E+04  0.16828726443E+04  0.89535725644E+02 0.  0.
         23    2    4    4    0    0  0.13414942049E+03 -0.15508110603E+02 -0.13179634372E+02  0.16154385594E+03  0.87670668524E+02 0.  0.
          3    1    3    3  502    0  0.11297062009E+03 -0.18573271857E+03 -0.15146090537E+03  0.26495171184E+03  0.00000000000E+00 0. -1.
         -4    1    3    3    0  502  0.57482574665E+03 -0.81621213720E+03 -0.51021069499E+03  0.11211341781E+04  0.00000000000E+00 0.  1.
         13    1    5    5    0    0 -0.22646433309E+03  0.27048836027E+03  0.23524607242E+03  0.42401740742E+03  0.00000000000E+00 0.  1.
        -13    1    5    5    0    0 -0.59548145415E+03  0.74696460610E+03  0.81985500079E+03  0.12588552368E+04  0.00000000000E+00 0. -1.
          3    1    6    6  503    0 -0.31404718345E+01 -0.12661246823E+02 -0.20199011920E+02  0.24045162029E+02  0.00000000000E+00 0. -1.
         -3    1    6    6    0  503  0.13728989232E+03 -0.28468637800E+01  0.70193775478E+01  0.13749869391E+03  0.00000000000E+00 0.  1.
<mgrwt>
<rscale>  0 0.32080455E+04</rscale>
<asrwt>0</asrwt>
<pdfrwt beam="1">  1        1 0.27775017E+00 0.32080455E+04</pdfrwt>
<pdfrwt beam="2">  1       -2 0.21925020E+00 0.32080455E+04</pdfrwt>
<totfact> 0.29664369E-01</totfact>
</mgrwt>
</event>
<event>
12    5  0.5297412E-008  0.1597793E+04  0.7818608E-02  0.8821905E-01
          1   -1    0    0  501    0  0.00000000000E+00  0.00000000000E+00  0.16716786644E+04  0.16716786644E+04  0.00000000000E+00 0. -1.
         -2   -1    0    0    0  501 -0.00000000000E+00 -0.00000000000E+00 -0.38179310456E+03  0.38179310456E+03  0.00000000000E+00 0.  1.
        -24    2    1    2    0    0  0.41348042136E+03 -0.11155171553E+03  0.13202420290E+02  0.43574037471E+03  0.79281310324E+02 0.  0.
        254    2    1    2    0    0 -0.41348042136E+03  0.11155171553E+03  0.12766831396E+04  0.16177313943E+04  0.89650721194E+03 0.  0.
         23    2    4    4    0    0 -0.64397894106E+03 -0.11149516511E+03  0.83228533087E+03  0.10620240736E+04  0.89756407049E+02 0.  0.
         23    2    4    4    0    0  0.23049851970E+03  0.22304688064E+03  0.44439780871E+03  0.55570732065E+03  0.91878916473E+02 0.  0.
          3    1    3    3  502    0  0.13783186265E+03 -0.51193246764E+02  0.39762680426E+02  0.15231362917E+03  0.00000000000E+00 0. -1.
         -4    1    3    3    0  502  0.27564855871E+03 -0.60358468761E+02 -0.26560260136E+02  0.28342674554E+03  0.00000000000E+00 0.  1.
         13    1    5    5    0    0 -0.60024764871E+03 -0.86275219813E+02  0.79163585178E+03  0.99721009579E+03  0.00000000000E+00 0. -1.
        -13    1    5    5    0    0 -0.43731292353E+02 -0.25219945301E+02  0.40649479086E+02  0.64813977828E+02  0.00000000000E+00 0.  1.
          4    1    6    6  503    0  0.15944717882E+03  0.15159025477E+03  0.22715657481E+03  0.31623269542E+03  0.00000000000E+00 0. -1.
         -4    1    6    6    0  503  0.71051340880E+02  0.71456625869E+02  0.21724123390E+03  0.23947462523E+03  0.00000000000E+00 0.  1.
<mgrwt>
<rscale>  0 0.15977927E+04</rscale>
<asrwt>0</asrwt>
<pdfrwt beam="1">  1        1 0.25718133E+00 0.15977927E+04</pdfrwt>
<pdfrwt beam="2">  1       -2 0.58737402E-01 0.15977927E+04</pdfrwt>
<totfact> 0.11370891E+01</totfact>
</mgrwt>
</event>
<event>
12    5  0.5297412E-008  0.1579123E+04  0.7818608E-02  0.8833477E-01
         -2   -1    0    0    0  501 -0.00000000000E+00  0.00000000000E+00  0.10737009311E+04  0.10737009311E+04  0.00000000000E+00 0.  1.
          1   -1    0    0  501    0  0.00000000000E+00 -0.00000000000E+00 -0.58061564088E+03  0.58061564088E+03  0.00000000000E+00 0. -1.
        -24    2    1    2    0    0 -0.21253337245E+03 -0.18167078448E+03  0.63488135377E+03  0.69840651071E+03  0.80762692545E+02 0.  0.
        254    2    1    2    0    0  0.21253337245E+03  0.18167078448E+03 -0.14179606352E+03  0.95591006129E+03  0.90304109171E+03 0.  0.
         23    2    4    4    0    0 -0.78741688813E+02 -0.10240838608E+03 -0.42460732110E+03  0.45265603008E+03  0.88985242246E+02 0.  0.
         23    2    4    4    0    0  0.29127506126E+03  0.28407917056E+03  0.28281125758E+03  0.50325403121E+03  0.87978838696E+02 0.  0.
          3    1    3    3  502    0 -0.16197158531E+02 -0.22851529968E+02  0.22258811246E+02  0.35777018384E+02  0.00000000000E+00 0. -1.
         -4    1    3    3    0  502 -0.19633621391E+03 -0.15881925451E+03  0.61262254252E+03  0.66262949233E+03  0.00000000000E+00 0.  1.
         13    1    5    5    0    0 -0.77245135540E+02 -0.38325427385E+02 -0.17701867587E+03  0.19690419233E+03  0.00000000000E+00 0. -1.
        -13    1    5    5    0    0 -0.14965532738E+01 -0.64082958692E+02 -0.24758864523E+03  0.25575183775E+03  0.00000000000E+00 0.  1.
          4    1    6    6  503    0  0.27155563217E+03  0.23713501155E+03  0.21979825988E+03  0.42224015692E+03  0.00000000000E+00 0. -1.
         -4    1    6    6    0  503  0.19719429087E+02  0.46944159005E+02  0.63012997706E+02  0.81013874293E+02  0.00000000000E+00 0.  1.
<mgrwt>
<rscale>  0 0.15791232E+04</rscale>
<asrwt>0</asrwt>
<pdfrwt beam="1">  1        1 0.89325483E-01 0.15791232E+04</pdfrwt>
<pdfrwt beam="2">  1       -2 0.16518476E+00 0.15791232E+04</pdfrwt>
<totfact> 0.69651479E+00</totfact>
</mgrwt>
</event>
<event>
12    5  0.5297412E-008  0.1143368E+04  0.7818608E-02  0.9163924E-01
          3   -1    0    0  501    0  0.00000000000E+00  0.00000000000E+00  0.56436948081E+03  0.56436948081E+03  0.00000000000E+00 0. -1.
         -4   -1    0    0    0  501 -0.00000000000E+00 -0.00000000000E+00 -0.57909352907E+03  0.57909352907E+03  0.00000000000E+00 0.  1.
        -24    2    1    2    0    0  0.86313191494E+02  0.96929724084E+02 -0.13390540476E+03  0.20242163023E+03  0.78730683499E+02 0.  0.
        254    2    1    2    0    0 -0.86313191494E+02 -0.96929724084E+02  0.11918135650E+03  0.94104137965E+03  0.92439674601E+03 0.  0.
         23    2    4    4    0    0 -0.40291632319E+03  0.12546714035E+03 -0.15395987796E+03  0.45843690637E+03  0.91526970366E+02 0.  0.
         23    2    4    4    0    0  0.31660313169E+03 -0.22239686443E+03  0.27314123447E+03  0.48260447327E+03  0.92752548997E+02 0.  0.
          3    1    3    3  502    0 -0.11910104481E+02  0.55053412397E+01 -0.39017168048E+00  0.13126751496E+02  0.00000000000E+00 0. -1.
         -4    1    3    3    0  502  0.98223295975E+02  0.91424382845E+02 -0.13351523308E+03  0.18929487873E+03  0.00000000000E+00 0.  1.
         13    1    5    5    0    0 -0.39882400806E+03  0.13478000324E+03 -0.15399619009E+03  0.44826450366E+03  0.00000000000E+00 0. -1.
        -13    1    5    5    0    0 -0.40923151261E+01 -0.93128628938E+01  0.36312126578E-01  0.10172402712E+02  0.00000000000E+00 0.  1.
          3    1    6    6  503    0  0.28750532070E+03 -0.16034148221E+03  0.23080830292E+03  0.40204623247E+03  0.00000000000E+00 0. -1.
         -3    1    6    6    0  503  0.29097810999E+02 -0.62055382219E+02  0.42332931544E+02  0.80558240798E+02  0.00000000000E+00 0.  1.
<mgrwt>
<rscale>  0 0.11433682E+04</rscale>
<asrwt>0</asrwt>
<pdfrwt beam="1">  1        3 0.86826073E-01 0.11433682E+04</pdfrwt>
<pdfrwt beam="2">  1       -4 0.89091313E-01 0.11433682E+04</pdfrwt>
<totfact> 0.29698466E+00</totfact>
</mgrwt>
</event>
<event>
12    5  0.5297412E-008  0.2085016E+04  0.7818608E-02  0.8567873E-01
         -2   -1    0    0    0  501 -0.00000000000E+00  0.00000000000E+00  0.18245441430E+04  0.18245441430E+04  0.00000000000E+00 0.  1.
          1   -1    0    0  501    0  0.00000000000E+00 -0.00000000000E+00 -0.59566827351E+03  0.59566827351E+03  0.00000000000E+00 0. -1.
        -24    2    1    2    0    0 -0.42855143022E+03  0.44961656953E+03 -0.17126218393E+03  0.64805959163E+03  0.69563716939E+02 0.  0.
        254    2    1    2    0    0  0.42855143022E+03 -0.44961656953E+03  0.14001380534E+04  0.17721528248E+04  0.89125062587E+03 0.  0.
         23    2    4    4    0    0  0.33000809077E+02 -0.36900635265E+03  0.79964991878E+02  0.38861807823E+03  0.85877058089E+02 0.  0.
         23    2    4    4    0    0  0.39555062115E+03 -0.80610216879E+02  0.13201730615E+04  0.13835347466E+04  0.91395742719E+02 0.  0.
          1    1    3    3  502    0 -0.30810670929E+03  0.27565551146E+03 -0.11129619800E+03  0.42813846942E+03  0.00000000000E+00 0. -1.
         -2    1    3    3    0  502 -0.12044472094E+03  0.17396105807E+03 -0.59965985928E+02  0.21992112221E+03  0.00000000000E+00 0.  1.
         13    1    5    5    0    0 -0.18112596523E+02 -0.17997448509E+02  0.36910270738E+01  0.25799185772E+02  0.00000000000E+00 0. -1.
        -13    1    5    5    0    0  0.51113405599E+02 -0.35100890414E+03  0.76273964805E+02  0.36281889246E+03  0.00000000000E+00 0.  1.
          1    1    6    6  503    0  0.10201884682E+03 -0.17080147213E+02  0.21996736011E+03  0.24307450720E+03  0.00000000000E+00 0. -1.
         -1    1    6    6    0  503  0.29353177433E+03 -0.63530069666E+02  0.11002057014E+04  0.11404602394E+04  0.00000000000E+00 0.  1.
<mgrwt>
<rscale>  0 0.20850161E+04</rscale>
<asrwt>0</asrwt>
<pdfrwt beam="1">  1        1 0.91641273E-01 0.20850161E+04</pdfrwt>
<pdfrwt beam="2">  1       -2 0.28069910E+00 0.20850161E+04</pdfrwt>
<totfact> 0.11643999E+00</totfact>
</mgrwt>
</event>
<event>
12    5  0.5297412E-008  0.1173899E+04  0.7818608E-02  0.9136014E-01
          1   -1    0    0  501    0  0.00000000000E+00  0.00000000000E+00  0.15158118710E+04  0.15158118710E+04  0.00000000000E+00 0. -1.
         -2   -1    0    0    0  501 -0.00000000000E+00 -0.00000000000E+00 -0.22727745347E+03  0.22727745347E+03  0.00000000000E+00 0.  1.
        -24    2    1    2    0    0 -0.16787659684E+02  0.11344244194E+03  0.54804240598E+03  0.56549162950E+03  0.79241978359E+02 0.  0.
        254    2    1    2    0    0  0.16787659684E+02 -0.11344244194E+03  0.74049201154E+03  0.11775976950E+04  0.90843651339E+03 0.  0.
         23    2    4    4    0    0  0.13356181758E+03  0.28554720725E+03  0.66812251095E+03  0.74438977101E+03  0.91391875246E+02 0.  0.
         23    2    4    4    0    0 -0.11677415790E+03 -0.39898964919E+03  0.72369500591E+02  0.43320792394E+03  0.97993962247E+02 0.  0.
          3    1    3    3  502    0 -0.48269236287E+02  0.71234417834E+02  0.36660179491E+03  0.37656491803E+03  0.00000000000E+00 0. -1.
         -4    1    3    3    0  502  0.31481576603E+02  0.42208024105E+02  0.18144061107E+03  0.18892671148E+03  0.00000000000E+00 0.  1.
         13    1    5    5    0    0  0.34305552622E+02  0.17715755540E+03  0.34218858676E+03  0.38685229647E+03  0.00000000000E+00 0.  1.
        -13    1    5    5    0    0  0.99256264959E+02  0.10838965186E+03  0.32593392420E+03  0.35753747455E+03  0.00000000000E+00 0. -1.
          4    1    6    6  503    0 -0.37026498630E+02 -0.82354118955E+02  0.56049566452E+02  0.10627660330E+03  0.00000000000E+00 0. -1.
         -4    1    6    6    0  503 -0.79747659266E+02 -0.31663553024E+03  0.16319934139E+02  0.32693132064E+03  0.00000000000E+00 0.  1.
<mgrwt>
<rscale>  0 0.11738992E+04</rscale>
<asrwt>0</asrwt>
<pdfrwt beam="1">  1        1 0.23320182E+00 0.11738992E+04</pdfrwt>
<pdfrwt beam="2">  1       -2 0.34965763E-01 0.11738992E+04</pdfrwt>
<totfact> 0.42592062E+01</totfact>
</mgrwt>
</event>
<event>
12    5  0.5297412E-008  0.1411410E+04  0.7818608E-02  0.8945601E-01
         -2   -1    0    0    0  501 -0.00000000000E+00  0.00000000000E+00  0.56764521403E+03  0.56764521403E+03  0.00000000000E+00 0.  1.
          1   -1    0    0  501    0  0.00000000000E+00 -0.00000000000E+00 -0.87734254714E+03  0.87734254714E+03  0.00000000000E+00 0. -1.
        -24    2    1    2    0    0  0.31890196631E+01 -0.29182711516E+03 -0.32120067754E+03  0.44119379823E+03  0.79428315846E+02 0.  0.
        254    2    1    2    0    0 -0.31890196631E+01  0.29182711516E+03  0.11503344438E+02  0.10037939629E+04  0.96036282628E+03 0.  0.
         23    2    4    4    0    0  0.15085031766E+03  0.51371369364E+03 -0.26722998641E+03  0.60548293181E+03  0.92412865484E+02 0.  0.
         23    2    4    4    0    0 -0.15403933732E+03 -0.22188657848E+03  0.27873333084E+03  0.39831103112E+03  0.89429506532E+02 0.  0.
          1    1    3    3  502    0 -0.10809135676E+02 -0.22247277218E+03 -0.28501524686E+03  0.36172456748E+03  0.00000000000E+00 0. -1.
         -2    1    3    3    0  502  0.13998155339E+02 -0.69354342980E+02 -0.36185430681E+02  0.79469230754E+02  0.00000000000E+00 0.  1.
         13    1    5    5    0    0  0.15727947724E+03  0.45287445000E+03 -0.25531498663E+03  0.54315545088E+03  0.00000000000E+00 0. -1.
        -13    1    5    5    0    0 -0.64291595750E+01  0.60839243642E+02 -0.11914999779E+02  0.62327480933E+02  0.00000000000E+00 0.  1.
          2    1    6    6  503    0 -0.74936566163E+01 -0.79870236976E+02  0.86170967421E+02  0.11773209108E+03  0.00000000000E+00 0.  1.
         -2    1    6    6    0  503 -0.14654568071E+03 -0.14201634151E+03  0.19256236342E+03  0.28057894004E+03  0.00000000000E+00 0. -1.
<mgrwt>
<rscale>  0 0.14114096E+04</rscale>
<asrwt>0</asrwt>
<pdfrwt beam="1">  1        1 0.13497578E+00 0.14114096E+04</pdfrwt>
<pdfrwt beam="2">  1       -2 0.87330033E-01 0.14114096E+04</pdfrwt>
<totfact> 0.18372258E+01</totfact>
</mgrwt>
</event>
<event>
12    5  0.5297412E-008  0.1411718E+04  0.7818608E-02  0.8945380E-01
          1   -1    0    0  501    0  0.00000000000E+00  0.00000000000E+00  0.14777300797E+04  0.14777300797E+04  0.00000000000E+00 0. -1.
         -2   -1    0    0    0  501 -0.00000000000E+00 -0.00000000000E+00 -0.33716364323E+03  0.33716364323E+03  0.00000000000E+00 0.  1.
        -24    2    1    2    0    0  0.35658149790E+02 -0.27813052436E+03 -0.59368807791E+02  0.29745176190E+03  0.79528630632E+02 0.  0.
        254    2    1    2    0    0 -0.35658149790E+02  0.27813052436E+03  0.11999352443E+04  0.15174419610E+04  0.88552663565E+03 0.  0.
         23    2    4    4    0    0 -0.44777210534E+03  0.12900623360E+03  0.70566334007E+03  0.85044544670E+03  0.90300839698E+02 0.  0.
         23    2    4    4    0    0  0.41211395555E+03  0.14912429076E+03  0.49427190418E+03  0.66699651433E+03  0.92215337162E+02 0.  0.
          3    1    3    3  502    0 -0.66373510055E+01 -0.45263621866E+02 -0.38615944763E+02  0.59866861307E+02  0.00000000000E+00 0. -1.
         -4    1    3    3    0  502  0.42295500795E+02 -0.23286690250E+03 -0.20752863028E+02  0.23758490059E+03  0.00000000000E+00 0.  1.
         13    1    5    5    0    0 -0.24664090645E+03  0.24707398907E+02  0.35593226716E+03  0.43373951987E+03  0.00000000000E+00 0. -1.
        -13    1    5    5    0    0 -0.20113119890E+03  0.10429883470E+03  0.34973107292E+03  0.41670592683E+03  0.00000000000E+00 0.  1.
          3    1    6    6  503    0  0.14708593593E+00  0.13013023775E+02  0.22940414098E+02  0.26374666273E+02  0.00000000000E+00 0. -1.
         -3    1    6    6    0  503  0.41196686962E+03  0.13611126698E+03  0.47133149008E+03  0.64062184806E+03  0.00000000000E+00 0.  1.
<mgrwt>
<rscale>  0 0.14117179E+04</rscale>
<asrwt>0</asrwt>
<pdfrwt beam="1">  1        1 0.22734309E+00 0.14117179E+04</pdfrwt>
<pdfrwt beam="2">  1       -2 0.51871331E-01 0.14117179E+04</pdfrwt>
<totfact> 0.20335518E+01</totfact>
</mgrwt>
</event>
<event>
12    5  0.5297412E-008  0.2006892E+04  0.7818608E-02  0.8603405E-01
          1   -1    0    0  501    0  0.00000000000E+00  0.00000000000E+00  0.86224941959E+03  0.86224941959E+03  0.00000000000E+00 0. -1.
         -2   -1    0    0    0  501 -0.00000000000E+00 -0.00000000000E+00 -0.11677643028E+04  0.11677643028E+04  0.00000000000E+00 0.  1.
        -24    2    1    2    0    0  0.49600589598E+03 -0.54620055621E+02  0.50543658935E+03  0.71467436854E+03  0.79297590558E+02 0.  0.
        254    2    1    2    0    0 -0.49600589598E+03  0.54620055621E+02 -0.81095147254E+03  0.13153393538E+04  0.90745254730E+03 0.  0.
         23    2    4    4    0    0 -0.90296638739E+02 -0.39391802487E+03 -0.41237958747E+03  0.58551648868E+03  0.97199491131E+02 0.  0.
         23    2    4    4    0    0 -0.40570925725E+03  0.44853808049E+03 -0.39857188507E+03  0.72982286515E+03  0.89417312994E+02 0.  0.
          1    1    3    3  502    0  0.35620784640E+03 -0.70407673425E+02  0.38817146179E+03  0.53152455640E+03  0.00000000000E+00 0. -1.
         -2    1    3    3    0  502  0.13979804959E+03  0.15787617804E+02  0.11726512756E+03  0.18314981214E+03  0.00000000000E+00 0.  1.
         13    1    5    5    0    0 -0.72560896363E+02 -0.38436856556E+03 -0.40736799388E+03  0.56475920560E+03  0.00000000000E+00 0.  1.
        -13    1    5    5    0    0 -0.17735742376E+02 -0.95494593058E+01 -0.50115935880E+01  0.20757283082E+02  0.00000000000E+00 0. -1.
          2    1    6    6  503    0 -0.27031258934E+03  0.25753099615E+03 -0.20431928914E+03  0.42560249276E+03  0.00000000000E+00 0.  1.
         -2    1    6    6    0  503 -0.13539666791E+03  0.19100708434E+03 -0.19425259593E+03  0.30422037239E+03  0.00000000000E+00 0. -1.
<mgrwt>
<rscale>  0 0.20068922E+04</rscale>
<asrwt>0</asrwt>
<pdfrwt beam="1">  1        1 0.13265376E+00 0.20068922E+04</pdfrwt>
<pdfrwt beam="2">  1       -2 0.17965605E+00 0.20068922E+04</pdfrwt>
<totfact> 0.28960111E+00</totfact>
</mgrwt>
</event>
<event>
12    5  0.5297412E-008  0.2561259E+04  0.7818608E-02  0.8381481E-01
         -2   -1    0    0    0  501 -0.00000000000E+00  0.00000000000E+00  0.11421393063E+04  0.11421393063E+04  0.00000000000E+00 0.  1.
          1   -1    0    0  501    0  0.00000000000E+00 -0.00000000000E+00 -0.14359128117E+04  0.14359128117E+04  0.00000000000E+00 0. -1.
        -24    2    1    2    0    0 -0.26976874213E+02 -0.12859355082E+03 -0.12380147627E+04  0.12481068447E+04  0.88465191356E+02 0.  0.
        254    2    1    2    0    0  0.26976874213E+02  0.12859355082E+03  0.94424125734E+03  0.13299452733E+04  0.92730729794E+03 0.  0.
         23    2    4    4    0    0 -0.32594951098E+03 -0.20972623647E+03  0.61743458483E+03  0.73498082408E+03  0.93504904912E+02 0.  0.
         23    2    4    4    0    0  0.35292638520E+03  0.33831978729E+03  0.32680667251E+03  0.59496444921E+03  0.90348119982E+02 0.  0.
          1    1    3    3  502    0 -0.43913397786E+02 -0.12920250387E+03 -0.11733323507E+04  0.11812410756E+04  0.00000000000E+00 0. -1.
         -2    1    3    3    0  502  0.16936523573E+02  0.60895304255E+00 -0.64682412009E+02  0.66865769104E+02  0.00000000000E+00 0.  1.
         13    1    5    5    0    0 -0.27865358256E+03 -0.17683002311E+03  0.45097616942E+03  0.55883466386E+03  0.00000000000E+00 0.  1.
        -13    1    5    5    0    0 -0.47295928428E+02 -0.32896213358E+02  0.16645841541E+03  0.17614616022E+03  0.00000000000E+00 0. -1.
          1    1    6    6  503    0  0.91563248045E+02  0.51877483351E+02  0.10296774799E+03  0.14723266892E+03  0.00000000000E+00 0. -1.
         -1    1    6    6    0  503  0.26136313715E+03  0.28644230394E+03  0.22383892451E+03  0.44773178028E+03  0.00000000000E+00 0.  1.
<mgrwt>
<rscale>  0 0.25612594E+04</rscale>
<asrwt>0</asrwt>
<pdfrwt beam="1">  1        1 0.22090966E+00 0.25612594E+04</pdfrwt>
<pdfrwt beam="2">  1       -2 0.17571374E+00 0.25612594E+04</pdfrwt>
<totfact> 0.10925736E+00</totfact>
</mgrwt>
</event>
<event>
12    5  0.5297412E-008  0.2108652E+04  0.7818608E-02  0.8557442E-01
         -4   -1    0    0    0  501 -0.00000000000E+00  0.00000000000E+00  0.11763191120E+04  0.11763191120E+04  0.00000000000E+00 0.  1.
          3   -1    0    0  501    0  0.00000000000E+00 -0.00000000000E+00 -0.94498411810E+03  0.94498411810E+03  0.00000000000E+00 0. -1.
        -24    2    1    2    0    0  0.36180805382E+03  0.38091121383E+02  0.87884968423E+03  0.95467416381E+03  0.81670008292E+02 0.  0.
        254    2    1    2    0    0 -0.36180805382E+03 -0.38091121383E+02 -0.64751469034E+03  0.11666290663E+04  0.89966221592E+03 0.  0.
         23    2    4    4    0    0 -0.34257280493E+02 -0.38764006189E+03 -0.53003624456E+03  0.66484771872E+03  0.98212472226E+02 0.  0.
         23    2    4    4    0    0 -0.32755077332E+03  0.34954894051E+03 -0.11747844578E+03  0.50178134755E+03  0.92246217357E+02 0.  0.
          3    1    3    3  502    0  0.50990584482E+02  0.10793291820E+02  0.66683035777E+02  0.84635466056E+02  0.00000000000E+00 0. -1.
         -4    1    3    3    0  502  0.31081746934E+03  0.27297829563E+02  0.81216664845E+03  0.87003869776E+03  0.00000000000E+00 0.  1.
         13    1    5    5    0    0 -0.15524789155E+02 -0.37576367962E+03 -0.51632100934E+03  0.63876971334E+03  0.00000000000E+00 0.  1.
        -13    1    5    5    0    0 -0.18732491339E+02 -0.11876382268E+02 -0.13715235218E+02  0.26078005381E+02  0.00000000000E+00 0. -1.
          2    1    6    6  503    0 -0.12404573124E+03  0.81748400045E+02 -0.61582249351E+02  0.16081827566E+03  0.00000000000E+00 0. -1.
         -2    1    6    6    0  503 -0.20350504208E+03  0.26780054046E+03 -0.55896196429E+02  0.34096307190E+03  0.00000000000E+00 0.  1.
<mgrwt>
<rscale>  0 0.21086516E+04</rscale>
<asrwt>0</asrwt>
<pdfrwt beam="1">  1        3 0.14538217E+00 0.21086516E+04</pdfrwt>
<pdfrwt beam="2">  1       -4 0.18097217E+00 0.21086516E+04</pdfrwt>
<totfact> 0.13061113E-01</totfact>
</mgrwt>
</event>
<event>
12    5  0.5297412E-008  0.1555817E+04  0.7818608E-02  0.8848160E-01
          1   -1    0    0  501    0  0.00000000000E+00  0.00000000000E+00  0.82331742423E+03  0.82331742423E+03  0.00000000000E+00 0. -1.
         -2   -1    0    0    0  501 -0.00000000000E+00 -0.00000000000E+00 -0.73500442025E+03  0.73500442025E+03  0.00000000000E+00 0.  1.
        -24    2    1    2    0    0  0.36786557132E+03 -0.30541196894E+03 -0.16170047690E+03  0.51080777765E+03  0.78587480844E+02 0.  0.
        254    2    1    2    0    0 -0.36786557132E+03  0.30541196894E+03  0.25001348087E+03  0.10475140668E+04  0.89787383872E+03 0.  0.
         23    2    4    4    0    0 -0.42396219497E+03  0.45169096935E+03 -0.11879827198E+03  0.63762989094E+03  0.93221101929E+02 0.  0.
         23    2    4    4    0    0  0.56096623642E+02 -0.14627900040E+03  0.36881175285E+03  0.40988417589E+03  0.86247037429E+02 0.  0.
          1    1    3    3  502    0  0.11131681144E+03 -0.50610633447E+02 -0.52697528892E+02  0.13315366416E+03  0.00000000000E+00 0. -1.
         -2    1    3    3    0  502  0.25654875988E+03 -0.25480133549E+03 -0.10900294800E+03  0.37765411350E+03  0.00000000000E+00 0.  1.
         13    1    5    5    0    0 -0.35932172395E+03  0.36182824647E+03 -0.13035768220E+03  0.52633155573E+03  0.00000000000E+00 0.  1.
        -13    1    5    5    0    0 -0.64640471019E+02  0.89862722874E+02  0.11559410228E+02  0.11129833521E+03  0.00000000000E+00 0. -1.
          1    1    6    6  503    0  0.44908139964E+02 -0.60193374774E+02  0.86626138136E+02  0.11464759574E+03  0.00000000000E+00 0. -1.
         -1    1    6    6    0  503  0.11188483679E+02 -0.86085625631E+02  0.28218561471E+03  0.29523658015E+03  0.00000000000E+00 0.  1.
<mgrwt>
<rscale>  0 0.15558174E+04</rscale>
<asrwt>0</asrwt>
<pdfrwt beam="1">  1        1 0.12666422E+00 0.15558174E+04</pdfrwt>
<pdfrwt beam="2">  1       -2 0.11307760E+00 0.15558174E+04</pdfrwt>
<totfact> 0.10938910E+01</totfact>
</mgrwt>
</event>
<event>
12    5  0.5297412E-008  0.1608367E+04  0.7818608E-02  0.8815424E-01
          1   -1    0    0  501    0  0.00000000000E+00  0.00000000000E+00  0.25663376104E+04  0.25663376104E+04  0.00000000000E+00 0. -1.
         -2   -1    0    0    0  501 -0.00000000000E+00 -0.00000000000E+00 -0.25199763547E+03  0.25199763547E+03  0.00000000000E+00 0.  1.
        -24    2    1    2    0    0 -0.15575876056E+03  0.11545305227E+03 -0.10163396678E+03  0.23347873055E+03  0.81195170098E+02 0.  0.
        254    2    1    2    0    0  0.15575876056E+03 -0.11545305227E+03  0.24159739417E+04  0.25848565153E+04  0.89831114823E+03 0.  0.
         23    2    4    4    0    0 -0.14824269527E+03  0.17807234357E+02  0.21306538474E+04  0.21378815640E+04  0.92513619910E+02 0.  0.
         23    2    4    4    0    0  0.30400145582E+03 -0.13326028663E+03  0.28532009432E+03  0.44697495136E+03  0.90575172004E+02 0.  0.
          3    1    3    3  502    0 -0.59361507713E+02  0.47539690810E+02 -0.85553616267E+02  0.11446934986E+03  0.00000000000E+00 0. -1.
         -4    1    3    3    0  502 -0.96397252842E+02  0.67913361463E+02 -0.16080350515E+02  0.11900938070E+03  0.00000000000E+00 0.  1.
         13    1    5    5    0    0 -0.15375797722E+03  0.26076450020E+01  0.17050682370E+04  0.17119889042E+04  0.00000000000E+00 0.  1.
        -13    1    5    5    0    0  0.55152819522E+01  0.15199589355E+02  0.42558561040E+03  0.42589265975E+03  0.00000000000E+00 0. -1.
          1    1    6    6  503    0  0.90114338835E+02 -0.86673119924E+02  0.97858036943E+02  0.15877348385E+03  0.00000000000E+00 0. -1.
         -1    1    6    6    0  503  0.21388711699E+03 -0.46587166707E+02  0.18746205738E+03  0.28820146750E+03  0.00000000000E+00 0.  1.
<mgrwt>
<rscale>  0 0.16083669E+04</rscale>
<asrwt>0</asrwt>
<pdfrwt beam="1">  1        1 0.39482115E+00 0.16083669E+04</pdfrwt>
<pdfrwt beam="2">  1       -2 0.38768869E-01 0.16083669E+04</pdfrwt>
<totfact> 0.64630855E+00</totfact>
</mgrwt>
</event>
<event>
12    5  0.5297412E-008  0.1141003E+04  0.7818608E-02  0.9166124E-01
          1   -1    0    0  501    0  0.00000000000E+00  0.00000000000E+00  0.15970995861E+03  0.15970995861E+03  0.00000000000E+00 0. -1.
         -2   -1    0    0    0  501 -0.00000000000E+00 -0.00000000000E+00 -0.20378945608E+04  0.20378945608E+04  0.00000000000E+00 0.  1.
        -24    2    1    2    0    0 -0.57240451420E+02  0.68173503094E+02 -0.64090564640E+03  0.65180521489E+03  0.78523211682E+02 0.  0.
        254    2    1    2    0    0  0.57240451420E+02 -0.68173503094E+02 -0.12372789558E+04  0.15457993046E+04  0.92234059849E+03 0.  0.
         23    2    4    4    0    0  0.54499049982E+02  0.35411959357E+03 -0.19537319816E+03  0.41771783313E+03  0.89144088734E+02 0.  0.
         23    2    4    4    0    0  0.27414014386E+01 -0.42229309666E+03 -0.10419057577E+04  0.11280814714E+04  0.93065694815E+02 0.  0.
          1    1    3    3  502    0 -0.31596096096E+02  0.71668846790E+02 -0.30473432005E+03  0.31463906736E+03  0.00000000000E+00 0. -1.
         -4    1    3    3    0  502 -0.25644355324E+02 -0.34953436958E+01 -0.33617132635E+03  0.33716614754E+03  0.00000000000E+00 0.  1.
         13    1    5    5    0    0  0.34060827686E+02  0.11567478703E+03 -0.11118935700E+03  0.16402399046E+03  0.00000000000E+00 0. -1.
        -13    1    5    5    0    0  0.20438222295E+02  0.23844480653E+03 -0.84183841168E+02  0.25369384267E+03  0.00000000000E+00 0.  1.
          2    1    6    6  503    0  0.18466584735E+02 -0.90347968517E+02 -0.14771965916E+03  0.17414036829E+03  0.00000000000E+00 0. -1.
         -2    1    6    6    0  503 -0.15725183297E+02 -0.33194512815E+03 -0.89418609850E+03  0.95394110313E+03  0.00000000000E+00 0.  1.
<mgrwt>
<rscale>  0 0.11410032E+04</rscale>
<asrwt>0</asrwt>
<pdfrwt beam="1">  1        1 0.24570763E-01 0.11410032E+04</pdfrwt>
<pdfrwt beam="2">  1       -2 0.31352224E+00 0.11410032E+04</pdfrwt>
<totfact> 0.45936053E+00</totfact>
</mgrwt>
</event>
<event>
12    5  0.5297412E-008  0.1609502E+04  0.7818608E-02  0.8814732E-01
         -2   -1    0    0    0  501 -0.00000000000E+00  0.00000000000E+00  0.61492404967E+03  0.61492404967E+03  0.00000000000E+00 0.  1.
          1   -1    0    0  501    0  0.00000000000E+00 -0.00000000000E+00 -0.10531775962E+04  0.10531775962E+04  0.00000000000E+00 0. -1.
        -24    2    1    2    0    0 -0.20816410630E+03  0.25696691117E+03  0.30836194553E+03  0.45911389789E+03  0.79587644751E+02 0.  0.
        254    2    1    2    0    0  0.20816410630E+03 -0.25696691117E+03 -0.74661549210E+03  0.12089877480E+04  0.89154494739E+03 0.  0.
         23    2    4    4    0    0 -0.53206483060E+02  0.30500402505E+03 -0.21065663452E+03  0.38548264676E+03  0.91445438093E+02 0.  0.
         23    2    4    4    0    0  0.26137058936E+03 -0.56197093622E+03 -0.53595885758E+03  0.82350510125E+03  0.82357978580E+02 0.  0.
          3    1    3    3  502    0 -0.41229877033E+02  0.12001350994E+02  0.29266542882E+02  0.51966005408E+02  0.00000000000E+00 0. -1.
         -4    1    3    3    0  502 -0.16693422927E+03  0.24496556017E+03  0.27909540265E+03  0.40714789248E+03  0.00000000000E+00 0.  1.
         13    1    5    5    0    0 -0.34632758644E+02  0.53441682096E+02 -0.77300645730E+02  0.10015403730E+03  0.00000000000E+00 0. -1.
        -13    1    5    5    0    0 -0.18573724416E+02  0.25156234295E+03 -0.13335598879E+03  0.28532860946E+03  0.00000000000E+00 0.  1.
          3    1    6    6  503    0  0.85466768019E+01 -0.18066288008E+02 -0.41926648256E+02  0.46446531418E+02  0.00000000000E+00 0. -1.
         -3    1    6    6    0  503  0.25282391256E+03 -0.54390464821E+03 -0.49403220933E+03  0.77705856984E+03  0.00000000000E+00 0.  1.
<mgrwt>
<rscale>  0 0.16095021E+04</rscale>
<asrwt>0</asrwt>
<pdfrwt beam="1">  1        1 0.16202732E+00 0.16095021E+04</pdfrwt>
<pdfrwt beam="2">  1       -2 0.94603701E-01 0.16095021E+04</pdfrwt>
<totfact> 0.10888312E+01</totfact>
</mgrwt>
</event>
<event>
12    5  0.5297412E-008  0.1734063E+04  0.7818608E-02  0.8742172E-01
          3   -1    0    0  501    0  0.00000000000E+00  0.00000000000E+00  0.15269239375E+04  0.15269239375E+04  0.00000000000E+00 0. -1.
         -4   -1    0    0    0  501 -0.00000000000E+00 -0.00000000000E+00 -0.49232574585E+03  0.49232574585E+03  0.00000000000E+00 0.  1.
        -24    2    1    2    0    0 -0.16742781219E+03 -0.50486393615E+03  0.77966884920E+03  0.94811447372E+03  0.90099248313E+02 0.  0.
        254    2    1    2    0    0  0.16742781219E+03  0.50486393615E+03  0.25492934242E+03  0.10711352096E+04  0.89410402151E+03 0.  0.
         23    2    4    4    0    0 -0.32130242644E+03  0.28287248167E+03  0.28943378722E+03  0.52508337062E+03  0.93212331762E+02 0.  0.
         23    2    4    4    0    0  0.48873023864E+03  0.22199145448E+03 -0.34504444797E+02  0.54605183897E+03  0.94045744799E+02 0.  0.
          3    1    3    3  502    0 -0.15743881869E+03 -0.50051399341E+03  0.74110182447E+03  0.90803807930E+03  0.00000000000E+00 0. -1.
         -2    1    3    3    0  502 -0.99889935075E+01 -0.43499427384E+01  0.38567024730E+02  0.40076394419E+02  0.00000000000E+00 0.  1.
         13    1    5    5    0    0 -0.29359439673E+03  0.23461839960E+03  0.27996406894E+03  0.46863988640E+03  0.00000000000E+00 0. -1.
        -13    1    5    5    0    0 -0.27708029714E+02  0.48254082066E+02  0.94697182717E+01  0.56443484220E+02  0.00000000000E+00 0.  1.
          4    1    6    6  503    0  0.37364681112E+03  0.17406577362E+03 -0.66045114088E+02  0.41745992634E+03  0.00000000000E+00 0. -1.
         -4    1    6    6    0  503  0.11508342751E+03  0.47925680861E+02  0.31540669291E+02  0.12859191263E+03  0.00000000000E+00 0.  1.
<mgrwt>
<rscale>  0 0.17340634E+04</rscale>
<asrwt>0</asrwt>
<pdfrwt beam="1">  1        3 0.23491137E+00 0.17340634E+04</pdfrwt>
<pdfrwt beam="2">  1       -4 0.75742423E-01 0.17340634E+04</pdfrwt>
<totfact> 0.30902157E-01</totfact>
</mgrwt>
</event>
<event>
12    5  0.5297412E-008  0.1932617E+04  0.7818608E-02  0.8638789E-01
         -2   -1    0    0    0  501 -0.00000000000E+00  0.00000000000E+00  0.62704791035E+03  0.62704791035E+03  0.00000000000E+00 0.  1.
          1   -1    0    0  501    0  0.00000000000E+00 -0.00000000000E+00 -0.14891242171E+04  0.14891242171E+04  0.00000000000E+00 0. -1.
        -24    2    1    2    0    0  0.72253396816E+03  0.45365542576E+02 -0.11846454746E+03  0.73838508777E+03  0.84055465254E+02 0.  0.
        254    2    1    2    0    0 -0.72253396816E+03 -0.45365542576E+02 -0.74361175927E+03  0.13777870397E+04  0.90621482582E+03 0.  0.
         23    2    4    4    0    0 -0.23027846601E+03 -0.22486300795E+03 -0.77608325117E+03  0.84495391195E+03  0.89723777933E+02 0.  0.
         23    2    4    4    0    0 -0.49225550216E+03  0.17949746537E+03  0.32471491902E+02  0.53283312771E+03  0.91224583971E+02 0.  0.
          1    1    3    3  502    0  0.39865361384E+03  0.31792306509E+02 -0.23555987360E+02  0.40061245502E+03  0.00000000000E+00 0. -1.
         -2    1    3    3    0  502  0.32388035432E+03  0.13573236067E+02 -0.94908560098E+02  0.33777263275E+03  0.00000000000E+00 0.  1.
         13    1    5    5    0    0 -0.12536403814E+03 -0.12319272453E+03 -0.53422193734E+03  0.56239280558E+03  0.00000000000E+00 0. -1.
        -13    1    5    5    0    0 -0.10491442786E+03 -0.10167028342E+03 -0.24186131383E+03  0.28256110636E+03  0.00000000000E+00 0.  1.
          4    1    6    6  503    0 -0.40740679951E+03  0.13878606904E+03  0.60521439257E+02  0.43463170369E+03  0.00000000000E+00 0. -1.
         -4    1    6    6    0  503 -0.84848702649E+02  0.40711396333E+02 -0.28049947355E+02  0.98201424018E+02  0.00000000000E+00 0.  1.
<mgrwt>
<rscale>  0 0.19326171E+04</rscale>
<asrwt>0</asrwt>
<pdfrwt beam="1">  1        1 0.22909603E+00 0.19326171E+04</pdfrwt>
<pdfrwt beam="2">  1       -2 0.96468909E-01 0.19326171E+04</pdfrwt>
<totfact> 0.49007549E+00</totfact>
</mgrwt>
</event>
<event>
12    5  0.5297412E-008  0.1869815E+04  0.7818608E-02  0.8670029E-01
         -2   -1    0    0    0  501 -0.00000000000E+00  0.00000000000E+00  0.24894128674E+03  0.24894128674E+03  0.00000000000E+00 0.  1.
          1   -1    0    0  501    0  0.00000000000E+00 -0.00000000000E+00 -0.35110772361E+04  0.35110772361E+04  0.00000000000E+00 0. -1.
        -24    2    1    2    0    0  0.45842533944E+03  0.42615831329E+03 -0.56066457186E+03  0.84444840354E+03  0.83568201338E+02 0.  0.
        254    2    1    2    0    0 -0.45842533944E+03 -0.42615831329E+03 -0.27014713775E+04  0.29155701193E+04  0.90046477847E+03 0.  0.
         23    2    4    4    0    0 -0.31449420001E+03 -0.64869592981E+03 -0.23827428174E+04  0.24911965361E+04  0.94254106702E+02 0.  0.
         23    2    4    4    0    0 -0.14393113943E+03  0.22253761651E+03 -0.31872856014E+03  0.42437358319E+03  0.90916881835E+02 0.  0.
          1    1    3    3  502    0  0.20577914654E+03  0.15637219362E+03 -0.18818051392E+03  0.31970177652E+03  0.00000000000E+00 0. -1.
         -2    1    3    3    0  502  0.25264619290E+03  0.26978611967E+03 -0.37248405794E+03  0.52474662703E+03  0.00000000000E+00 0.  1.
         13    1    5    5    0    0 -0.32085692639E+03 -0.62599065239E+03 -0.23008979131E+04  0.24060225831E+04  0.00000000000E+00 0.  1.
        -13    1    5    5    0    0  0.63627263783E+01 -0.22705277419E+02 -0.81844904303E+02  0.85173953002E+02  0.00000000000E+00 0. -1.
          1    1    6    6  503    0 -0.56055230632E+02  0.28066914415E+02 -0.10536375070E+03  0.12260285693E+03  0.00000000000E+00 0. -1.
         -1    1    6    6    0  503 -0.87875908796E+02  0.19447070210E+03 -0.21336480944E+03  0.30177072626E+03  0.00000000000E+00 0.  1.
<mgrwt>
<rscale>  0 0.18698151E+04</rscale>
<asrwt>0</asrwt>
<pdfrwt beam="1">  1        1 0.54016576E+00 0.18698151E+04</pdfrwt>
<pdfrwt beam="2">  1       -2 0.38298657E-01 0.18698151E+04</pdfrwt>
<totfact> 0.13068578E+00</totfact>
</mgrwt>
</event>
<event>
12    5  0.5297412E-008  0.2000010E+04  0.7818608E-02  0.8606616E-01
         -2   -1    0    0    0  501 -0.00000000000E+00  0.00000000000E+00  0.29465801043E+03  0.29465801043E+03  0.00000000000E+00 0.  1.
          1   -1    0    0  501    0  0.00000000000E+00 -0.00000000000E+00 -0.33937983976E+04  0.33937983976E+04  0.00000000000E+00 0. -1.
        -24    2    1    2    0    0  0.56029869956E+03 -0.33477461471E+03 -0.20704172921E+04  0.21723066282E+04  0.79244230926E+02 0.  0.
        254    2    1    2    0    0 -0.56029869956E+03  0.33477461471E+03 -0.10287230951E+04  0.15161497798E+04  0.90245790657E+03 0.  0.
         23    2    4    4    0    0 -0.76777646568E+03  0.93242301516E+02 -0.77103824177E+03  0.10959060858E+04  0.91298140787E+02 0.  0.
         23    2    4    4    0    0  0.20747776612E+03  0.24153231319E+03 -0.25768485330E+03  0.42024369405E+03  0.93906320434E+02 0.  0.
          1    1    3    3  502    0  0.44692166122E+03 -0.26505761274E+03 -0.17450986452E+04  0.18208140462E+04  0.00000000000E+00 0. -1.
         -2    1    3    3    0  502  0.11337703834E+03 -0.69717001973E+02 -0.32531864683E+03  0.35149258194E+03  0.00000000000E+00 0.  1.
         13    1    5    5    0    0 -0.37408905391E+03  0.91090650890E+02 -0.37363721829E+03  0.53651178722E+03  0.00000000000E+00 0. -1.
        -13    1    5    5    0    0 -0.39368741176E+03  0.21516506258E+01 -0.39740102348E+03  0.55939429855E+03  0.00000000000E+00 0.  1.
          2    1    6    6  503    0  0.17578916728E+03  0.15030504691E+03 -0.15036060773E+03  0.27586545782E+03  0.00000000000E+00 0. -1.
         -2    1    6    6    0  503  0.31688598838E+02  0.91227266282E+02 -0.10732424558E+03  0.14437823623E+03  0.00000000000E+00 0.  1.
<mgrwt>
<rscale>  0 0.20000099E+04</rscale>
<asrwt>0</asrwt>
<pdfrwt beam="1">  1        1 0.52212283E+00 0.20000099E+04</pdfrwt>
<pdfrwt beam="2">  1       -2 0.45332002E-01 0.20000099E+04</pdfrwt>
<totfact> 0.11421358E+00</totfact>
</mgrwt>
</event>
<event>
12    5  0.5297412E-008  0.2126617E+04  0.7818608E-02  0.8549608E-01
         -4   -1    0    0    0  501 -0.00000000000E+00  0.00000000000E+00  0.28172310803E+04  0.28172310803E+04  0.00000000000E+00 0.  1.
          1   -1    0    0  501    0  0.00000000000E+00 -0.00000000000E+00 -0.40132491756E+03  0.40132491756E+03  0.00000000000E+00 0. -1.
        -24    2    1    2    0    0 -0.12771775781E+03 -0.42167146449E+02 -0.30873341117E+03  0.34551905238E+03  0.77312369576E+02 0.  0.
        254    2    1    2    0    0  0.12771775781E+03  0.42167146449E+02  0.27246395739E+04  0.28730369454E+04  0.90143806691E+03 0.  0.
         23    2    4    4    0    0  0.26066974894E+03  0.40528487821E+03  0.18211705838E+04  0.18860048435E+04  0.90263082877E+02 0.  0.
         23    2    4    4    0    0 -0.13295199113E+03 -0.36311773176E+03  0.90346899009E+03  0.98703210190E+03  0.91899048217E+02 0.  0.
          3    1    3    3  502    0 -0.41417046327E+02 -0.53236813810E+02 -0.11898858519E+03  0.13677650923E+03  0.00000000000E+00 0. -1.
         -4    1    3    3    0  502 -0.86300711482E+02  0.11069667361E+02 -0.18974482598E+03  0.20874254316E+03  0.00000000000E+00 0.  1.
         13    1    5    5    0    0  0.14947030794E+03  0.26517035757E+03  0.12937065296E+04  0.13290347160E+04  0.00000000000E+00 0.  1.
        -13    1    5    5    0    0  0.11119944100E+03  0.14011452064E+03  0.52746405417E+03  0.55697012758E+03  0.00000000000E+00 0. -1.
          2    1    6    6  503    0 -0.64580806750E+02 -0.17102503889E+03  0.54227366717E+03  0.57225953433E+03  0.00000000000E+00 0. -1.
         -2    1    6    6    0  503 -0.68371184378E+02 -0.19209269287E+03  0.36119532292E+03  0.41477256756E+03  0.00000000000E+00 0.  1.
<mgrwt>
<rscale>  0 0.21266171E+04</rscale>
<asrwt>0</asrwt>
<pdfrwt beam="1">  1        1 0.61742297E-01 0.21266171E+04</pdfrwt>
<pdfrwt beam="2">  1       -4 0.43342015E+00 0.21266171E+04</pdfrwt>
<totfact> 0.10234207E-01</totfact>
</mgrwt>
</event>
<event>
12    5  0.5297412E-008  0.2577337E+04  0.7818608E-02  0.8375940E-01
         -2   -1    0    0    0  501 -0.00000000000E+00  0.00000000000E+00  0.13057742588E+04  0.13057742588E+04  0.00000000000E+00 0.  1.
          1   -1    0    0  501    0  0.00000000000E+00 -0.00000000000E+00 -0.12717871210E+04  0.12717871210E+04  0.00000000000E+00 0. -1.
        -24    2    1    2    0    0 -0.51990298401E+03  0.19657619822E+03 -0.96019922738E+03  0.11122856089E+04  0.79091118910E+02 0.  0.
        254    2    1    2    0    0  0.51990298401E+03 -0.19657619822E+03  0.99418636516E+03  0.14652757708E+04  0.92178372807E+03 0.  0.
         23    2    4    4    0    0  0.63225113406E+03 -0.44071379428E+03  0.60486943849E+03  0.98385180012E+03  0.90150884524E+02 0.  0.
         23    2    4    4    0    0 -0.11234815005E+03  0.24413759607E+03  0.38931692667E+03  0.48142397069E+03  0.89309000261E+02 0.  0.
          3    1    3    3  502    0 -0.24395124618E+03  0.12611236099E+03 -0.42456206607E+03  0.50563770237E+03  0.00000000000E+00 0. -1.
         -4    1    3    3    0  502 -0.27595173783E+03  0.70463837232E+02 -0.53563716131E+03  0.60664790657E+03  0.00000000000E+00 0.  1.
         13    1    5    5    0    0  0.10126441416E+03 -0.77652908530E+02  0.60717447560E+02  0.14131901577E+03  0.00000000000E+00 0. -1.
        -13    1    5    5    0    0  0.53098671990E+03 -0.36306088575E+03  0.54415199093E+03  0.84253278435E+03  0.00000000000E+00 0.  1.
          3    1    6    6  503    0 -0.10896042388E+03  0.17259441399E+03  0.23480145977E+03  0.31111562356E+03  0.00000000000E+00 0. -1.
         -3    1    6    6    0  503 -0.33877261702E+01  0.71543182076E+02  0.15451546690E+03  0.17030834713E+03  0.00000000000E+00 0.  1.
<mgrwt>
<rscale>  0 0.25773373E+04</rscale>
<asrwt>0</asrwt>
<pdfrwt beam="1">  1        1 0.19565956E+00 0.25773373E+04</pdfrwt>
<pdfrwt beam="2">  1       -2 0.20088835E+00 0.25773373E+04</pdfrwt>
<totfact> 0.96322803E-01</totfact>
</mgrwt>
</event>
<event>
12    5  0.5297412E-008  0.1558027E+04  0.7818608E-02  0.8846757E-01
          1   -1    0    0  501    0  0.00000000000E+00  0.00000000000E+00  0.11252841695E+04  0.11252841695E+04  0.00000000000E+00 0. -1.
         -2   -1    0    0    0  501 -0.00000000000E+00 -0.00000000000E+00 -0.53929638226E+03  0.53929638226E+03  0.00000000000E+00 0.  1.
        -24    2    1    2    0    0  0.43144197507E+03  0.15792357060E+03  0.46380965585E+03  0.65710926286E+03  0.74774022707E+02 0.  0.
        254    2    1    2    0    0 -0.43144197507E+03 -0.15792357060E+03  0.12217813140E+03  0.10074712889E+04  0.88825045465E+03 0.  0.
         23    2    4    4    0    0 -0.42887733226E+03  0.29819109453E+03  0.11302994741E+03  0.54230654047E+03  0.92015867348E+02 0.  0.
         23    2    4    4    0    0 -0.25646428022E+01 -0.45611466512E+03  0.91481839903E+01  0.46516474844E+03  0.90815135218E+02 0.  0.
          3    1    3    3  502    0  0.40323833603E+03  0.14330650374E+03  0.45390853181E+03  0.62383560728E+03  0.00000000000E+00 0. -1.
         -4    1    3    3    0  502  0.28203639032E+02  0.14617066857E+02  0.99011240441E+01  0.33273655577E+02  0.00000000000E+00 0.  1.
         13    1    5    5    0    0 -0.11453817898E+03  0.33554966290E+02  0.30687860959E+02  0.12323422827E+03  0.00000000000E+00 0.  1.
        -13    1    5    5    0    0 -0.31433915328E+03  0.26463612824E+03  0.82342086453E+02  0.41907231220E+03  0.00000000000E+00 0. -1.
          2    1    6    6  503    0  0.31200311179E+02 -0.33016421688E+03  0.30482938487E+02  0.33303315010E+03  0.00000000000E+00 0. -1.
         -2    1    6    6    0  503 -0.33764953981E+02 -0.12595044824E+03 -0.21334754497E+02  0.13213159834E+03  0.00000000000E+00 0.  1.
<mgrwt>
<rscale>  0 0.15580265E+04</rscale>
<asrwt>0</asrwt>
<pdfrwt beam="1">  1        1 0.17312064E+00 0.15580265E+04</pdfrwt>
<pdfrwt beam="2">  1       -2 0.82968674E-01 0.15580265E+04</pdfrwt>
<totfact> 0.13045011E+01</totfact>
</mgrwt>
</event>
<event>
12    5  0.5297412E-008  0.1557243E+04  0.7818608E-02  0.8847255E-01
         -2   -1    0    0    0  501 -0.00000000000E+00  0.00000000000E+00  0.25163582721E+03  0.25163582721E+03  0.00000000000E+00 0.  1.
          1   -1    0    0  501    0  0.00000000000E+00 -0.00000000000E+00 -0.24092408620E+04  0.24092408620E+04  0.00000000000E+00 0. -1.
        -24    2    1    2    0    0 -0.15260767832E+02 -0.32307390823E+03 -0.14064392703E+04  0.14442155036E+04  0.55473945980E+02 0.  0.
        254    2    1    2    0    0  0.15260767832E+02  0.32307390823E+03 -0.75116576449E+03  0.12166611856E+04  0.90078010275E+03 0.  0.
         23    2    4    4    0    0 -0.25763372776E+03 -0.21499827897E+03 -0.29452651925E+03  0.45471107457E+03  0.86121386179E+02 0.  0.
         23    2    4    4    0    0  0.27289449559E+03  0.53807218720E+03 -0.45663924524E+03  0.76195011100E+03  0.89752364827E+02 0.  0.
          3    1    3    3  502    0 -0.85070237585E+01 -0.31728290747E+03 -0.13867590168E+04  0.14226177925E+04  0.00000000000E+00 0. -1.
         -2    1    3    3    0  502 -0.67537440737E+01 -0.57910007619E+01 -0.19680253445E+02  0.21597711094E+02  0.00000000000E+00 0.  1.
         13    1    5    5    0    0 -0.18534040696E+02  0.18444462422E+00  0.53304452594E-01  0.18535035088E+02  0.00000000000E+00 0. -1.
        -13    1    5    5    0    0 -0.23909968706E+03 -0.21518272359E+03 -0.29457982370E+03  0.43617603948E+03  0.00000000000E+00 0.  1.
          3    1    6    6  503    0  0.32512213512E+02  0.35025389384E+02 -0.64718276736E+02  0.80450464713E+02  0.00000000000E+00 0. -1.
         -3    1    6    6    0  503  0.24038228208E+03  0.50304679782E+03 -0.39192096850E+03  0.68149964628E+03  0.00000000000E+00 0.  1.
<mgrwt>
<rscale>  0 0.15572428E+04</rscale>
<asrwt>0</asrwt>
<pdfrwt beam="1">  1        1 0.37065244E+00 0.15572428E+04</pdfrwt>
<pdfrwt beam="2">  1       -2 0.38713204E-01 0.15572428E+04</pdfrwt>
<totfact> 0.83605284E+00</totfact>
</mgrwt>
</event>
<event>
12    5  0.5297412E-008  0.1363323E+04  0.7818608E-02  0.8980803E-01
          1   -1    0    0  501    0  0.00000000000E+00  0.00000000000E+00  0.13752797230E+04  0.13752797230E+04  0.00000000000E+00 0. -1.
         -2   -1    0    0    0  501 -0.00000000000E+00 -0.00000000000E+00 -0.33786779135E+03  0.33786779135E+03  0.00000000000E+00 0.  1.
        -24    2    1    2    0    0  0.34308679675E+03 -0.44461073123E+02  0.44509832601E+03  0.56985026197E+03  0.83255415032E+02 0.  0.
        254    2    1    2    0    0 -0.34308679675E+03  0.44461073123E+02  0.59231360569E+03  0.11432972524E+04  0.91466270438E+03 0.  0.
         23    2    4    4    0    0 -0.34711467096E+02  0.42779607830E+03  0.43759605504E+03  0.61970653376E+03  0.91277105790E+02 0.  0.
         23    2    4    4    0    0 -0.30837532965E+03 -0.38333500518E+03  0.15471755065E+03  0.52359071866E+03  0.90380584513E+02 0.  0.
          3    1    3    3  502    0  0.15498373911E+03 -0.56235715747E+01  0.26217816483E+03  0.30461282649E+03  0.00000000000E+00 0. -1.
         -4    1    3    3    0  502  0.18810305764E+03 -0.38837501548E+02  0.18292016117E+03  0.26523743549E+03  0.00000000000E+00 0.  1.
         13    1    5    5    0    0 -0.91786423249E+01  0.38247180176E+03  0.35393082342E+03  0.52118706276E+03  0.00000000000E+00 0. -1.
        -13    1    5    5    0    0 -0.25532824771E+02  0.45324276536E+02  0.83665231626E+02  0.98519471006E+02  0.00000000000E+00 0.  1.
          1    1    6    6  503    0 -0.28107922043E+03 -0.31553342424E+03  0.15611560195E+03  0.45048745947E+03  0.00000000000E+00 0. -1.
         -1    1    6    6    0  503 -0.27296109221E+02 -0.67801580935E+02 -0.13980513064E+01  0.73103259184E+02  0.00000000000E+00 0.  1.
<mgrwt>
<rscale>  0 0.13633235E+04</rscale>
<asrwt>0</asrwt>
<pdfrwt beam="1">  1        1 0.21158149E+00 0.13633235E+04</pdfrwt>
<pdfrwt beam="2">  1       -2 0.51979661E-01 0.13633235E+04</pdfrwt>
<totfact> 0.23972714E+01</totfact>
</mgrwt>
</event>
<event>
12    5  0.5297412E-008  0.1370501E+04  0.7818608E-02  0.8975452E-01
         -2   -1    0    0    0  501 -0.00000000000E+00  0.00000000000E+00  0.64291983112E+03  0.64291983112E+03  0.00000000000E+00 0.  1.
          1   -1    0    0  501    0  0.00000000000E+00 -0.00000000000E+00 -0.73036860320E+03  0.73036860320E+03  0.00000000000E+00 0. -1.
        -24    2    1    2    0    0 -0.21292788454E+03 -0.18123796464E+03 -0.24985910451E+03  0.38304407910E+03  0.78151843151E+02 0.  0.
        254    2    1    2    0    0  0.21292788454E+03  0.18123796464E+03  0.16241033243E+03  0.99024435522E+03  0.93596008629E+03 0.  0.
         23    2    4    4    0    0  0.27085157528E+03 -0.64629830136E+02  0.48763908828E+03  0.56884508096E+03  0.90858433525E+02 0.  0.
         23    2    4    4    0    0 -0.57923690740E+02  0.24586779477E+03 -0.32522875584E+03  0.42139927426E+03  0.89428621059E+02 0.  0.
          3    1    3    3  502    0 -0.11248651511E+03 -0.12267589560E+03 -0.18890136472E+03  0.25176639378E+03  0.00000000000E+00 0. -1.
         -4    1    3    3    0  502 -0.10044136944E+03 -0.58562069031E+02 -0.60957739785E+02  0.13127768532E+03  0.00000000000E+00 0.  1.
         13    1    5    5    0    0  0.23096177492E+03 -0.83138512798E+02  0.44120199023E+03  0.50489063169E+03  0.00000000000E+00 0. -1.
        -13    1    5    5    0    0  0.39889800359E+02  0.18508682662E+02  0.46437098046E+02  0.63954449271E+02  0.00000000000E+00 0.  1.
          4    1    6    6  503    0  0.75594705639E+01  0.14118770405E+03 -0.14148846438E+03  0.20002524571E+03  0.00000000000E+00 0. -1.
         -4    1    6    6    0  503 -0.65483161303E+02  0.10468009072E+03 -0.18374029147E+03  0.22137402855E+03  0.00000000000E+00 0.  1.
<mgrwt>
<rscale>  0 0.13705013E+04</rscale>
<asrwt>0</asrwt>
<pdfrwt beam="1">  1        1 0.11236440E+00 0.13705013E+04</pdfrwt>
<pdfrwt beam="2">  1       -2 0.98910743E-01 0.13705013E+04</pdfrwt>
<totfact> 0.18519739E+01</totfact>
</mgrwt>
</event>
<event>
12    5  0.5297412E-008  0.1365066E+04  0.7818608E-02  0.8979501E-01
          1   -1    0    0  501    0  0.00000000000E+00  0.00000000000E+00  0.23721390452E+04  0.23721390452E+04  0.00000000000E+00 0. -1.
         -2   -1    0    0    0  501 -0.00000000000E+00 -0.00000000000E+00 -0.19638446998E+03  0.19638446998E+03  0.00000000000E+00 0.  1.
        -24    2    1    2    0    0  0.15400521599E+03 -0.30723054762E+03  0.32886758783E+03  0.48176365123E+03  0.76381341837E+02 0.  0.
        254    2    1    2    0    0 -0.15400521599E+03  0.30723054762E+03  0.18468869874E+04  0.20867598640E+04  0.90855212820E+03 0.  0.
         23    2    4    4    0    0 -0.41851747106E+03 -0.10736203303E+02  0.14258792521E+04  0.14888686075E+04  0.91246640053E+02 0.  0.
         23    2    4    4    0    0  0.26451225507E+03  0.31796675092E+03  0.42100773531E+03  0.59789125642E+03  0.95691449692E+02 0.  0.
          3    1    3    3  502    0  0.84028681241E+01 -0.19585665567E+02  0.54161280255E+02  0.58203528822E+02  0.00000000000E+00 0. -1.
         -4    1    3    3    0  502  0.14560234787E+03 -0.28764488205E+03  0.27470630757E+03  0.42356012241E+03  0.00000000000E+00 0.  1.
         13    1    5    5    0    0 -0.39514752556E+03 -0.84278525055E+01  0.13959636868E+04  0.14508367277E+04  0.00000000000E+00 0. -1.
        -13    1    5    5    0    0 -0.23369945491E+02 -0.23083507975E+01  0.29915565335E+02  0.38031879851E+02  0.00000000000E+00 0.  1.
          3    1    6    6  503    0  0.21270263524E+03  0.26000984196E+03  0.28190794073E+03  0.43854260454E+03  0.00000000000E+00 0. -1.
         -3    1    6    6    0  503  0.51809619821E+02  0.57956908963E+02  0.13909979458E+03  0.15934865188E+03  0.00000000000E+00 0.  1.
<mgrwt>
<rscale>  0 0.13650660E+04</rscale>
<asrwt>0</asrwt>
<pdfrwt beam="1">  1        1 0.36494445E+00 0.13650660E+04</pdfrwt>
<pdfrwt beam="2">  1       -2 0.30212997E-01 0.13650660E+04</pdfrwt>
<totfact> 0.14467541E+01</totfact>
</mgrwt>
</event>
<event>
12    5  0.5297412E-008  0.3193979E+04  0.7818608E-02  0.8190409E-01
         -2   -1    0    0    0  501 -0.00000000000E+00  0.00000000000E+00  0.18290055210E+04  0.18290055210E+04  0.00000000000E+00 0.  1.
          1   -1    0    0  501    0  0.00000000000E+00 -0.00000000000E+00 -0.13944052872E+04  0.13944052872E+04  0.00000000000E+00 0. -1.
        -24    2    1    2    0    0 -0.16890834937E+03  0.14243976917E+04 -0.68208146950E+02  0.14381531910E+04  0.78698379534E+02 0.  0.
        254    2    1    2    0    0  0.16890834937E+03 -0.14243976917E+04  0.50280838077E+03  0.17852576172E+04  0.93642387704E+03 0.  0.
         23    2    4    4    0    0 -0.36385753451E+03 -0.69928284867E+03  0.35622774002E+03  0.86923286086E+03  0.85315624425E+02 0.  0.
         23    2    4    4    0    0  0.53276588388E+03 -0.72511484300E+03  0.14658064075E+03  0.91602475635E+03  0.89355735311E+02 0.  0.
          3    1    3    3  502    0 -0.14594299012E+03  0.11037628114E+04 -0.82137979750E+02  0.11163952472E+04  0.00000000000E+00 0. -1.
         -4    1    3    3    0  502 -0.22965359247E+02  0.32063488025E+03  0.13929832800E+02  0.32175794380E+03  0.00000000000E+00 0.  1.
         13    1    5    5    0    0 -0.33839135899E+03 -0.58608499580E+03  0.29922165525E+03  0.73995806173E+03  0.00000000000E+00 0.  1.
        -13    1    5    5    0    0 -0.25466175520E+02 -0.11319785287E+03  0.57006084765E+02  0.12927479913E+03  0.00000000000E+00 0. -1.
          2    1    6    6  503    0  0.31917456090E+03 -0.35924603857E+03  0.75117909312E+02  0.48638751717E+03  0.00000000000E+00 0. -1.
         -2    1    6    6    0  503  0.21359132297E+03 -0.36586880443E+03  0.71462731439E+02  0.42963723918E+03  0.00000000000E+00 0.  1.
<mgrwt>
<rscale>  0 0.31939787E+04</rscale>
<asrwt>0</asrwt>
<pdfrwt beam="1">  1        1 0.21452389E+00 0.31939787E+04</pdfrwt>
<pdfrwt beam="2">  1       -2 0.28138547E+00 0.31939787E+04</pdfrwt>
<totfact> 0.23535696E-01</totfact>
</mgrwt>
</event>
<event>
12    5  0.5297412E-008  0.1025403E+04  0.7818608E-02  0.9281114E-01
          1   -1    0    0  501    0  0.00000000000E+00  0.00000000000E+00  0.40001476433E+03  0.40001476433E+03  0.00000000000E+00 0. -1.
         -2   -1    0    0    0  501 -0.00000000000E+00 -0.00000000000E+00 -0.65713275253E+03  0.65713275253E+03  0.00000000000E+00 0.  1.
        -24    2    1    2    0    0  0.68405576695E+02  0.37117119533E+02 -0.22553709136E+02  0.11371426089E+03  0.79782578609E+02 0.  0.
        254    2    1    2    0    0 -0.68405576695E+02 -0.37117119533E+02 -0.23456427907E+03  0.94343325597E+03  0.91048827777E+03 0.  0.
         23    2    4    4    0    0  0.11397393484E+03  0.10106456196E+03 -0.52966850450E+03  0.55876578983E+03  0.92012932354E+02 0.  0.
         23    2    4    4    0    0 -0.18237951154E+03 -0.13818168149E+03  0.29510422543E+03  0.38466746613E+03  0.92336841540E+02 0.  0.
          3    1    3    3  502    0  0.19559534279E+02 -0.25437929205E+02 -0.64074210990E+01  0.32721837793E+02  0.00000000000E+00 0. -1.
         -4    1    3    3    0  502  0.48846042416E+02  0.62555048738E+02 -0.16146288037E+02  0.80992423101E+02  0.00000000000E+00 0.  1.
         13    1    5    5    0    0  0.93478977114E+02  0.46180818437E+02 -0.43593058308E+03  0.44822590334E+03  0.00000000000E+00 0. -1.
        -13    1    5    5    0    0  0.20494957728E+02  0.54883743521E+02 -0.93737921418E+02  0.11053988650E+03  0.00000000000E+00 0.  1.
          3    1    6    6  503    0 -0.17821062080E+03 -0.13348150871E+03  0.30208523791E+03  0.37527567134E+03  0.00000000000E+00 0. -1.
         -3    1    6    6    0  503 -0.41688907322E+01 -0.47001727825E+01 -0.69810124831E+01  0.93917947918E+01  0.00000000000E+00 0.  1.
<mgrwt>
<rscale>  0 0.10254030E+04</rscale>
<asrwt>0</asrwt>
<pdfrwt beam="1">  1        1 0.61540734E-01 0.10254030E+04</pdfrwt>
<pdfrwt beam="2">  1       -2 0.10109735E+00 0.10254030E+04</pdfrwt>
<totfact> 0.42240094E+01</totfact>
</mgrwt>
</event>
<event>
12    5  0.5297412E-008  0.1781250E+04  0.7818608E-02  0.8716335E-01
          3   -1    0    0  501    0  0.00000000000E+00  0.00000000000E+00  0.53829432920E+03  0.53829432920E+03  0.00000000000E+00 0. -1.
         -2   -1    0    0    0  501 -0.00000000000E+00 -0.00000000000E+00 -0.14735671429E+04  0.14735671429E+04  0.00000000000E+00 0.  1.
        -24    2    1    2    0    0  0.15577868894E+03  0.60485901667E+03 -0.11526439154E+03  0.64002780969E+03  0.78919498529E+02 0.  0.
        254    2    1    2    0    0 -0.15577868894E+03 -0.60485901667E+03 -0.82000842214E+03  0.13718336624E+04  0.90520293575E+03 0.  0.
         23    2    4    4    0    0  0.21564383552E+03 -0.14404202121E+03 -0.70770300450E+03  0.76076046012E+03  0.10325970864E+03 0.  0.
         23    2    4    4    0    0 -0.37142252446E+03 -0.46081699546E+03 -0.11230541764E+03  0.61107320227E+03  0.10242537146E+03 0.  0.
          3    1    3    3  502    0  0.16313555077E+02  0.12421739756E+02  0.37519106592E+00  0.20507863520E+02  0.00000000000E+00 0. -1.
         -4    1    3    3    0  502  0.13946513386E+03  0.59243727691E+03 -0.11563958261E+03  0.61951994617E+03  0.00000000000E+00 0.  1.
         13    1    5    5    0    0  0.70690228399E+02  0.43154207563E+01 -0.20772529210E+03  0.21946646265E+03  0.00000000000E+00 0.  1.
        -13    1    5    5    0    0  0.14495360712E+03 -0.14835744197E+03 -0.49997771240E+03  0.54129399748E+03  0.00000000000E+00 0. -1.
          1    1    6    6  503    0 -0.25191221994E+02 -0.60536028840E+02 -0.40271084515E+02  0.76947831037E+02  0.00000000000E+00 0. -1.
         -1    1    6    6    0  503 -0.34623130246E+03 -0.40028096662E+03 -0.72034333125E+02  0.53412537123E+03  0.00000000000E+00 0.  1.
<mgrwt>
<rscale>  0 0.17812499E+04</rscale>
<asrwt>0</asrwt>
<pdfrwt beam="1">  1        3 0.82814513E-01 0.17812499E+04</pdfrwt>
<pdfrwt beam="2">  1       -2 0.22670264E+00 0.17812499E+04</pdfrwt>
<totfact> 0.47741248E-01</totfact>
</mgrwt>
</event>
<event>
12    5  0.5297412E-008  0.3392102E+04  0.7818608E-02  0.8139847E-01
          1   -1    0    0  501    0  0.00000000000E+00  0.00000000000E+00  0.35920065259E+04  0.35920065259E+04  0.00000000000E+00 0. -1.
         -2   -1    0    0    0  501 -0.00000000000E+00 -0.00000000000E+00 -0.80083066693E+03  0.80083066693E+03  0.00000000000E+00 0.  1.
        -24    2    1    2    0    0  0.91530991947E+03  0.12677430883E+04  0.15385383474E+04  0.21950865578E+04  0.79623886510E+02 0.  0.
        254    2    1    2    0    0 -0.91530991947E+03 -0.12677430883E+04  0.12526375116E+04  0.21977506350E+04  0.90335061378E+03 0.  0.
         23    2    4    4    0    0 -0.23793908137E+03 -0.18725895051E+03 -0.10164668736E+03  0.33542889136E+03  0.10246741492E+03 0.  0.
         23    2    4    4    0    0 -0.67737083810E+03 -0.10804841378E+04  0.13542841989E+04  0.18623217436E+04  0.88765763881E+02 0.  0.
          3    1    3    3  502    0  0.35899126759E+03  0.53307076594E+03  0.67875959381E+03  0.93474796490E+03  0.00000000000E+00 0. -1.
         -4    1    3    3    0  502  0.55631865188E+03  0.73467232241E+03  0.85977875356E+03  0.12603385929E+04  0.00000000000E+00 0.  1.
         13    1    5    5    0    0 -0.23247404523E+03 -0.14772907470E+03 -0.10632265925E+03  0.29525001115E+03  0.00000000000E+00 0. -1.
        -13    1    5    5    0    0 -0.54650361400E+01 -0.39529875815E+02  0.46759718894E+01  0.40178880212E+02  0.00000000000E+00 0.  1.
          1    1    6    6  503    0 -0.59941473132E+03 -0.89742660869E+03  0.11545469209E+04  0.15803958778E+04  0.00000000000E+00 0. -1.
         -1    1    6    6    0  503 -0.77956106774E+02 -0.18305752914E+03  0.19973727802E+03  0.28192586576E+03  0.00000000000E+00 0.  1.
<mgrwt>
<rscale>  0 0.33921020E+04</rscale>
<asrwt>0</asrwt>
<pdfrwt beam="1">  1        1 0.55261638E+00 0.33921020E+04</pdfrwt>
<pdfrwt beam="2">  1       -2 0.12320472E+00 0.33921020E+04</pdfrwt>
<totfact> 0.75997171E-02</totfact>
</mgrwt>
</event>
<event>
12    5  0.5297412E-008  0.1708976E+04  0.7818608E-02  0.8756262E-01
         -2   -1    0    0    0  501 -0.00000000000E+00  0.00000000000E+00  0.10589212593E+04  0.10589212593E+04  0.00000000000E+00 0.  1.
          1   -1    0    0  501    0  0.00000000000E+00 -0.00000000000E+00 -0.68952211260E+03  0.68952211260E+03  0.00000000000E+00 0. -1.
        -24    2    1    2    0    0  0.49077343645E+03  0.15262695413E+03 -0.20748196083E+03  0.56007852175E+03  0.80533430333E+02 0.  0.
        254    2    1    2    0    0 -0.49077343645E+03 -0.15262695413E+03  0.57688110758E+03  0.11883648502E+04  0.90292062322E+03 0.  0.
         23    2    4    4    0    0 -0.10286654823E+03  0.35361252744E+03  0.11741528528E+03  0.39698831272E+03  0.90498756419E+02 0.  0.
         23    2    4    4    0    0 -0.38790688822E+03 -0.50623948157E+03  0.45946582230E+03  0.79137653748E+03  0.91748654365E+02 0.  0.
          3    1    3    3  502    0  0.26949653345E+03  0.98164891747E+02 -0.15583369024E+03  0.32641823865E+03  0.00000000000E+00 0. -1.
         -4    1    3    3    0  502  0.22127690300E+03  0.54462062387E+02 -0.51648270598E+02  0.23366028310E+03  0.00000000000E+00 0.  1.
         13    1    5    5    0    0 -0.49386983142E+02  0.29595116631E+03  0.84339433608E+02  0.31167179373E+03  0.00000000000E+00 0. -1.
        -13    1    5    5    0    0 -0.53479565087E+02  0.57661361124E+02  0.33075851670E+02  0.85316518988E+02  0.00000000000E+00 0.  1.
          3    1    6    6  503    0 -0.38640976473E+03 -0.50880314356E+03  0.46116978035E+03  0.78795349576E+03  0.00000000000E+00 0. -1.
         -3    1    6    6    0  503 -0.14971234964E+01  0.25636619927E+01 -0.17039580471E+01  0.34230417179E+01  0.00000000000E+00 0.  1.
<mgrwt>
<rscale>  0 0.17089759E+04</rscale>
<asrwt>0</asrwt>
<pdfrwt beam="1">  1        1 0.10608033E+00 0.17089759E+04</pdfrwt>
<pdfrwt beam="2">  1       -2 0.16291096E+00 0.17089759E+04</pdfrwt>
<totfact> 0.55615358E+00</totfact>
</mgrwt>
</event>
<event>
12    5  0.5297412E-008  0.1335268E+04  0.7818608E-02  0.9002056E-01
          1   -1    0    0  501    0  0.00000000000E+00  0.00000000000E+00  0.83125559798E+03  0.83125559798E+03  0.00000000000E+00 0. -1.
         -2   -1    0    0    0  501 -0.00000000000E+00 -0.00000000000E+00 -0.53621884985E+03  0.53621884985E+03  0.00000000000E+00 0.  1.
        -24    2    1    2    0    0 -0.26090548076E+03 -0.22699403379E+03  0.15670707489E+03  0.38795268121E+03  0.79700779613E+02 0.  0.
        254    2    1    2    0    0  0.26090548076E+03  0.22699403379E+03  0.13832967324E+03  0.97952176661E+03  0.90594140622E+03 0.  0.
         23    2    4    4    0    0  0.98390678345E+02  0.44321191243E+03 -0.22768345973E+03  0.51570697035E+03  0.89422572814E+02 0.  0.
         23    2    4    4    0    0  0.16251480242E+03 -0.21621787864E+03  0.36601313297E+03  0.46381479626E+03  0.89427734384E+02 0.  0.
          1    1    3    3  502    0 -0.23664237878E+03 -0.20588608597E+03  0.11239109641E+03  0.33319732049E+03  0.00000000000E+00 0. -1.
         -2    1    3    3    0  502 -0.24263101983E+02 -0.21107947822E+02  0.44315978481E+02  0.54755360722E+02  0.00000000000E+00 0.  1.
         13    1    5    5    0    0  0.68123927553E+02  0.14155853975E+03 -0.10328482716E+03  0.18800916255E+03  0.00000000000E+00 0.  1.
        -13    1    5    5    0    0  0.30266750791E+02  0.30165337268E+03 -0.12439863258E+03  0.32769780780E+03  0.00000000000E+00 0. -1.
          3    1    6    6  503    0  0.13276248989E+03 -0.16874414303E+03  0.21994288622E+03  0.30736840717E+03  0.00000000000E+00 0. -1.
         -3    1    6    6    0  503  0.29752312523E+02 -0.47473735612E+02  0.14607024675E+03  0.15644638909E+03  0.00000000000E+00 0.  1.
<mgrwt>
<rscale>  0 0.13352676E+04</rscale>
<asrwt>0</asrwt>
<pdfrwt beam="1">  1        1 0.12788548E+00 0.13352676E+04</pdfrwt>
<pdfrwt beam="2">  1       -2 0.82495207E-01 0.13352676E+04</pdfrwt>
<totfact> 0.23008918E+01</totfact>
</mgrwt>
</event>
<event>
12    5  0.5297412E-008  0.2010273E+04  0.7818608E-02  0.8601833E-01
          1   -1    0    0  501    0  0.00000000000E+00  0.00000000000E+00  0.20148022874E+04  0.20148022874E+04  0.00000000000E+00 0. -1.
         -2   -1    0    0    0  501 -0.00000000000E+00 -0.00000000000E+00 -0.50143868118E+03  0.50143868118E+03  0.00000000000E+00 0.  1.
        -24    2    1    2    0    0  0.49805545086E+03 -0.60833440282E+03  0.41598418425E+03  0.89318434037E+03  0.81273898333E+02 0.  0.
        254    2    1    2    0    0 -0.49805545086E+03  0.60833440282E+03  0.10973794220E+04  0.16230566282E+04  0.90107782397E+03 0.  0.
         23    2    4    4    0    0 -0.30437508521E+03  0.41378166564E+03  0.35821573430E+02  0.52263840844E+03  0.89488890587E+02 0.  0.
         23    2    4    4    0    0 -0.19368036565E+03  0.19455273718E+03  0.10615578486E+04  0.11004182198E+04  0.93017960748E+02 0.  0.
          1    1    3    3  502    0  0.11529069440E+03 -0.94465548718E+02  0.92266945228E+02  0.17529652961E+03  0.00000000000E+00 0. -1.
         -2    1    3    3    0  502  0.38276475645E+03 -0.51386885410E+03  0.32371723902E+03  0.71788781076E+03  0.00000000000E+00 0.  1.
         13    1    5    5    0    0 -0.14443525251E+03  0.19991989374E+03  0.61985210354E+02  0.25430625707E+03  0.00000000000E+00 0.  1.
        -13    1    5    5    0    0 -0.15993983269E+03  0.21386177190E+03 -0.26163636924E+02  0.26833215137E+03  0.00000000000E+00 0. -1.
          3    1    6    6  503    0 -0.96146308693E+02  0.13595940279E+03  0.48642264892E+03  0.51413623220E+03  0.00000000000E+00 0. -1.
         -3    1    6    6    0  503 -0.97534056956E+02  0.58593334387E+02  0.57513519964E+03  0.58628198759E+03  0.00000000000E+00 0.  1.
<mgrwt>
<rscale>  0 0.20102734E+04</rscale>
<asrwt>0</asrwt>
<pdfrwt beam="1">  1        1 0.30996958E+00 0.20102734E+04</pdfrwt>
<pdfrwt beam="2">  1       -2 0.77144413E-01 0.20102734E+04</pdfrwt>
<totfact> 0.35544367E+00</totfact>
</mgrwt>
</event>
<event>
12    5  0.5297412E-008  0.1868725E+04  0.7818608E-02  0.8670583E-01
          1   -1    0    0  501    0  0.00000000000E+00  0.00000000000E+00  0.76220903688E+03  0.76220903688E+03  0.00000000000E+00 0. -1.
         -2   -1    0    0    0  501 -0.00000000000E+00 -0.00000000000E+00 -0.11453983292E+04  0.11453983292E+04  0.00000000000E+00 0.  1.
        -24    2    1    2    0    0 -0.59731664680E+03  0.15052367696E+03 -0.52138550858E+03  0.81095347347E+03  0.79737906394E+02 0.  0.
        254    2    1    2    0    0  0.59731664680E+03 -0.15052367696E+03  0.13819621630E+03  0.10966538926E+04  0.89672014141E+03 0.  0.
         23    2    4    4    0    0  0.12944517878E+03 -0.32923534756E+03  0.38559314540E+03  0.53059983631E+03  0.87761860274E+02 0.  0.
         23    2    4    4    0    0  0.46787146802E+03  0.17871167060E+03 -0.24739692910E+03  0.56605405625E+03  0.91489793276E+02 0.  0.
          1    1    3    3  502    0 -0.77063032161E+01 -0.61390833385E+00  0.22329514577E+01  0.80467425032E+01  0.00000000000E+00 0. -1.
         -2    1    3    3    0  502 -0.58961034358E+03  0.15113758529E+03 -0.52361846004E+03  0.80290673097E+03  0.00000000000E+00 0.  1.
         13    1    5    5    0    0 -0.69786912802E+01 -0.79130344450E+02  0.77653822079E+02  0.11108748637E+03  0.00000000000E+00 0.  1.
        -13    1    5    5    0    0  0.13642387006E+03 -0.25010500311E+03  0.30793932332E+03  0.41951234994E+03  0.00000000000E+00 0. -1.
          2    1    6    6  503    0  0.26114097582E+03  0.14757063070E+03 -0.15164263732E+03  0.33610592044E+03  0.00000000000E+00 0. -1.
         -2    1    6    6    0  503  0.20673049219E+03  0.31141039901E+02 -0.95754291781E+02  0.22994813581E+03  0.00000000000E+00 0.  1.
<mgrwt>
<rscale>  0 0.18687247E+04</rscale>
<asrwt>0</asrwt>
<pdfrwt beam="1">  1        1 0.11726293E+00 0.18687247E+04</pdfrwt>
<pdfrwt beam="2">  1       -2 0.17621513E+00 0.18687247E+04</pdfrwt>
<totfact> 0.37786144E+00</totfact>
</mgrwt>
</event>
<event>
12    5  0.5297412E-008  0.1949147E+04  0.7818608E-02  0.8630772E-01
          1   -1    0    0  501    0  0.00000000000E+00  0.00000000000E+00  0.17187991829E+04  0.17187991829E+04  0.00000000000E+00 0. -1.
         -2   -1    0    0    0  501 -0.00000000000E+00 -0.00000000000E+00 -0.55259127934E+03  0.55259127934E+03  0.00000000000E+00 0.  1.
        -24    2    1    2    0    0  0.56757794778E+03  0.29018888139E+03 -0.30459563297E+02  0.64299794375E+03  0.78512782316E+02 0.  0.
        254    2    1    2    0    0 -0.56757794778E+03 -0.29018888139E+03  0.11966674668E+04  0.16283925185E+04  0.90182861695E+03 0.  0.
         23    2    4    4    0    0 -0.39904352725E+03 -0.93524786827E+02  0.12755749395E+04  0.13428727157E+04  0.90736333016E+02 0.  0.
         23    2    4    4    0    0 -0.16853442053E+03 -0.19666409456E+03 -0.78907472623E+02  0.28551980273E+03  0.90634163096E+02 0.  0.
          1    1    3    3  502    0  0.31484662610E+01  0.12373650196E+02 -0.38643144638E+01  0.13339901995E+02  0.00000000000E+00 0. -1.
         -2    1    3    3    0  502  0.56442948152E+03  0.27781523120E+03 -0.26595248833E+02  0.62965804176E+03  0.00000000000E+00 0.  1.
         13    1    5    5    0    0 -0.33189986157E+03 -0.82650008525E+02  0.11533247638E+04  0.12029740449E+04  0.00000000000E+00 0. -1.
        -13    1    5    5    0    0 -0.67143665678E+02 -0.10874778302E+02  0.12225017570E+03  0.13989867083E+03  0.00000000000E+00 0.  1.
          1    1    6    6  503    0 -0.15465400511E+03 -0.11807806007E+03 -0.57520488848E+02  0.20290119814E+03  0.00000000000E+00 0. -1.
         -1    1    6    6    0  503 -0.13880415412E+02 -0.78586034492E+02 -0.21386983775E+02  0.82618604589E+02  0.00000000000E+00 0.  1.
<mgrwt>
<rscale>  0 0.19491469E+04</rscale>
<asrwt>0</asrwt>
<pdfrwt beam="1">  1        1 0.26443064E+00 0.19491469E+04</pdfrwt>
<pdfrwt beam="2">  1       -2 0.85014044E-01 0.19491469E+04</pdfrwt>
<totfact> 0.45586835E+00</totfact>
</mgrwt>
</event>
<event>
12    5  0.5297412E-008  0.2168405E+04  0.7818608E-02  0.8531695E-01
          1   -1    0    0  501    0  0.00000000000E+00  0.00000000000E+00  0.14095891812E+04  0.14095891812E+04  0.00000000000E+00 0. -1.
         -2   -1    0    0    0  501 -0.00000000000E+00 -0.00000000000E+00 -0.83392772111E+03  0.83392772111E+03  0.00000000000E+00 0.  1.
        -24    2    1    2    0    0 -0.11573403041E+01  0.33284748868E+02 -0.68574700910E+03  0.69115659343E+03  0.79619483859E+02 0.  0.
        254    2    1    2    0    0  0.11573403041E+01 -0.33284748868E+02  0.12614084692E+04  0.15523603089E+04  0.90419134509E+03 0.  0.
         23    2    4    4    0    0  0.33295701296E+03  0.27140372174E+03  0.70881813055E+03  0.83357243721E+03  0.88879205887E+02 0.  0.
         23    2    4    4    0    0 -0.33179967265E+03 -0.30468847061E+03  0.55259033862E+03  0.71878787166E+03  0.91508661949E+02 0.  0.
          1    1    3    3  502    0 -0.35937924356E+02  0.35014847246E+02 -0.34401500237E+03  0.34765485153E+03  0.00000000000E+00 0. -1.
         -2    1    3    3    0  502  0.34780584052E+02 -0.17300983786E+01 -0.34173200672E+03  0.34350174190E+03  0.00000000000E+00 0.  1.
         13    1    5    5    0    0 -0.33185865104E+01 -0.30813489762E+01  0.86843285751E+01  0.97941457382E+01  0.00000000000E+00 0. -1.
        -13    1    5    5    0    0  0.33627559947E+03  0.27448507072E+03  0.70013380197E+03  0.82377829148E+03  0.00000000000E+00 0.  1.
          3    1    6    6  503    0 -0.15798392823E+03 -0.19732007516E+03  0.34320325797E+03  0.42624243093E+03  0.00000000000E+00 0.  1.
         -3    1    6    6    0  503 -0.17381574442E+03 -0.10736839545E+03  0.20938708065E+03  0.29254544073E+03  0.00000000000E+00 0. -1.
<mgrwt>
<rscale>  0 0.21684054E+04</rscale>
<asrwt>0</asrwt>
<pdfrwt beam="1">  1        1 0.21685987E+00 0.21684054E+04</pdfrwt>
<pdfrwt beam="2">  1       -2 0.12829657E+00 0.21684054E+04</pdfrwt>
<totfact> 0.27258198E+00</totfact>
</mgrwt>
</event>
<event>
12    5  0.5297412E-008  0.2213182E+04  0.7818608E-02  0.8512962E-01
         -2   -1    0    0    0  501 -0.00000000000E+00  0.00000000000E+00  0.81503335508E+03  0.81503335508E+03  0.00000000000E+00 0.  1.
          1   -1    0    0  501    0  0.00000000000E+00 -0.00000000000E+00 -0.15024453721E+04  0.15024453721E+04  0.00000000000E+00 0. -1.
        -24    2    1    2    0    0 -0.18299431045E+03  0.88563892898E+03 -0.46353192421E+03  0.10192831917E+04  0.78950300207E+02 0.  0.
        254    2    1    2    0    0  0.18299431045E+03 -0.88563892898E+03 -0.22388009282E+03  0.12981955355E+04  0.90407196741E+03 0.  0.
         23    2    4    4    0    0  0.30183373961E+03  0.11850511418E+02  0.10144229711E+03  0.33199677003E+03  0.93205550701E+02 0.  0.
         23    2    4    4    0    0 -0.11883942915E+03 -0.89748944040E+03 -0.32532238993E+03  0.96619876547E+03  0.89973837661E+02 0.  0.
          1    1    3    3  502    0 -0.18297936050E+03  0.82013882917E+03 -0.41160246468E+03  0.93569532136E+03  0.00000000000E+00 0. -1.
         -2    1    3    3    0  502 -0.14949952195E-01  0.65500099814E+02 -0.51929459521E+02  0.83587870324E+02  0.00000000000E+00 0.  1.
         13    1    5    5    0    0  0.41301343865E+02  0.10700006082E+02  0.51226436958E+02  0.66666625673E+02  0.00000000000E+00 0. -1.
        -13    1    5    5    0    0  0.26053239574E+03  0.11505053361E+01  0.50215860149E+02  0.26533014436E+03  0.00000000000E+00 0.  1.
          2    1    6    6  503    0 -0.61945683223E+02 -0.67650692948E+03 -0.21358927695E+03  0.71212307401E+03  0.00000000000E+00 0.  1.
         -2    1    6    6    0  503 -0.56893745931E+02 -0.22098251091E+03 -0.11173311298E+03  0.25407569146E+03  0.00000000000E+00 0. -1.
<mgrwt>
<rscale>  0 0.22131815E+04</rscale>
<asrwt>0</asrwt>
<pdfrwt beam="1">  1        1 0.23114544E+00 0.22131815E+04</pdfrwt>
<pdfrwt beam="2">  1       -2 0.12538975E+00 0.22131815E+04</pdfrwt>
<totfact> 0.24785019E+00</totfact>
</mgrwt>
</event>
<event>
12    5  0.5297412E-008  0.1327578E+04  0.7818608E-02  0.9007977E-01
          3   -1    0    0  501    0  0.00000000000E+00  0.00000000000E+00  0.16919730922E+03  0.16919730922E+03  0.00000000000E+00 0. -1.
         -4   -1    0    0    0  501 -0.00000000000E+00 -0.00000000000E+00 -0.26041523849E+04  0.26041523849E+04  0.00000000000E+00 0.  1.
        -24    2    1    2    0    0 -0.30974170116E+03  0.21450417265E+02 -0.30134565746E+03  0.43982246870E+03  0.78959210112E+02 0.  0.
        254    2    1    2    0    0  0.30974170116E+03 -0.21450417265E+02 -0.21336094182E+04  0.23335272254E+04  0.89255818883E+03 0.  0.
         23    2    4    4    0    0 -0.10181824616E+03 -0.24992640071E+03 -0.22021971799E+03  0.36107331770E+03  0.95116010954E+02 0.  0.
         23    2    4    4    0    0  0.41155994732E+03  0.22847598344E+03 -0.19133897002E+04  0.19724539077E+04  0.89058452332E+02 0.  0.
          1    1    3    3  502    0 -0.30649975684E+03  0.29315346861E+02 -0.30200887940E+03  0.43128975612E+03  0.00000000000E+00 0. -1.
         -2    1    3    3    0  502 -0.32419443251E+01 -0.78649295967E+01  0.66322193381E+00  0.85327125758E+01  0.00000000000E+00 0.  1.
         13    1    5    5    0    0 -0.12833078129E+02 -0.13962051470E+03 -0.78685393445E+02  0.16077924978E+03  0.00000000000E+00 0. -1.
        -13    1    5    5    0    0 -0.88985168032E+02 -0.11030588601E+03 -0.14153432455E+03  0.20029406792E+03  0.00000000000E+00 0.  1.
          4    1    6    6  503    0  0.30318178738E+03  0.18984728715E+03 -0.12974128313E+04  0.13458236301E+04  0.00000000000E+00 0.  1.
         -4    1    6    6    0  503  0.10837815994E+03  0.38628696289E+02 -0.61597686897E+03  0.62663027763E+03  0.00000000000E+00 0. -1.
<mgrwt>
<rscale>  0 0.13275776E+04</rscale>
<asrwt>0</asrwt>
<pdfrwt beam="1">  1        3 0.26030356E-01 0.13275776E+04</pdfrwt>
<pdfrwt beam="2">  1       -4 0.40063881E+00 0.13275776E+04</pdfrwt>
<totfact> 0.21841239E-01</totfact>
</mgrwt>
</event>
<event>
12    5  0.5297412E-008  0.1672891E+04  0.7818608E-02  0.8776979E-01
          1   -1    0    0  501    0  0.00000000000E+00  0.00000000000E+00  0.12892740921E+04  0.12892740921E+04  0.00000000000E+00 0. -1.
         -2   -1    0    0    0  501 -0.00000000000E+00 -0.00000000000E+00 -0.54266257194E+03  0.54266257194E+03  0.00000000000E+00 0.  1.
        -24    2    1    2    0    0  0.27254980216E+03 -0.11033740760E+03  0.82731411529E+03  0.88180309786E+03  0.81672026281E+02 0.  0.
        254    2    1    2    0    0 -0.27254980216E+03  0.11033740760E+03 -0.80702595136E+02  0.95013356616E+03  0.89987951778E+03 0.  0.
         23    2    4    4    0    0 -0.39976789715E+03 -0.23522744350E+03 -0.24961846973E+03  0.53474701713E+03  0.92188232066E+02 0.  0.
         23    2    4    4    0    0  0.12721809499E+03  0.34556485110E+03  0.16891587460E+03  0.41538654903E+03  0.91727326438E+02 0.  0.
          1    1    3    3  502    0  0.17097937596E+03 -0.96799548339E+02  0.45422740477E+03  0.49490063125E+03  0.00000000000E+00 0. -1.
         -2    1    3    3    0  502  0.10157042620E+03 -0.13537859256E+02  0.37308671052E+03  0.38690246662E+03  0.00000000000E+00 0.  1.
         13    1    5    5    0    0 -0.16709804922E+03 -0.46942492710E+02 -0.88507750636E+02  0.19483063824E+03  0.00000000000E+00 0. -1.
        -13    1    5    5    0    0 -0.23266984793E+03 -0.18828495079E+03 -0.16111071910E+03  0.33991637889E+03  0.00000000000E+00 0.  1.
          3    1    6    6  503    0  0.22152481529E+01 -0.56300587610E+01 -0.17189493819E+00  0.60526385900E+01  0.00000000000E+00 0. -1.
         -3    1    6    6    0  503  0.12500284684E+03  0.35119490986E+03  0.16908776953E+03  0.40933391044E+03  0.00000000000E+00 0.  1.
<mgrwt>
<rscale>  0 0.16728907E+04</rscale>
<asrwt>0</asrwt>
<pdfrwt beam="1">  1        1 0.19834986E+00 0.16728907E+04</pdfrwt>
<pdfrwt beam="2">  1       -2 0.83486550E-01 0.16728907E+04</pdfrwt>
<totfact> 0.96691910E+00</totfact>
</mgrwt>
</event>
<event>
12    5  0.5297412E-008  0.2404051E+04  0.7818608E-02  0.8437989E-01
         -2   -1    0    0    0  501 -0.00000000000E+00  0.00000000000E+00  0.69164366367E+03  0.69164366367E+03  0.00000000000E+00 0.  1.
          1   -1    0    0  501    0  0.00000000000E+00 -0.00000000000E+00 -0.20890308759E+04  0.20890308759E+04  0.00000000000E+00 0. -1.
        -24    2    1    2    0    0 -0.29079743754E+03 -0.66462148300E+03 -0.14600437063E+04  0.16320115518E+04  0.73818800979E+02 0.  0.
        254    2    1    2    0    0  0.29079743754E+03  0.66462148300E+03  0.62656494119E+02  0.11486629878E+04  0.88837827410E+03 0.  0.
         23    2    4    4    0    0 -0.25422632958E+01  0.70640501354E+03 -0.20150260741E+03  0.74157396042E+03  0.10155851373E+03 0.  0.
         23    2    4    4    0    0  0.29333970084E+03 -0.41783530540E+02  0.26415910153E+03  0.40708902737E+03  0.90262959009E+02 0.  0.
          3    1    3    3  502    0 -0.26110640772E+03 -0.63149099749E+03 -0.13924996260E+04  0.15511326972E+04  0.00000000000E+00 0. -1.
         -4    1    3    3    0  502 -0.29691029818E+02 -0.33130485511E+02 -0.67544080377E+02  0.80878854565E+02  0.00000000000E+00 0.  1.
         13    1    5    5    0    0  0.35802551417E+02  0.59038457314E+03 -0.16546731968E+03  0.61417847632E+03  0.00000000000E+00 0.  1.
        -13    1    5    5    0    0 -0.38344814713E+02  0.11602044040E+03 -0.36035287737E+02  0.12739548410E+03  0.00000000000E+00 0. -1.
          4    1    6    6  503    0  0.32495963903E+02 -0.28265061217E+02  0.13645755650E+02  0.45178623295E+02  0.00000000000E+00 0. -1.
         -4    1    6    6    0  503  0.26084373693E+03 -0.13518469323E+02  0.25051334588E+03  0.36191040407E+03  0.00000000000E+00 0.  1.
<mgrwt>
<rscale>  0 0.24040507E+04</rscale>
<asrwt>0</asrwt>
<pdfrwt beam="1">  1        1 0.32138937E+00 0.24040507E+04</pdfrwt>
<pdfrwt beam="2">  1       -2 0.10640672E+00 0.24040507E+04</pdfrwt>
<totfact> 0.14527857E+00</totfact>
</mgrwt>
</event>
<event>
12    5  0.5297412E-008  0.1990942E+04  0.7818608E-02  0.8610867E-01
         -2   -1    0    0    0  501 -0.00000000000E+00  0.00000000000E+00  0.57276015224E+03  0.57276015224E+03  0.00000000000E+00 0.  1.
          1   -1    0    0  501    0  0.00000000000E+00 -0.00000000000E+00 -0.17301520601E+04  0.17301520601E+04  0.00000000000E+00 0. -1.
        -24    2    1    2    0    0  0.51922732373E+03 -0.41758397878E+02 -0.11584115818E+04  0.12728882333E+04  0.83583994648E+02 0.  0.
        254    2    1    2    0    0 -0.51922732373E+03  0.41758397878E+02  0.10196739588E+01  0.10300239790E+04  0.88859866088E+03 0.  0.
         23    2    4    4    0    0 -0.66733114516E+02 -0.23241491710E+03  0.31526412970E+03  0.40741020798E+03  0.90119941327E+02 0.  0.
         23    2    4    4    0    0 -0.45249420921E+03  0.27417331498E+03 -0.31424445575E+03  0.62261377103E+03  0.94743410862E+02 0.  0.
          3    1    3    3  502    0  0.43851473526E+03 -0.17280265064E+02 -0.10257298400E+04  0.11156681789E+04  0.00000000000E+00 0. -1.
         -4    1    3    3    0  502  0.80712588466E+02 -0.24478132814E+02 -0.13268174181E+03  0.15722005449E+03  0.00000000000E+00 0.  1.
         13    1    5    5    0    0  0.21339816046E+02 -0.64910005816E+02  0.72958777404E+02  0.99958390364E+02  0.00000000000E+00 0. -1.
        -13    1    5    5    0    0 -0.88072930563E+02 -0.16750491128E+03  0.24230535230E+03  0.30745181762E+03  0.00000000000E+00 0.  1.
          1    1    6    6  503    0  0.90210435772E+00  0.27878186948E+01 -0.15142283334E+02  0.15423179630E+02  0.00000000000E+00 0. -1.
         -1    1    6    6    0  503 -0.45339631357E+03  0.27138549628E+03 -0.29910217241E+03  0.60719059140E+03  0.00000000000E+00 0.  1.
<mgrwt>
<rscale>  0 0.19909416E+04</rscale>
<asrwt>0</asrwt>
<pdfrwt beam="1">  1        1 0.26617724E+00 0.19909416E+04</pdfrwt>
<pdfrwt beam="2">  1       -2 0.88116946E-01 0.19909416E+04</pdfrwt>
<totfact> 0.41108285E+00</totfact>
</mgrwt>
</event>
<event>
12    5  0.5297412E-008  0.1257077E+04  0.7818608E-02  0.9064314E-01
          1   -1    0    0  501    0  0.00000000000E+00  0.00000000000E+00  0.15220350646E+04  0.15220350646E+04  0.00000000000E+00 0. -1.
         -2   -1    0    0    0  501 -0.00000000000E+00 -0.00000000000E+00 -0.25956083319E+03  0.25956083319E+03  0.00000000000E+00 0.  1.
        -24    2    1    2    0    0 -0.20736715983E+03 -0.99990229988E+02  0.62693534455E+03  0.67252234261E+03  0.78988543488E+02 0.  0.
        254    2    1    2    0    0  0.20736715983E+03  0.99990229988E+02  0.63553888682E+03  0.11090735551E+04  0.87928112055E+03 0.  0.
         23    2    4    4    0    0 -0.29687131478E+03 -0.68815019599E+02  0.42714576131E+03  0.53223517296E+03  0.89177875396E+02 0.  0.
         23    2    4    4    0    0  0.50423847461E+03  0.16880524959E+03  0.20839312550E+03  0.57683838217E+03  0.81013411389E+02 0.  0.
          1    1    3    3  502    0 -0.21377900910E+03 -0.10046996028E+03  0.59981138619E+03  0.64464670686E+03  0.00000000000E+00 0. -1.
         -2    1    3    3    0  502  0.64118492687E+01  0.47973029485E+00  0.27123958352E+02  0.27875635757E+02  0.00000000000E+00 0.  1.
         13    1    5    5    0    0 -0.72544485093E+02  0.12129778872E+02  0.62459345828E+02  0.96493542448E+02  0.00000000000E+00 0. -1.
        -13    1    5    5    0    0 -0.22432682969E+03 -0.80944798470E+02  0.36468641549E+03  0.43574163051E+03  0.00000000000E+00 0.  1.
          3    1    6    6  503    0  0.90681865337E+02  0.38825780701E+02  0.72890526683E+02  0.12265264297E+03  0.00000000000E+00 0. -1.
         -3    1    6    6    0  503  0.41355660928E+03  0.12997946888E+03  0.13550259882E+03  0.45418573920E+03  0.00000000000E+00 0.  1.
<mgrwt>
<rscale>  0 0.12570771E+04</rscale>
<asrwt>0</asrwt>
<pdfrwt beam="1">  1        1 0.23415924E+00 0.12570771E+04</pdfrwt>
<pdfrwt beam="2">  1       -2 0.39932437E-01 0.12570771E+04</pdfrwt>
<totfact> 0.32410610E+01</totfact>
</mgrwt>
</event>
<event>
12    5  0.5297412E-008  0.2405876E+04  0.7818608E-02  0.8437307E-01
          1   -1    0    0  501    0  0.00000000000E+00  0.00000000000E+00  0.17798528610E+04  0.17798528610E+04  0.00000000000E+00 0. -1.
         -2   -1    0    0    0  501 -0.00000000000E+00 -0.00000000000E+00 -0.81302216675E+03  0.81302216675E+03  0.00000000000E+00 0.  1.
        -24    2    1    2    0    0  0.72327008319E+03  0.24310059935E+03  0.11651919763E+04  0.13951075553E+04  0.80219914068E+02 0.  0.
        254    2    1    2    0    0 -0.72327008319E+03 -0.24310059935E+03 -0.19836128200E+03  0.11977674725E+04  0.90171071044E+03 0.  0.
         23    2    4    4    0    0  0.68762263401E+02  0.12638068256E+03 -0.26498466614E+03  0.31666696125E+03  0.96751047881E+02 0.  0.
         23    2    4    4    0    0 -0.79203234659E+03 -0.36948128191E+03  0.66623384135E+02  0.88110051124E+03  0.89820820919E+02 0.  0.
          1    1    3    3  502    0  0.48329509269E+03  0.15095152203E+03  0.83698876739E+03  0.97821812770E+03  0.00000000000E+00 0. -1.
         -4    1    3    3    0  502  0.23997499050E+03  0.92149077319E+02  0.32820320889E+03  0.41688942759E+03  0.00000000000E+00 0.  1.
         13    1    5    5    0    0 -0.15969853884E+02  0.63795625101E+02 -0.77742545731E+02  0.10182741002E+03  0.00000000000E+00 0. -1.
        -13    1    5    5    0    0  0.84732117285E+02  0.62585057459E+02 -0.18724212041E+03  0.21483955122E+03  0.00000000000E+00 0.  1.
          2    1    6    6  503    0 -0.41753134064E+03 -0.23546263188E+03  0.61770518499E+02  0.48331218522E+03  0.00000000000E+00 0. -1.
         -2    1    6    6    0  503 -0.37450100595E+03 -0.13401865003E+03  0.48528656361E+01  0.39778832602E+03  0.00000000000E+00 0.  1.
<mgrwt>
<rscale>  0 0.24058760E+04</rscale>
<asrwt>0</asrwt>
<pdfrwt beam="1">  1        1 0.27382352E+00 0.24058760E+04</pdfrwt>
<pdfrwt beam="2">  1       -2 0.12508033E+00 0.24058760E+04</pdfrwt>
<totfact> 0.15836431E+00</totfact>
</mgrwt>
</event>
<event>
12    5  0.5297412E-008  0.1853181E+04  0.7818608E-02  0.8678518E-01
         -2   -1    0    0    0  501 -0.00000000000E+00  0.00000000000E+00  0.60236393965E+03  0.60236393965E+03  0.00000000000E+00 0.  1.
          1   -1    0    0  501    0  0.00000000000E+00 -0.00000000000E+00 -0.14253349132E+04  0.14253349132E+04  0.00000000000E+00 0. -1.
        -24    2    1    2    0    0  0.45935595971E+03 -0.26209770864E+03  0.19156732752E+03  0.56638780404E+03  0.66287231015E+02 0.  0.
        254    2    1    2    0    0 -0.45935595971E+03  0.26209770864E+03 -0.10145383011E+04  0.14613110488E+04  0.90908685527E+03 0.  0.
         23    2    4    4    0    0 -0.52726445784E+03  0.63762081920E+01 -0.15345965385E+03  0.55598587997E+03  0.86729284759E+02 0.  0.
         23    2    4    4    0    0  0.67908498127E+02  0.25572150045E+03 -0.86107864725E+03  0.90532516886E+03  0.90289394245E+02 0.  0.
          1    1    3    3  502    0  0.21316427922E+03 -0.15229429574E+03  0.11537499248E+03  0.28625853933E+03  0.00000000000E+00 0. -1.
         -2    1    3    3    0  502  0.24619168049E+03 -0.10980341290E+03  0.76192335046E+02  0.28012926471E+03  0.00000000000E+00 0.  1.
         13    1    5    5    0    0 -0.22806760147E+03  0.11447624676E+02 -0.22886361697E+02  0.22949872440E+03  0.00000000000E+00 0.  1.
        -13    1    5    5    0    0 -0.29919685637E+03 -0.50714164841E+01 -0.13057329215E+03  0.32648715557E+03  0.00000000000E+00 0. -1.
          4    1    6    6  503    0  0.32625417655E+02  0.22964021269E+03 -0.66166677257E+03  0.70114332564E+03  0.00000000000E+00 0. -1.
         -4    1    6    6    0  503  0.35283080472E+02  0.26081287755E+02 -0.19941187468E+03  0.20418184322E+03  0.00000000000E+00 0.  1.
<mgrwt>
<rscale>  0 0.18531814E+04</rscale>
<asrwt>0</asrwt>
<pdfrwt beam="1">  1        1 0.21928229E+00 0.18531814E+04</pdfrwt>
<pdfrwt beam="2">  1       -2 0.92671376E-01 0.18531814E+04</pdfrwt>
<totfact> 0.60031961E+00</totfact>
</mgrwt>
</event>
<event>
12    5  0.5297412E-008  0.3226910E+04  0.7818608E-02  0.8181746E-01
          1   -1    0    0  501    0  0.00000000000E+00  0.00000000000E+00  0.12276141082E+04  0.12276141082E+04  0.00000000000E+00 0. -1.
         -2   -1    0    0    0  501 -0.00000000000E+00 -0.00000000000E+00 -0.21205667008E+04  0.21205667008E+04  0.00000000000E+00 0.  1.
        -24    2    1    2    0    0  0.13497741897E+04  0.57467269509E+03 -0.16312851127E+03  0.14778571259E+04  0.72881435689E+02 0.  0.
        254    2    1    2    0    0 -0.13497741897E+04 -0.57467269509E+03 -0.72982408137E+03  0.18703236831E+04  0.90184722662E+03 0.  0.
         23    2    4    4    0    0 -0.11075118156E+04 -0.75820532152E+03 -0.38281667123E+03  0.13991894393E+04  0.98614157149E+02 0.  0.
         23    2    4    4    0    0 -0.24226237409E+03  0.18353262642E+03 -0.34700741014E+03  0.47113424380E+03  0.95802140521E+02 0.  0.
          3    1    3    3  502    0  0.33343670017E+03  0.14266798966E+03 -0.87894738541E+01  0.36278291462E+03  0.00000000000E+00 0. -1.
         -4    1    3    3    0  502  0.10163374896E+04  0.43200470544E+03 -0.15433903741E+03  0.11150742113E+04  0.00000000000E+00 0.  1.
         13    1    5    5    0    0 -0.31500710054E+03 -0.22737768186E+03 -0.15662439981E+03  0.41888099291E+03  0.00000000000E+00 0.  1.
        -13    1    5    5    0    0 -0.79250471509E+03 -0.53082763966E+03 -0.22619227142E+03  0.98030844642E+03  0.00000000000E+00 0. -1.
          2    1    6    6  503    0 -0.12456185265E+03  0.44890554815E+02 -0.18550522821E+03  0.22791008477E+03  0.00000000000E+00 0. -1.
         -2    1    6    6    0  503 -0.11770052144E+03  0.13864207161E+03 -0.16150218192E+03  0.24322415902E+03  0.00000000000E+00 0.  1.
<mgrwt>
<rscale>  0 0.32269103E+04</rscale>
<asrwt>0</asrwt>
<pdfrwt beam="1">  1        1 0.18886371E+00 0.32269103E+04</pdfrwt>
<pdfrwt beam="2">  1       -2 0.32624103E+00 0.32269103E+04</pdfrwt>
<totfact> 0.16370858E-01</totfact>
</mgrwt>
</event>
<event>
12    5  0.5297412E-008  0.1329879E+04  0.7818608E-02  0.9006201E-01
          1   -1    0    0  501    0  0.00000000000E+00  0.00000000000E+00  0.29617410469E+04  0.29617410469E+04  0.00000000000E+00 0. -1.
         -2   -1    0    0    0  501 -0.00000000000E+00 -0.00000000000E+00 -0.14928535451E+03  0.14928535451E+03  0.00000000000E+00 0.  1.
        -24    2    1    2    0    0 -0.51476949766E+02  0.26312295235E+03  0.13465828926E+04  0.13754022776E+04  0.81008481752E+02 0.  0.
        254    2    1    2    0    0  0.51476949766E+02 -0.26312295235E+03  0.14658727998E+04  0.17356241239E+04  0.88978900292E+03 0.  0.
         23    2    4    4    0    0  0.20965139192E+03  0.21945098402E+03  0.96885530895E+03  0.10192518617E+04  0.89896092095E+02 0.  0.
         23    2    4    4    0    0 -0.15817444215E+03 -0.48257393636E+03  0.49701749090E+03  0.71637226220E+03  0.90917949725E+02 0.  0.
          3    1    3    3  502    0 -0.53862648434E+02  0.26383784565E+03  0.12449742078E+04  0.12737630752E+04  0.00000000000E+00 0. -1.
         -4    1    3    3    0  502  0.23856986683E+01 -0.71489330257E+00  0.10160868475E+03  0.10163920231E+03  0.00000000000E+00 0.  1.
         13    1    5    5    0    0  0.21252512374E+03  0.19223109626E+03  0.91524494455E+03  0.95905840860E+03  0.00000000000E+00 0.  1.
        -13    1    5    5    0    0 -0.28737318226E+01  0.27219887761E+02  0.53610364404E+02  0.60193453098E+02  0.00000000000E+00 0. -1.
          4    1    6    6  503    0 -0.71510225826E+02 -0.11071951947E+03  0.15806823685E+03  0.20581081578E+03  0.00000000000E+00 0. -1.
         -4    1    6    6    0  503 -0.86664216328E+02 -0.37185441689E+03  0.33894925405E+03  0.51056144642E+03  0.00000000000E+00 0.  1.
<mgrwt>
<rscale>  0 0.13298790E+04</rscale>
<asrwt>0</asrwt>
<pdfrwt beam="1">  1        1 0.45565242E+00 0.13298790E+04</pdfrwt>
<pdfrwt beam="2">  1       -2 0.22966980E-01 0.13298790E+04</pdfrwt>
<totfact> 0.92547257E+00</totfact>
</mgrwt>
</event>
<event>
12    5  0.5297412E-008  0.1406076E+04  0.7818608E-02  0.8949432E-01
         -2   -1    0    0    0  501 -0.00000000000E+00  0.00000000000E+00  0.78218224432E+03  0.78218224432E+03  0.00000000000E+00 0.  1.
          1   -1    0    0  501    0  0.00000000000E+00 -0.00000000000E+00 -0.63190166513E+03  0.63190166513E+03  0.00000000000E+00 0. -1.
        -24    2    1    2    0    0 -0.56617530873E+02 -0.35694389391E+02  0.45013323321E+03  0.46193833288E+03  0.79293514901E+02 0.  0.
        254    2    1    2    0    0  0.56617530873E+02  0.35694389391E+02 -0.29985265402E+03  0.95214557658E+03  0.90121581801E+03 0.  0.
         23    2    4    4    0    0 -0.30749934885E+03 -0.20824060155E+03  0.47815094161E+02  0.38487650734E+03  0.89014858302E+02 0.  0.
         23    2    4    4    0    0  0.36411687972E+03  0.24393499094E+03 -0.34766774818E+03  0.56726906924E+03  0.93999744095E+02 0.  0.
          1    1    3    3  502    0 -0.66251077783E+02 -0.99110580371E+01  0.21485992368E+03  0.22506048339E+03  0.00000000000E+00 0. -1.
         -2    1    3    3    0  502  0.96335469097E+01 -0.25783331354E+02  0.23527330953E+03  0.23687784949E+03  0.00000000000E+00 0.  1.
         13    1    5    5    0    0  0.18640954871E+01 -0.11377002553E+00 -0.76873389455E+01  0.79109402518E+01  0.00000000000E+00 0.  1.
        -13    1    5    5    0    0 -0.30936344433E+03 -0.20812683152E+03  0.55502433107E+02  0.37696556709E+03  0.00000000000E+00 0. -1.
          3    1    6    6  503    0  0.29027789558E+03  0.20258964573E+03 -0.32279780886E+03  0.47906392749E+03  0.00000000000E+00 0. -1.
         -3    1    6    6    0  503  0.73838984138E+02  0.41345345206E+02 -0.24869939324E+02  0.88205141747E+02  0.00000000000E+00 0.  1.
<mgrwt>
<rscale>  0 0.14060758E+04</rscale>
<asrwt>0</asrwt>
<pdfrwt beam="1">  1        1 0.97215641E-01 0.14060758E+04</pdfrwt>
<pdfrwt beam="2">  1       -2 0.12033573E+00 0.14060758E+04</pdfrwt>
<totfact> 0.14280259E+01</totfact>
</mgrwt>
</event>
<event>
12    5  0.5297412E-008  0.1617646E+04  0.7818608E-02  0.8809780E-01
         -2   -1    0    0    0  501 -0.00000000000E+00  0.00000000000E+00  0.63129746918E+03  0.63129746918E+03  0.00000000000E+00 0.  1.
          1   -1    0    0  501    0  0.00000000000E+00 -0.00000000000E+00 -0.10362700141E+04  0.10362700141E+04  0.00000000000E+00 0. -1.
        -24    2    1    2    0    0  0.15040982596E+03  0.13203059642E+03 -0.67721918884E+03  0.71073713409E+03  0.80412995905E+02 0.  0.
        254    2    1    2    0    0 -0.15040982596E+03 -0.13203059642E+03  0.27224664389E+03  0.95683034921E+03  0.89518204178E+03 0.  0.
         23    2    4    4    0    0 -0.34087115069E+03  0.64190891653E+02 -0.19467821258E+03  0.40822296698E+03  0.91830127814E+02 0.  0.
         23    2    4    4    0    0  0.19046132473E+03 -0.19622148807E+03  0.46692485647E+03  0.54860738223E+03  0.90403814370E+02 0.  0.
          1    1    3    3  502    0  0.12620974841E+03  0.13661916561E+03 -0.63677975239E+03  0.66338687811E+03  0.00000000000E+00 0. -1.
         -2    1    3    3    0  502  0.24200077546E+02 -0.45885691922E+01 -0.40439436453E+02  0.47350255977E+02  0.00000000000E+00 0.  1.
         13    1    5    5    0    0 -0.77026088705E+02 -0.21491744504E+02 -0.28762498706E+02  0.84983496956E+02  0.00000000000E+00 0.  1.
        -13    1    5    5    0    0 -0.26384506198E+03  0.85682636157E+02 -0.16591571387E+03  0.32323947002E+03  0.00000000000E+00 0. -1.
          1    1    6    6  503    0  0.16491519096E+03 -0.19169784382E+03  0.36919798347E+03  0.44749551342E+03  0.00000000000E+00 0. -1.
         -1    1    6    6    0  503  0.25546133769E+02 -0.45236442489E+01  0.97726873003E+02  0.10111186881E+03  0.00000000000E+00 0.  1.
<mgrwt>
<rscale>  0 0.16176460E+04</rscale>
<asrwt>0</asrwt>
<pdfrwt beam="1">  1        1 0.15942616E+00 0.16176460E+04</pdfrwt>
<pdfrwt beam="2">  1       -2 0.97122688E-01 0.16176460E+04</pdfrwt>
<totfact> 0.10541420E+01</totfact>
</mgrwt>
</event>
<event>
12    5  0.5819133E-008  0.1520718E+04  0.7818608E-02  0.8870791E-01
          1   -1    0    0  501    0  0.00000000000E+00  0.00000000000E+00  0.14276766805E+04  0.14276766805E+04  0.00000000000E+00 0. -1.
         -2   -1    0    0    0  501 -0.00000000000E+00 -0.00000000000E+00 -0.40495573737E+03  0.40495573737E+03  0.00000000000E+00 0.  1.
        -24    2    1    2    0    0 -0.13846378505E+03  0.28487204557E+03  0.75818013504E+03  0.82850973914E+03  0.10614597754E+03 0.  0.
        254    2    1    2    0    0  0.13846378505E+03 -0.28487204557E+03  0.26454080805E+03  0.10041226787E+04  0.91539948255E+03 0.  0.
         23    2    4    4    0    0  0.97400900488E+02 -0.14050281444E+03  0.59684738828E+03  0.62844336653E+03  0.97397555160E+02 0.  0.
         23    2    4    4    0    0  0.41062884565E+02 -0.14436923113E+03 -0.33230658023E+03  0.37567931218E+03  0.90435871996E+02 0.  0.
          3    1    3    3  502    0 -0.11824346306E+03  0.28722987176E+03  0.73322236734E+03  0.79630242732E+03  0.00000000000E+00 0. -1.
         -4    1    3    3    0  502 -0.20220321991E+02 -0.23578261855E+01  0.24957767706E+02  0.32207311819E+02  0.00000000000E+00 0.  1.
         13    1    5    5    0    0  0.16506866939E+02 -0.79279552344E+02  0.15255806317E+03  0.17271851873E+03  0.00000000000E+00 0. -1.
        -13    1    5    5    0    0  0.80894033549E+02 -0.61223262096E+02  0.44428932512E+03  0.45572484780E+03  0.00000000000E+00 0.  1.
          1    1    6    6  503    0  0.51493492178E+02 -0.71622434937E+02 -0.25115891760E+03  0.26619946434E+03  0.00000000000E+00 0. -1.
         -1    1    6    6    0  503 -0.10430607613E+02 -0.72746796197E+02 -0.81147662633E+02  0.10947984784E+03  0.00000000000E+00 0.  1.
<mgrwt>
<rscale>  0 0.15207181E+04</rscale>
<asrwt>0</asrwt>
<pdfrwt beam="1">  1        1 0.21964256E+00 0.15207181E+04</pdfrwt>
<pdfrwt beam="2">  1       -2 0.62300883E-01 0.15207181E+04</pdfrwt>
<totfact> 0.14882924E+01</totfact>
</mgrwt>
</event>
<event>
12    5  0.5297412E-008  0.2663891E+04  0.7818608E-02  0.8346817E-01
         -2   -1    0    0    0  501 -0.00000000000E+00  0.00000000000E+00  0.50141748861E+03  0.50141748861E+03  0.00000000000E+00 0.  1.
          1   -1    0    0  501    0  0.00000000000E+00 -0.00000000000E+00 -0.35381267519E+04  0.35381267519E+04  0.00000000000E+00 0. -1.
        -24    2    1    2    0    0  0.34890715011E+03 -0.25002981817E+03  0.31789268629E+03  0.54016135377E+03  0.80420263190E+02 0.  0.
        254    2    1    2    0    0 -0.34890715011E+03  0.25002981817E+03 -0.33546019496E+04  0.34993828868E+04  0.89893005210E+03 0.  0.
         23    2    4    4    0    0 -0.35645401341E+03  0.55022158484E+03 -0.19157014545E+04  0.20268284102E+04  0.91203538927E+02 0.  0.
         23    2    4    4    0    0  0.75468633071E+01 -0.30019176666E+03 -0.14389004951E+04  0.14725544766E+04  0.88374202985E+02 0.  0.
          3    1    3    3  502    0  0.99099572894E+01 -0.28081199341E+02  0.10539719211E+02  0.31588711448E+02  0.00000000000E+00 0. -1.
         -4    1    3    3    0  502  0.33899719282E+03 -0.22194861883E+03  0.30735296708E+03  0.50857264232E+03  0.00000000000E+00 0.  1.
         13    1    5    5    0    0 -0.27322232358E+03  0.35956322404E+03 -0.12309381511E+04  0.13111616536E+04  0.00000000000E+00 0. -1.
        -13    1    5    5    0    0 -0.83231689834E+02  0.19065836080E+03 -0.68476330347E+03  0.71566675661E+03  0.00000000000E+00 0.  1.
          1    1    6    6  503    0  0.32452958653E+02 -0.14720180272E+03 -0.86772532307E+03  0.88072061492E+03  0.00000000000E+00 0. -1.
         -1    1    6    6    0  503 -0.24906095346E+02 -0.15298996394E+03 -0.57117517201E+03  0.59183386163E+03  0.00000000000E+00 0.  1.
<mgrwt>
<rscale>  0 0.26638909E+04</rscale>
<asrwt>0</asrwt>
<pdfrwt beam="1">  1        1 0.54432716E+00 0.26638909E+04</pdfrwt>
<pdfrwt beam="2">  1       -2 0.77141156E-01 0.26638909E+04</pdfrwt>
<totfact> 0.26942213E-01</totfact>
</mgrwt>
</event>
<event>
12    5  0.5297412E-008  0.1638303E+04  0.7818608E-02  0.8797357E-01
          1   -1    0    0  501    0  0.00000000000E+00  0.00000000000E+00  0.91031397038E+03  0.91031397038E+03  0.00000000000E+00 0. -1.
         -2   -1    0    0    0  501 -0.00000000000E+00 -0.00000000000E+00 -0.73711835343E+03  0.73711835343E+03  0.00000000000E+00 0.  1.
        -24    2    1    2    0    0  0.44418268634E+03 -0.13105922969E+03  0.39678306488E+03  0.61508561995E+03  0.80117031637E+02 0.  0.
        254    2    1    2    0    0 -0.44418268634E+03  0.13105922969E+03 -0.22358744793E+03  0.10323467039E+04  0.89513886607E+03 0.  0.
         23    2    4    4    0    0 -0.43871624710E+03  0.45213482565E+03 -0.11597336904E+02  0.63666845086E+03  0.91183178563E+02 0.  0.
         23    2    4    4    0    0 -0.54664392378E+01 -0.32107559596E+03 -0.21199011103E+03  0.39567825300E+03  0.92206574807E+02 0.  0.
          3    1    3    3  502    0  0.27438888154E+03 -0.45424125072E+02  0.26108143229E+03  0.38146575697E+03  0.00000000000E+00 0. -1.
         -4    1    3    3    0  502  0.16979380480E+03 -0.85635104615E+02  0.13570163259E+03  0.23361986298E+03  0.00000000000E+00 0.  1.
         13    1    5    5    0    0 -0.99426841493E+02  0.95112873814E+02 -0.40099669271E+02  0.14331831373E+03  0.00000000000E+00 0.  1.
        -13    1    5    5    0    0 -0.33928940561E+03  0.35702195184E+03  0.28502332367E+02  0.49335013713E+03  0.00000000000E+00 0. -1.
          4    1    6    6  503    0 -0.17173056668E+02 -0.25822799815E+02  0.16420317854E+01  0.31055227160E+02  0.00000000000E+00 0.  1.
         -4    1    6    6    0  503  0.11706617430E+02 -0.29525279615E+03 -0.21363214281E+03  0.36462302584E+03  0.00000000000E+00 0. -1.
<mgrwt>
<rscale>  0 0.16383029E+04</rscale>
<asrwt>0</asrwt>
<pdfrwt beam="1">  1        1 0.14004830E+00 0.16383029E+04</pdfrwt>
<pdfrwt beam="2">  1       -2 0.11340282E+00 0.16383029E+04</pdfrwt>
<totfact> 0.91267719E+00</totfact>
</mgrwt>
</event>
<event>
12    5  0.5297412E-008  0.2327111E+04  0.7818608E-02  0.8467308E-01
         -2   -1    0    0    0  501 -0.00000000000E+00  0.00000000000E+00  0.35099907128E+04  0.35099907128E+04  0.00000000000E+00 0.  1.
          1   -1    0    0  501    0  0.00000000000E+00 -0.00000000000E+00 -0.38571654589E+03  0.38571654589E+03  0.00000000000E+00 0. -1.
        -24    2    1    2    0    0  0.48309946434E+03  0.64500656438E+03  0.22946408213E+04  0.24333424286E+04  0.79751585083E+02 0.  0.
        254    2    1    2    0    0 -0.48309946434E+03 -0.64500656438E+03  0.82963334555E+03  0.14623648301E+04  0.89487476645E+03 0.  0.
         23    2    4    4    0    0 -0.48713400365E+03  0.48568320999E+02  0.42356957252E+03  0.65365742980E+03  0.90545201112E+02 0.  0.
         23    2    4    4    0    0  0.40345393123E+01 -0.69357488538E+03  0.40606377303E+03  0.80870740027E+03  0.89763424321E+02 0.  0.
          1    1    3    3  502    0  0.21714729621E+03  0.27048270019E+03  0.11020362535E+04  0.11553344725E+04  0.00000000000E+00 0. -1.
         -2    1    3    3    0  502  0.26595216813E+03  0.37452386419E+03  0.11926045678E+04  0.12780079561E+04  0.00000000000E+00 0.  1.
         13    1    5    5    0    0 -0.39520553302E+03  0.58180016833E+02  0.30115178217E+03  0.50026465355E+03  0.00000000000E+00 0.  1.
        -13    1    5    5    0    0 -0.91928470629E+02 -0.96116958336E+01  0.12241779036E+03  0.15339277625E+03  0.00000000000E+00 0. -1.
          3    1    6    6  503    0  0.46484202915E+01 -0.60030109082E+02  0.86387584546E+01  0.60826391930E+02  0.00000000000E+00 0. -1.
         -3    1    6    6    0  503 -0.61388097919E+00 -0.63354477630E+03  0.39742501457E+03  0.74788100834E+03  0.00000000000E+00 0.  1.
<mgrwt>
<rscale>  0 0.23271111E+04</rscale>
<asrwt>0</asrwt>
<pdfrwt beam="1">  1        1 0.59341010E-01 0.23271111E+04</pdfrwt>
<pdfrwt beam="2">  1       -2 0.53999855E+00 0.23271111E+04</pdfrwt>
<totfact> 0.47445859E-02</totfact>
</mgrwt>
</event>
<event>
12    5  0.5297412E-008  0.2127667E+04  0.7818608E-02  0.8549153E-01
          1   -1    0    0  501    0  0.00000000000E+00  0.00000000000E+00  0.10452092841E+04  0.10452092841E+04  0.00000000000E+00 0. -1.
         -2   -1    0    0    0  501 -0.00000000000E+00 -0.00000000000E+00 -0.10827899963E+04  0.10827899963E+04  0.00000000000E+00 0.  1.
        -24    2    1    2    0    0  0.50631777740E+03 -0.68716409797E+03  0.17538877449E+03  0.87481755463E+03  0.77410221752E+02 0.  0.
        254    2    1    2    0    0 -0.50631777740E+03  0.68716409797E+03 -0.21296948672E+03  0.12531817258E+04  0.89249999796E+03 0.  0.
         23    2    4    4    0    0 -0.73324627989E+03  0.45972313713E+03 -0.27550438249E+02  0.87072180017E+03  0.91662188891E+02 0.  0.
         23    2    4    4    0    0  0.22692850249E+03  0.22744096084E+03 -0.18541904847E+03  0.38245992563E+03  0.93109802207E+02 0.  0.
          3    1    3    3  502    0  0.47993990903E+03 -0.62055013436E+03  0.17179823681E+03  0.80308120368E+03  0.00000000000E+00 0. -1.
         -4    1    3    3    0  502  0.26377868367E+02 -0.66613963608E+02  0.35905376844E+01  0.71736350953E+02  0.00000000000E+00 0.  1.
         13    1    5    5    0    0 -0.38930212621E+03  0.22423462608E+03 -0.56908328015E+02  0.45285303444E+03  0.00000000000E+00 0. -1.
        -13    1    5    5    0    0 -0.34394415367E+03  0.23548851104E+03  0.29357889766E+02  0.41786876573E+03  0.00000000000E+00 0.  1.
          4    1    6    6  503    0  0.14959611617E+03  0.10529808047E+03 -0.64454066687E+02  0.19396136326E+03  0.00000000000E+00 0. -1.
         -4    1    6    6    0  503  0.77332386318E+02  0.12214288038E+03 -0.12096498178E+03  0.18849856237E+03  0.00000000000E+00 0.  1.
<mgrwt>
<rscale>  0 0.21276674E+04</rscale>
<asrwt>0</asrwt>
<pdfrwt beam="1">  1        1 0.16080143E+00 0.21276674E+04</pdfrwt>
<pdfrwt beam="2">  1       -2 0.16658308E+00 0.21276674E+04</pdfrwt>
<totfact> 0.25316618E+00</totfact>
</mgrwt>
</event>
<event>
12    5  0.5297412E-008  0.1207496E+04  0.7818608E-02  0.9106320E-01
         -2   -1    0    0    0  501 -0.00000000000E+00  0.00000000000E+00  0.28344778116E+03  0.28344778116E+03  0.00000000000E+00 0.  1.
          1   -1    0    0  501    0  0.00000000000E+00 -0.00000000000E+00 -0.12859925135E+04  0.12859925135E+04  0.00000000000E+00 0. -1.
        -24    2    1    2    0    0 -0.16830712141E+03  0.62660895003E+02  0.25658373229E+02  0.19734345436E+03  0.77668603582E+02 0.  0.
        254    2    1    2    0    0  0.16830712141E+03 -0.62660895003E+02 -0.10282031055E+04  0.13720968403E+04  0.89061464057E+03 0.  0.
         23    2    4    4    0    0 -0.17112844845E+03 -0.25479942291E+03 -0.89277480580E+03  0.94863788695E+03  0.93055332547E+02 0.  0.
         23    2    4    4    0    0  0.33943556986E+03  0.19213852791E+03 -0.13542829975E+03  0.42345895333E+03  0.94036911866E+02 0.  0.
          1    1    3    3  502    0  0.59253629239E+01 -0.55401197023E+01  0.38258635390E+01  0.89688396081E+01  0.00000000000E+00 0. -1.
         -2    1    3    3    0  502 -0.17423248433E+03  0.68201014705E+02  0.21832509690E+02  0.18837461475E+03  0.00000000000E+00 0.  1.
         13    1    5    5    0    0 -0.12609618963E+03 -0.21620105435E+03 -0.60343404469E+03  0.65328079050E+03  0.00000000000E+00 0. -1.
        -13    1    5    5    0    0 -0.45032258819E+02 -0.38598368560E+02 -0.28934076110E+03  0.29535709645E+03  0.00000000000E+00 0.  1.
          1    1    6    6  503    0  0.24990064594E+03  0.18587058121E+03 -0.10338452911E+03  0.32815631437E+03  0.00000000000E+00 0. -1.
         -1    1    6    6    0  503  0.89534923919E+02  0.62679466993E+01 -0.32043770638E+02  0.95302638965E+02  0.00000000000E+00 0.  1.
<mgrwt>
<rscale>  0 0.12074961E+04</rscale>
<asrwt>0</asrwt>
<pdfrwt beam="1">  1        1 0.19784500E+00 0.12074961E+04</pdfrwt>
<pdfrwt beam="2">  1       -2 0.43607352E-01 0.12074961E+04</pdfrwt>
<totfact> 0.40045512E+01</totfact>
</mgrwt>
</event>
<event>
12    5  0.5297412E-008  0.3079186E+04  0.7818608E-02  0.8221473E-01
          1   -1    0    0  501    0  0.00000000000E+00  0.00000000000E+00  0.25073491047E+04  0.25073491047E+04  0.00000000000E+00 0. -1.
         -2   -1    0    0    0  501 -0.00000000000E+00 -0.00000000000E+00 -0.94535990314E+03  0.94535990314E+03  0.00000000000E+00 0.  1.
        -24    2    1    2    0    0 -0.17750427011E+03  0.60081591534E+03  0.21283336539E+04  0.22200475912E+04  0.79496131845E+02 0.  0.
        254    2    1    2    0    0  0.17750427011E+03 -0.60081591534E+03 -0.56634445229E+03  0.12326614167E+04  0.89789787807E+03 0.  0.
         23    2    4    4    0    0 -0.26221355588E+03  0.42716443576E+02 -0.28133488854E+03  0.39765872568E+03  0.91665146921E+02 0.  0.
         23    2    4    4    0    0  0.43971782599E+03 -0.64353235892E+03 -0.28500956375E+03  0.83500269098E+03  0.92267974115E+02 0.  0.
          1    1    3    3  502    0 -0.12821414229E+03  0.48081018888E+03  0.17834580120E+04  0.18515776475E+04  0.00000000000E+00 0. -1.
         -2    1    3    3    0  502 -0.49290127830E+02  0.12000572647E+03  0.34487564182E+03  0.36846994370E+03  0.00000000000E+00 0.  1.
         13    1    5    5    0    0 -0.34649651031E+02  0.40657744416E+02 -0.56355511897E+02  0.77650461806E+02  0.00000000000E+00 0.  1.
        -13    1    5    5    0    0 -0.22756390485E+03  0.20586991600E+01 -0.22497937664E+03  0.32000826387E+03  0.00000000000E+00 0. -1.
          3    1    6    6  503    0  0.43417169439E+03 -0.63592574488E+03 -0.26754161698E+03  0.81515957335E+03  0.00000000000E+00 0. -1.
         -3    1    6    6    0  503  0.55461315971E+01 -0.76066140404E+01 -0.17467946771E+02  0.19843117629E+02  0.00000000000E+00 0.  1.
<mgrwt>
<rscale>  0 0.30791865E+04</rscale>
<asrwt>0</asrwt>
<pdfrwt beam="1">  1        1 0.38574601E+00 0.30791865E+04</pdfrwt>
<pdfrwt beam="2">  1       -2 0.14543999E+00 0.30791865E+04</pdfrwt>
<totfact> 0.32360751E-01</totfact>
</mgrwt>
</event>
<event>
12    5  0.5297412E-008  0.1364584E+04  0.7818608E-02  0.8979861E-01
          1   -1    0    0  501    0  0.00000000000E+00  0.00000000000E+00  0.19201006633E+04  0.19201006633E+04  0.00000000000E+00 0. -1.
         -2   -1    0    0    0  501 -0.00000000000E+00 -0.00000000000E+00 -0.24244676041E+03  0.24244676041E+03  0.00000000000E+00 0.  1.
        -24    2    1    2    0    0  0.12084634554E+03  0.31971774288E+03  0.20826384863E+03  0.40816586123E+03  0.80014156740E+02 0.  0.
        254    2    1    2    0    0 -0.12084634554E+03 -0.31971774288E+03  0.14693900543E+04  0.17543815625E+04  0.89550223946E+03 0.  0.
         23    2    4    4    0    0 -0.21077337547E+03 -0.20049720479E+03  0.31851946450E+02  0.30623931775E+03  0.90240945842E+02 0.  0.
         23    2    4    4    0    0  0.89927029924E+02 -0.11922053809E+03  0.14375381078E+04  0.14481422448E+04  0.91102920657E+02 0.  0.
          3    1    3    3  502    0  0.17384316090E+02  0.71029305009E+01  0.45351308224E+00  0.18784880669E+02  0.00000000000E+00 0. -1.
         -4    1    3    3    0  502  0.10346202945E+03  0.31261481238E+03  0.20781033555E+03  0.38938098056E+03  0.00000000000E+00 0.  1.
         13    1    5    5    0    0 -0.17536613551E+03 -0.15197164224E+03  0.60320302005E+02  0.23976488559E+03  0.00000000000E+00 0. -1.
        -13    1    5    5    0    0 -0.35407239957E+02 -0.48525562552E+02 -0.28468355556E+02  0.66474432155E+02  0.00000000000E+00 0.  1.
          2    1    6    6  503    0  0.95818982272E+02 -0.94950195280E+02  0.13601715012E+04  0.13668442961E+04  0.00000000000E+00 0. -1.
         -2    1    6    6    0  503 -0.58919523476E+01 -0.24270342808E+02  0.77366606623E+02  0.81297948700E+02  0.00000000000E+00 0.  1.
<mgrwt>
<rscale>  0 0.13645837E+04</rscale>
<asrwt>0</asrwt>
<pdfrwt beam="1">  1        1 0.29540009E+00 0.13645837E+04</pdfrwt>
<pdfrwt beam="2">  1       -2 0.37299503E-01 0.13645837E+04</pdfrwt>
<totfact> 0.19653937E+01</totfact>
</mgrwt>
</event>
<event>
12    5  0.5297412E-008  0.2860514E+04  0.7818608E-02  0.8284724E-01
          3   -1    0    0  501    0  0.00000000000E+00  0.00000000000E+00  0.14283274311E+04  0.14283274311E+04  0.00000000000E+00 0. -1.
         -4   -1    0    0    0  501 -0.00000000000E+00 -0.00000000000E+00 -0.14321888728E+04  0.14321888728E+04  0.00000000000E+00 0.  1.
        -24    2    1    2    0    0 -0.10931061839E+04  0.35867254005E+03 -0.57857003978E+03  0.12903584076E+04  0.82185211052E+02 0.  0.
        254    2    1    2    0    0  0.10931061839E+04 -0.35867254005E+03  0.57470859810E+03  0.15701578962E+04  0.90087664312E+03 0.  0.
         23    2    4    4    0    0 -0.80480264411E+02 -0.23877727289E+03  0.18161492989E+03  0.32368303131E+03  0.91077236407E+02 0.  0.
         23    2    4    4    0    0  0.11735864483E+04 -0.11989526716E+03  0.39309366822E+03  0.12464748649E+04  0.86584814881E+02 0.  0.
          3    1    3    3  502    0 -0.81474666848E+03  0.27923146297E+03 -0.47023909020E+03  0.98127832222E+03  0.00000000000E+00 0. -1.
         -4    1    3    3    0  502 -0.27835951540E+03  0.79441077082E+02 -0.10833094958E+03  0.30908008538E+03  0.00000000000E+00 0.  1.
         13    1    5    5    0    0 -0.68782931872E+02 -0.89159380531E+02  0.10992091730E+03  0.15736294009E+03  0.00000000000E+00 0.  1.
        -13    1    5    5    0    0 -0.11697332539E+02 -0.14961789236E+03  0.71694012587E+02  0.16632009122E+03  0.00000000000E+00 0. -1.
          3    1    6    6  503    0  0.62284155777E+03 -0.43031281955E+02  0.24796214589E+03  0.67176522915E+03  0.00000000000E+00 0. -1.
         -3    1    6    6    0  503  0.55074489052E+03 -0.76863985204E+02  0.14513152233E+03  0.57470963576E+03  0.00000000000E+00 0.  1.
<mgrwt>
<rscale>  0 0.28605137E+04</rscale>
<asrwt>0</asrwt>
<pdfrwt beam="1">  1        3 0.21974268E+00 0.28605137E+04</pdfrwt>
<pdfrwt beam="2">  1       -4 0.22033675E+00 0.28605137E+04</pdfrwt>
<totfact> 0.21262261E-02</totfact>
</mgrwt>
</event>
<event>
12    5  0.5297412E-008  0.1217494E+04  0.7818608E-02  0.9097680E-01
         -2   -1    0    0    0  501 -0.00000000000E+00  0.00000000000E+00  0.42056518163E+03  0.42056518163E+03  0.00000000000E+00 0.  1.
          1   -1    0    0  501    0  0.00000000000E+00 -0.00000000000E+00 -0.88113112516E+03  0.88113112516E+03  0.00000000000E+00 0. -1.
        -24    2    1    2    0    0 -0.69922144639E+02 -0.22881856247E+03  0.30580525055E+01  0.25219534982E+03  0.79662424925E+02 0.  0.
        254    2    1    2    0    0  0.69922144639E+02  0.22881856247E+03 -0.46362399603E+03  0.10495009570E+04  0.91063604592E+03 0.  0.
         23    2    4    4    0    0  0.38338171191E+03  0.28694338474E+03 -0.93350447466E+01  0.48721787567E+03  0.89308858724E+02 0.  0.
         23    2    4    4    0    0 -0.31345956727E+03 -0.58124822267E+02 -0.45428895129E+03  0.56228308129E+03  0.90268582411E+02 0.  0.
          3    1    3    3  502    0 -0.80544415040E+02 -0.22612054868E+03  0.80056539580E+01  0.24017076388E+03  0.00000000000E+00 0. -1.
         -4    1    3    3    0  502  0.10622270401E+02 -0.26980137923E+01 -0.49476014525E+01  0.12024585940E+02  0.00000000000E+00 0.  1.
         13    1    5    5    0    0  0.14360986486E+03  0.77488154970E+02 -0.38026461960E+02  0.16755363098E+03  0.00000000000E+00 0. -1.
        -13    1    5    5    0    0  0.23977184704E+03  0.20945522977E+03  0.28691417213E+02  0.31966424469E+03  0.00000000000E+00 0.  1.
          2    1    6    6  503    0 -0.82623444449E+02 -0.50838501204E+02 -0.17286233250E+03  0.19822354243E+03  0.00000000000E+00 0.  1.
         -2    1    6    6    0  503 -0.23083612282E+03 -0.72863210631E+01 -0.28142661879E+03  0.36405953886E+03  0.00000000000E+00 0. -1.
<mgrwt>
<rscale>  0 0.12174943E+04</rscale>
<asrwt>0</asrwt>
<pdfrwt beam="1">  1        1 0.13555863E+00 0.12174943E+04</pdfrwt>
<pdfrwt beam="2">  1       -2 0.64702337E-01 0.12174943E+04</pdfrwt>
<totfact> 0.36030271E+01</totfact>
</mgrwt>
</event>
<event>
12    5  0.5297412E-008  0.1669145E+04  0.7818608E-02  0.8779160E-01
         -2   -1    0    0    0  501 -0.00000000000E+00  0.00000000000E+00  0.56779291683E+03  0.56779291683E+03  0.00000000000E+00 0.  1.
          1   -1    0    0  501    0  0.00000000000E+00 -0.00000000000E+00 -0.12266992916E+04  0.12266992916E+04  0.00000000000E+00 0. -1.
        -24    2    1    2    0    0  0.13278668496E+03 -0.46196772948E+03  0.11793616354E+03  0.50131326889E+03  0.79746900334E+02 0.  0.
        254    2    1    2    0    0 -0.13278668496E+03  0.46196772948E+03 -0.77684253836E+03  0.12931789396E+04  0.91530374936E+03 0.  0.
         23    2    4    4    0    0 -0.10849036683E+02 -0.22806505068E+03 -0.45544060871E+03  0.51710125819E+03  0.88522280966E+02 0.  0.
         23    2    4    4    0    0 -0.12193764828E+03  0.69003278016E+03 -0.32140192965E+03  0.77607768139E+03  0.89349534969E+02 0.  0.
          1    1    3    3  502    0 -0.42863165665E+01 -0.11026652075E+02  0.14622186403E+02  0.18808718747E+02  0.00000000000E+00 0. -1.
         -2    1    3    3    0  502  0.13707300153E+03 -0.45094107741E+03  0.10331397714E+03  0.48250455015E+03  0.00000000000E+00 0.  1.
         13    1    5    5    0    0 -0.90523582623E+01 -0.23497674821E+03 -0.45118849628E+03  0.50878981571E+03  0.00000000000E+00 0.  1.
        -13    1    5    5    0    0 -0.17966784211E+01  0.69116975328E+01 -0.42521124273E+01  0.83114424878E+01  0.00000000000E+00 0. -1.
          4    1    6    6  503    0  0.13857322680E+02  0.97829315804E+02 -0.46903725342E+02  0.10937348798E+03  0.00000000000E+00 0. -1.
         -4    1    6    6    0  503 -0.13579497096E+03  0.59220346436E+03 -0.27449820431E+03  0.66670419341E+03  0.00000000000E+00 0.  1.
<mgrwt>
<rscale>  0 0.16691449E+04</rscale>
<asrwt>0</asrwt>
<pdfrwt beam="1">  1        1 0.18872296E+00 0.16691449E+04</pdfrwt>
<pdfrwt beam="2">  1       -2 0.87352758E-01 0.16691449E+04</pdfrwt>
<totfact> 0.96784787E+00</totfact>
</mgrwt>
</event>
<event>
12    5  0.5297412E-008  0.2497246E+04  0.7818608E-02  0.8403967E-01
          1   -1    0    0  501    0  0.00000000000E+00  0.00000000000E+00  0.44899533538E+04  0.44899533538E+04  0.00000000000E+00 0. -1.
         -2   -1    0    0    0  501 -0.00000000000E+00 -0.00000000000E+00 -0.34723294443E+03  0.34723294443E+03  0.00000000000E+00 0.  1.
        -24    2    1    2    0    0 -0.73486278781E+03  0.52919834850E+03  0.30348631243E+04  0.31681849487E+04  0.83231467228E+02 0.  0.
        254    2    1    2    0    0  0.73486278781E+03 -0.52919834850E+03  0.11078572851E+04  0.16690013495E+04  0.85915279875E+03 0.  0.
         23    2    4    4    0    0  0.24386405705E+03 -0.16937091903E+03 -0.88578943744E+02  0.32345109257E+03  0.92834225804E+02 0.  0.
         23    2    4    4    0    0  0.49099873077E+03 -0.35982742947E+03  0.11964362288E+04  0.13455502569E+04  0.92142887360E+02 0.  0.
          1    1    3    3  502    0 -0.69157455484E+03  0.51963158344E+03  0.28818137663E+04  0.30088441188E+04  0.00000000000E+00 0. -1.
         -2    1    3    3    0  502 -0.43288232977E+02  0.95667650589E+01  0.15304935799E+03  0.15934082995E+03  0.00000000000E+00 0.  1.
         13    1    5    5    0    0  0.21946113459E+03 -0.17923033941E+03 -0.89402889236E+02  0.29711879908E+03  0.00000000000E+00 0. -1.
        -13    1    5    5    0    0  0.24402922452E+02  0.98594203827E+01  0.82394549176E+00  0.26332293494E+02  0.00000000000E+00 0.  1.
          3    1    6    6  503    0  0.44094843577E+03 -0.28340238557E+03  0.10083471675E+04  0.11364490509E+04  0.00000000000E+00 0. -1.
         -3    1    6    6    0  503  0.50050294996E+02 -0.76425043897E+02  0.18808906134E+03  0.20910120602E+03  0.00000000000E+00 0.  1.
<mgrwt>
<rscale>  0 0.24972463E+04</rscale>
<asrwt>0</asrwt>
<pdfrwt beam="1">  1        1 0.69076201E+00 0.24972463E+04</pdfrwt>
<pdfrwt beam="2">  1       -2 0.53420456E-01 0.24972463E+04</pdfrwt>
<totfact> 0.85555047E-02</totfact>
</mgrwt>
</event>
<event>
12    5  0.5297412E-008  0.1630830E+04  0.7818608E-02  0.8801829E-01
          1   -1    0    0  501    0  0.00000000000E+00  0.00000000000E+00  0.10238352436E+04  0.10238352436E+04  0.00000000000E+00 0. -1.
         -2   -1    0    0    0  501 -0.00000000000E+00 -0.00000000000E+00 -0.64942252961E+03  0.64942252961E+03  0.00000000000E+00 0.  1.
        -24    2    1    2    0    0  0.25035073560E+03  0.31466866902E+03 -0.26959231205E+03  0.49048754980E+03  0.78779183275E+02 0.  0.
        254    2    1    2    0    0 -0.25035073560E+03 -0.31466866902E+03  0.64400502607E+03  0.11827702234E+04  0.90692395810E+03 0.  0.
         23    2    4    4    0    0  0.25075993219E+03 -0.32621370124E+03  0.49813110440E+03  0.65280087919E+03  0.93372738151E+02 0.  0.
         23    2    4    4    0    0 -0.50111066778E+03  0.11545032220E+02  0.14587392167E+03  0.52996934425E+03  0.91340657361E+02 0.  0.
          3    1    3    3  502    0  0.33275146008E+02  0.25055526621E+02 -0.45855568349E+01  0.41905155860E+02  0.00000000000E+00 0. -1.
         -2    1    3    3    0  502  0.21707558959E+03  0.28961314240E+03 -0.26500675521E+03  0.44858239394E+03  0.00000000000E+00 0.  1.
         13    1    5    5    0    0  0.14309111025E+03 -0.23512604068E+03  0.27679311710E+03  0.39035080442E+03  0.00000000000E+00 0.  1.
        -13    1    5    5    0    0  0.10766882194E+03 -0.91087660566E+02  0.22133798729E+03  0.26245007476E+03  0.00000000000E+00 0. -1.
          3    1    6    6  503    0 -0.63817572808E+00  0.83730551007E+01 -0.80427818729E+00  0.84357680967E+01  0.00000000000E+00 0. -1.
         -3    1    6    6    0  503 -0.50047249205E+03  0.31719771190E+01  0.14667819986E+03  0.52153357615E+03  0.00000000000E+00 0.  1.
<mgrwt>
<rscale>  0 0.16308301E+04</rscale>
<asrwt>0</asrwt>
<pdfrwt beam="1">  1        1 0.15751311E+00 0.16308301E+04</pdfrwt>
<pdfrwt beam="2">  1       -2 0.99911159E-01 0.16308301E+04</pdfrwt>
<totfact> 0.10069781E+01</totfact>
</mgrwt>
</event>
<event>
12    5  0.5297412E-008  0.1087001E+04  0.7818608E-02  0.9217955E-01
         -2   -1    0    0    0  501 -0.00000000000E+00  0.00000000000E+00  0.13316863989E+04  0.13316863989E+04  0.00000000000E+00 0.  1.
          1   -1    0    0  501    0  0.00000000000E+00 -0.00000000000E+00 -0.22181862929E+03  0.22181862929E+03  0.00000000000E+00 0. -1.
        -24    2    1    2    0    0 -0.50290715420E+02  0.37137177446E+02 -0.31821937220E+02  0.10668748547E+03  0.80381949853E+02 0.  0.
        254    2    1    2    0    0  0.50290715420E+02 -0.37137177446E+02  0.11416897069E+04  0.14468175427E+04  0.88651976247E+03 0.  0.
         23    2    4    4    0    0 -0.28997790454E+03 -0.22870416782E+03  0.90536662895E+03  0.98146352629E+03  0.84788791225E+02 0.  0.
         23    2    4    4    0    0  0.34026861996E+03  0.19156699037E+03  0.23632307790E+03  0.46535401645E+03  0.90692436023E+02 0.  0.
          1    1    3    3  502    0 -0.23649860127E+02  0.30328325495E+02 -0.57426315908E+02  0.69115157311E+02  0.00000000000E+00 0. -1.
         -2    1    3    3    0  502 -0.26640855293E+02  0.68088519511E+01  0.25604378687E+02  0.37572328163E+02  0.00000000000E+00 0.  1.
         13    1    5    5    0    0 -0.13985600497E+03 -0.92710954213E+02  0.30876653315E+03  0.35141399397E+03  0.00000000000E+00 0. -1.
        -13    1    5    5    0    0 -0.15012189956E+03 -0.13599321361E+03  0.59660009580E+03  0.63004953233E+03  0.00000000000E+00 0.  1.
          4    1    6    6  503    0  0.17171676313E+03  0.81627201993E+02  0.16533478784E+03  0.25196277288E+03  0.00000000000E+00 0. -1.
         -4    1    6    6    0  503  0.16855185683E+03  0.10993978838E+03  0.70988290057E+02  0.21339124358E+03  0.00000000000E+00 0.  1.
<mgrwt>
<rscale>  0 0.10870011E+04</rscale>
<asrwt>0</asrwt>
<pdfrwt beam="1">  1        1 0.34125944E-01 0.10870011E+04</pdfrwt>
<pdfrwt beam="2">  1       -2 0.20487483E+00 0.10870011E+04</pdfrwt>
<totfact> 0.13968397E+01</totfact>
</mgrwt>
</event>
<event>
12    5  0.5297412E-008  0.1863583E+04  0.7818608E-02  0.8673199E-01
          1   -1    0    0  501    0  0.00000000000E+00  0.00000000000E+00  0.11576886160E+04  0.11576886160E+04  0.00000000000E+00 0. -1.
         -2   -1    0    0    0  501 -0.00000000000E+00 -0.00000000000E+00 -0.74997312370E+03  0.74997312370E+03  0.00000000000E+00 0.  1.
        -24    2    1    2    0    0  0.32277688682E+02  0.60264375069E+03 -0.22512913420E+03  0.64906015030E+03  0.79841168710E+02 0.  0.
        254    2    1    2    0    0 -0.32277688682E+02 -0.60264375069E+03  0.63284462653E+03  0.12586015894E+04  0.90518743924E+03 0.  0.
         23    2    4    4    0    0 -0.36573587684E+03 -0.61362689108E+03  0.54097388562E+03  0.90069138444E+03  0.91057849823E+02 0.  0.
         23    2    4    4    0    0  0.33345818816E+03  0.10983140395E+02  0.91870740913E+02  0.35791020499E+03  0.91348175560E+02 0.  0.
          3    1    3    3  502    0 -0.87580737250E+01  0.32849718445E+03 -0.90222316201E+02  0.34077436873E+03  0.00000000000E+00 0. -1.
         -4    1    3    3    0  502  0.41035762407E+02  0.27414656624E+03 -0.13490681800E+03  0.30828578157E+03  0.00000000000E+00 0.  1.
         13    1    5    5    0    0 -0.81076853697E+02 -0.11643694415E+03  0.15363169379E+03  0.20912607562E+03  0.00000000000E+00 0.  1.
        -13    1    5    5    0    0 -0.28465902314E+03 -0.49718994693E+03  0.38734219183E+03  0.69156530882E+03  0.00000000000E+00 0. -1.
          1    1    6    6  503    0  0.26900921412E+03  0.23315359322E+02  0.10721004970E+03  0.29052290446E+03  0.00000000000E+00 0. -1.
         -1    1    6    6    0  503  0.64448974039E+02 -0.12332218928E+02 -0.15339308786E+02  0.67387300528E+02  0.00000000000E+00 0.  1.
<mgrwt>
<rscale>  0 0.18635829E+04</rscale>
<asrwt>0</asrwt>
<pdfrwt beam="1">  1        1 0.17810594E+00 0.18635829E+04</pdfrwt>
<pdfrwt beam="2">  1       -2 0.11538048E+00 0.18635829E+04</pdfrwt>
<totfact> 0.55274634E+00</totfact>
</mgrwt>
</event>
<event>
12    5  0.5297412E-008  0.1413192E+04  0.7818608E-02  0.8944324E-01
          1   -1    0    0  501    0  0.00000000000E+00  0.00000000000E+00  0.13466585062E+04  0.13466585062E+04  0.00000000000E+00 0. -1.
         -2   -1    0    0    0  501 -0.00000000000E+00 -0.00000000000E+00 -0.37075334268E+03  0.37075334268E+03  0.00000000000E+00 0.  1.
        -24    2    1    2    0    0 -0.37139063584E+02  0.29160398987E+02  0.78914353003E+03  0.79465415165E+03  0.80610612387E+02 0.  0.
        254    2    1    2    0    0  0.37139063584E+02 -0.29160398987E+02  0.18676163353E+03  0.92275769727E+03  0.90242574276E+03 0.  0.
         23    2    4    4    0    0  0.41985175375E+02 -0.14891030164E+03  0.52358260470E+03  0.55359684646E+03  0.91617092173E+02 0.  0.
         23    2    4    4    0    0 -0.48461117911E+01  0.11974990266E+03 -0.33682097117E+03  0.36916085081E+03  0.92020884394E+02 0.  0.
          1    1    3    3  502    0 -0.62030713675E+02  0.27406632776E+02  0.53265266933E+03  0.53695232480E+03  0.00000000000E+00 0. -1.
         -2    1    3    3    0  502  0.24891650090E+02  0.17537662109E+01  0.25649086070E+03  0.25770182686E+03  0.00000000000E+00 0.  1.
         13    1    5    5    0    0  0.66482411124E+02 -0.69330605315E+02  0.30067327303E+03  0.31564388310E+03  0.00000000000E+00 0. -1.
        -13    1    5    5    0    0 -0.24497235749E+02 -0.79579696328E+02  0.22290933167E+03  0.23795296336E+03  0.00000000000E+00 0.  1.
          3    1    6    6  503    0 -0.16081939086E+02  0.11298785424E+03 -0.33725305410E+03  0.35604003493E+03  0.00000000000E+00 0. -1.
         -3    1    6    6    0  503  0.11235827295E+02  0.67620484122E+01  0.43208293031E+00  0.13120815881E+02  0.00000000000E+00 0.  1.
<mgrwt>
<rscale>  0 0.14131923E+04</rscale>
<asrwt>0</asrwt>
<pdfrwt beam="1">  1        1 0.20717823E+00 0.14131923E+04</pdfrwt>
<pdfrwt beam="2">  1       -2 0.57038976E-01 0.14131923E+04</pdfrwt>
<totfact> 0.20629048E+01</totfact>
</mgrwt>
</event>
<event>
12    5  0.5297412E-008  0.1719340E+04  0.7818608E-02  0.8750410E-01
         -2   -1    0    0    0  501 -0.00000000000E+00  0.00000000000E+00  0.61648741765E+03  0.61648741765E+03  0.00000000000E+00 0.  1.
          1   -1    0    0  501    0  0.00000000000E+00 -0.00000000000E+00 -0.11987796766E+04  0.11987796766E+04  0.00000000000E+00 0. -1.
        -24    2    1    2    0    0 -0.37389493376E+02  0.54946797019E+03 -0.51967723676E+03  0.76129410271E+03  0.78684534294E+02 0.  0.
        254    2    1    2    0    0  0.37389493376E+02 -0.54946797019E+03 -0.62615022212E+02  0.10539729915E+04  0.89645156112E+03 0.  0.
         23    2    4    4    0    0 -0.18234313283E+03 -0.78412263282E+02 -0.38065206656E+03  0.43940481708E+03  0.93718175271E+02 0.  0.
         23    2    4    4    0    0  0.21973262621E+03 -0.47105570691E+03  0.31803704435E+03  0.61456817447E+03  0.79815872224E+02 0.  0.
          1    1    3    3  502    0 -0.29292972639E+02  0.45641367179E+03 -0.46876594048E+03  0.65491451732E+03  0.00000000000E+00 0. -1.
         -2    1    3    3    0  502 -0.80965207368E+01  0.93054298403E+02 -0.50911296275E+02  0.10637958539E+03  0.00000000000E+00 0.  1.
         13    1    5    5    0    0 -0.12096188325E+03 -0.40877648491E+02 -0.14592749000E+03  0.19390098422E+03  0.00000000000E+00 0.  1.
        -13    1    5    5    0    0 -0.61381249583E+02 -0.37534614791E+02 -0.23472457656E+03  0.24550383286E+03  0.00000000000E+00 0. -1.
          2    1    6    6  503    0 -0.35859197303E+01 -0.33147315869E+02  0.11549263152E+02  0.35284399513E+02  0.00000000000E+00 0. -1.
         -2    1    6    6    0  503  0.22331854594E+03 -0.43790839104E+03  0.30648778120E+03  0.57928377495E+03  0.00000000000E+00 0.  1.
<mgrwt>
<rscale>  0 0.17193401E+04</rscale>
<asrwt>0</asrwt>
<pdfrwt beam="1">  1        1 0.18442764E+00 0.17193401E+04</pdfrwt>
<pdfrwt beam="2">  1       -2 0.94844219E-01 0.17193401E+04</pdfrwt>
<totfact> 0.83482610E+00</totfact>
</mgrwt>
</event>
<event>
12    5  0.5297412E-008  0.1750816E+04  0.7818608E-02  0.8732901E-01
          1   -1    0    0  501    0  0.00000000000E+00  0.00000000000E+00  0.14240618301E+04  0.14240618301E+04  0.00000000000E+00 0. -1.
         -2   -1    0    0    0  501 -0.00000000000E+00 -0.00000000000E+00 -0.53813619656E+03  0.53813619656E+03  0.00000000000E+00 0.  1.
        -24    2    1    2    0    0 -0.40424805980E+03  0.25679884906E+03  0.81115714540E+03  0.94569522137E+03  0.83674335726E+02 0.  0.
        254    2    1    2    0    0  0.40424805980E+03 -0.25679884906E+03  0.74768488155E+02  0.10165028053E+04  0.89349061754E+03 0.  0.
         23    2    4    4    0    0 -0.23988781371E+03 -0.25294235900E+03  0.47797742925E+02  0.36559321464E+03  0.99235952232E+02 0.  0.
         23    2    4    4    0    0  0.64413587352E+03 -0.38564900586E+01  0.26970745230E+02  0.65090959066E+03  0.89610144767E+02 0.  0.
          3    1    3    3  502    0 -0.40519873577E+03  0.25551187274E+03  0.78589280624E+03  0.92038026678E+03  0.00000000000E+00 0. -1.
         -2    1    3    3    0  502  0.95067596164E+00  0.12869763184E+01  0.25264339160E+02  0.25314954593E+02  0.00000000000E+00 0.  1.
         13    1    5    5    0    0 -0.95484828819E+02 -0.16356299917E+03  0.84570123308E+00  0.18939620493E+03  0.00000000000E+00 0. -1.
        -13    1    5    5    0    0 -0.14440298489E+03 -0.89379359831E+02  0.46952041692E+02  0.17619700971E+03  0.00000000000E+00 0.  1.
          3    1    6    6  503    0  0.15415827540E+03  0.11285365475E+02 -0.29814992528E+02  0.15742003407E+03  0.00000000000E+00 0. -1.
         -3    1    6    6    0  503  0.48997759812E+03 -0.15141855533E+02  0.56785737758E+02  0.49348955658E+03  0.00000000000E+00 0.  1.
<mgrwt>
<rscale>  0 0.17508161E+04</rscale>
<asrwt>0</asrwt>
<pdfrwt beam="1">  1        1 0.21908643E+00 0.17508161E+04</pdfrwt>
<pdfrwt beam="2">  1       -2 0.82790185E-01 0.17508161E+04</pdfrwt>
<totfact> 0.78599235E+00</totfact>
</mgrwt>
</event>
<event>
12    5  0.5297412E-008  0.3083332E+04  0.7818608E-02  0.8220327E-01
          1   -1    0    0  501    0  0.00000000000E+00  0.00000000000E+00  0.21329071845E+04  0.21329071845E+04  0.00000000000E+00 0. -1.
         -2   -1    0    0    0  501 -0.00000000000E+00 -0.00000000000E+00 -0.11143169043E+04  0.11143169043E+04  0.00000000000E+00 0.  1.
        -24    2    1    2    0    0 -0.32332856572E+03  0.67406554651E+03 -0.79973607859E+03  0.10977492449E+04  0.81054838234E+02 0.  0.
        254    2    1    2    0    0  0.32332856572E+03 -0.67406554651E+03  0.18183263588E+04  0.21494748440E+04  0.86892211134E+03 0.  0.
         23    2    4    4    0    0 -0.18055779911E+03  0.86836246818E+02  0.25439681440E+03  0.33657519314E+03  0.91779457818E+02 0.  0.
         23    2    4    4    0    0  0.50388636482E+03 -0.76090179332E+03  0.15639295444E+04  0.18128996509E+04  0.88636993350E+02 0.  0.
          3    1    3    3  502    0 -0.20834674057E+03  0.43765176347E+03 -0.46064463174E+03  0.66868595553E+03  0.00000000000E+00 0. -1.
         -4    1    3    3    0  502 -0.11498182514E+03  0.23641378304E+03 -0.33909144685E+03  0.42906328933E+03  0.00000000000E+00 0.  1.
         13    1    5    5    0    0  0.78401423771E+01  0.13863336517E+02  0.76567185862E+01  0.17671595044E+02  0.00000000000E+00 0.  1.
        -13    1    5    5    0    0 -0.18839794149E+03  0.72972910301E+02  0.24674009582E+03  0.31890359809E+03  0.00000000000E+00 0. -1.
          1    1    6    6  503    0  0.50107056165E+03 -0.74651762381E+03  0.15137642591E+04  0.17606369593E+04  0.00000000000E+00 0. -1.
         -1    1    6    6    0  503  0.28158031790E+01 -0.14384169514E+02  0.50165285285E+02  0.52262691548E+02  0.00000000000E+00 0.  1.
<mgrwt>
<rscale>  0 0.30833323E+04</rscale>
<asrwt>0</asrwt>
<pdfrwt beam="1">  1        1 0.32813957E+00 0.30833323E+04</pdfrwt>
<pdfrwt beam="2">  1       -2 0.17143337E+00 0.30833323E+04</pdfrwt>
<totfact> 0.37444062E-01</totfact>
</mgrwt>
</event>
<event>
12    5  0.5297412E-008  0.1440225E+04  0.7818608E-02  0.8925205E-01
         -2   -1    0    0    0  501 -0.00000000000E+00  0.00000000000E+00  0.17495417974E+04  0.17495417974E+04  0.00000000000E+00 0.  1.
          1   -1    0    0  501    0  0.00000000000E+00 -0.00000000000E+00 -0.29639879018E+03  0.29639879018E+03  0.00000000000E+00 0. -1.
        -24    2    1    2    0    0 -0.31740085673E+03  0.83468754647E+02  0.88385909617E+03  0.94600006537E+03  0.77452468945E+02 0.  0.
        254    2    1    2    0    0  0.31740085673E+03 -0.83468754647E+02  0.56928391101E+03  0.10999405222E+04  0.88208539502E+03 0.  0.
         23    2    4    4    0    0 -0.14557581171E+03 -0.16794130700E+03  0.57158934169E+03  0.62012972665E+03  0.91923352804E+02 0.  0.
         23    2    4    4    0    0  0.46297666844E+03  0.84472552349E+02 -0.23054306831E+01  0.47981079551E+03  0.93434880297E+02 0.  0.
          3    1    3    3  502    0 -0.25232815295E+03  0.67627471729E+02  0.77845671709E+03  0.82111986462E+03  0.00000000000E+00 0. -1.
         -4    1    3    3    0  502 -0.65072703788E+02  0.15841282919E+02  0.10540237908E+03  0.12488020075E+03  0.00000000000E+00 0.  1.
         13    1    5    5    0    0 -0.15742245189E+03 -0.15860376061E+03  0.51164681952E+03  0.55831841199E+03  0.00000000000E+00 0. -1.
        -13    1    5    5    0    0  0.11846640184E+02 -0.93375463861E+01  0.59942522167E+02  0.61811314659E+02  0.00000000000E+00 0.  1.
          1    1    6    6  503    0  0.40770519033E+03  0.10414214586E+03  0.39221635403E+01  0.42081408262E+03  0.00000000000E+00 0. -1.
         -1    1    6    6    0  503  0.55271478118E+02 -0.19669593515E+02 -0.62275942234E+01  0.58996712893E+02  0.00000000000E+00 0.  1.
<mgrwt>
<rscale>  0 0.14402251E+04</rscale>
<asrwt>0</asrwt>
<pdfrwt beam="1">  1        1 0.45599815E-01 0.14402251E+04</pdfrwt>
<pdfrwt beam="2">  1       -2 0.26916027E+00 0.14402251E+04</pdfrwt>
<totfact> 0.37150558E+00</totfact>
</mgrwt>
</event>
<event>
12    5  0.5297412E-008  0.1107301E+04  0.7818608E-02  0.9198105E-01
          3   -1    0    0  501    0  0.00000000000E+00  0.00000000000E+00  0.16398574346E+03  0.16398574346E+03  0.00000000000E+00 0. -1.
         -2   -1    0    0    0  501 -0.00000000000E+00 -0.00000000000E+00 -0.18692401447E+04  0.18692401447E+04  0.00000000000E+00 0.  1.
        -24    2    1    2    0    0  0.49693831893E+02  0.90764549813E+01  0.12353021198E+02  0.95349995437E+02  0.79919744330E+02 0.  0.
        254    2    1    2    0    0 -0.49693831893E+02 -0.90764549813E+01 -0.17176074225E+04  0.19378758928E+04  0.89589946929E+03 0.  0.
         23    2    4    4    0    0 -0.26372870329E+03  0.50320440559E+02 -0.16682430547E+04  0.16921833434E+04  0.91458199829E+02 0.  0.
         23    2    4    4    0    0  0.21403487140E+03 -0.59396895540E+02 -0.49364367773E+02  0.24569254941E+03  0.92677239143E+02 0.  0.
          1    1    3    3  502    0  0.69912423356E+02 -0.28792172051E+01  0.15451991850E+02  0.71657524960E+02  0.00000000000E+00 0. -1.
         -2    1    3    3    0  502 -0.20218591463E+02  0.11955672186E+02 -0.30989706517E+01  0.23692470477E+02  0.00000000000E+00 0.  1.
         13    1    5    5    0    0 -0.22194762257E+03  0.75901853434E+02 -0.13947725055E+04  0.14143592827E+04  0.00000000000E+00 0. -1.
        -13    1    5    5    0    0 -0.41781080717E+02 -0.25581412876E+02 -0.27347054917E+03  0.27782406061E+03  0.00000000000E+00 0.  1.
          1    1    6    6  503    0  0.93621687851E+02 -0.70802843322E+02 -0.71959059692E+01  0.11760035766E+03  0.00000000000E+00 0. -1.
         -1    1    6    6    0  503  0.12041318354E+03  0.11405947781E+02 -0.42168461804E+02  0.12809219175E+03  0.00000000000E+00 0.  1.
<mgrwt>
<rscale>  0 0.11073007E+04</rscale>
<asrwt>0</asrwt>
<pdfrwt beam="1">  1        3 0.25228575E-01 0.11073007E+04</pdfrwt>
<pdfrwt beam="2">  1       -2 0.28757542E+00 0.11073007E+04</pdfrwt>
<totfact> 0.24158263E+00</totfact>
</mgrwt>
</event>
<event>
12    5  0.5297412E-008  0.1496109E+04  0.7818608E-02  0.8887045E-01
         -2   -1    0    0    0  501 -0.00000000000E+00  0.00000000000E+00  0.18851967129E+04  0.18851967129E+04  0.00000000000E+00 0.  1.
          1   -1    0    0  501    0  0.00000000000E+00 -0.00000000000E+00 -0.29683124056E+03  0.29683124056E+03  0.00000000000E+00 0. -1.
        -24    2    1    2    0    0  0.30770803268E+03 -0.52519792660E+02 -0.13637491506E+02  0.32192627561E+03  0.77511184721E+02 0.  0.
        254    2    1    2    0    0 -0.30770803268E+03  0.52519792660E+02  0.16020029638E+04  0.18601016778E+04  0.89225679808E+03 0.  0.
         23    2    4    4    0    0 -0.54696976783E+03  0.25388017695E+01  0.56877759551E+03  0.79436908460E+03  0.91279334852E+02 0.  0.
         23    2    4    4    0    0  0.23926173515E+03  0.49980990891E+02  0.10332253683E+04  0.10657325932E+04  0.92125030119E+02 0.  0.
          3    1    3    3  502    0  0.26896195832E+03 -0.71275755781E+02 -0.67200440410E+01  0.27832701518E+03  0.00000000000E+00 0. -1.
         -4    1    3    3    0  502  0.38746074361E+02  0.18755963121E+02 -0.69174474654E+01  0.43599260434E+02  0.00000000000E+00 0.  1.
         13    1    5    5    0    0 -0.10027987475E+03  0.18082771938E+02  0.15363701572E+03  0.18435664490E+03  0.00000000000E+00 0. -1.
        -13    1    5    5    0    0 -0.44668989309E+03 -0.15543970168E+02  0.41514057979E+03  0.61001243969E+03  0.00000000000E+00 0.  1.
          2    1    6    6  503    0  0.43630079619E+02  0.48698720177E+02  0.24154745675E+03  0.25024053040E+03  0.00000000000E+00 0. -1.
         -2    1    6    6    0  503  0.19563165553E+03  0.12822707138E+01  0.79167791158E+03  0.81549206283E+03  0.00000000000E+00 0.  1.
<mgrwt>
<rscale>  0 0.14961087E+04</rscale>
<asrwt>0</asrwt>
<pdfrwt beam="1">  1        1 0.45666346E-01 0.14961087E+04</pdfrwt>
<pdfrwt beam="2">  1       -2 0.29003026E+00 0.14961087E+04</pdfrwt>
<totfact> 0.27560220E+00</totfact>
</mgrwt>
</event>
<event>
12    5  0.5297412E-008  0.1067419E+04  0.7818608E-02  0.9237542E-01
         -2   -1    0    0    0  501 -0.00000000000E+00  0.00000000000E+00  0.32269981142E+03  0.32269981142E+03  0.00000000000E+00 0.  1.
          1   -1    0    0  501    0  0.00000000000E+00 -0.00000000000E+00 -0.88269604899E+03  0.88269604899E+03  0.00000000000E+00 0. -1.
        -24    2    1    2    0    0 -0.12819000813E+03 -0.52330140005E+02 -0.48366026970E+02  0.16650033783E+03  0.78816040219E+02 0.  0.
        254    2    1    2    0    0  0.12819000813E+03  0.52330140005E+02 -0.51163021061E+03  0.10388955226E+04  0.89351402490E+03 0.  0.
         23    2    4    4    0    0 -0.25408714960E+02  0.11745791775E+03  0.22791160390E+03  0.27498257681E+03  0.96071604124E+02 0.  0.
         23    2    4    4    0    0  0.15359872309E+03 -0.65127777744E+02 -0.73954181451E+03  0.76391294576E+03  0.93844009544E+02 0.  0.
          3    1    3    3  502    0 -0.49203818914E+02 -0.44965194685E+01 -0.54984409911E+02  0.73922390494E+02  0.00000000000E+00 0. -1.
         -4    1    3    3    0  502 -0.78986189219E+02 -0.47833620536E+02  0.66183829409E+01  0.92577947340E+02  0.00000000000E+00 0.  1.
         13    1    5    5    0    0 -0.49842080489E+02  0.21404913304E+02  0.70234086087E+02  0.88742493482E+02  0.00000000000E+00 0. -1.
        -13    1    5    5    0    0  0.24433365530E+02  0.96053004445E+02  0.15767751782E+03  0.18624008333E+03  0.00000000000E+00 0.  1.
          3    1    6    6  503    0  0.15146883536E+03 -0.83169436710E+02 -0.68322151347E+03  0.70473512737E+03  0.00000000000E+00 0.  1.
         -3    1    6    6    0  503  0.21298877310E+01  0.18041658966E+02 -0.56320301041E+02  0.59177818390E+02  0.00000000000E+00 0. -1.
<mgrwt>
<rscale>  0 0.10674190E+04</rscale>
<asrwt>0</asrwt>
<pdfrwt beam="1">  1        1 0.13579939E+00 0.10674190E+04</pdfrwt>
<pdfrwt beam="2">  1       -2 0.49646126E-01 0.10674190E+04</pdfrwt>
<totfact> 0.63182344E+01</totfact>
</mgrwt>
</event>
<event>
12    5  0.5297412E-008  0.1525519E+04  0.7818608E-02  0.8867658E-01
         -2   -1    0    0    0  501 -0.00000000000E+00  0.00000000000E+00  0.80535396566E+03  0.80535396566E+03  0.00000000000E+00 0.  1.
          1   -1    0    0  501    0  0.00000000000E+00 -0.00000000000E+00 -0.72241767247E+03  0.72241767247E+03  0.00000000000E+00 0. -1.
        -24    2    1    2    0    0  0.30437018062E+03  0.61167072895E+02 -0.35643949780E+03  0.47948146013E+03  0.80440893558E+02 0.  0.
        254    2    1    2    0    0 -0.30437018062E+03 -0.61167072895E+02  0.43937579099E+03  0.10482901780E+04  0.89971028334E+03 0.  0.
         23    2    4    4    0    0  0.31228181365E+03  0.39790751887E-01  0.16737653501E+03  0.36560940878E+03  0.90196466666E+02 0.  0.
         23    2    4    4    0    0 -0.61665199427E+03 -0.61206863647E+02  0.27199925598E+03  0.68268076922E+03  0.89796855244E+02 0.  0.
          1    1    3    3  502    0  0.11986077734E+03  0.23926833637E+02 -0.20155781251E+03  0.23572155416E+03  0.00000000000E+00 0. -1.
         -2    1    3    3    0  502  0.18450940328E+03  0.37240239258E+02 -0.15488168529E+03  0.24375990597E+03  0.00000000000E+00 0.  1.
         13    1    5    5    0    0  0.21690163340E+03  0.19750352368E+02  0.15523730767E+03  0.26746030862E+03  0.00000000000E+00 0. -1.
        -13    1    5    5    0    0  0.95380180249E+02 -0.19710561617E+02  0.12139227336E+02  0.98149100168E+02  0.00000000000E+00 0.  1.
          4    1    6    6  503    0 -0.61682823036E+03 -0.66540305571E+02  0.27182118497E+03  0.67734144612E+03  0.00000000000E+00 0.  1.
         -4    1    6    6    0  503  0.17623608462E+00  0.53334419247E+01  0.17807101513E+00  0.53393231040E+01  0.00000000000E+00 0. -1.
<mgrwt>
<rscale>  0 0.15255188E+04</rscale>
<asrwt>0</asrwt>
<pdfrwt beam="1">  1        1 0.11114118E+00 0.15255188E+04</pdfrwt>
<pdfrwt beam="2">  1       -2 0.12390061E+00 0.15255188E+04</pdfrwt>
<totfact> 0.10755502E+01</totfact>
</mgrwt>
</event>
<event>
12    5  0.5297412E-008  0.2093170E+04  0.7818608E-02  0.8564258E-01
         -2   -1    0    0    0  501 -0.00000000000E+00  0.00000000000E+00  0.46282303924E+03  0.46282303924E+03  0.00000000000E+00 0.  1.
          1   -1    0    0  501    0  0.00000000000E+00 -0.00000000000E+00 -0.23666502261E+04  0.23666502261E+04  0.00000000000E+00 0. -1.
        -24    2    1    2    0    0 -0.69691498692E+03 -0.28004576482E+03 -0.13257244912E+04  0.15257577664E+04  0.79216196437E+02 0.  0.
        254    2    1    2    0    0  0.69691498692E+03  0.28004576482E+03 -0.57810269562E+03  0.13037154989E+04  0.89518447598E+03 0.  0.
         23    2    4    4    0    0  0.47044537723E+03 -0.28040595473E+03 -0.26284645954E+03  0.61568022110E+03  0.10013751020E+03 0.  0.
         23    2    4    4    0    0  0.22646960969E+03  0.56045171955E+03 -0.31525623608E+03  0.68803527781E+03  0.92797818240E+02 0.  0.
          3    1    3    3  502    0 -0.62757449315E+03 -0.27541817576E+03 -0.12174296534E+04  0.13970826307E+04  0.00000000000E+00 0. -1.
         -4    1    3    3    0  502 -0.69340493771E+02 -0.46275890579E+01 -0.10829483783E+03  0.12867513574E+03  0.00000000000E+00 0.  1.
         13    1    5    5    0    0  0.19966900303E+03 -0.13466000286E+03 -0.16884278885E+03  0.29412397809E+03  0.00000000000E+00 0. -1.
        -13    1    5    5    0    0  0.27077637421E+03 -0.14574595188E+03 -0.94003670694E+02  0.32155624301E+03  0.00000000000E+00 0.  1.
          1    1    6    6  503    0  0.18928941086E+03  0.39073021249E+03 -0.19040487116E+03  0.47408289884E+03  0.00000000000E+00 0. -1.
         -1    1    6    6    0  503  0.37180198828E+02  0.16972150706E+03 -0.12485136492E+03  0.21395237897E+03  0.00000000000E+00 0.  1.
<mgrwt>
<rscale>  0 0.20931701E+04</rscale>
<asrwt>0</asrwt>
<pdfrwt beam="1">  1        1 0.36410004E+00 0.20931701E+04</pdfrwt>
<pdfrwt beam="2">  1       -2 0.71203544E-01 0.20931701E+04</pdfrwt>
<totfact> 0.24252627E+00</totfact>
</mgrwt>
</event>
<event>
12    5  0.5297412E-008  0.2170031E+04  0.7818608E-02  0.8531006E-01
         -2   -1    0    0    0  501 -0.00000000000E+00  0.00000000000E+00  0.83117690310E+03  0.83117690310E+03  0.00000000000E+00 0.  1.
          1   -1    0    0  501    0  0.00000000000E+00 -0.00000000000E+00 -0.14163756071E+04  0.14163756071E+04  0.00000000000E+00 0. -1.
        -24    2    1    2    0    0  0.21368582405E+02 -0.53960476774E+03 -0.98973140914E+03  0.11305277453E+04  0.83034926261E+02 0.  0.
        254    2    1    2    0    0 -0.21368582405E+02  0.53960476774E+03  0.40453270516E+03  0.11170247649E+04  0.89020654576E+03 0.  0.
         23    2    4    4    0    0  0.87586646190E+02 -0.22634090386E+03  0.89358652854E+02  0.27673013909E+03  0.98452911028E+02 0.  0.
         23    2    4    4    0    0 -0.10895522860E+03  0.76594567160E+03  0.31517405230E+03  0.84029462578E+03  0.90644145951E+02 0.  0.
          1    1    3    3  502    0  0.17248448055E+02 -0.48506780853E+03 -0.82774273194E+03  0.95955527100E+03  0.00000000000E+00 0. -1.
         -2    1    3    3    0  502  0.41201343509E+01 -0.54536959215E+02 -0.16198867721E+03  0.17097247431E+03  0.00000000000E+00 0.  1.
         13    1    5    5    0    0  0.82759509936E+02 -0.17266407428E+03  0.10784327325E+03  0.21975484208E+03  0.00000000000E+00 0.  1.
        -13    1    5    5    0    0  0.48271362534E+01 -0.53676829579E+02 -0.18484620397E+02  0.56975297009E+02  0.00000000000E+00 0. -1.
          2    1    6    6  503    0 -0.58391057228E+02  0.15649997952E+03  0.78342185458E+02  0.18449730940E+03  0.00000000000E+00 0. -1.
         -2    1    6    6    0  503 -0.50564171367E+02  0.60944569208E+03  0.23683186685E+03  0.65579731638E+03  0.00000000000E+00 0.  1.
<mgrwt>
<rscale>  0 0.21700311E+04</rscale>
<asrwt>0</asrwt>
<pdfrwt beam="1">  1        1 0.21790394E+00 0.21700311E+04</pdfrwt>
<pdfrwt beam="2">  1       -2 0.12787337E+00 0.21700311E+04</pdfrwt>
<totfact> 0.27183410E+00</totfact>
</mgrwt>
</event>
<event>
12    5  0.5297412E-008  0.1355493E+04  0.7818608E-02  0.8986681E-01
          1   -1    0    0  501    0  0.00000000000E+00  0.00000000000E+00  0.23740296227E+04  0.23740296227E+04  0.00000000000E+00 0. -1.
         -2   -1    0    0    0  501 -0.00000000000E+00 -0.00000000000E+00 -0.19348540707E+03  0.19348540707E+03  0.00000000000E+00 0.  1.
        -24    2    1    2    0    0 -0.28667832687E+03  0.28351163640E+03  0.65826770745E+03  0.77683958598E+03  0.87178303487E+02 0.  0.
        254    2    1    2    0    0  0.28667832687E+03 -0.28351163640E+03  0.15222765082E+04  0.17906754438E+04  0.85242563696E+03 0.  0.
         23    2    4    4    0    0 -0.20795291901E+03 -0.36842198621E+03  0.73502180142E+03  0.85259238202E+03  0.87621600464E+02 0.  0.
         23    2    4    4    0    0  0.49463124588E+03  0.84910349805E+02  0.78725470675E+03  0.93808306176E+03  0.91433148006E+02 0.  0.
          3    1    3    3  502    0 -0.18536370360E+03  0.21368124626E+03  0.39090617729E+03  0.48252151979E+03  0.00000000000E+00 0. -1.
         -4    1    3    3    0  502 -0.10131462327E+03  0.69830390140E+02  0.26736153016E+03  0.29431806619E+03  0.00000000000E+00 0.  1.
         13    1    5    5    0    0 -0.99010385655E+02 -0.12496861245E+03  0.34541425624E+03  0.38043556482E+03  0.00000000000E+00 0. -1.
        -13    1    5    5    0    0 -0.10894253336E+03 -0.24345337375E+03  0.38960754518E+03  0.47215681720E+03  0.00000000000E+00 0.  1.
          3    1    6    6  503    0  0.11892605984E+03 -0.11276137682E+02  0.14563406481E+03  0.18836092966E+03  0.00000000000E+00 0. -1.
         -3    1    6    6    0  503  0.37570518604E+03  0.96186487487E+02  0.64162064194E+03  0.74972213210E+03  0.00000000000E+00 0.  1.
<mgrwt>
<rscale>  0 0.13554927E+04</rscale>
<asrwt>0</asrwt>
<pdfrwt beam="1">  1        1 0.36523531E+00 0.13554927E+04</pdfrwt>
<pdfrwt beam="2">  1       -2 0.29766987E-01 0.13554927E+04</pdfrwt>
<totfact> 0.14842898E+01</totfact>
</mgrwt>
</event>
<event>
12    5  0.5297412E-008  0.1514783E+04  0.7818608E-02  0.8874682E-01
         -2   -1    0    0    0  501 -0.00000000000E+00  0.00000000000E+00  0.97529423617E+03  0.97529423617E+03  0.00000000000E+00 0.  1.
          1   -1    0    0  501    0  0.00000000000E+00 -0.00000000000E+00 -0.58817302290E+03  0.58817302290E+03  0.00000000000E+00 0. -1.
        -24    2    1    2    0    0  0.83824288698E+02  0.20004027079E+03  0.57413024423E+03  0.61722302602E+03  0.65544680998E+02 0.  0.
        254    2    1    2    0    0 -0.83824288698E+02 -0.20004027079E+03 -0.18700903096E+03  0.94624423305E+03  0.90186648103E+03 0.  0.
         23    2    4    4    0    0  0.21193628364E+03  0.27012567817E+03 -0.13559650883E+03  0.38076071632E+03  0.93313662210E+02 0.  0.
         23    2    4    4    0    0 -0.29576057234E+03 -0.47016594896E+03 -0.51412522132E+02  0.56548351673E+03  0.92725533460E+02 0.  0.
          1    1    3    3  502    0  0.81098140344E+01  0.68338701481E+02  0.11969592051E+03  0.13806904284E+03  0.00000000000E+00 0. -1.
         -2    1    3    3    0  502  0.75714474663E+02  0.13170156931E+03  0.45443432371E+03  0.47915398318E+03  0.00000000000E+00 0.  1.
         13    1    5    5    0    0  0.10331455460E+03  0.19844446273E+03 -0.66435998521E+02  0.23338346959E+03  0.00000000000E+00 0. -1.
        -13    1    5    5    0    0  0.10862172904E+03  0.71681215446E+02 -0.69160510305E+02  0.14737724673E+03  0.00000000000E+00 0.  1.
          4    1    6    6  503    0 -0.21135331622E+03 -0.38906828096E+03 -0.65493439344E+02  0.44758657500E+03  0.00000000000E+00 0. -1.
         -4    1    6    6    0  503 -0.84407256113E+02 -0.81097668003E+02  0.14080917212E+02  0.11789694173E+03  0.00000000000E+00 0.  1.
<mgrwt>
<rscale>  0 0.15147828E+04</rscale>
<asrwt>0</asrwt>
<pdfrwt beam="1">  1        1 0.90488157E-01 0.15147828E+04</pdfrwt>
<pdfrwt beam="2">  1       -2 0.15004527E+00 0.15147828E+04</pdfrwt>
<totfact> 0.89155894E+00</totfact>
</mgrwt>
</event>
<event>
12    5  0.5297412E-008  0.1900388E+04  0.7818608E-02  0.8654663E-01
         -2   -1    0    0    0  501 -0.00000000000E+00  0.00000000000E+00  0.70487537982E+03  0.70487537982E+03  0.00000000000E+00 0.  1.
          1   -1    0    0  501    0  0.00000000000E+00 -0.00000000000E+00 -0.12808917323E+04  0.12808917323E+04  0.00000000000E+00 0. -1.
        -24    2    1    2    0    0  0.11223281198E+03  0.55808566182E+01 -0.98374331605E+03  0.99330374489E+03  0.79209012724E+02 0.  0.
        254    2    1    2    0    0 -0.11223281198E+03 -0.55808566182E+01  0.40772696362E+03  0.99246336718E+03  0.89783902137E+03 0.  0.
         23    2    4    4    0    0  0.28451892355E+03 -0.13840187943E+02 -0.12349471857E+03  0.32318071381E+03  0.89734383626E+02 0.  0.
         23    2    4    4    0    0 -0.39675173553E+03  0.82593313246E+01  0.53122168219E+03  0.66928265337E+03  0.90899055454E+02 0.  0.
          1    1    3    3  502    0  0.45752969304E+02  0.19807954535E+02 -0.68986158255E+03  0.69166082175E+03  0.00000000000E+00 0. -1.
         -2    1    3    3    0  502  0.66479842676E+02 -0.14227097916E+02 -0.29388173350E+03  0.30164292314E+03  0.00000000000E+00 0.  1.
         13    1    5    5    0    0  0.10040942948E+03 -0.27993695086E+02 -0.61985342603E+01  0.10442280555E+03  0.00000000000E+00 0. -1.
        -13    1    5    5    0    0  0.18410949407E+03  0.14153507143E+02 -0.11729618431E+03  0.21875790826E+03  0.00000000000E+00 0.  1.
          1    1    6    6  503    0 -0.17899098266E+03 -0.26142632474E+02  0.18431414612E+03  0.25824971165E+03  0.00000000000E+00 0. -1.
         -1    1    6    6    0  503 -0.21776075287E+03  0.34401963799E+02  0.34690753607E+03  0.41103294172E+03  0.00000000000E+00 0.  1.
<mgrwt>
<rscale>  0 0.19003884E+04</rscale>
<asrwt>0</asrwt>
<pdfrwt beam="1">  1        1 0.19706026E+00 0.19003884E+04</pdfrwt>
<pdfrwt beam="2">  1       -2 0.10844237E+00 0.19003884E+04</pdfrwt>
<totfact> 0.52115447E+00</totfact>
</mgrwt>
</event>
<event>
12    5  0.5297412E-008  0.1706701E+04  0.7818608E-02  0.8757552E-01
          1   -1    0    0  501    0  0.00000000000E+00  0.00000000000E+00  0.40620504916E+03  0.40620504916E+03  0.00000000000E+00 0. -1.
         -2   -1    0    0    0  501 -0.00000000000E+00 -0.00000000000E+00 -0.17927079807E+04  0.17927079807E+04  0.00000000000E+00 0.  1.
        -24    2    1    2    0    0  0.22659874005E+03 -0.29817583968E+03  0.12220626727E+03  0.40225960980E+03  0.81379368135E+02 0.  0.
        254    2    1    2    0    0 -0.22659874005E+03  0.29817583968E+03 -0.15087091988E+04  0.17966534201E+04  0.90083530399E+03 0.  0.
         23    2    4    4    0    0 -0.36026218846E+03  0.88462148281E+02 -0.14804347347E+04  0.15289134180E+04  0.90966147083E+02 0.  0.
         23    2    4    4    0    0  0.13366344841E+03  0.20971369140E+03 -0.28274464188E+02  0.26774000214E+03  0.95076356789E+02 0.  0.
          3    1    3    3  502    0  0.18709019126E+03 -0.26807573596E+03  0.13033642643E+03  0.35193028277E+03  0.00000000000E+00 0. -1.
         -4    1    3    3    0  502  0.39508548789E+02 -0.30100103715E+02 -0.81301591635E+01  0.50329327028E+02  0.00000000000E+00 0.  1.
         13    1    5    5    0    0  0.36410605832E+00  0.18745543862E+01  0.71302638423E+00  0.20383655200E+01  0.00000000000E+00 0. -1.
        -13    1    5    5    0    0 -0.36062629452E+03  0.86587593894E+02 -0.14811477610E+04  0.15268750524E+04  0.00000000000E+00 0.  1.
          3    1    6    6  503    0  0.90483101882E+02  0.10676403815E+03 -0.59111485740E+02  0.15192076657E+03  0.00000000000E+00 0. -1.
         -3    1    6    6    0  503  0.43180346530E+02  0.10294965325E+03  0.30837021553E+02  0.11581923557E+03  0.00000000000E+00 0.  1.
<mgrwt>
<rscale>  0 0.17067010E+04</rscale>
<asrwt>0</asrwt>
<pdfrwt beam="1">  1        1 0.62493083E-01 0.17067010E+04</pdfrwt>
<pdfrwt beam="2">  1       -2 0.27580123E+00 0.17067010E+04</pdfrwt>
<totfact> 0.21859698E+00</totfact>
</mgrwt>
</event>
<event>
12    5  0.5297412E-008  0.1977445E+04  0.7818608E-02  0.8617239E-01
         -2   -1    0    0    0  501 -0.00000000000E+00  0.00000000000E+00  0.47764286856E+03  0.47764286856E+03  0.00000000000E+00 0.  1.
          1   -1    0    0  501    0  0.00000000000E+00 -0.00000000000E+00 -0.20466598367E+04  0.20466598367E+04  0.00000000000E+00 0. -1.
        -24    2    1    2    0    0 -0.31157841721E+03  0.51267089595E+03 -0.64359979694E+01  0.60546608094E+03  0.81456709157E+02 0.  0.
        254    2    1    2    0    0  0.31157841721E+03 -0.51267089595E+03 -0.15625809701E+04  0.19188366243E+04  0.93827615599E+03 0.  0.
         23    2    4    4    0    0  0.52481420404E+01 -0.12709073237E+02  0.11151970419E+03  0.14276381509E+03  0.88067013919E+02 0.  0.
         23    2    4    4    0    0  0.30633027517E+03 -0.49996182271E+03 -0.16741006743E+04  0.17760728092E+04  0.89562794589E+02 0.  0.
          3    1    3    3  502    0 -0.39400540111E+02  0.25471491550E+02 -0.67095938229E+01  0.47394283327E+02  0.00000000000E+00 0. -1.
         -4    1    3    3    0  502 -0.27217787710E+03  0.48719940440E+03  0.27359585350E+00  0.55807179761E+03  0.00000000000E+00 0.  1.
         13    1    5    5    0    0  0.20153565239E+02  0.66220256773E+01  0.11601887167E+03  0.11794234185E+03  0.00000000000E+00 0. -1.
        -13    1    5    5    0    0 -0.14905423198E+02 -0.19331098915E+02 -0.44991674878E+01  0.24821473245E+02  0.00000000000E+00 0.  1.
          3    1    6    6  503    0  0.25697996484E+03 -0.36160758145E+03 -0.13263077946E+04  0.13985317698E+04  0.00000000000E+00 0. -1.
         -3    1    6    6    0  503  0.49350310336E+02 -0.13835424126E+03 -0.34779287975E+03  0.37754103937E+03  0.00000000000E+00 0.  1.
<mgrwt>
<rscale>  0 0.19774453E+04</rscale>
<asrwt>0</asrwt>
<pdfrwt beam="1">  1        1 0.31487074E+00 0.19774453E+04</pdfrwt>
<pdfrwt beam="2">  1       -2 0.73483518E-01 0.19774453E+04</pdfrwt>
<totfact> 0.37780848E+00</totfact>
</mgrwt>
</event>
<event>
12    5  0.5297412E-008  0.1727513E+04  0.7818608E-02  0.8745826E-01
          3   -1    0    0  501    0  0.00000000000E+00  0.00000000000E+00  0.13315717681E+04  0.13315717681E+04  0.00000000000E+00 0. -1.
         -4   -1    0    0    0  501 -0.00000000000E+00 -0.00000000000E+00 -0.56029662546E+03  0.56029662546E+03  0.00000000000E+00 0.  1.
        -24    2    1    2    0    0  0.22959531859E+02  0.58557907560E+03  0.26737724492E+02  0.59208394131E+03  0.80115502642E+02 0.  0.
        254    2    1    2    0    0 -0.22959531859E+02 -0.58557907560E+03  0.74453741810E+03  0.12997844522E+04  0.88976045167E+03 0.  0.
         23    2    4    4    0    0  0.23812161101E+03 -0.43312819052E+03  0.83144614995E+03  0.97167852903E+03  0.92490715540E+02 0.  0.
         23    2    4    4    0    0 -0.26108114287E+03 -0.15245088508E+03 -0.86908731848E+02  0.32810592318E+03  0.93250917578E+02 0.  0.
          1    1    3    3  502    0  0.11856592108E+02  0.29314481736E+03 -0.26711560986E+02  0.29459798066E+03  0.00000000000E+00 0. -1.
         -2    1    3    3    0  502  0.11102939750E+02  0.29243425824E+03  0.53449285478E+02  0.29748596065E+03  0.00000000000E+00 0.  1.
         13    1    5    5    0    0  0.20123661153E+01 -0.40220308402E+02  0.10766909804E+03  0.11495371894E+03  0.00000000000E+00 0.  1.
        -13    1    5    5    0    0  0.23610924489E+03 -0.39290788212E+03  0.72377705191E+03  0.85672481009E+03  0.00000000000E+00 0. -1.
          3    1    6    6  503    0 -0.14403035690E+03 -0.13483002764E+03 -0.65020730188E+02  0.20772957280E+03  0.00000000000E+00 0. -1.
         -3    1    6    6    0  503 -0.11705078597E+03 -0.17620857439E+02 -0.21888001660E+02  0.12037635038E+03  0.00000000000E+00 0.  1.
<mgrwt>
<rscale>  0 0.17275129E+04</rscale>
<asrwt>0</asrwt>
<pdfrwt beam="1">  1        3 0.20485719E+00 0.17275129E+04</pdfrwt>
<pdfrwt beam="2">  1       -4 0.86199481E-01 0.17275129E+04</pdfrwt>
<totfact> 0.34952641E-01</totfact>
</mgrwt>
</event>
<event>
12    5  0.5297412E-008  0.1499693E+04  0.7818608E-02  0.8884657E-01
         -2   -1    0    0    0  501 -0.00000000000E+00  0.00000000000E+00  0.43266376909E+03  0.43266376909E+03  0.00000000000E+00 0.  1.
          1   -1    0    0  501    0  0.00000000000E+00 -0.00000000000E+00 -0.12995532192E+04  0.12995532192E+04  0.00000000000E+00 0. -1.
        -24    2    1    2    0    0  0.51743318212E+02  0.40958609735E+03 -0.55473469920E+03  0.69610152239E+03  0.79928723612E+02 0.  0.
        254    2    1    2    0    0 -0.51743318212E+02 -0.40958609735E+03 -0.31215475089E+03  0.10361154659E+04  0.89758371644E+03 0.  0.
         23    2    4    4    0    0  0.84148704081E+02 -0.63310131827E+03 -0.38320779429E+03  0.75044633886E+03  0.91778049168E+02 0.  0.
         23    2    4    4    0    0 -0.13589202229E+03  0.22351522092E+03  0.71053043401E+02  0.28566912702E+03  0.90181037095E+02 0.  0.
          1    1    3    3  502    0  0.52341913663E+02  0.33539048072E+03 -0.40089220752E+03  0.52530087810E+03  0.00000000000E+00 0. -1.
         -2    1    3    3    0  502 -0.59859545059E+00  0.74195616628E+02 -0.15384249168E+03  0.17080064429E+03  0.00000000000E+00 0.  1.
         13    1    5    5    0    0  0.17360316171E+02 -0.35699821212E+03 -0.17316143917E+03  0.39715738449E+03  0.00000000000E+00 0. -1.
        -13    1    5    5    0    0  0.66788387910E+02 -0.27610310615E+03 -0.21004635511E+03  0.35328895437E+03  0.00000000000E+00 0.  1.
          4    1    6    6  503    0 -0.14712458227E+03  0.20612754615E+03  0.54215170943E+02  0.25898550683E+03  0.00000000000E+00 0. -1.
         -4    1    6    6    0  503  0.11232559975E+02  0.17387674772E+02  0.16837872458E+02  0.26683620191E+02  0.00000000000E+00 0.  1.
<mgrwt>
<rscale>  0 0.14996928E+04</rscale>
<asrwt>0</asrwt>
<pdfrwt beam="1">  1        1 0.19993126E+00 0.14996928E+04</pdfrwt>
<pdfrwt beam="2">  1       -2 0.66563657E-01 0.14996928E+04</pdfrwt>
<totfact> 0.15931479E+01</totfact>
</mgrwt>
</event>
<event>
12    5  0.5297412E-008  0.2046951E+04  0.7818608E-02  0.8584979E-01
          1   -1    0    0  501    0  0.00000000000E+00  0.00000000000E+00  0.17424375146E+04  0.17424375146E+04  0.00000000000E+00 0. -1.
         -2   -1    0    0    0  501 -0.00000000000E+00 -0.00000000000E+00 -0.60117051887E+03  0.60117051887E+03  0.00000000000E+00 0.  1.
        -24    2    1    2    0    0 -0.40970707953E+03 -0.10095650477E+03  0.12698573318E+04  0.13405484864E+04  0.80501518191E+02 0.  0.
        254    2    1    2    0    0  0.40970707953E+03  0.10095650477E+03 -0.12859033606E+03  0.10030595471E+04  0.90085563414E+03 0.  0.
         23    2    4    4    0    0 -0.87502214609E+01  0.84716199773E+02  0.34439256225E+03  0.36625361567E+03  0.91005896384E+02 0.  0.
         23    2    4    4    0    0  0.41845730099E+03  0.16240305000E+02 -0.47298289831E+03  0.63680593140E+03  0.80241584661E+02 0.  0.
          3    1    3    3  502    0 -0.32917542803E+03 -0.10860738070E+03  0.10771980649E+04  0.11315951999E+04  0.00000000000E+00 0. -1.
         -4    1    3    3    0  502 -0.80531651491E+02  0.76508759323E+01  0.19265926691E+03  0.20895328645E+03  0.00000000000E+00 0.  1.
         13    1    5    5    0    0 -0.94624019477E+01  0.30766626970E+02  0.28173243693E+03  0.28356531594E+03  0.00000000000E+00 0. -1.
        -13    1    5    5    0    0  0.71218048681E+00  0.53949572803E+02  0.62660125322E+02  0.82688299728E+02  0.00000000000E+00 0.  1.
          1    1    6    6  503    0  0.28877776621E+03  0.43803802402E+02 -0.35119473247E+03  0.45678125124E+03  0.00000000000E+00 0. -1.
         -1    1    6    6    0  503  0.12967953477E+03 -0.27563497402E+02 -0.12178816584E+03  0.18002468016E+03  0.00000000000E+00 0.  1.
<mgrwt>
<rscale>  0 0.20469510E+04</rscale>
<asrwt>0</asrwt>
<pdfrwt beam="1">  1        1 0.26806731E+00 0.20469510E+04</pdfrwt>
<pdfrwt beam="2">  1       -2 0.92487773E-01 0.20469510E+04</pdfrwt>
<totfact> 0.35883919E+00</totfact>
</mgrwt>
</event>
<event>
12    5  0.5297412E-008  0.1639406E+04  0.7818608E-02  0.8796698E-01
          1   -1    0    0  501    0  0.00000000000E+00  0.00000000000E+00  0.48846370225E+03  0.48846370225E+03  0.00000000000E+00 0. -1.
         -2   -1    0    0    0  501 -0.00000000000E+00 -0.00000000000E+00 -0.13755641734E+04  0.13755641734E+04  0.00000000000E+00 0.  1.
        -24    2    1    2    0    0  0.49988175276E+02 -0.17784027134E+03  0.30869411061E+03  0.36785620054E+03  0.76812437623E+02 0.  0.
        254    2    1    2    0    0 -0.49988175276E+02  0.17784027134E+03 -0.11957945818E+04  0.14961716751E+04  0.88004489650E+03 0.  0.
         23    2    4    4    0    0 -0.39383047224E+03 -0.12833336488E+03 -0.64597029084E+03  0.77328932594E+03  0.95534661539E+02 0.  0.
         23    2    4    4    0    0  0.34384229696E+03  0.30617363622E+03 -0.54982429092E+03  0.72288234917E+03  0.91007247881E+02 0.  0.
          1    1    3    3  502    0  0.19909760561E+02 -0.10296859728E+03  0.23990123682E+03  0.26182347874E+03  0.00000000000E+00 0. -1.
         -2    1    3    3    0  502  0.30078414715E+02 -0.74871674060E+02  0.68792873787E+02  0.10603272180E+03  0.00000000000E+00 0.  1.
         13    1    5    5    0    0 -0.15279278417E+03 -0.29703013619E+02 -0.16836816379E+03  0.22929400885E+03  0.00000000000E+00 0.  1.
        -13    1    5    5    0    0 -0.24103768806E+03 -0.98630351259E+02 -0.47760212705E+03  0.54399531709E+03  0.00000000000E+00 0. -1.
          2    1    6    6  503    0  0.22071817382E+03  0.18375165640E+03 -0.40662731099E+03  0.49782221076E+03  0.00000000000E+00 0.  1.
         -2    1    6    6    0  503  0.12312412314E+03  0.12242197981E+03 -0.14319697993E+03  0.22506013841E+03  0.00000000000E+00 0. -1.
<mgrwt>
<rscale>  0 0.16394062E+04</rscale>
<asrwt>0</asrwt>
<pdfrwt beam="1">  1        1 0.75148263E-01 0.16394062E+04</pdfrwt>
<pdfrwt beam="2">  1       -2 0.21162525E+00 0.16394062E+04</pdfrwt>
<totfact> 0.42774141E+00</totfact>
</mgrwt>
</event>
<event>
12    5  0.5297412E-008  0.1519855E+04  0.7818608E-02  0.8871356E-01
         -2   -1    0    0    0  501 -0.00000000000E+00  0.00000000000E+00  0.84378755204E+03  0.84378755204E+03  0.00000000000E+00 0.  1.
          1   -1    0    0  501    0  0.00000000000E+00 -0.00000000000E+00 -0.68440153281E+03  0.68440153281E+03  0.00000000000E+00 0. -1.
        -24    2    1    2    0    0 -0.40896806109E+03 -0.26537230548E+03  0.45945601024E+01  0.49418973411E+03  0.80777768057E+02 0.  0.
        254    2    1    2    0    0  0.40896806109E+03  0.26537230548E+03  0.15479145913E+03  0.10339993507E+04  0.89861945562E+03 0.  0.
         23    2    4    4    0    0  0.51671558397E+03 -0.14205810838E+03 -0.69081207532E+02  0.54816782259E+03  0.92413460141E+02 0.  0.
         23    2    4    4    0    0 -0.10774752289E+03  0.40743041386E+03  0.22387266666E+03  0.48583152815E+03  0.91127559196E+02 0.  0.
          1    1    3    3  502    0 -0.37486140929E+03 -0.26349897370E+03 -0.65707512274E+01  0.45825316157E+03  0.00000000000E+00 0. -1.
         -2    1    3    3    0  502 -0.34106651798E+02 -0.18733317749E+01  0.11165311330E+02  0.35936572539E+02  0.00000000000E+00 0.  1.
         13    1    5    5    0    0  0.19525788287E+03 -0.79864397706E+01 -0.20316057681E+02  0.19647433991E+03  0.00000000000E+00 0. -1.
        -13    1    5    5    0    0  0.32145770110E+03 -0.13407166861E+03 -0.48765149851E+02  0.35169348268E+03  0.00000000000E+00 0.  1.
          3    1    6    6  503    0 -0.72515422715E+02  0.11122240547E+03  0.63984840629E+02  0.14738714273E+03  0.00000000000E+00 0. -1.
         -3    1    6    6    0  503 -0.35232100174E+02  0.29620800838E+03  0.15988782603E+03  0.33844438542E+03  0.00000000000E+00 0.  1.
<mgrwt>
<rscale>  0 0.15198546E+04</rscale>
<asrwt>0</asrwt>
<pdfrwt beam="1">  1        1 0.10529254E+00 0.15198546E+04</pdfrwt>
<pdfrwt beam="2">  1       -2 0.12981347E+00 0.15198546E+04</pdfrwt>
<totfact> 0.10387299E+01</totfact>
</mgrwt>
</event>
<event>
12    5  0.5297412E-008  0.2132212E+04  0.7818608E-02  0.8547185E-01
          1   -1    0    0  501    0  0.00000000000E+00  0.00000000000E+00  0.13164008083E+04  0.13164008083E+04  0.00000000000E+00 0. -1.
         -2   -1    0    0    0  501 -0.00000000000E+00 -0.00000000000E+00 -0.86340109051E+03  0.86340109051E+03  0.00000000000E+00 0.  1.
        -24    2    1    2    0    0 -0.17306045596E+03 -0.84783304360E+03  0.76050954117E+02  0.87224350612E+03  0.79083469287E+02 0.  0.
        254    2    1    2    0    0  0.17306045596E+03  0.84783304360E+03  0.37694876363E+03  0.13075583927E+04  0.90490208783E+03 0.  0.
         23    2    4    4    0    0  0.46083710015E+03  0.41534083317E+03 -0.49514548976E+02  0.62915308480E+03  0.92212108694E+02 0.  0.
         23    2    4    4    0    0 -0.28777664419E+03  0.43249221043E+03  0.42646331261E+03  0.67840530785E+03  0.92184031658E+02 0.  0.
          3    1    3    3  502    0 -0.69013943061E+02 -0.24733226219E+03  0.53998463819E+02  0.26239665842E+03  0.00000000000E+00 0. -1.
         -4    1    3    3    0  502 -0.10404651289E+03 -0.60050078142E+03  0.22052490298E+02  0.60984684770E+03  0.00000000000E+00 0.  1.
         13    1    5    5    0    0  0.32896350571E+03  0.23838161344E+03 -0.23519355099E+02  0.40693481269E+03  0.00000000000E+00 0. -1.
        -13    1    5    5    0    0  0.13187359444E+03  0.17695921973E+03 -0.25995193877E+02  0.22221827211E+03  0.00000000000E+00 0.  1.
          4    1    6    6  503    0 -0.14092480738E+03  0.26977268006E+03  0.20599268259E+03  0.36751882337E+03  0.00000000000E+00 0. -1.
         -4    1    6    6    0  503 -0.14685183681E+03  0.16271953037E+03  0.22047063001E+03  0.31088648449E+03  0.00000000000E+00 0.  1.
<mgrwt>
<rscale>  0 0.21322119E+04</rscale>
<asrwt>0</asrwt>
<pdfrwt beam="1">  1        1 0.20252320E+00 0.21322119E+04</pdfrwt>
<pdfrwt beam="2">  1       -2 0.13283094E+00 0.21322119E+04</pdfrwt>
<totfact> 0.29135739E+00</totfact>
</mgrwt>
</event>
<event>
12    5  0.5297412E-008  0.1909331E+04  0.7818608E-02  0.8650226E-01
          1   -1    0    0  501    0  0.00000000000E+00  0.00000000000E+00  0.14979619125E+04  0.14979619125E+04  0.00000000000E+00 0. -1.
         -2   -1    0    0    0  501 -0.00000000000E+00 -0.00000000000E+00 -0.60841729077E+03  0.60841729077E+03  0.00000000000E+00 0.  1.
        -24    2    1    2    0    0 -0.49034497836E+03  0.21140712369E+01 -0.27171940014E+03  0.56554351922E+03  0.74601425010E+02 0.  0.
        254    2    1    2    0    0  0.49034497836E+03 -0.21140712369E+01  0.11612640219E+04  0.15408356841E+04  0.88611388076E+03 0.  0.
         23    2    4    4    0    0  0.55810983481E+03 -0.46359876097E+02  0.12612865127E+04  0.13829011932E+04  0.89085449516E+02 0.  0.
         23    2    4    4    0    0 -0.67764856446E+02  0.44245804860E+02 -0.10002249074E+03  0.15793449090E+03  0.91591690358E+02 0.  0.
          3    1    3    3  502    0 -0.12881126379E+03  0.26942118907E+02 -0.50400005724E+02  0.14091976450E+03  0.00000000000E+00 0. -1.
         -4    1    3    3    0  502 -0.36153371458E+03 -0.24828047670E+02 -0.22131939442E+03  0.42462375472E+03  0.00000000000E+00 0.  1.
         13    1    5    5    0    0  0.26404206201E+03 -0.65043068293E+02  0.57705265064E+03  0.63791737150E+03  0.00000000000E+00 0.  1.
        -13    1    5    5    0    0  0.29406777280E+03  0.18683192196E+02  0.68423386201E+03  0.74498382170E+03  0.00000000000E+00 0. -1.
          1    1    6    6  503    0 -0.83825425556E+02  0.11005450718E+02 -0.77489273074E+02  0.11468395423E+03  0.00000000000E+00 0. -1.
         -1    1    6    6    0  503  0.16060569110E+02  0.33240354142E+02 -0.22533217670E+02  0.43250536670E+02  0.00000000000E+00 0.  1.
<mgrwt>
<rscale>  0 0.19093307E+04</rscale>
<asrwt>0</asrwt>
<pdfrwt beam="1">  1        1 0.23045568E+00 0.19093307E+04</pdfrwt>
<pdfrwt beam="2">  1       -2 0.93602660E-01 0.19093307E+04</pdfrwt>
<totfact> 0.51954885E+00</totfact>
</mgrwt>
</event>
<event>
12    5  0.5297412E-008  0.1317520E+04  0.7818608E-02  0.9015786E-01
          1   -1    0    0  501    0  0.00000000000E+00  0.00000000000E+00  0.15395597024E+04  0.15395597024E+04  0.00000000000E+00 0. -1.
         -2   -1    0    0    0  501 -0.00000000000E+00 -0.00000000000E+00 -0.28187571327E+03  0.28187571327E+03  0.00000000000E+00 0.  1.
        -24    2    1    2    0    0 -0.31605493642E+03 -0.14776847820E+03  0.29085126126E+03  0.46018395668E+03  0.73814441814E+02 0.  0.
        254    2    1    2    0    0  0.31605493642E+03  0.14776847820E+03  0.96683272790E+03  0.13612514590E+04  0.89247619855E+03 0.  0.
         23    2    4    4    0    0  0.20559359914E+03 -0.67426081828E+02 -0.10590554816E+03  0.25772340888E+03  0.91598940144E+02 0.  0.
         23    2    4    4    0    0  0.11046133728E+03  0.21519456003E+03  0.10727382761E+04  0.11035280501E+04  0.92175608801E+02 0.  0.
          1    1    3    3  502    0 -0.30186909816E+03 -0.13993028791E+03  0.29360469809E+03  0.44374447224E+03  0.00000000000E+00 0. -1.
         -2    1    3    3    0  502 -0.14185838262E+02 -0.78381902958E+01 -0.27534368338E+01  0.16439484441E+02  0.00000000000E+00 0.  1.
         13    1    5    5    0    0  0.98978276755E+02 -0.56818329045E+00 -0.84350740408E+02  0.13004641290E+03  0.00000000000E+00 0.  1.
        -13    1    5    5    0    0  0.10661532238E+03 -0.66857898538E+02 -0.21554807748E+02  0.12767699597E+03  0.00000000000E+00 0. -1.
          1    1    6    6  503    0  0.11773640429E+02  0.81011806755E+02  0.22143392898E+03  0.23608158832E+03  0.00000000000E+00 0. -1.
         -1    1    6    6    0  503  0.98687696851E+02  0.13418275328E+03  0.85130434707E+03  0.86744646183E+03  0.00000000000E+00 0.  1.
<mgrwt>
<rscale>  0 0.13175196E+04</rscale>
<asrwt>0</asrwt>
<pdfrwt beam="1">  1        1 0.23685533E+00 0.13175196E+04</pdfrwt>
<pdfrwt beam="2">  1       -2 0.43365495E-01 0.13175196E+04</pdfrwt>
<totfact> 0.26663774E+01</totfact>
</mgrwt>
</event>
<event>
12    5  0.5297412E-008  0.2335145E+04  0.7818608E-02  0.8464191E-01
         -2   -1    0    0    0  501 -0.00000000000E+00  0.00000000000E+00  0.57272812441E+03  0.57272812441E+03  0.00000000000E+00 0.  1.
          1   -1    0    0  501    0  0.00000000000E+00 -0.00000000000E+00 -0.23802317208E+04  0.23802317208E+04  0.00000000000E+00 0. -1.
        -24    2    1    2    0    0  0.28936474312E+03 -0.59300683453E+03 -0.17064413790E+04  0.18310095806E+04  0.72559244995E+02 0.  0.
        254    2    1    2    0    0 -0.28936474312E+03  0.59300683453E+03 -0.10106221742E+03  0.11219502646E+04  0.90175926061E+03 0.  0.
         23    2    4    4    0    0  0.48521674405E+02  0.34014422879E+03 -0.44479936808E+03  0.56967294737E+03  0.92888857600E+02 0.  0.
         23    2    4    4    0    0 -0.33788641752E+03  0.25286260574E+03  0.34373715066E+03  0.55227731723E+03  0.93532228980E+02 0.  0.
          1    1    3    3  502    0  0.22161537174E+03 -0.50284181757E+03 -0.14599662490E+04  0.15599566388E+04  0.00000000000E+00 0. -1.
         -2    1    3    3    0  502  0.67749371373E+02 -0.90165016960E+02 -0.24647512998E+03  0.27105294188E+03  0.00000000000E+00 0.  1.
         13    1    5    5    0    0  0.72739927689E+02  0.30064691472E+03 -0.37912911518E+03  0.48930414916E+03  0.00000000000E+00 0.  1.
        -13    1    5    5    0    0 -0.24218253284E+02  0.39497314066E+02 -0.65670252899E+02  0.80368798215E+02  0.00000000000E+00 0. -1.
          3    1    6    6  503    0 -0.37436456406E+02  0.57286704720E+01  0.86921462440E+01  0.38856908522E+02  0.00000000000E+00 0. -1.
         -3    1    6    6    0  503 -0.30044996111E+03  0.24713393527E+03  0.33504500441E+03  0.51342040871E+03  0.00000000000E+00 0.  1.
<mgrwt>
<rscale>  0 0.23351451E+04</rscale>
<asrwt>0</asrwt>
<pdfrwt beam="1">  1        1 0.36618950E+00 0.23351451E+04</pdfrwt>
<pdfrwt beam="2">  1       -2 0.88112019E-01 0.23351451E+04</pdfrwt>
<totfact> 0.14405695E+00</totfact>
</mgrwt>
</event>
<event>
12    5  0.5297412E-008  0.1500091E+04  0.7818608E-02  0.8884392E-01
          1   -1    0    0  501    0  0.00000000000E+00  0.00000000000E+00  0.49911694449E+03  0.49911694449E+03  0.00000000000E+00 0. -1.
         -2   -1    0    0    0  501 -0.00000000000E+00 -0.00000000000E+00 -0.11271275650E+04  0.11271275650E+04  0.00000000000E+00 0.  1.
        -24    2    1    2    0    0  0.69770208345E+02 -0.12973324116E+03  0.32722703325E+03  0.36767932069E+03  0.80074688472E+02 0.  0.
        254    2    1    2    0    0 -0.69770208345E+02  0.12973324116E+03 -0.95523765379E+03  0.12585651888E+04  0.80610716624E+03 0.  0.
         23    2    4    4    0    0  0.18267014508E+03  0.19817777100E+03 -0.20384874141E+02  0.28366466975E+03  0.86065620020E+02 0.  0.
         23    2    4    4    0    0 -0.25244035342E+03 -0.68444529834E+02 -0.93485277965E+03  0.97490051908E+03  0.89836055013E+02 0.  0.
          1    1    3    3  502    0  0.10939177381E+02 -0.84516100666E+02  0.11703628279E+03  0.14477613188E+03  0.00000000000E+00 0. -1.
         -2    1    3    3    0  502  0.58831030964E+02 -0.45217140497E+02  0.21019075046E+03  0.22290318880E+03  0.00000000000E+00 0.  1.
         13    1    5    5    0    0 -0.41334171445E+01  0.17287262849E+02  0.12257555750E+02  0.21591254411E+02  0.00000000000E+00 0.  1.
        -13    1    5    5    0    0  0.18680356222E+03  0.18089050815E+03 -0.32642429891E+02  0.26207341534E+03  0.00000000000E+00 0. -1.
          4    1    6    6  503    0 -0.12405321241E+03 -0.65478441667E+02 -0.37162394612E+03  0.39721654442E+03  0.00000000000E+00 0. -1.
         -4    1    6    6    0  503 -0.12838714102E+03 -0.29660881663E+01 -0.56322883353E+03  0.57768397466E+03  0.00000000000E+00 0.  1.
<mgrwt>
<rscale>  0 0.15000913E+04</rscale>
<asrwt>0</asrwt>
<pdfrwt beam="1">  1        1 0.76787222E-01 0.15000913E+04</pdfrwt>
<pdfrwt beam="2">  1       -2 0.17340424E+00 0.15000913E+04</pdfrwt>
<totfact> 0.75716880E+00</totfact>
</mgrwt>
</event>
<event>
12    5  0.5297412E-008  0.1078667E+04  0.7818608E-02  0.9226237E-01
         -2   -1    0    0    0  501 -0.00000000000E+00  0.00000000000E+00  0.29893430263E+03  0.29893430263E+03  0.00000000000E+00 0.  1.
          1   -1    0    0  501    0  0.00000000000E+00 -0.00000000000E+00 -0.97305882369E+03  0.97305882369E+03  0.00000000000E+00 0. -1.
        -24    2    1    2    0    0  0.13227481982E+02 -0.68736636575E+02 -0.26307547396E+03  0.28385072093E+03  0.80391761328E+02 0.  0.
        254    2    1    2    0    0 -0.13227481982E+02  0.68736636575E+02 -0.41104904710E+03  0.98814240539E+03  0.89585958873E+03 0.  0.
         23    2    4    4    0    0  0.18342143345E+03  0.41519360192E+03 -0.33674314855E+03  0.57291381593E+03  0.93835723839E+02 0.  0.
         23    2    4    4    0    0 -0.19664891543E+03 -0.34645696535E+03 -0.74305898556E+02  0.41522858946E+03  0.90499669436E+02 0.  0.
          3    1    3    3  502    0  0.10070677134E+02 -0.72649903733E+02 -0.26736443207E+03  0.27724207218E+03  0.00000000000E+00 0. -1.
         -4    1    3    3    0  502  0.31568048478E+01  0.39132671573E+01  0.42889581113E+01  0.66086487554E+01  0.00000000000E+00 0.  1.
         13    1    5    5    0    0  0.13578125877E+03  0.37861614870E+03 -0.27837295242E+03  0.48916074958E+03  0.00000000000E+00 0. -1.
        -13    1    5    5    0    0  0.47640174676E+02  0.36577453218E+02 -0.58370196132E+02  0.83753066353E+02  0.00000000000E+00 0.  1.
          3    1    6    6  503    0 -0.10952223323E+03 -0.13133546717E+03  0.16604529475E+01  0.17101719683E+03  0.00000000000E+00 0. -1.
         -3    1    6    6    0  503 -0.87126682201E+02 -0.21512149817E+03 -0.75966351504E+02  0.24421139263E+03  0.00000000000E+00 0.  1.
<mgrwt>
<rscale>  0 0.10786671E+04</rscale>
<asrwt>0</asrwt>
<pdfrwt beam="1">  1        1 0.14970136E+00 0.10786671E+04</pdfrwt>
<pdfrwt beam="2">  1       -2 0.45989893E-01 0.10786671E+04</pdfrwt>
<totfact> 0.62292355E+01</totfact>
</mgrwt>
</event>
<event>
12    5  0.5297412E-008  0.1238120E+04  0.7818608E-02  0.9080130E-01
         -2   -1    0    0    0  501 -0.00000000000E+00  0.00000000000E+00  0.22083726916E+03  0.22083726916E+03  0.00000000000E+00 0.  1.
          1   -1    0    0  501    0  0.00000000000E+00 -0.00000000000E+00 -0.17353731357E+04  0.17353731357E+04  0.00000000000E+00 0. -1.
        -24    2    1    2    0    0 -0.25837808194E+03 -0.20714412350E+02 -0.32468848435E+03  0.42328195014E+03  0.80973312489E+02 0.  0.
        254    2    1    2    0    0  0.25837808194E+03  0.20714412350E+02 -0.11898473822E+04  0.15329284547E+04  0.93109856313E+03 0.  0.
         23    2    4    4    0    0  0.22649743827E+03  0.45071275168E+03 -0.76151776153E+03  0.91803781438E+03  0.91875205756E+02 0.  0.
         23    2    4    4    0    0  0.31880643663E+02 -0.42999833933E+03 -0.42832962064E+03  0.61489064032E+03  0.93323568148E+02 0.  0.
          3    1    3    3  502    0 -0.15002934698E+02  0.30922531854E+01 -0.64179039463E+02  0.65981809506E+02  0.00000000000E+00 0. -1.
         -4    1    3    3    0  502 -0.24337514724E+03 -0.23806665535E+02 -0.26050944489E+03  0.35730014063E+03  0.00000000000E+00 0.  1.
         13    1    5    5    0    0  0.79135794826E+02  0.24419241596E+03 -0.33933122747E+03  0.42548571301E+03  0.00000000000E+00 0. -1.
        -13    1    5    5    0    0  0.14736164345E+03  0.20652033571E+03 -0.42218653406E+03  0.49255210137E+03  0.00000000000E+00 0.  1.
          1    1    6    6  503    0  0.11394013705E+02 -0.41632133259E+03 -0.40654651386E+03  0.58200802696E+03  0.00000000000E+00 0. -1.
         -1    1    6    6    0  503  0.20486629958E+02 -0.13677006741E+02 -0.21783106779E+02  0.32882613360E+02  0.00000000000E+00 0.  1.
<mgrwt>
<rscale>  0 0.12381196E+04</rscale>
<asrwt>0</asrwt>
<pdfrwt beam="1">  1        1 0.26698047E+00 0.12381196E+04</pdfrwt>
<pdfrwt beam="2">  1       -2 0.33974966E-01 0.12381196E+04</pdfrwt>
<totfact> 0.31682292E+01</totfact>
</mgrwt>
</event>
<event>
12    5  0.5297412E-008  0.1404304E+04  0.7818608E-02  0.8950709E-01
         -4   -1    0    0    0  501 -0.00000000000E+00  0.00000000000E+00  0.77239878755E+03  0.77239878755E+03  0.00000000000E+00 0.  1.
          3   -1    0    0  501    0  0.00000000000E+00 -0.00000000000E+00 -0.63829412162E+03  0.63829412162E+03  0.00000000000E+00 0. -1.
        -24    2    1    2    0    0  0.23690122681E+03  0.24076062773E+03  0.27130907081E+03  0.44056952062E+03  0.80031365519E+02 0.  0.
        254    2    1    2    0    0 -0.23690122681E+03 -0.24076062773E+03 -0.13720440489E+03  0.97012338855E+03  0.89901416516E+03 0.  0.
         23    2    4    4    0    0 -0.11256513958E+03  0.12801551056E+03 -0.43218414786E+03  0.47340398774E+03  0.90935781491E+02 0.  0.
         23    2    4    4    0    0 -0.12433608723E+03 -0.36877613829E+03  0.29497974298E+03  0.49671940081E+03  0.90894508157E+02 0.  0.
          1    1    3    3  502    0 -0.41580009077E+00  0.16238547488E+02  0.31043006638E+02  0.35036146697E+02  0.00000000000E+00 0. -1.
         -2    1    3    3    0  502  0.23731702690E+03  0.22452208024E+03  0.24026606417E+03  0.40553337392E+03  0.00000000000E+00 0.  1.
         13    1    5    5    0    0  0.80813876156E+01  0.22606457928E+02 -0.20231856497E+02  0.31395680963E+02  0.00000000000E+00 0.  1.
        -13    1    5    5    0    0 -0.12064652720E+03  0.10540905263E+03 -0.41195229137E+03  0.44200830678E+03  0.00000000000E+00 0. -1.
          2    1    6    6  503    0 -0.68818808975E+02 -0.30259901427E+03  0.25443399022E+03  0.40129645810E+03  0.00000000000E+00 0. -1.
         -2    1    6    6    0  503 -0.55517278251E+02 -0.66177124020E+02  0.40545752758E+02  0.95422942706E+02  0.00000000000E+00 0.  1.
<mgrwt>
<rscale>  0 0.14043042E+04</rscale>
<asrwt>0</asrwt>
<pdfrwt beam="1">  1        3 0.98199095E-01 0.14043042E+04</pdfrwt>
<pdfrwt beam="2">  1       -4 0.11883058E+00 0.14043042E+04</pdfrwt>
<totfact> 0.11027873E+00</totfact>
</mgrwt>
</event>
<event>
12    5  0.5297412E-008  0.1902379E+04  0.7818608E-02  0.8653673E-01
          1   -1    0    0  501    0  0.00000000000E+00  0.00000000000E+00  0.88043037794E+03  0.88043037794E+03  0.00000000000E+00 0. -1.
         -2   -1    0    0    0  501 -0.00000000000E+00 -0.00000000000E+00 -0.10276355974E+04  0.10276355974E+04  0.00000000000E+00 0.  1.
        -24    2    1    2    0    0  0.37178063294E+03 -0.52076271991E+02  0.57586029639E+03  0.69207211434E+03  0.80099646457E+02 0.  0.
        254    2    1    2    0    0 -0.37178063294E+03  0.52076271991E+02 -0.72306551590E+03  0.12159938610E+04  0.90270956163E+03 0.  0.
         23    2    4    4    0    0  0.17406989459E+03 -0.23371903847E+03 -0.42829297834E+03  0.52599006085E+03  0.91135896756E+02 0.  0.
         23    2    4    4    0    0 -0.54585052752E+03  0.28579531046E+03 -0.29477253756E+03  0.69000380018E+03  0.97890946911E+02 0.  0.
          1    1    3    3  502    0  0.27735874793E+03 -0.73158029028E+02  0.44166744448E+03  0.52664039322E+03  0.00000000000E+00 0. -1.
         -2    1    3    3    0  502  0.94421885007E+02  0.21081757037E+02  0.13419285191E+03  0.16543172112E+03  0.00000000000E+00 0.  1.
         13    1    5    5    0    0  0.12721788726E+03 -0.11891732813E+03 -0.19248367904E+03  0.25956827322E+03  0.00000000000E+00 0.  1.
        -13    1    5    5    0    0  0.46852007330E+02 -0.11480171034E+03 -0.23580929930E+03  0.26642178763E+03  0.00000000000E+00 0. -1.
          2    1    6    6  503    0 -0.12827222080E+03  0.10034667349E+03 -0.43527223916E+02  0.16857590792E+03  0.00000000000E+00 0. -1.
         -2    1    6    6    0  503 -0.41757830672E+03  0.18544863697E+03 -0.25124531365E+03  0.52142789226E+03  0.00000000000E+00 0.  1.
<mgrwt>
<rscale>  0 0.19023791E+04</rscale>
<asrwt>0</asrwt>
<pdfrwt beam="1">  1        1 0.13545083E+00 0.19023791E+04</pdfrwt>
<pdfrwt beam="2">  1       -2 0.15809778E+00 0.19023791E+04</pdfrwt>
<totfact> 0.40275139E+00</totfact>
</mgrwt>
</event>
<event>
12    5  0.5297412E-008  0.2818747E+04  0.7818608E-02  0.8297472E-01
          1   -1    0    0  501    0  0.00000000000E+00  0.00000000000E+00  0.10158186897E+04  0.10158186897E+04  0.00000000000E+00 0. -1.
         -2   -1    0    0    0  501 -0.00000000000E+00 -0.00000000000E+00 -0.19554023499E+04  0.19554023499E+04  0.00000000000E+00 0.  1.
        -24    2    1    2    0    0  0.66972448716E+03 -0.50743840335E+03  0.57078026468E+03  0.10181609778E+04  0.69548861833E+02 0.  0.
        254    2    1    2    0    0 -0.66972448716E+03  0.50743840335E+03 -0.15103639249E+04  0.19530600619E+04  0.90951624390E+03 0.  0.
         23    2    4    4    0    0 -0.88388272118E+03  0.35037586308E+03 -0.11857869505E+04  0.15226240099E+04  0.91001500601E+02 0.  0.
         23    2    4    4    0    0  0.21415823402E+03  0.15706254027E+03 -0.32457697431E+03  0.43043605201E+03  0.96915385096E+02 0.  0.
          1    1    3    3  502    0  0.49164285757E+03 -0.38227053990E+03  0.45768382602E+03  0.77286347415E+03  0.00000000000E+00 0. -1.
         -2    1    3    3    0  502  0.17808162959E+03 -0.12516786346E+03  0.11309643866E+03  0.24529750361E+03  0.00000000000E+00 0.  1.
         13    1    5    5    0    0 -0.54617646215E+02  0.47066769870E+02 -0.85552630101E+02  0.11188217294E+03  0.00000000000E+00 0.  1.
        -13    1    5    5    0    0 -0.82926507496E+03  0.30330909321E+03 -0.11002343204E+04  0.14107418369E+04  0.00000000000E+00 0. -1.
          1    1    6    6  503    0  0.15208111121E+03  0.15809182508E+03 -0.26902450321E+03  0.34712515448E+03  0.00000000000E+00 0. -1.
         -1    1    6    6    0  503  0.62077122805E+02 -0.10292848091E+01 -0.55552471098E+02  0.83310897535E+02  0.00000000000E+00 0.  1.
<mgrwt>
<rscale>  0 0.28187474E+04</rscale>
<asrwt>0</asrwt>
<pdfrwt beam="1">  1        1 0.15627980E+00 0.28187474E+04</pdfrwt>
<pdfrwt beam="2">  1       -2 0.30083113E+00 0.28187474E+04</pdfrwt>
<totfact> 0.35034674E-01</totfact>
</mgrwt>
</event>
<event>
12    5  0.5297412E-008  0.1513674E+04  0.7818608E-02  0.8875410E-01
          1   -1    0    0  501    0  0.00000000000E+00  0.00000000000E+00  0.92619091296E+03  0.92619091296E+03  0.00000000000E+00 0. -1.
         -2   -1    0    0    0  501 -0.00000000000E+00 -0.00000000000E+00 -0.61844941754E+03  0.61844941754E+03  0.00000000000E+00 0.  1.
        -24    2    1    2    0    0  0.13016495111E+02  0.12980059217E+03  0.57730990263E+03  0.59721674424E+03  0.79771505269E+02 0.  0.
        254    2    1    2    0    0 -0.13016495111E+02 -0.12980059217E+03 -0.26956840721E+03  0.94742358627E+03  0.89884743020E+03 0.  0.
         23    2    4    4    0    0  0.24745459681E+03 -0.30208387663E+03  0.14014573628E+03  0.42432888177E+03  0.89026549419E+02 0.  0.
         23    2    4    4    0    0 -0.26047109192E+03  0.17228328447E+03 -0.40971414350E+03  0.52309470450E+03  0.90750595932E+02 0.  0.
          3    1    3    3  502    0 -0.23522668298E+01  0.29323023168E+02  0.30735366740E+03  0.30875823829E+03  0.00000000000E+00 0. -1.
         -4    1    3    3    0  502  0.15368761941E+02  0.10047756900E+03  0.26995623523E+03  0.28845850595E+03  0.00000000000E+00 0.  1.
         13    1    5    5    0    0  0.74218673403E+02 -0.15800359845E+03  0.72997602467E+02  0.18921468910E+03  0.00000000000E+00 0. -1.
        -13    1    5    5    0    0  0.17323592341E+03 -0.14408027818E+03  0.67148133817E+02  0.23511419267E+03  0.00000000000E+00 0.  1.
          1    1    6    6  503    0  0.30572017653E+01  0.49981382247E+01  0.22126231169E+01  0.62628722966E+01  0.00000000000E+00 0. -1.
         -1    1    6    6    0  503 -0.26352829369E+03  0.16728514624E+03 -0.41192676661E+03  0.51683183220E+03  0.00000000000E+00 0.  1.
<mgrwt>
<rscale>  0 0.15136740E+04</rscale>
<asrwt>0</asrwt>
<pdfrwt beam="1">  1        1 0.14249091E+00 0.15136740E+04</pdfrwt>
<pdfrwt beam="2">  1       -2 0.95146065E-01 0.15136740E+04</pdfrwt>
<totfact> 0.13624918E+01</totfact>
</mgrwt>
</event>
<event>
12    5  0.5297412E-008  0.2064167E+04  0.7818608E-02  0.8577194E-01
         -2   -1    0    0    0  501 -0.00000000000E+00  0.00000000000E+00  0.72726760387E+03  0.72726760387E+03  0.00000000000E+00 0.  1.
          1   -1    0    0  501    0  0.00000000000E+00 -0.00000000000E+00 -0.14646558375E+04  0.14646558375E+04  0.00000000000E+00 0. -1.
        -24    2    1    2    0    0 -0.27978962094E+03  0.76190658000E+03 -0.11211013993E+03  0.82320406150E+03  0.79450454815E+02 0.  0.
        254    2    1    2    0    0  0.27978962094E+03 -0.76190658000E+03 -0.62527809368E+03  0.13687193799E+04  0.90754403624E+03 0.  0.
         23    2    4    4    0    0 -0.84524012733E+02 -0.68814784126E+02 -0.55971986633E+03  0.57802187878E+03  0.94568389740E+02 0.  0.
         23    2    4    4    0    0  0.36431363367E+03 -0.69309179587E+03 -0.65558227349E+02  0.79069750107E+03  0.88340227786E+02 0.  0.
          1    1    3    3  502    0 -0.17624044901E+03  0.47034388893E+03 -0.30431298152E+02  0.50319989431E+03  0.00000000000E+00 0. -1.
         -2    1    3    3    0  502 -0.10354917193E+03  0.29156269107E+03 -0.81678841778E+02  0.32000416720E+03  0.00000000000E+00 0.  1.
         13    1    5    5    0    0 -0.75869833547E+02 -0.27949166542E+02 -0.19762067859E+03  0.21352124054E+03  0.00000000000E+00 0. -1.
        -13    1    5    5    0    0 -0.86541791860E+01 -0.40865617584E+02 -0.36209918774E+03  0.36450063824E+03  0.00000000000E+00 0.  1.
          3    1    6    6  503    0  0.86309960284E+02 -0.96977851547E+02 -0.20173648316E+02  0.13138146377E+03  0.00000000000E+00 0. -1.
         -3    1    6    6    0  503  0.27800367339E+03 -0.59611394433E+03 -0.45384579033E+02  0.65931603731E+03  0.00000000000E+00 0.  1.
<mgrwt>
<rscale>  0 0.20641674E+04</rscale>
<asrwt>0</asrwt>
<pdfrwt beam="1">  1        1 0.22533167E+00 0.20641674E+04</pdfrwt>
<pdfrwt beam="2">  1       -2 0.11188732E+00 0.20641674E+04</pdfrwt>
<totfact> 0.35339388E+00</totfact>
</mgrwt>
</event>
<event>
12    5  0.5297412E-008  0.2008840E+04  0.7818608E-02  0.8602499E-01
         -2   -1    0    0    0  501 -0.00000000000E+00  0.00000000000E+00  0.57373468925E+03  0.57373468925E+03  0.00000000000E+00 0.  1.
          1   -1    0    0  501    0  0.00000000000E+00 -0.00000000000E+00 -0.17584081441E+04  0.17584081441E+04  0.00000000000E+00 0. -1.
        -24    2    1    2    0    0  0.40578949865E+02  0.76702537229E+03 -0.21217850241E+03  0.80093962116E+03  0.80684490129E+02 0.  0.
        254    2    1    2    0    0 -0.40578949865E+02 -0.76702537229E+03 -0.97249495247E+03  0.15312032122E+04  0.89936770657E+03 0.  0.
         23    2    4    4    0    0 -0.98583244809E+02 -0.31764411723E+02 -0.73948238988E+03  0.75239180083E+03  0.92366568674E+02 0.  0.
         23    2    4    4    0    0  0.58004294944E+02 -0.73526096057E+03 -0.23301256259E+03  0.77881141139E+03  0.90990009408E+02 0.  0.
          1    1    3    3  502    0  0.52211247633E+01  0.43639724170E+02 -0.32705531594E+02  0.54784463731E+02  0.00000000000E+00 0. -1.
         -2    1    3    3    0  502  0.35357825101E+02  0.72338564812E+03 -0.17947297082E+03  0.74615515743E+03  0.00000000000E+00 0.  1.
         13    1    5    5    0    0 -0.14345715723E+02 -0.23382166052E+02 -0.44522963504E+02  0.52295501987E+02  0.00000000000E+00 0. -1.
        -13    1    5    5    0    0 -0.84237529086E+02 -0.83822456708E+01 -0.69495942637E+03  0.70009629884E+03  0.00000000000E+00 0.  1.
          1    1    6    6  503    0 -0.23774102232E+02 -0.14815460481E+03 -0.38059148777E+02  0.15480146533E+03  0.00000000000E+00 0. -1.
         -1    1    6    6    0  503  0.81778397176E+02 -0.58710635576E+03 -0.19495341381E+03  0.62400994606E+03  0.00000000000E+00 0.  1.
<mgrwt>
<rscale>  0 0.20088402E+04</rscale>
<asrwt>0</asrwt>
<pdfrwt beam="1">  1        1 0.27052433E+00 0.20088402E+04</pdfrwt>
<pdfrwt beam="2">  1       -2 0.88266875E-01 0.20088402E+04</pdfrwt>
<totfact> 0.39113956E+00</totfact>
</mgrwt>
</event>
<event>
12    5  0.5297412E-008  0.1958103E+04  0.7818608E-02  0.8626463E-01
          1   -1    0    0  501    0  0.00000000000E+00  0.00000000000E+00  0.25004159382E+04  0.25004159382E+04  0.00000000000E+00 0. -1.
         -2   -1    0    0    0  501 -0.00000000000E+00 -0.00000000000E+00 -0.38335301056E+03  0.38335301056E+03  0.00000000000E+00 0.  1.
        -24    2    1    2    0    0  0.74737721812E+03  0.54770835815E+02  0.52328604793E+03  0.91752730066E+03  0.80346181412E+02 0.  0.
        254    2    1    2    0    0 -0.74737721812E+03 -0.54770835815E+02  0.15937768797E+04  0.19662416481E+04  0.87430482435E+03 0.  0.
         23    2    4    4    0    0 -0.25527316485E+03 -0.62330629773E+02  0.14039929331E+04  0.14311187534E+04  0.88629758954E+02 0.  0.
         23    2    4    4    0    0 -0.49210405326E+03  0.75597939577E+01  0.18978394666E+03  0.53512289472E+03  0.90083385354E+02 0.  0.
          3    1    3    3  502    0  0.90636680350E+02 -0.19265485050E+02  0.59157956066E+02  0.10993557434E+03  0.00000000000E+00 0. -1.
         -4    1    3    3    0  502  0.65674053777E+03  0.74036320865E+02  0.46412809187E+03  0.80759172632E+03  0.00000000000E+00 0.  1.
         13    1    5    5    0    0 -0.14440740921E+03 -0.72473929571E+02  0.95222773893E+03  0.96583830794E+03  0.00000000000E+00 0. -1.
        -13    1    5    5    0    0 -0.11086575564E+03  0.10143299798E+02  0.45176519414E+03  0.46528044548E+03  0.00000000000E+00 0.  1.
          1    1    6    6  503    0 -0.27578752783E+03  0.16877293098E+02  0.15193732436E+03  0.31532293615E+03  0.00000000000E+00 0. -1.
         -1    1    6    6    0  503 -0.21631652543E+03 -0.93174991405E+01  0.37846622297E+02  0.21979995856E+03  0.00000000000E+00 0.  1.
<mgrwt>
<rscale>  0 0.19581031E+04</rscale>
<asrwt>0</asrwt>
<pdfrwt beam="1">  1        1 0.38467936E+00 0.19581031E+04</pdfrwt>
<pdfrwt beam="2">  1       -2 0.58977388E-01 0.19581031E+04</pdfrwt>
<totfact> 0.29754160E+00</totfact>
</mgrwt>
</event>
<event>
12    5  0.5297412E-008  0.2990559E+04  0.7818608E-02  0.8246432E-01
          1   -1    0    0  501    0  0.00000000000E+00  0.00000000000E+00  0.21436975459E+04  0.21436975459E+04  0.00000000000E+00 0. -1.
         -2   -1    0    0    0  501 -0.00000000000E+00 -0.00000000000E+00 -0.10429925023E+04  0.10429925023E+04  0.00000000000E+00 0.  1.
        -24    2    1    2    0    0  0.98044865949E+03  0.88022240975E+03  0.13084167416E+03  0.13264080141E+04  0.78534144017E+02 0.  0.
        254    2    1    2    0    0 -0.98044865949E+03 -0.88022240975E+03  0.96986336943E+03  0.18602820340E+04  0.88540568458E+03 0.  0.
         23    2    4    4    0    0 -0.77417142367E+01 -0.42896842778E+03  0.45269698445E+02  0.44141131765E+03  0.93385007228E+02 0.  0.
         23    2    4    4    0    0 -0.97270694525E+03 -0.45125398197E+03  0.92459367098E+03  0.14188707164E+04  0.92367179411E+02 0.  0.
          3    1    3    3  502    0  0.23031124841E+02  0.38994295303E+02  0.67683583551E+00  0.45292889998E+02  0.00000000000E+00 0. -1.
         -4    1    3    3    0  502  0.95741753465E+03  0.84122811445E+03  0.13016483833E+03  0.12811151241E+04  0.00000000000E+00 0.  1.
         13    1    5    5    0    0 -0.46944770520E+01 -0.42062421429E+03  0.27504145057E+02  0.42154862799E+03  0.00000000000E+00 0. -1.
        -13    1    5    5    0    0 -0.30472371847E+01 -0.83442134910E+01  0.17765553389E+02  0.19862689658E+02  0.00000000000E+00 0.  1.
          2    1    6    6  503    0 -0.14765832615E+02 -0.14675259730E+02  0.34419980806E+02  0.40225963502E+02  0.00000000000E+00 0.  1.
         -2    1    6    6    0  503 -0.95794111264E+03 -0.43657872224E+03  0.89017369018E+03  0.13786447529E+04  0.00000000000E+00 0. -1.
<mgrwt>
<rscale>  0 0.29905588E+04</rscale>
<asrwt>0</asrwt>
<pdfrwt beam="1">  1        1 0.32979962E+00 0.29905588E+04</pdfrwt>
<pdfrwt beam="2">  1       -2 0.16046039E+00 0.29905588E+04</pdfrwt>
<totfact> 0.44544121E-01</totfact>
</mgrwt>
</event>
<event>
12    5  0.5297412E-008  0.1170544E+04  0.7818608E-02  0.9139038E-01
         -2   -1    0    0    0  501 -0.00000000000E+00  0.00000000000E+00  0.21528956547E+03  0.21528956547E+03  0.00000000000E+00 0.  1.
          1   -1    0    0  501    0  0.00000000000E+00 -0.00000000000E+00 -0.15910804707E+04  0.15910804707E+04  0.00000000000E+00 0. -1.
        -24    2    1    2    0    0  0.19048064869E+03 -0.20725144524E+02 -0.49483841747E+03  0.53622995578E+03  0.77234040021E+02 0.  0.
        254    2    1    2    0    0 -0.19048064869E+03  0.20725144524E+02 -0.88095248775E+03  0.12701400804E+04  0.89468772706E+03 0.  0.
         23    2    4    4    0    0 -0.24516423155E+03  0.44229231801E+02  0.99579462745E+02  0.28325653667E+03  0.90865124159E+02 0.  0.
         23    2    4    4    0    0  0.54683582864E+02 -0.23504087277E+02 -0.98053195049E+03  0.98688354370E+03  0.94622864749E+02 0.  0.
          3    1    3    3  502    0  0.52095505557E+02 -0.12726642216E+01 -0.23997944803E+03  0.24557218256E+03  0.00000000000E+00 0. -1.
         -4    1    3    3    0  502  0.13838514313E+03 -0.19452480302E+02 -0.25485896944E+03  0.29065777322E+03  0.00000000000E+00 0.  1.
         13    1    5    5    0    0 -0.13426932181E+03  0.59238966336E+02  0.25246551651E+02  0.14891237115E+03  0.00000000000E+00 0.  1.
        -13    1    5    5    0    0 -0.11089490975E+03 -0.15009734535E+02  0.74332911094E+02  0.13434416552E+03  0.00000000000E+00 0. -1.
          2    1    6    6  503    0  0.54085674134E+01 -0.18323328838E+02 -0.78298252355E+03  0.78321557004E+03  0.00000000000E+00 0. -1.
         -2    1    6    6    0  503  0.49275015451E+02 -0.51807584395E+01 -0.19754942694E+03  0.20366797365E+03  0.00000000000E+00 0.  1.
<mgrwt>
<rscale>  0 0.11705435E+04</rscale>
<asrwt>0</asrwt>
<pdfrwt beam="1">  1        1 0.24478161E+00 0.11705435E+04</pdfrwt>
<pdfrwt beam="2">  1       -2 0.33121472E-01 0.11705435E+04</pdfrwt>
<totfact> 0.41925076E+01</totfact>
</mgrwt>
</event>
<event>
12    5  0.5297412E-008  0.1234516E+04  0.7818608E-02  0.9083170E-01
         -2   -1    0    0    0  501 -0.00000000000E+00  0.00000000000E+00  0.59489003444E+03  0.59489003444E+03  0.00000000000E+00 0.  1.
          1   -1    0    0  501    0  0.00000000000E+00 -0.00000000000E+00 -0.64046718757E+03  0.64046718757E+03  0.00000000000E+00 0. -1.
        -24    2    1    2    0    0 -0.11605849683E+03  0.24904506232E+03 -0.41915545818E+02  0.28919169359E+03  0.79886825616E+02 0.  0.
        254    2    1    2    0    0  0.11605849683E+03 -0.24904506232E+03 -0.36616073162E+01  0.94616552842E+03  0.90538543287E+03 0.  0.
         23    2    4    4    0    0  0.81643276924E+02  0.21180416511E+03 -0.30209581965E+03  0.38842469802E+03  0.89917922364E+02 0.  0.
         23    2    4    4    0    0  0.34415219903E+02 -0.46084922743E+03  0.29843421233E+03  0.55774083040E+03  0.91899058874E+02 0.  0.
          3    1    3    3  502    0 -0.53711155668E+01  0.22959239353E+02  0.18904152457E+02  0.30221557442E+02  0.00000000000E+00 0. -1.
         -4    1    3    3    0  502 -0.11068738126E+03  0.22608582297E+03 -0.60819698275E+02  0.25897013615E+03  0.00000000000E+00 0.  1.
         13    1    5    5    0    0 -0.25855613537E+01  0.11707211146E+03 -0.13558117849E+03  0.17915027315E+03  0.00000000000E+00 0. -1.
        -13    1    5    5    0    0  0.84228838278E+02  0.94732053647E+02 -0.16651464116E+03  0.20927442488E+03  0.00000000000E+00 0.  1.
          1    1    6    6  503    0  0.54332520055E+02 -0.24307932507E+03  0.19226749708E+03  0.31465277918E+03  0.00000000000E+00 0. -1.
         -1    1    6    6    0  503 -0.19917300152E+02 -0.21776990236E+03  0.10616671526E+03  0.24308805123E+03  0.00000000000E+00 0.  1.
<mgrwt>
<rscale>  0 0.12345162E+04</rscale>
<asrwt>0</asrwt>
<pdfrwt beam="1">  1        1 0.98533413E-01 0.12345162E+04</pdfrwt>
<pdfrwt beam="2">  1       -2 0.91521544E-01 0.12345162E+04</pdfrwt>
<totfact> 0.27356386E+01</totfact>
</mgrwt>
</event>
<event>
12    5  0.5297412E-008  0.2316288E+04  0.7818608E-02  0.8471526E-01
         -2   -1    0    0    0  501 -0.00000000000E+00  0.00000000000E+00  0.91567951059E+03  0.91567951059E+03  0.00000000000E+00 0.  1.
          1   -1    0    0  501    0  0.00000000000E+00 -0.00000000000E+00 -0.14648113431E+04  0.14648113431E+04  0.00000000000E+00 0. -1.
        -24    2    1    2    0    0  0.17434021625E+03 -0.80062124835E+03  0.32307948701E+03  0.88432063962E+03  0.79080619747E+02 0.  0.
        254    2    1    2    0    0 -0.17434021625E+03  0.80062124835E+03 -0.87221131948E+03  0.14961702140E+04  0.89798876896E+03 0.  0.
         23    2    4    4    0    0 -0.71331421455E+02 -0.17645181438E+02 -0.61661492201E+03  0.62778046188E+03  0.92167359517E+02 0.  0.
         23    2    4    4    0    0 -0.10300879479E+03  0.81826642979E+03 -0.25559639747E+03  0.86838975214E+03  0.92738779901E+02 0.  0.
          1    1    3    3  502    0  0.63991637200E+02 -0.14706776768E+03  0.63093652186E+02  0.17235041882E+03  0.00000000000E+00 0. -1.
         -2    1    3    3    0  502  0.11034857905E+03 -0.65355348067E+03  0.25998583483E+03  0.71197022080E+03  0.00000000000E+00 0.  1.
         13    1    5    5    0    0 -0.62191142611E+02 -0.44413519410E+02 -0.55173728785E+03  0.55700478788E+03  0.00000000000E+00 0.  1.
        -13    1    5    5    0    0 -0.91402788442E+01  0.26768337972E+02 -0.64877634160E+02  0.70775673994E+02  0.00000000000E+00 0. -1.
          3    1    6    6  503    0  0.17109276676E+02  0.79592871189E+02 -0.29773985603E+02  0.86684731707E+02  0.00000000000E+00 0. -1.
         -3    1    6    6    0  503 -0.12011807147E+03  0.73867355860E+03 -0.22582241187E+03  0.78170502044E+03  0.00000000000E+00 0.  1.
<mgrwt>
<rscale>  0 0.23162882E+04</rscale>
<asrwt>0</asrwt>
<pdfrwt beam="1">  1        1 0.22535559E+00 0.23162882E+04</pdfrwt>
<pdfrwt beam="2">  1       -2 0.14087377E+00 0.23162882E+04</pdfrwt>
<totfact> 0.19381205E+00</totfact>
</mgrwt>
</event>
<event>
12    5  0.5297412E-008  0.1538042E+04  0.7818608E-02  0.8859542E-01
         -2   -1    0    0    0  501 -0.00000000000E+00  0.00000000000E+00  0.78232283459E+03  0.78232283459E+03  0.00000000000E+00 0.  1.
          1   -1    0    0  501    0  0.00000000000E+00 -0.00000000000E+00 -0.75594551367E+03  0.75594551367E+03  0.00000000000E+00 0. -1.
        -24    2    1    2    0    0  0.10756467095E+03 -0.17969304983E+03 -0.44477582829E+03  0.49857973574E+03  0.83044956843E+02 0.  0.
        254    2    1    2    0    0 -0.10756467095E+03  0.17969304983E+03  0.47115314921E+03  0.10396886125E+04  0.90283296928E+03 0.  0.
         23    2    4    4    0    0 -0.29110942548E+02 -0.23556639427E+03 -0.13937113094E+03  0.29166763305E+03  0.96471358161E+02 0.  0.
         23    2    4    4    0    0 -0.78453728405E+02  0.41525944410E+03  0.61052428015E+03  0.74802097947E+03  0.90554379590E+02 0.  0.
          1    1    3    3  502    0  0.23191478507E+02 -0.44450532530E+02 -0.20215503313E+03  0.20827950436E+03  0.00000000000E+00 0. -1.
         -2    1    3    3    0  502  0.84373192447E+02 -0.13524251730E+03 -0.24262079516E+03  0.29030023137E+03  0.00000000000E+00 0.  1.
         13    1    5    5    0    0  0.18048811587E+02 -0.10925462879E+03 -0.10483018648E+03  0.15248508619E+03  0.00000000000E+00 0.  1.
        -13    1    5    5    0    0 -0.47159754135E+02 -0.12631176548E+03 -0.34540944466E+02  0.13918254687E+03  0.00000000000E+00 0. -1.
          2    1    6    6  503    0  0.97134207781E+01  0.28456015262E+01  0.19321155175E+02  0.21811809383E+02  0.00000000000E+00 0. -1.
         -2    1    6    6    0  503 -0.88167149183E+02  0.41241384257E+03  0.59120312498E+03  0.72620917009E+03  0.00000000000E+00 0.  1.
<mgrwt>
<rscale>  0 0.15380422E+04</rscale>
<asrwt>0</asrwt>
<pdfrwt beam="1">  1        1 0.11629931E+00 0.15380422E+04</pdfrwt>
<pdfrwt beam="2">  1       -2 0.12035736E+00 0.15380422E+04</pdfrwt>
<totfact> 0.10768032E+01</totfact>
</mgrwt>
</event>
<event>
12    5  0.5297412E-008  0.2049347E+04  0.7818608E-02  0.8583891E-01
          1   -1    0    0  501    0  0.00000000000E+00  0.00000000000E+00  0.12471761474E+04  0.12471761474E+04  0.00000000000E+00 0. -1.
         -2   -1    0    0    0  501 -0.00000000000E+00 -0.00000000000E+00 -0.84186659855E+03  0.84186659855E+03  0.00000000000E+00 0.  1.
        -24    2    1    2    0    0  0.21460313003E+03 -0.78591048832E+03  0.45653583463E+02  0.81976883325E+03  0.78910653444E+02 0.  0.
        254    2    1    2    0    0 -0.21460313003E+03  0.78591048832E+03  0.35965596539E+03  0.12692739127E+04  0.90443023665E+03 0.  0.
         23    2    4    4    0    0  0.26523148358E+03  0.38749627135E+03 -0.10078898481E+03  0.48881808211E+03  0.91014272224E+02 0.  0.
         23    2    4    4    0    0 -0.47983461360E+03  0.39841421696E+03  0.46044495020E+03  0.78045583059E+03  0.90147693551E+02 0.  0.
          1    1    3    3  502    0  0.16345828859E+03 -0.45833440745E+03  0.38785589751E+02  0.48815301201E+03  0.00000000000E+00 0. -1.
         -2    1    3    3    0  502  0.51144841437E+02 -0.32757608087E+03  0.68679937124E+01  0.33161582125E+03  0.00000000000E+00 0.  1.
         13    1    5    5    0    0  0.79105592010E+02  0.16591144544E+03 -0.45840173159E+01  0.18386221915E+03  0.00000000000E+00 0.  1.
        -13    1    5    5    0    0  0.18612589157E+03  0.22158482591E+03 -0.96204967490E+02  0.30495586296E+03  0.00000000000E+00 0. -1.
          4    1    6    6  503    0 -0.17659007357E+03  0.19068600215E+03  0.22657182837E+03  0.34478978946E+03  0.00000000000E+00 0. -1.
         -4    1    6    6    0  503 -0.30324454003E+03  0.20772821481E+03  0.23387312182E+03  0.43566604114E+03  0.00000000000E+00 0.  1.
<mgrwt>
<rscale>  0 0.20493472E+04</rscale>
<asrwt>0</asrwt>
<pdfrwt beam="1">  1        1 0.19187325E+00 0.20493472E+04</pdfrwt>
<pdfrwt beam="2">  1       -2 0.12951794E+00 0.20493472E+04</pdfrwt>
<totfact> 0.35078438E+00</totfact>
</mgrwt>
</event>
<event>
12    5  0.5297412E-008  0.2272646E+04  0.7818608E-02  0.8488785E-01
          1   -1    0    0  501    0  0.00000000000E+00  0.00000000000E+00  0.48052919507E+03  0.48052919507E+03  0.00000000000E+00 0. -1.
         -2   -1    0    0    0  501 -0.00000000000E+00 -0.00000000000E+00 -0.26871000697E+04  0.26871000697E+04  0.00000000000E+00 0.  1.
        -24    2    1    2    0    0  0.17370105261E+03  0.84604635083E+03 -0.15044127750E+04  0.17365228130E+04  0.79291860565E+02 0.  0.
        254    2    1    2    0    0 -0.17370105261E+03 -0.84604635083E+03 -0.70215809959E+03  0.14311064517E+04  0.89948496145E+03 0.  0.
         23    2    4    4    0    0  0.15310406197E+03 -0.97841396732E+02 -0.56358906481E+03  0.59801775937E+03  0.83539295193E+02 0.  0.
         23    2    4    4    0    0 -0.32680511458E+03 -0.74820495410E+03 -0.13856903478E+03  0.83308869234E+03  0.90681616923E+02 0.  0.
          1    1    3    3  502    0  0.28564425736E+02  0.46057014718E+02 -0.99903130272E+02  0.11365654605E+03  0.00000000000E+00 0. -1.
         -4    1    3    3    0  502  0.14513662687E+03  0.79998933612E+03 -0.14045096447E+04  0.16228662670E+04  0.00000000000E+00 0.  1.
         13    1    5    5    0    0  0.50913229780E+02 -0.10475273264E+02 -0.27205018656E+03  0.27697146482E+03  0.00000000000E+00 0. -1.
        -13    1    5    5    0    0  0.10219083219E+03 -0.87366123467E+02 -0.29153887825E+03  0.32104629455E+03  0.00000000000E+00 0.  1.
          3    1    6    6  503    0 -0.14757948113E+03 -0.44526451465E+03 -0.92217955321E+02  0.47806311564E+03  0.00000000000E+00 0. -1.
         -3    1    6    6    0  503 -0.17922563345E+03 -0.30294043945E+03 -0.46351079460E+02  0.35502557670E+03  0.00000000000E+00 0.  1.
<mgrwt>
<rscale>  0 0.22726461E+04</rscale>
<asrwt>0</asrwt>
<pdfrwt beam="1">  1        1 0.73927569E-01 0.22726461E+04</pdfrwt>
<pdfrwt beam="2">  1       -2 0.41340001E+00 0.22726461E+04</pdfrwt>
<totfact> 0.22539157E-01</totfact>
</mgrwt>
</event>
<event>
12    5  0.5297412E-008  0.1989690E+04  0.7818608E-02  0.8611456E-01
          1   -1    0    0  501    0  0.00000000000E+00  0.00000000000E+00  0.24002599896E+04  0.24002599896E+04  0.00000000000E+00 0. -1.
         -2   -1    0    0    0  501 -0.00000000000E+00 -0.00000000000E+00 -0.41233722017E+03  0.41233722017E+03  0.00000000000E+00 0.  1.
        -24    2    1    2    0    0 -0.71523951846E+03  0.34470933903E+03  0.73208190896E+03  0.10828844308E+04  0.79389369028E+02 0.  0.
        254    2    1    2    0    0  0.71523951846E+03 -0.34470933903E+03  0.12558408605E+04  0.17297127790E+04  0.88565113541E+03 0.  0.
         23    2    4    4    0    0 -0.17119632112E+03 -0.16605477500E+03  0.43890074175E+03  0.50794907911E+03  0.92173950763E+02 0.  0.
         23    2    4    4    0    0  0.88643583958E+03 -0.17865456403E+03  0.81694011875E+03  0.12217636999E+04  0.87346606841E+02 0.  0.
          3    1    3    3  502    0 -0.59231089187E+03  0.25102895124E+03  0.59573205045E+03  0.87678070401E+03  0.00000000000E+00 0. -1.
         -4    1    3    3    0  502 -0.12292862658E+03  0.93680387788E+02  0.13634985851E+03  0.20610372681E+03  0.00000000000E+00 0.  1.
         13    1    5    5    0    0  0.50291022365E+01  0.68008464638E+01  0.20191917414E+02  0.21891937119E+02  0.00000000000E+00 0. -1.
        -13    1    5    5    0    0 -0.17622542336E+03 -0.17285562146E+03  0.41870882434E+03  0.48605714200E+03  0.00000000000E+00 0.  1.
          3    1    6    6  503    0  0.80512066407E+03 -0.13748362782E+03  0.74732268871E+03  0.11070737250E+04  0.00000000000E+00 0.  1.
         -3    1    6    6    0  503  0.81315175509E+02 -0.41170936208E+02  0.69617430039E+02  0.11468997481E+03  0.00000000000E+00 0. -1.
<mgrwt>
<rscale>  0 0.19896900E+04</rscale>
<asrwt>0</asrwt>
<pdfrwt beam="1">  1        1 0.36927076E+00 0.19896900E+04</pdfrwt>
<pdfrwt beam="2">  1       -2 0.63436497E-01 0.19896900E+04</pdfrwt>
<totfact> 0.29804002E+00</totfact>
</mgrwt>
</event>
<event>
12    5  0.5297412E-008  0.1689733E+04  0.7818608E-02  0.8767242E-01
          3   -1    0    0  501    0  0.00000000000E+00  0.00000000000E+00  0.47002113935E+03  0.47002113935E+03  0.00000000000E+00 0. -1.
         -4   -1    0    0    0  501 -0.00000000000E+00 -0.00000000000E+00 -0.15186532524E+04  0.15186532524E+04  0.00000000000E+00 0.  1.
        -24    2    1    2    0    0 -0.39814018917E+03 -0.15978789693E+03 -0.87237749306E+03  0.97545414627E+03  0.80128140180E+02 0.  0.
        254    2    1    2    0    0  0.39814018917E+03  0.15978789693E+03 -0.17625462000E+03  0.10132202455E+04  0.90083394284E+03 0.  0.
         23    2    4    4    0    0  0.36600574437E+03 -0.15617985833E+03 -0.43333369623E+03  0.59452483988E+03  0.85611563978E+02 0.  0.
         23    2    4    4    0    0  0.32134444796E+02  0.31596775526E+03  0.25707907622E+03  0.41869540562E+03  0.91367096629E+02 0.  0.
          1    1    3    3  502    0 -0.63147229245E+02 -0.21700093706E+01 -0.17215707518E+03  0.18338576836E+03  0.00000000000E+00 0. -1.
         -2    1    3    3    0  502 -0.33499295992E+03 -0.15761788756E+03 -0.70022041787E+03  0.79206837791E+03  0.00000000000E+00 0.  1.
         13    1    5    5    0    0  0.16856480009E+02 -0.16533139034E+02 -0.42650929520E+01  0.23993262023E+02  0.00000000000E+00 0.  1.
        -13    1    5    5    0    0  0.34914926436E+03 -0.13964671930E+03 -0.42906860328E+03  0.57053157786E+03  0.00000000000E+00 0. -1.
          1    1    6    6  503    0  0.35442983998E+02  0.20700241675E+03  0.11445101029E+03  0.23917616815E+03  0.00000000000E+00 0. -1.
         -1    1    6    6    0  503 -0.33085392021E+01  0.10896533851E+03  0.14262806594E+03  0.17951923747E+03  0.00000000000E+00 0.  1.
<mgrwt>
<rscale>  0 0.16897327E+04</rscale>
<asrwt>0</asrwt>
<pdfrwt beam="1">  1        3 0.72310944E-01 0.16897327E+04</pdfrwt>
<pdfrwt beam="2">  1       -4 0.23363896E+00 0.16897327E+04</pdfrwt>
<totfact> 0.31669828E-01</totfact>
</mgrwt>
</event>
<event>
12    5  0.5297412E-008  0.1494144E+04  0.7818608E-02  0.8888356E-01
         -2   -1    0    0    0  501 -0.00000000000E+00  0.00000000000E+00  0.33127669168E+03  0.33127669168E+03  0.00000000000E+00 0.  1.
          1   -1    0    0  501    0  0.00000000000E+00 -0.00000000000E+00 -0.16847446057E+04  0.16847446057E+04  0.00000000000E+00 0. -1.
        -24    2    1    2    0    0 -0.21218740014E+03 -0.25186781402E+03 -0.90194990166E+03  0.96348783887E+03  0.79588328431E+02 0.  0.
        254    2    1    2    0    0  0.21218740014E+03  0.25186781402E+03 -0.45151801238E+03  0.10525334585E+04  0.89190654068E+03 0.  0.
         23    2    4    4    0    0  0.21245302608E+03 -0.27435477504E+03 -0.36552973853E+03  0.51158789425E+03  0.87768746800E+02 0.  0.
         23    2    4    4    0    0 -0.26562593621E+00  0.52622258906E+03 -0.85988273852E+02  0.54094556428E+03  0.91202173651E+02 0.  0.
          1    1    3    3  502    0 -0.18853576343E+03 -0.18070830096E+03 -0.74727968117E+03  0.79159847525E+03  0.00000000000E+00 0. -1.
         -2    1    3    3    0  502 -0.23651636706E+02 -0.71159513065E+02 -0.15467022050E+03  0.17188936362E+03  0.00000000000E+00 0.  1.
         13    1    5    5    0    0  0.12210124062E+03 -0.19098799038E+03 -0.18207933103E+03  0.29075420585E+03  0.00000000000E+00 0. -1.
        -13    1    5    5    0    0  0.90351785459E+02 -0.83366784658E+02 -0.18345040750E+03  0.22083368840E+03  0.00000000000E+00 0.  1.
          1    1    6    6  503    0 -0.92626551957E+01  0.36042244801E+03 -0.10044950451E+03  0.37427294955E+03  0.00000000000E+00 0. -1.
         -1    1    6    6    0  503  0.89970292595E+01  0.16580014106E+03  0.14461230655E+02  0.16667261474E+03  0.00000000000E+00 0.  1.
<mgrwt>
<rscale>  0 0.14941441E+04</rscale>
<asrwt>0</asrwt>
<pdfrwt beam="1">  1        1 0.25919148E+00 0.14941441E+04</pdfrwt>
<pdfrwt beam="2">  1       -2 0.50965645E-01 0.14941441E+04</pdfrwt>
<totfact> 0.15090415E+01</totfact>
</mgrwt>
</event>
<event>
12    5  0.5297412E-008  0.2228423E+04  0.7818608E-02  0.8506690E-01
          1   -1    0    0  501    0  0.00000000000E+00  0.00000000000E+00  0.47980698871E+03  0.47980698871E+03  0.00000000000E+00 0. -1.
         -2   -1    0    0    0  501 -0.00000000000E+00 -0.00000000000E+00 -0.25874299783E+04  0.25874299783E+04  0.00000000000E+00 0.  1.
        -24    2    1    2    0    0  0.53386185092E+03  0.52811820063E+03 -0.12550136380E+03  0.76569381335E+03  0.81357936189E+02 0.  0.
        254    2    1    2    0    0 -0.53386185092E+03 -0.52811820063E+03 -0.19821216257E+04  0.23015431536E+04  0.89687091544E+03 0.  0.
         23    2    4    4    0    0 -0.21819040183E+03  0.18394605480E+03 -0.10075084462E+04  0.10510892397E+04  0.90951184737E+02 0.  0.
         23    2    4    4    0    0 -0.31567144910E+03 -0.71206425543E+03 -0.97461317950E+03  0.12504539139E+04  0.84143767122E+02 0.  0.
          1    1    3    3  502    0  0.50337532996E+03  0.52001231187E+03 -0.11843761324E+03  0.73336689013E+03  0.00000000000E+00 0. -1.
         -2    1    3    3    0  502  0.30486520965E+02  0.81058887624E+01 -0.70637505629E+01  0.32326923225E+02  0.00000000000E+00 0.  1.
         13    1    5    5    0    0 -0.10069517003E+03  0.10259957111E+03 -0.65746838958E+03  0.67300139119E+03  0.00000000000E+00 0.  1.
        -13    1    5    5    0    0 -0.11749523180E+03  0.81346483695E+02 -0.35004005667E+03  0.37808784849E+03  0.00000000000E+00 0. -1.
          4    1    6    6  503    0 -0.26564422515E+03 -0.58615684389E+03 -0.85195825871E+03  0.10676982601E+04  0.00000000000E+00 0. -1.
         -4    1    6    6    0  503 -0.50027223944E+02 -0.12590741154E+03 -0.12265492080E+03  0.18275565384E+03  0.00000000000E+00 0.  1.
<mgrwt>
<rscale>  0 0.22284227E+04</rscale>
<asrwt>0</asrwt>
<pdfrwt beam="1">  1        1 0.73816460E-01 0.22284227E+04</pdfrwt>
<pdfrwt beam="2">  1       -2 0.39806615E+00 0.22284227E+04</pdfrwt>
<totfact> 0.28592144E-01</totfact>
</mgrwt>
</event>
<event>
12    5  0.5297412E-008  0.1974112E+04  0.7818608E-02  0.8618821E-01
         -4   -1    0    0    0  501 -0.00000000000E+00  0.00000000000E+00  0.64112018888E+03  0.64112018888E+03  0.00000000000E+00 0.  1.
          3   -1    0    0  501    0  0.00000000000E+00 -0.00000000000E+00 -0.15196522576E+04  0.15196522576E+04  0.00000000000E+00 0. -1.
        -24    2    1    2    0    0 -0.95952316986E+01 -0.19619275959E+01 -0.11998217373E+04  0.12025447486E+04  0.80285448838E+02 0.  0.
        254    2    1    2    0    0  0.95952316986E+01  0.19619275959E+01  0.32128966864E+03  0.95822769788E+03  0.90270557336E+03 0.  0.
         23    2    4    4    0    0  0.36898189197E+02 -0.39445219811E+03  0.36760505614E+03  0.54797560637E+03  0.90497375190E+02 0.  0.
         23    2    4    4    0    0 -0.27302957498E+02  0.39641412571E+03 -0.46315387499E+02  0.41025209151E+03  0.90950826961E+02 0.  0.
          3    1    3    3  502    0  0.22585990118E+02 -0.23623036562E+02 -0.84047689650E+03  0.84111211402E+03  0.00000000000E+00 0. -1.
         -4    1    3    3    0  502 -0.32181221817E+02  0.21661108966E+02 -0.35934484085E+03  0.36143263456E+03  0.00000000000E+00 0.  1.
         13    1    5    5    0    0  0.63367974897E+01 -0.20760499426E+03  0.25028724547E+03  0.32524405281E+03  0.00000000000E+00 0. -1.
        -13    1    5    5    0    0  0.30561391707E+02 -0.18684720385E+03  0.11731781067E+03  0.22273155356E+03  0.00000000000E+00 0.  1.
          3    1    6    6  503    0  0.30282572089E+02  0.21411053971E+03 -0.18079706152E+02  0.21699592891E+03  0.00000000000E+00 0. -1.
         -3    1    6    6    0  503 -0.57585529587E+02  0.18230358600E+03 -0.28235681347E+02  0.19325616261E+03  0.00000000000E+00 0.  1.
<mgrwt>
<rscale>  0 0.19741122E+04</rscale>
<asrwt>0</asrwt>
<pdfrwt beam="1">  1        3 0.23379265E+00 0.19741122E+04</pdfrwt>
<pdfrwt beam="2">  1       -4 0.98633876E-01 0.19741122E+04</pdfrwt>
<totfact> 0.16705680E-01</totfact>
</mgrwt>
</event>
<event>
12    5  0.5297412E-008  0.2300138E+04  0.7818608E-02  0.8477867E-01
          1   -1    0    0  501    0  0.00000000000E+00  0.00000000000E+00  0.14522618451E+04  0.14522618451E+04  0.00000000000E+00 0. -1.
         -2   -1    0    0    0  501 -0.00000000000E+00 -0.00000000000E+00 -0.91075782520E+03  0.91075782520E+03  0.00000000000E+00 0.  1.
        -24    2    1    2    0    0 -0.10713549018E+03 -0.33010520992E+03  0.11531802757E+04  0.12069813056E+04  0.80818690986E+02 0.  0.
        254    2    1    2    0    0  0.10713549018E+03  0.33010520992E+03 -0.61167625584E+03  0.11560383647E+04  0.91751261345E+03 0.  0.
         23    2    4    4    0    0  0.41964329126E+03 -0.11009957267E+02 -0.52184514321E+03  0.67586647300E+03  0.90837353415E+02 0.  0.
         23    2    4    4    0    0 -0.31250780108E+03  0.34111516719E+03 -0.89831112637E+02  0.48017189171E+03  0.92058317186E+02 0.  0.
          1    1    3    3  502    0 -0.98984555393E+02 -0.33034592585E+03  0.10893649300E+04  0.11426470687E+04  0.00000000000E+00 0. -1.
         -2    1    3    3    0  502 -0.81509347865E+01  0.24071592952E+00  0.63815345743E+02  0.64334236875E+02  0.00000000000E+00 0.  1.
         13    1    5    5    0    0  0.27111563625E+03  0.36235011837E+02 -0.32482116026E+03  0.42464744254E+03  0.00000000000E+00 0.  1.
        -13    1    5    5    0    0  0.14852765501E+03 -0.47244969105E+02 -0.19702398295E+03  0.25121903046E+03  0.00000000000E+00 0. -1.
          1    1    6    6  503    0 -0.56556371743E+02  0.51686337097E+02 -0.50599543800E+02  0.91817288460E+02  0.00000000000E+00 0. -1.
         -1    1    6    6    0  503 -0.25595142934E+03  0.28942883009E+03 -0.39231568836E+02  0.38835460325E+03  0.00000000000E+00 0.  1.
<mgrwt>
<rscale>  0 0.23001381E+04</rscale>
<asrwt>0</asrwt>
<pdfrwt beam="1">  1        1 0.22342490E+00 0.23001381E+04</pdfrwt>
<pdfrwt beam="2">  1       -2 0.14011659E+00 0.23001381E+04</pdfrwt>
<totfact> 0.20082437E+00</totfact>
</mgrwt>
</event>
<event>
12    5  0.5297412E-008  0.2154982E+04  0.7818608E-02  0.8537403E-01
          1   -1    0    0  501    0  0.00000000000E+00  0.00000000000E+00  0.91626228328E+03  0.91626228328E+03  0.00000000000E+00 0. -1.
         -2   -1    0    0    0  501 -0.00000000000E+00 -0.00000000000E+00 -0.12670898132E+04  0.12670898132E+04  0.00000000000E+00 0.  1.
        -24    2    1    2    0    0  0.12017835139E+03  0.87301298937E+02 -0.10407954020E+04  0.10529638273E+04  0.58424309585E+02 0.  0.
        254    2    1    2    0    0 -0.12017835139E+03 -0.87301298937E+02  0.68996787203E+03  0.11303882692E+04  0.88298223185E+03 0.  0.
         23    2    4    4    0    0  0.28266830229E+03  0.22847074814E+03  0.27039755778E+03  0.46221835319E+03  0.91818924495E+02 0.  0.
         23    2    4    4    0    0 -0.40284665368E+03 -0.31577204707E+03  0.41957031424E+03  0.66816991600E+03  0.91729907691E+02 0.  0.
          3    1    3    3  502    0  0.42175995346E+01  0.80856339794E+00 -0.32600757103E+01  0.53916615472E+01  0.00000000000E+00 0. -1.
         -4    1    3    3    0  502  0.11596075185E+03  0.86492735539E+02 -0.10375353262E+04  0.10475721658E+04  0.00000000000E+00 0.  1.
         13    1    5    5    0    0  0.25622815228E+03  0.21783093085E+03  0.27359278769E+03  0.43353914925E+03  0.00000000000E+00 0. -1.
        -13    1    5    5    0    0  0.26440150012E+02  0.10639817285E+02 -0.31952299054E+01  0.28679203941E+02  0.00000000000E+00 0.  1.
          4    1    6    6  503    0 -0.40550011527E+03 -0.30310403597E+03  0.40261664307E+03  0.64684044508E+03  0.00000000000E+00 0. -1.
         -4    1    6    6    0  503  0.26534615974E+01 -0.12668011103E+02  0.16953671174E+02  0.21329470927E+02  0.00000000000E+00 0.  1.
<mgrwt>
<rscale>  0 0.21549818E+04</rscale>
<asrwt>0</asrwt>
<pdfrwt beam="1">  1        1 0.14096343E+00 0.21549818E+04</pdfrwt>
<pdfrwt beam="2">  1       -2 0.19493689E+00 0.21549818E+04</pdfrwt>
<totfact> 0.20335433E+00</totfact>
</mgrwt>
</event>
<event>
12    5  0.5297412E-008  0.1913174E+04  0.7818608E-02  0.8648327E-01
         -2   -1    0    0    0  501 -0.00000000000E+00  0.00000000000E+00  0.89665468952E+03  0.89665468952E+03  0.00000000000E+00 0.  1.
          1   -1    0    0  501    0  0.00000000000E+00 -0.00000000000E+00 -0.10205246823E+04  0.10205246823E+04  0.00000000000E+00 0. -1.
        -24    2    1    2    0    0  0.52243679941E+03  0.48142658383E+03  0.16710845617E+03  0.73409269091E+03  0.79089049385E+02 0.  0.
        254    2    1    2    0    0 -0.52243679941E+03 -0.48142658383E+03 -0.29097844891E+03  0.11830866809E+04  0.90017435630E+03 0.  0.
         23    2    4    4    0    0 -0.19056102273E+03 -0.28965474389E+03 -0.58924035797E+03  0.68935541826E+03  0.88279777872E+02 0.  0.
         23    2    4    4    0    0 -0.33187577668E+03 -0.19177183994E+03  0.29826190905E+03  0.49373126262E+03  0.88839313116E+02 0.  0.
          3    1    3    3  502    0  0.15055414389E+03  0.13652555565E+03  0.11523938412E+02  0.20356467951E+03  0.00000000000E+00 0. -1.
         -4    1    3    3    0  502  0.37188265551E+03  0.34490102818E+03  0.15558451775E+03  0.53052801140E+03  0.00000000000E+00 0.  1.
         13    1    5    5    0    0  0.14315759703E+01 -0.33233042243E+02 -0.92358662758E+02  0.98166221751E+02  0.00000000000E+00 0.  1.
        -13    1    5    5    0    0 -0.19199259870E+03 -0.25642170165E+03 -0.49688169521E+03  0.59118919650E+03  0.00000000000E+00 0. -1.
          4    1    6    6  503    0 -0.25004401893E+03 -0.18235751065E+03  0.25307882995E+03  0.39978139934E+03  0.00000000000E+00 0. -1.
         -4    1    6    6    0  503 -0.81831757747E+02 -0.94143292914E+01  0.45183079105E+02  0.93949863274E+02  0.00000000000E+00 0.  1.
<mgrwt>
<rscale>  0 0.19131735E+04</rscale>
<asrwt>0</asrwt>
<pdfrwt beam="1">  1        1 0.15700380E+00 0.19131735E+04</pdfrwt>
<pdfrwt beam="2">  1       -2 0.13794688E+00 0.19131735E+04</pdfrwt>
<totfact> 0.44590355E+00</totfact>
</mgrwt>
</event>
<event>
12    5  0.5297412E-008  0.2165015E+04  0.7818608E-02  0.8533132E-01
          1   -1    0    0  501    0  0.00000000000E+00  0.00000000000E+00  0.75628887262E+03  0.75628887262E+03  0.00000000000E+00 0. -1.
         -2   -1    0    0    0  501 -0.00000000000E+00 -0.00000000000E+00 -0.15494382968E+04  0.15494382968E+04  0.00000000000E+00 0.  1.
        -24    2    1    2    0    0  0.67562668989E+03  0.51589728360E+03 -0.61658063513E+03  0.10526983228E+04  0.73352898958E+02 0.  0.
        254    2    1    2    0    0 -0.67562668989E+03 -0.51589728360E+03 -0.17656878899E+03  0.12530288466E+04  0.90348399095E+03 0.  0.
         23    2    4    4    0    0 -0.76178428876E+03 -0.53682041869E+03 -0.38208182569E+03  0.10113144300E+04  0.90988407026E+02 0.  0.
         23    2    4    4    0    0  0.86157598873E+02  0.20923135088E+02  0.20551303669E+03  0.24171441665E+03  0.91265226356E+02 0.  0.
          3    1    3    3  502    0  0.13321525275E+03  0.77881275569E+02 -0.86663249688E+02  0.17698111621E+03  0.00000000000E+00 0. -1.
         -4    1    3    3    0  502  0.54241143714E+03  0.43801600803E+03 -0.52991738544E+03  0.87571720654E+03  0.00000000000E+00 0.  1.
         13    1    5    5    0    0 -0.17394351882E+03 -0.11276347740E+03 -0.12594582647E+03  0.24255782977E+03  0.00000000000E+00 0.  1.
        -13    1    5    5    0    0 -0.58784076994E+03 -0.42405694129E+03 -0.25613599922E+03  0.76875660020E+03  0.00000000000E+00 0. -1.
          3    1    6    6  503    0 -0.17060563445E+01 -0.26923695843E+02  0.38078521801E+02  0.46666581712E+02  0.00000000000E+00 0. -1.
         -3    1    6    6    0  503  0.87863655217E+02  0.47846830931E+02  0.16743451489E+03  0.19504783494E+03  0.00000000000E+00 0.  1.
<mgrwt>
<rscale>  0 0.21650154E+04</rscale>
<asrwt>0</asrwt>
<pdfrwt beam="1">  1        1 0.11635214E+00 0.21650154E+04</pdfrwt>
<pdfrwt beam="2">  1       -2 0.23837512E+00 0.21650154E+04</pdfrwt>
<totfact> 0.14682888E+00</totfact>
</mgrwt>
</event>
<event>
12    5  0.5297412E-008  0.1477669E+04  0.7818608E-02  0.8899440E-01
         -2   -1    0    0    0  501 -0.00000000000E+00  0.00000000000E+00  0.49147164568E+03  0.49147164568E+03  0.00000000000E+00 0.  1.
          1   -1    0    0  501    0  0.00000000000E+00 -0.00000000000E+00 -0.11106974445E+04  0.11106974445E+04  0.00000000000E+00 0. -1.
        -24    2    1    2    0    0  0.20067582431E+03 -0.25340767845E+03  0.15867333319E+03  0.36861578926E+03  0.78829787892E+02 0.  0.
        254    2    1    2    0    0 -0.20067582431E+03  0.25340767845E+03 -0.77789913203E+03  0.12335533009E+04  0.90113286960E+03 0.  0.
         23    2    4    4    0    0  0.40570778297E+02 -0.54100045427E+02 -0.82250583035E+03  0.83021753301E+03  0.90401925812E+02 0.  0.
         23    2    4    4    0    0 -0.24124660261E+03  0.30750772388E+03  0.44606698324E+02  0.40333576792E+03  0.89045272930E+02 0.  0.
          3    1    3    3  502    0  0.46166525878E+02 -0.21790477955E+02  0.69082821210E+01  0.51515991721E+02  0.00000000000E+00 0. -1.
         -4    1    3    3    0  502  0.15450929844E+03 -0.23161720050E+03  0.15176505107E+03  0.31709979754E+03  0.00000000000E+00 0.  1.
         13    1    5    5    0    0  0.10036832413E+02  0.24132208756E+02 -0.12711785426E+03  0.12977692543E+03  0.00000000000E+00 0.  1.
        -13    1    5    5    0    0  0.30533945884E+02 -0.78232254183E+02 -0.69538797610E+03  0.70044060758E+03  0.00000000000E+00 0. -1.
          3    1    6    6  503    0 -0.14753191250E+03  0.23039908715E+03  0.62580349545E+02  0.28065228435E+03  0.00000000000E+00 0. -1.
         -3    1    6    6    0  503 -0.93714690116E+02  0.77108636735E+02 -0.17973651221E+02  0.12268348357E+03  0.00000000000E+00 0.  1.
<mgrwt>
<rscale>  0 0.14776688E+04</rscale>
<asrwt>0</asrwt>
<pdfrwt beam="1">  1        1 0.17087653E+00 0.14776688E+04</pdfrwt>
<pdfrwt beam="2">  1       -2 0.75611023E-01 0.14776688E+04</pdfrwt>
<totfact> 0.16587256E+01</totfact>
</mgrwt>
</event>
<event>
12    5  0.5297412E-008  0.1241276E+04  0.7818608E-02  0.9077476E-01
          1   -1    0    0  501    0  0.00000000000E+00  0.00000000000E+00  0.18790322545E+04  0.18790322545E+04  0.00000000000E+00 0. -1.
         -2   -1    0    0    0  501 -0.00000000000E+00 -0.00000000000E+00 -0.20499466448E+03  0.20499466448E+03  0.00000000000E+00 0.  1.
        -24    2    1    2    0    0  0.75805038120E+02  0.24692914739E+03  0.19796737602E+03  0.33628928803E+03  0.84728953964E+02 0.  0.
        254    2    1    2    0    0 -0.75805038120E+02 -0.24692914739E+03  0.14760702140E+04  0.17477376309E+04  0.89949049041E+03 0.  0.
         23    2    4    4    0    0 -0.24530373296E+03  0.26171544218E+03  0.42546109479E+03  0.56429772983E+03  0.93519466608E+02 0.  0.
         23    2    4    4    0    0  0.16949869484E+03 -0.50864458957E+03  0.10506091192E+04  0.11834399011E+04  0.96443517908E+02 0.  0.
          1    1    3    3  502    0 -0.78362151419E+01  0.83182529492E+02  0.91121441174E+02  0.12362789540E+03  0.00000000000E+00 0. -1.
         -2    1    3    3    0  502  0.83641253262E+02  0.16374661790E+03  0.10684593485E+03  0.21266139263E+03  0.00000000000E+00 0.  1.
         13    1    5    5    0    0 -0.20445497019E+02  0.46471499896E+02  0.10983844304E+03  0.12100455454E+03  0.00000000000E+00 0. -1.
        -13    1    5    5    0    0 -0.22485823594E+03  0.21524394228E+03  0.31562265175E+03  0.44329317529E+03  0.00000000000E+00 0.  1.
          4    1    6    6  503    0  0.26096619405E+02 -0.11607087099E+03  0.15755825966E+03  0.19742868542E+03  0.00000000000E+00 0. -1.
         -4    1    6    6    0  503  0.14340207543E+03 -0.39257371857E+03  0.89305085952E+03  0.98601121568E+03  0.00000000000E+00 0.  1.
<mgrwt>
<rscale>  0 0.12412761E+04</rscale>
<asrwt>0</asrwt>
<pdfrwt beam="1">  1        1 0.28908187E+00 0.12412761E+04</pdfrwt>
<pdfrwt beam="2">  1       -2 0.31537642E-01 0.12412761E+04</pdfrwt>
<totfact> 0.29145016E+01</totfact>
</mgrwt>
</event>
<event>
12    5  0.5297412E-008  0.1189519E+04  0.7818608E-02  0.9122080E-01
         -2   -1    0    0    0  501 -0.00000000000E+00  0.00000000000E+00  0.34411592774E+03  0.34411592774E+03  0.00000000000E+00 0.  1.
          1   -1    0    0  501    0  0.00000000000E+00 -0.00000000000E+00 -0.10279641046E+04  0.10279641046E+04  0.00000000000E+00 0. -1.
        -24    2    1    2    0    0  0.11953282600E+03  0.10754296996E+03 -0.35909449023E+03  0.40181491250E+03  0.81564600891E+02 0.  0.
        254    2    1    2    0    0 -0.11953282600E+03 -0.10754296996E+03 -0.32475368667E+03  0.97026511988E+03  0.90005325340E+03 0.  0.
         23    2    4    4    0    0 -0.21049102803E+03 -0.46920413467E+03 -0.25111516172E+03  0.57961660147E+03  0.91856340978E+02 0.  0.
         23    2    4    4    0    0  0.90958202036E+02  0.36166116472E+03 -0.73638524955E+02  0.39064851841E+03  0.90063533101E+02 0.  0.
          3    1    3    3  502    0  0.82829951811E+02  0.91924327309E+02 -0.18063338473E+03  0.21895045683E+03  0.00000000000E+00 0. -1.
         -4    1    3    3    0  502  0.36702874184E+02  0.15618642649E+02 -0.17846110550E+03  0.18286445567E+03  0.00000000000E+00 0.  1.
         13    1    5    5    0    0 -0.18356188432E+03 -0.42393858909E+03 -0.25338165920E+03  0.52689767310E+03  0.00000000000E+00 0. -1.
        -13    1    5    5    0    0 -0.26929143707E+02 -0.45265545582E+02  0.22664974842E+01  0.52718928370E+02  0.00000000000E+00 0.  1.
          4    1    6    6  503    0 -0.10253967796E+02  0.97720750389E+02  0.10663568999E+01  0.98263045084E+02  0.00000000000E+00 0. -1.
         -4    1    6    6    0  503  0.10121216983E+03  0.26394041433E+03 -0.74704881855E+02  0.29238547332E+03  0.00000000000E+00 0.  1.
<mgrwt>
<rscale>  0 0.11895189E+04</rscale>
<asrwt>0</asrwt>
<pdfrwt beam="1">  1        1 0.15814832E+00 0.11895189E+04</pdfrwt>
<pdfrwt beam="2">  1       -2 0.52940913E-01 0.11895189E+04</pdfrwt>
<totfact> 0.42049113E+01</totfact>
</mgrwt>
</event>
<event>
12    5  0.5297412E-008  0.2181894E+04  0.7818608E-02  0.8526002E-01
          1   -1    0    0  501    0  0.00000000000E+00  0.00000000000E+00  0.29159048900E+04  0.29159048900E+04  0.00000000000E+00 0. -1.
         -2   -1    0    0    0  501 -0.00000000000E+00 -0.00000000000E+00 -0.40816324051E+03  0.40816324051E+03  0.00000000000E+00 0.  1.
        -24    2    1    2    0    0  0.86003719697E+03 -0.21421615439E+03  0.73878690462E+03  0.11568764473E+04  0.83692788373E+02 0.  0.
        254    2    1    2    0    0 -0.86003719697E+03  0.21421615439E+03  0.17689547448E+04  0.21671916832E+04  0.88428861888E+03 0.  0.
         23    2    4    4    0    0 -0.98078338453E+03  0.34781625399E+03  0.15445133094E+04  0.18646224876E+04  0.91561261616E+02 0.  0.
         23    2    4    4    0    0  0.12074618756E+03 -0.13360009960E+03  0.22444143544E+03  0.30256919555E+03  0.93517547738E+02 0.  0.
          1    1    3    3  502    0  0.16313952882E+03 -0.11729997664E+02  0.11537835476E+03  0.20016059416E+03  0.00000000000E+00 0. -1.
         -2    1    3    3    0  502  0.69689766816E+03 -0.20248615673E+03  0.62340854986E+03  0.95671585310E+03  0.00000000000E+00 0.  1.
         13    1    5    5    0    0 -0.40661655516E+03  0.99076991702E+02  0.64464318805E+03  0.76858188446E+03  0.00000000000E+00 0.  1.
        -13    1    5    5    0    0 -0.57416682937E+03  0.24873926229E+03  0.89987012134E+03  0.10960406032E+04  0.00000000000E+00 0. -1.
          2    1    6    6  503    0  0.54698958547E+02 -0.10152820665E+03  0.18811516438E+03  0.22065191566E+03  0.00000000000E+00 0. -1.
         -2    1    6    6    0  503  0.66047229010E+02 -0.32071892945E+02  0.36326271053E+02  0.81917279896E+02  0.00000000000E+00 0.  1.
<mgrwt>
<rscale>  0 0.21818938E+04</rscale>
<asrwt>0</asrwt>
<pdfrwt beam="1">  1        1 0.44860074E+00 0.21818938E+04</pdfrwt>
<pdfrwt beam="2">  1       -2 0.62794346E-01 0.21818938E+04</pdfrwt>
<totfact> 0.12990762E+00</totfact>
</mgrwt>
</event>
<event>
12    5  0.5297412E-008  0.1436551E+04  0.7818608E-02  0.8927778E-01
         -2   -1    0    0    0  501 -0.00000000000E+00  0.00000000000E+00  0.19384797515E+03  0.19384797515E+03  0.00000000000E+00 0.  1.
          1   -1    0    0  501    0  0.00000000000E+00 -0.00000000000E+00 -0.26614670952E+04  0.26614670952E+04  0.00000000000E+00 0. -1.
        -24    2    1    2    0    0  0.18591291526E+01  0.11336357560E+03  0.73528205885E+02  0.15683509707E+03  0.79599585304E+02 0.  0.
        254    2    1    2    0    0 -0.18591291526E+01 -0.11336357560E+03 -0.25411473259E+04  0.26984799732E+04  0.90083831925E+03 0.  0.
         23    2    4    4    0    0  0.10243025799E+03  0.37266166713E+03 -0.12681874265E+04  0.13287717772E+04  0.89254754938E+02 0.  0.
         23    2    4    4    0    0 -0.10428938714E+03 -0.48602524272E+03 -0.12729598994E+04  0.13697081961E+04  0.92611143860E+02 0.  0.
          1    1    3    3  502    0  0.10701566433E+02  0.15857292351E+02 -0.15409061120E+02  0.24564535604E+02  0.00000000000E+00 0. -1.
         -2    1    3    3    0  502 -0.88424372804E+01  0.97506283245E+02  0.88937267005E+02  0.13227056147E+03  0.00000000000E+00 0.  1.
         13    1    5    5    0    0  0.64950610452E+01  0.52612254337E+02 -0.29760913234E+03  0.30229361683E+03  0.00000000000E+00 0.  1.
        -13    1    5    5    0    0  0.95935196943E+02  0.32004941279E+03 -0.97057829413E+03  0.10264781603E+04  0.00000000000E+00 0. -1.
          2    1    6    6  503    0 -0.45439817963E+01 -0.65646923333E+01 -0.28878530592E+01  0.84901502511E+01  0.00000000000E+00 0.  1.
         -2    1    6    6    0  503 -0.99745405344E+02 -0.47946055039E+03 -0.12700720464E+04  0.13612180458E+04  0.00000000000E+00 0. -1.
<mgrwt>
<rscale>  0 0.14365514E+04</rscale>
<asrwt>0</asrwt>
<pdfrwt beam="1">  1        1 0.40945644E+00 0.14365514E+04</pdfrwt>
<pdfrwt beam="2">  1       -2 0.29822768E-01 0.14365514E+04</pdfrwt>
<totfact> 0.92877113E+00</totfact>
</mgrwt>
</event>
<event>
12    5  0.5297412E-008  0.1832010E+04  0.7818608E-02  0.8689460E-01
         -2   -1    0    0    0  501 -0.00000000000E+00  0.00000000000E+00  0.83396735865E+03  0.83396735865E+03  0.00000000000E+00 0.  1.
          1   -1    0    0  501    0  0.00000000000E+00 -0.00000000000E+00 -0.10061122276E+04  0.10061122276E+04  0.00000000000E+00 0. -1.
        -24    2    1    2    0    0 -0.18503910826E+03  0.40835346225E+03  0.47061201718E+03  0.65491880154E+03  0.80317769996E+02 0.  0.
        254    2    1    2    0    0  0.18503910826E+03 -0.40835346225E+03 -0.64275688615E+03  0.11851607847E+04  0.88908809984E+03 0.  0.
         23    2    4    4    0    0  0.39008211787E+03 -0.58061001973E+03 -0.40247130764E+03  0.81222408238E+03  0.91938853783E+02 0.  0.
         23    2    4    4    0    0 -0.20504300961E+03  0.17225655748E+03 -0.24028557851E+03  0.37293670236E+03  0.98130868459E+02 0.  0.
          3    1    3    3  502    0 -0.36772485661E+02  0.13571247711E+03  0.10584754122E+03  0.17599373320E+03  0.00000000000E+00 0. -1.
         -2    1    3    3    0  502 -0.14826662260E+03  0.27264098514E+03  0.36476447596E+03  0.47892506833E+03  0.00000000000E+00 0.  1.
         13    1    5    5    0    0  0.35172217532E+03 -0.46848914030E+03 -0.35182873044E+03  0.68335497273E+03  0.00000000000E+00 0.  1.
        -13    1    5    5    0    0  0.38359942545E+02 -0.11212087944E+03 -0.50642577195E+02  0.12886910965E+03  0.00000000000E+00 0. -1.
          3    1    6    6  503    0 -0.56275746105E+02  0.10561854678E+03 -0.12651527969E+03  0.17415037473E+03  0.00000000000E+00 0. -1.
         -3    1    6    6    0  503 -0.14876726350E+03  0.66638010704E+02 -0.11377029882E+03  0.19878632764E+03  0.00000000000E+00 0.  1.
<mgrwt>
<rscale>  0 0.18320096E+04</rscale>
<asrwt>0</asrwt>
<pdfrwt beam="1">  1        1 0.15478650E+00 0.18320096E+04</pdfrwt>
<pdfrwt beam="2">  1       -2 0.12830267E+00 0.18320096E+04</pdfrwt>
<totfact> 0.55429115E+00</totfact>
</mgrwt>
</event>
<event>
12    5  0.5297412E-008  0.3483046E+04  0.7818608E-02  0.8117820E-01
          1   -1    0    0  501    0  0.00000000000E+00  0.00000000000E+00  0.23278898312E+04  0.23278898312E+04  0.00000000000E+00 0. -1.
         -2   -1    0    0    0  501 -0.00000000000E+00 -0.00000000000E+00 -0.13028544548E+04  0.13028544548E+04  0.00000000000E+00 0.  1.
        -24    2    1    2    0    0  0.42429114266E+03 -0.64316921151E+03  0.19906118370E+04  0.21361569961E+04  0.83316374670E+02 0.  0.
        254    2    1    2    0    0 -0.42429114266E+03  0.64316921151E+03 -0.96557646052E+03  0.14945872899E+04  0.84128690567E+03 0.  0.
         23    2    4    4    0    0 -0.39443985231E+02  0.36491947987E+03 -0.93654304896E+03  0.10101986008E+04  0.93092834446E+02 0.  0.
         23    2    4    4    0    0 -0.38484715743E+03  0.27824973164E+03 -0.29033411565E+02  0.48438868906E+03  0.90880225396E+02 0.  0.
          1    1    3    3  502    0  0.42567616011E+03 -0.62183337135E+03  0.19394395253E+04  0.20806976252E+04  0.00000000000E+00 0. -1.
         -2    1    3    3    0  502 -0.13850174482E+01 -0.21335840157E+02  0.51172311627E+02  0.55459370947E+02  0.00000000000E+00 0.  1.
         13    1    5    5    0    0  0.12027454950E+02  0.52621966710E+02 -0.22586124821E+03  0.23222195094E+03  0.00000000000E+00 0.  1.
        -13    1    5    5    0    0 -0.51471440181E+02  0.31229751317E+03 -0.71068180074E+03  0.77797664990E+03  0.00000000000E+00 0. -1.
          2    1    6    6  503    0 -0.29970731074E+03  0.17086855483E+03 -0.36123996766E+01  0.34501244119E+03  0.00000000000E+00 0. -1.
         -2    1    6    6    0  503 -0.85139846682E+02  0.10738117681E+03 -0.25421011889E+02  0.13937624787E+03  0.00000000000E+00 0.  1.
<mgrwt>
<rscale>  0 0.34830456E+04</rscale>
<asrwt>0</asrwt>
<pdfrwt beam="1">  1        1 0.35813690E+00 0.34830456E+04</pdfrwt>
<pdfrwt beam="2">  1       -2 0.20043915E+00 0.34830456E+04</pdfrwt>
<totfact> 0.16910859E-01</totfact>
</mgrwt>
</event>
<event>
12    5  0.5297412E-008  0.1806763E+04  0.7818608E-02  0.8702711E-01
          1   -1    0    0  501    0  0.00000000000E+00  0.00000000000E+00  0.22552291614E+04  0.22552291614E+04  0.00000000000E+00 0. -1.
         -2   -1    0    0    0  501 -0.00000000000E+00 -0.00000000000E+00 -0.36186946456E+03  0.36186946456E+03  0.00000000000E+00 0.  1.
        -24    2    1    2    0    0 -0.41758295537E+03 -0.49573527459E+03  0.95059922823E+03  0.11537497527E+04  0.85852269204E+02 0.  0.
        254    2    1    2    0    0  0.41758295537E+03  0.49573527459E+03  0.94276046857E+03  0.14633488732E+04  0.91239445224E+03 0.  0.
         23    2    4    4    0    0  0.35636357267E+03 -0.67587732933E+02  0.78108739815E+03  0.86612749497E+03  0.92283348585E+02 0.  0.
         23    2    4    4    0    0  0.61219382702E+02  0.56332300752E+03  0.16167307042E+03  0.59722137822E+03  0.97234609497E+02 0.  0.
          1    1    3    3  502    0 -0.39973405898E+03 -0.47030613342E+03  0.93098358681E+03  0.11170074377E+04  0.00000000000E+00 0. -1.
         -2    1    3    3    0  502 -0.17848896395E+02 -0.25429141169E+02  0.19615641415E+02  0.36742314996E+02  0.00000000000E+00 0.  1.
         13    1    5    5    0    0  0.18577914220E+03  0.31778341318E+01  0.45314078322E+03  0.48975561020E+03  0.00000000000E+00 0. -1.
        -13    1    5    5    0    0  0.17058443047E+03 -0.70765567065E+02  0.32794661493E+03  0.37637188477E+03  0.00000000000E+00 0.  1.
          3    1    6    6  503    0  0.16752217888E+02  0.69467819451E+02  0.54621562011E+02  0.89944036934E+02  0.00000000000E+00 0. -1.
         -3    1    6    6    0  503  0.44467164814E+02  0.49385518807E+03  0.10705150841E+03  0.50727734129E+03  0.00000000000E+00 0.  1.
<mgrwt>
<rscale>  0 0.18067635E+04</rscale>
<asrwt>0</asrwt>
<pdfrwt beam="1">  1        1 0.34695832E+00 0.18067635E+04</pdfrwt>
<pdfrwt beam="2">  1       -2 0.55672227E-01 0.18067635E+04</pdfrwt>
<totfact> 0.50165380E+00</totfact>
</mgrwt>
</event>
<event>
12    5  0.6519976E-008  0.2158377E+04  0.7818608E-02  0.8535955E-01
          1   -1    0    0  501    0  0.00000000000E+00  0.00000000000E+00  0.24354158639E+04  0.24354158639E+04  0.00000000000E+00 0. -1.
         -2   -1    0    0    0  501 -0.00000000000E+00 -0.00000000000E+00 -0.47821311020E+03  0.47821311020E+03  0.00000000000E+00 0.  1.
        -24    2    1    2    0    0 -0.33572419483E+03 -0.70237307626E+03  0.13849639278E+04  0.15907913207E+04  0.80332256632E+02 0.  0.
        254    2    1    2    0    0  0.33572419483E+03  0.70237307626E+03  0.57223882599E+03  0.13228376535E+04  0.90355050231E+03 0.  0.
         23    2    4    4    0    0 -0.14729938463E+03 -0.65254393323E+02  0.33190596963E+03  0.38000077689E+03  0.91015236116E+02 0.  0.
         23    2    4    4    0    0  0.48302357946E+03  0.76762746959E+03  0.24033285636E+03  0.94283687658E+03  0.92832018256E+02 0.  0.
          3    1    3    3  502    0 -0.33805267208E+03 -0.69968838368E+03  0.13665503856E+04  0.15720379766E+04  0.00000000000E+00 0. -1.
         -4    1    3    3    0  502  0.23284772478E+01 -0.26846925888E+01  0.18413542129E+02  0.18753344084E+02  0.00000000000E+00 0.  1.
         13    1    5    5    0    0 -0.11441908040E+03 -0.73374106945E+02  0.31293830716E+03  0.34118304415E+03  0.00000000000E+00 0. -1.
        -13    1    5    5    0    0 -0.32880304234E+02  0.81197136218E+01  0.18967662470E+02  0.38817732745E+02  0.00000000000E+00 0.  1.
          4    1    6    6  503    0  0.38782421561E+03  0.66983518596E+03  0.18675365835E+03  0.79621839182E+03  0.00000000000E+00 0. -1.
         -4    1    6    6    0  503  0.95199363847E+02  0.97792283632E+02  0.53579198014E+02  0.14661848476E+03  0.00000000000E+00 0.  1.
<mgrwt>
<rscale>  0 0.21583770E+04</rscale>
<asrwt>0</asrwt>
<pdfrwt beam="1">  1        1 0.37467936E+00 0.21583770E+04</pdfrwt>
<pdfrwt beam="2">  1       -2 0.73571249E-01 0.21583770E+04</pdfrwt>
<totfact> 0.20120206E+00</totfact>
</mgrwt>
</event>
<event>
12    5  0.5297412E-008  0.1179546E+04  0.7818608E-02  0.9130950E-01
          1   -1    0    0  501    0  0.00000000000E+00  0.00000000000E+00  0.57809021240E+03  0.57809021240E+03  0.00000000000E+00 0. -1.
         -2   -1    0    0    0  501 -0.00000000000E+00 -0.00000000000E+00 -0.60169221339E+03  0.60169221339E+03  0.00000000000E+00 0.  1.
        -24    2    1    2    0    0 -0.18512444937E+03 -0.58799399752E+02 -0.95324591799E+02  0.23200865579E+03  0.83742506475E+02 0.  0.
        254    2    1    2    0    0  0.18512444937E+03  0.58799399752E+02  0.71722590809E+02  0.94777377000E+03  0.92487975321E+03 0.  0.
         23    2    4    4    0    0 -0.35749201722E+03 -0.76743645716E+02  0.21360365458E+02  0.37846889953E+03  0.95353621652E+02 0.  0.
         23    2    4    4    0    0  0.54261646660E+03  0.13554304547E+03  0.50362225351E+02  0.56930487047E+03  0.93632979247E+02 0.  0.
          3    1    3    3  502    0 -0.93226627333E+02 -0.69547415595E+02 -0.34639576355E+02  0.12135875457E+03  0.00000000000E+00 0. -1.
         -2    1    3    3    0  502 -0.91897822041E+02  0.10748015843E+02 -0.60685015444E+02  0.11064990122E+03  0.00000000000E+00 0.  1.
         13    1    5    5    0    0 -0.35724509132E+02  0.84005986258E+01 -0.22040936327E+02  0.42809035076E+02  0.00000000000E+00 0. -1.
        -13    1    5    5    0    0 -0.32176750809E+03 -0.85144244342E+02  0.43401301785E+02  0.33565986445E+03  0.00000000000E+00 0.  1.
          2    1    6    6  503    0  0.28988203408E+03  0.41135416355E+02  0.61935002149E+02  0.29926520120E+03  0.00000000000E+00 0.  1.
         -2    1    6    6    0  503  0.25273443252E+03  0.94407629114E+02 -0.11572776798E+02  0.27003966927E+03  0.00000000000E+00 0. -1.
<mgrwt>
<rscale>  0 0.11795463E+04</rscale>
<asrwt>0</asrwt>
<pdfrwt beam="1">  1        1 0.88936956E-01 0.11795463E+04</pdfrwt>
<pdfrwt beam="2">  1       -2 0.92568032E-01 0.11795463E+04</pdfrwt>
<totfact> 0.31036369E+01</totfact>
</mgrwt>
</event>
<event>
12    5  0.5297412E-008  0.3426033E+04  0.7818608E-02  0.8131546E-01
          1   -1    0    0  501    0  0.00000000000E+00  0.00000000000E+00  0.22689277390E+04  0.22689277390E+04  0.00000000000E+00 0. -1.
         -2   -1    0    0    0  501 -0.00000000000E+00 -0.00000000000E+00 -0.12933091998E+04  0.12933091998E+04  0.00000000000E+00 0.  1.
        -24    2    1    2    0    0 -0.12460515682E+04 -0.58517500217E+03  0.13010895885E+04  0.18958489623E+04  0.79591938925E+02 0.  0.
        254    2    1    2    0    0  0.12460515682E+04  0.58517500217E+03 -0.32547104922E+03  0.16663879765E+04  0.88081961287E+03 0.  0.
         23    2    4    4    0    0 -0.79441695391E+02 -0.37455338346E+02  0.72394950485E+02  0.14621985341E+03  0.91789603648E+02 0.  0.
         23    2    4    4    0    0  0.13254932636E+04  0.62263034052E+03 -0.39786599971E+03  0.15201681231E+04  0.89514444835E+02 0.  0.
          3    1    3    3  502    0 -0.92023620625E+03 -0.40866055943E+03  0.98916506309E+03  0.14114834927E+04  0.00000000000E+00 0. -1.
         -4    1    3    3    0  502 -0.32581536197E+03 -0.17651444274E+03  0.31192452536E+03  0.48436546958E+03  0.00000000000E+00 0.  1.
         13    1    5    5    0    0 -0.19441831241E+02  0.26855003661E+02  0.13912456229E+01  0.33183001492E+02  0.00000000000E+00 0. -1.
        -13    1    5    5    0    0 -0.59999864151E+02 -0.64310342007E+02  0.71003704863E+02  0.11303685192E+03  0.00000000000E+00 0.  1.
          4    1    6    6  503    0  0.84307493437E+03  0.35258060850E+03 -0.22887996645E+03  0.94205863379E+03  0.00000000000E+00 0. -1.
         -4    1    6    6    0  503  0.48241832925E+03  0.27004973202E+03 -0.16898603326E+03  0.57810948928E+03  0.00000000000E+00 0.  1.
<mgrwt>
<rscale>  0 0.34260328E+04</rscale>
<asrwt>0</asrwt>
<pdfrwt beam="1">  1        1 0.34906580E+00 0.34260328E+04</pdfrwt>
<pdfrwt beam="2">  1       -2 0.19897065E+00 0.34260328E+04</pdfrwt>
<totfact> 0.19066672E-01</totfact>
</mgrwt>
</event>
<event>
12    5  0.5297412E-008  0.2154300E+04  0.7818608E-02  0.8537694E-01
          1   -1    0    0  501    0  0.00000000000E+00  0.00000000000E+00  0.55382491604E+03  0.55382491604E+03  0.00000000000E+00 0. -1.
         -2   -1    0    0    0  501 -0.00000000000E+00 -0.00000000000E+00 -0.20949792472E+04  0.20949792472E+04  0.00000000000E+00 0.  1.
        -24    2    1    2    0    0  0.87698706903E+03  0.81075064527E+01 -0.47733835134E+03  0.10016998964E+04  0.79866951525E+02 0.  0.
        254    2    1    2    0    0 -0.87698706903E+03 -0.81075064527E+01 -0.10638159798E+04  0.16471042668E+04  0.90115258192E+03 0.  0.
         23    2    4    4    0    0 -0.86803638773E+03  0.18782844166E+02 -0.37174513144E+03  0.94881906229E+03  0.90681886646E+02 0.  0.
         23    2    4    4    0    0 -0.89506812995E+01 -0.26890350619E+02 -0.69207084837E+03  0.69828520450E+03  0.88526617519E+02 0.  0.
          3    1    3    3  502    0  0.11307791114E+03  0.22981629632E+02 -0.80865698726E+02  0.14090433108E+03  0.00000000000E+00 0. -1.
         -4    1    3    3    0  502  0.76390915789E+03 -0.14874123180E+02 -0.39647265262E+03  0.86079556535E+03  0.00000000000E+00 0.  1.
         13    1    5    5    0    0 -0.96567532174E+01 -0.97120432765E+01 -0.96634081610E+01  0.16761805529E+02  0.00000000000E+00 0. -1.
        -13    1    5    5    0    0 -0.85837963451E+03  0.28494887442E+02 -0.36208172328E+03  0.93205725676E+03  0.00000000000E+00 0.  1.
          1    1    6    6  503    0 -0.40335724975E+02 -0.89442761462E+01 -0.16940186989E+03  0.17436732580E+03  0.00000000000E+00 0. -1.
         -1    1    6    6    0  503  0.31385043675E+02 -0.17946074472E+02 -0.52266897849E+03  0.52391787871E+03  0.00000000000E+00 0.  1.
<mgrwt>
<rscale>  0 0.21542996E+04</rscale>
<asrwt>0</asrwt>
<pdfrwt beam="1">  1        1 0.85203835E-01 0.21542996E+04</pdfrwt>
<pdfrwt beam="2">  1       -2 0.32230449E+00 0.21542996E+04</pdfrwt>
<totfact> 0.71430664E-01</totfact>
</mgrwt>
</event>
<event>
12    5  0.5297412E-008  0.1549273E+04  0.7818608E-02  0.8852332E-01
         -2   -1    0    0    0  501 -0.00000000000E+00  0.00000000000E+00  0.71746063294E+03  0.71746063294E+03  0.00000000000E+00 0.  1.
          1   -1    0    0  501    0  0.00000000000E+00 -0.00000000000E+00 -0.83636925052E+03  0.83636925052E+03  0.00000000000E+00 0. -1.
        -24    2    1    2    0    0 -0.14342913422E+03  0.22471811418E+03 -0.47911938845E+03  0.55458615597E+03  0.83308274653E+02 0.  0.
        254    2    1    2    0    0  0.14342913422E+03 -0.22471811418E+03  0.36021077086E+03  0.99924372749E+03  0.89312153714E+03 0.  0.
         23    2    4    4    0    0 -0.35496343061E+03 -0.17490906411E+03  0.25048283638E+03  0.47877895803E+03  0.99475733470E+02 0.  0.
         23    2    4    4    0    0  0.49839256482E+03 -0.49809050065E+02  0.10972793447E+03  0.52046476947E+03  0.89259545781E+02 0.  0.
          3    1    3    3  502    0 -0.14101194680E+03  0.20101649346E+03 -0.46754097512E+03  0.52809711531E+03  0.00000000000E+00 0. -1.
         -4    1    3    3    0  502 -0.24171874115E+01  0.23701620724E+02 -0.11578413327E+02  0.26489040660E+02  0.00000000000E+00 0.  1.
         13    1    5    5    0    0 -0.99625333305E+01 -0.11508435379E+02  0.40128646991E+02  0.42918579480E+02  0.00000000000E+00 0. -1.
        -13    1    5    5    0    0 -0.34500089728E+03 -0.16340062874E+03  0.21035418939E+03  0.43586037855E+03  0.00000000000E+00 0.  1.
          4    1    6    6  503    0  0.34566040016E+03 -0.72115052673E+02  0.59054377557E+02  0.35800714039E+03  0.00000000000E+00 0. -1.
         -4    1    6    6    0  503  0.15273216466E+03  0.22306002608E+02  0.50673556917E+02  0.16245762908E+03  0.00000000000E+00 0.  1.
<mgrwt>
<rscale>  0 0.15492734E+04</rscale>
<asrwt>0</asrwt>
<pdfrwt beam="1">  1        1 0.12867219E+00 0.15492734E+04</pdfrwt>
<pdfrwt beam="2">  1       -2 0.11037856E+00 0.15492734E+04</pdfrwt>
<totfact> 0.11312840E+01</totfact>
</mgrwt>
</event>
<event>
12    5  0.5297412E-008  0.1844074E+04  0.7818608E-02  0.8683206E-01
         -2   -1    0    0    0  501 -0.00000000000E+00  0.00000000000E+00  0.23524292770E+03  0.23524292770E+03  0.00000000000E+00 0.  1.
          1   -1    0    0  501    0  0.00000000000E+00 -0.00000000000E+00 -0.36139320061E+04  0.36139320061E+04  0.00000000000E+00 0. -1.
        -24    2    1    2    0    0  0.12000033371E+03 -0.68163290925E+03 -0.14206222956E+04  0.15822846240E+04  0.80208612744E+02 0.  0.
        254    2    1    2    0    0 -0.12000033371E+03  0.68163290925E+03 -0.19580667828E+04  0.22668903098E+04  0.90870382837E+03 0.  0.
         23    2    4    4    0    0  0.24676062361E+03  0.66532972936E+02 -0.11578429738E+04  0.11894682781E+04  0.94429819058E+02 0.  0.
         23    2    4    4    0    0 -0.36676095733E+03  0.61509993632E+03 -0.80022380907E+03  0.10774220318E+04  0.87284354226E+02 0.  0.
          3    1    3    3  502    0 -0.70271431757E+01 -0.14807761911E+02 -0.20184010588E+02  0.26000862244E+02  0.00000000000E+00 0. -1.
         -4    1    3    3    0  502  0.12702747689E+03 -0.66682514734E+03 -0.14004382850E+04  0.15562837617E+04  0.00000000000E+00 0.  1.
         13    1    5    5    0    0  0.42753722179E+00  0.19974044120E+02 -0.55740558750E+02  0.59212795208E+02  0.00000000000E+00 0. -1.
        -13    1    5    5    0    0  0.24633308639E+03  0.46558928816E+02 -0.11021024150E+04  0.11302554828E+04  0.00000000000E+00 0.  1.
          4    1    6    6  503    0 -0.60063310025E+01  0.16483517811E+01  0.37870655816E+00  0.62399114067E+01  0.00000000000E+00 0. -1.
         -4    1    6    6    0  503 -0.36075462632E+03  0.61345158453E+03 -0.80060251563E+03  0.10711821204E+04  0.00000000000E+00 0.  1.
<mgrwt>
<rscale>  0 0.18440737E+04</rscale>
<asrwt>0</asrwt>
<pdfrwt beam="1">  1        1 0.55598945E+00 0.18440737E+04</pdfrwt>
<pdfrwt beam="2">  1       -2 0.36191225E-01 0.18440737E+04</pdfrwt>
<totfact> 0.12109227E+00</totfact>
</mgrwt>
</event>
<event>
12    5  0.5297412E-008  0.1369092E+04  0.7818608E-02  0.8976500E-01
          1   -1    0    0  501    0  0.00000000000E+00  0.00000000000E+00  0.11102516966E+04  0.11102516966E+04  0.00000000000E+00 0. -1.
         -2   -1    0    0    0  501 -0.00000000000E+00 -0.00000000000E+00 -0.42206940104E+03  0.42206940104E+03  0.00000000000E+00 0.  1.
        -24    2    1    2    0    0 -0.31072972554E+03  0.22112804997E+03  0.20846585237E+03  0.44170828502E+03  0.78724968294E+02 0.  0.
        254    2    1    2    0    0  0.31072972554E+03 -0.22112804997E+03  0.47971644319E+03  0.10906128126E+04  0.90214071207E+03 0.  0.
         23    2    4    4    0    0 -0.18158774217E+03 -0.47978216588E+02  0.51833256035E+03  0.55888869363E+03  0.91716472769E+02 0.  0.
         23    2    4    4    0    0  0.49231746771E+03 -0.17314983338E+03 -0.38616117159E+02  0.53172411899E+03  0.94244259242E+02 0.  0.
          1    1    3    3  502    0 -0.21647512467E+03  0.18729946082E+03  0.17778680124E+03  0.33697286881E+03  0.00000000000E+00 0. -1.
         -2    1    3    3    0  502 -0.94254600872E+02  0.33828589154E+02  0.30679051138E+02  0.10473541621E+03  0.00000000000E+00 0.  1.
         13    1    5    5    0    0 -0.83563211600E+02  0.98803496016E+01  0.13557980401E+03  0.15956915396E+03  0.00000000000E+00 0. -1.
        -13    1    5    5    0    0 -0.98024530572E+02 -0.57858566190E+02  0.38275275635E+03  0.39931953967E+03  0.00000000000E+00 0.  1.
          1    1    6    6  503    0  0.25073338709E+03 -0.82506240012E+02  0.27417164839E+02  0.26537937367E+03  0.00000000000E+00 0. -1.
         -1    1    6    6    0  503  0.24158408062E+03 -0.90643593372E+02 -0.66033281997E+02  0.26634474532E+03  0.00000000000E+00 0.  1.
<mgrwt>
<rscale>  0 0.13690921E+04</rscale>
<asrwt>0</asrwt>
<pdfrwt beam="1">  1        1 0.17080795E+00 0.13690921E+04</pdfrwt>
<pdfrwt beam="2">  1       -2 0.64933754E-01 0.13690921E+04</pdfrwt>
<totfact> 0.23357241E+01</totfact>
</mgrwt>
</event>
<event>
12    5  0.5297412E-008  0.2164578E+04  0.7818608E-02  0.8533318E-01
          1   -1    0    0  501    0  0.00000000000E+00  0.00000000000E+00  0.24471942855E+04  0.24471942855E+04  0.00000000000E+00 0. -1.
         -2   -1    0    0    0  501 -0.00000000000E+00 -0.00000000000E+00 -0.47864989486E+03  0.47864989486E+03  0.00000000000E+00 0.  1.
        -24    2    1    2    0    0  0.20662490664E+03  0.83028367101E+03  0.48789678940E+03  0.98850419732E+03  0.83859672223E+02 0.  0.
        254    2    1    2    0    0 -0.20662490664E+03 -0.83028367101E+03  0.14806476012E+04  0.19373399830E+04  0.91044168644E+03 0.  0.
         23    2    4    4    0    0 -0.44723217833E+03 -0.95427504263E+02  0.47485721990E+03  0.66548094665E+03  0.90843167907E+02 0.  0.
         23    2    4    4    0    0  0.24060727169E+03 -0.73485616674E+03  0.10057903813E+04  0.12718590364E+04  0.90031506991E+02 0.  0.
          3    1    3    3  502    0  0.68502021705E+02  0.28579421317E+03  0.12258759248E+03  0.31843143232E+03  0.00000000000E+00 0. -1.
         -4    1    3    3    0  502  0.13812288494E+03  0.54448945783E+03  0.36530919692E+03  0.67007276500E+03  0.00000000000E+00 0.  1.
         13    1    5    5    0    0 -0.13068447314E+03 -0.31445640438E+02  0.84160099279E+02  0.15858808951E+03  0.00000000000E+00 0. -1.
        -13    1    5    5    0    0 -0.31654770519E+03 -0.63981863826E+02  0.39069712062E+03  0.50689285714E+03  0.00000000000E+00 0.  1.
          1    1    6    6  503    0  0.24630016618E+02 -0.46583237459E+02  0.38767137993E+02  0.65418091680E+02  0.00000000000E+00 0. -1.
         -1    1    6    6    0  503  0.21597725507E+03 -0.68827292928E+03  0.96702324331E+03  0.12064409447E+04  0.00000000000E+00 0.  1.
<mgrwt>
<rscale>  0 0.21645778E+04</rscale>
<asrwt>0</asrwt>
<pdfrwt beam="1">  1        1 0.37649142E+00 0.21645778E+04</pdfrwt>
<pdfrwt beam="2">  1       -2 0.73638447E-01 0.21645778E+04</pdfrwt>
<totfact> 0.19696299E+00</totfact>
</mgrwt>
</event>
<event>
12    5  0.5297412E-008  0.1459644E+04  0.7818608E-02  0.8911742E-01
         -2   -1    0    0    0  501 -0.00000000000E+00  0.00000000000E+00  0.19770166315E+03  0.19770166315E+03  0.00000000000E+00 0.  1.
          1   -1    0    0  501    0  0.00000000000E+00 -0.00000000000E+00 -0.26941597119E+04  0.26941597119E+04  0.00000000000E+00 0. -1.
        -24    2    1    2    0    0 -0.38982600244E+03 -0.17345398360E+03 -0.48539515516E+03  0.65075142034E+03  0.76278160779E+02 0.  0.
        254    2    1    2    0    0  0.38982600244E+03  0.17345398360E+03 -0.20110628936E+04  0.22411099547E+04  0.89227197117E+03 0.  0.
         23    2    4    4    0    0  0.36388300675E+03 -0.13667257315E+03 -0.18232546115E+04  0.18666017536E+04  0.94098316715E+02 0.  0.
         23    2    4    4    0    0  0.25942995685E+02  0.31012655676E+03 -0.18780828208E+03  0.37450820114E+03  0.90182712702E+02 0.  0.
          3    1    3    3  502    0 -0.10830772766E+03 -0.25468137030E+02 -0.16740836263E+03  0.20100932753E+03  0.00000000000E+00 0. -1.
         -4    1    3    3    0  502 -0.28151827478E+03 -0.14798584657E+03 -0.31798679253E+03  0.44974209281E+03  0.00000000000E+00 0.  1.
         13    1    5    5    0    0  0.25946118091E+01 -0.24014828517E+00  0.28093140537E+00  0.26208021851E+01  0.00000000000E+00 0. -1.
        -13    1    5    5    0    0  0.36128839494E+03 -0.13643242487E+03 -0.18235355429E+04  0.18639809514E+04  0.00000000000E+00 0.  1.
          2    1    6    6  503    0  0.33118183541E+02  0.18752600023E+03 -0.66015495618E+02  0.20154617463E+03  0.00000000000E+00 0.  1.
         -2    1    6    6    0  503 -0.71751878560E+01  0.12260055652E+03 -0.12179278646E+03  0.17296202651E+03  0.00000000000E+00 0. -1.
<mgrwt>
<rscale>  0 0.14596436E+04</rscale>
<asrwt>0</asrwt>
<pdfrwt beam="1">  1        1 0.41448608E+00 0.14596436E+04</pdfrwt>
<pdfrwt beam="2">  1       -2 0.30415643E-01 0.14596436E+04</pdfrwt>
<totfact> 0.84739677E+00</totfact>
</mgrwt>
</event>
<event>
12    5  0.5297412E-008  0.2446283E+04  0.7818608E-02  0.8422376E-01
          1   -1    0    0  501    0  0.00000000000E+00  0.00000000000E+00  0.15643395896E+04  0.15643395896E+04  0.00000000000E+00 0. -1.
         -2   -1    0    0    0  501 -0.00000000000E+00 -0.00000000000E+00 -0.95636192463E+03  0.95636192463E+03  0.00000000000E+00 0.  1.
        -24    2    1    2    0    0  0.20917084811E+03  0.87534693239E+03  0.81918064123E+03  0.12195394338E+04  0.78960824392E+02 0.  0.
        254    2    1    2    0    0 -0.20917084811E+03 -0.87534693239E+03 -0.21120297623E+03  0.13011620805E+04  0.91565897953E+03 0.  0.
         23    2    4    4    0    0 -0.18772325743E+03 -0.59911090755E+03  0.30766129362E+03  0.70495386093E+03  0.90169692904E+02 0.  0.
         23    2    4    4    0    0 -0.21447590683E+02 -0.27623602484E+03 -0.51886426985E+03  0.59620821957E+03  0.97353839064E+02 0.  0.
          3    1    3    3  502    0  0.20767795740E+03  0.75657458758E+03  0.71772034958E+03  0.10633239115E+04  0.00000000000E+00 0. -1.
         -4    1    3    3    0  502  0.14928907108E+01  0.11877234481E+03  0.10146029165E+03  0.15621552226E+03  0.00000000000E+00 0.  1.
         13    1    5    5    0    0 -0.61535364897E+02 -0.10487944863E+03  0.85146519947E+02  0.14844604992E+03  0.00000000000E+00 0. -1.
        -13    1    5    5    0    0 -0.12618789253E+03 -0.49423145892E+03  0.22251477367E+03  0.55650781101E+03  0.00000000000E+00 0.  1.
          3    1    6    6  503    0 -0.19990152453E+02 -0.41742616443E+02 -0.16752106413E+03  0.17379689051E+03  0.00000000000E+00 0. -1.
         -3    1    6    6    0  503 -0.14574382300E+01 -0.23449340840E+03 -0.35134320572E+03  0.42241132906E+03  0.00000000000E+00 0.  1.
<mgrwt>
<rscale>  0 0.24462827E+04</rscale>
<asrwt>0</asrwt>
<pdfrwt beam="1">  1        1 0.24066763E+00 0.24462827E+04</pdfrwt>
<pdfrwt beam="2">  1       -2 0.14713260E+00 0.24462827E+04</pdfrwt>
<totfact> 0.14593481E+00</totfact>
</mgrwt>
</event>
<event>
12    5  0.5297412E-008  0.3824242E+04  0.7818608E-02  0.8040973E-01
          1   -1    0    0  501    0  0.00000000000E+00  0.00000000000E+00  0.33288425562E+04  0.33288425562E+04  0.00000000000E+00 0. -1.
         -4   -1    0    0    0  501 -0.00000000000E+00 -0.00000000000E+00 -0.10983417644E+04  0.10983417644E+04  0.00000000000E+00 0.  1.
        -24    2    1    2    0    0 -0.11348462524E+04  0.13594270972E+04  0.65741653257E+03  0.18907182910E+04  0.81860303353E+02 0.  0.
        254    2    1    2    0    0  0.11348462524E+04 -0.13594270972E+04  0.15730842592E+04  0.25364660297E+04  0.90727492195E+03 0.  0.
         23    2    4    4    0    0  0.11878372470E+04 -0.13997264741E+04  0.15779881842E+04  0.24225665604E+04  0.92684962643E+02 0.  0.
         23    2    4    4    0    0 -0.52990994598E+02  0.40299376940E+02 -0.49039249838E+01  0.11389946930E+03  0.92287351984E+02 0.  0.
          3    1    3    3  502    0 -0.15515410992E+03  0.22394743573E+03  0.83523082255E+02  0.28495851815E+03  0.00000000000E+00 0. -1.
         -4    1    3    3    0  502 -0.97969214251E+03  0.11354796614E+04  0.57389345032E+03  0.16057597728E+04  0.00000000000E+00 0.  1.
         13    1    5    5    0    0  0.77582188688E+03 -0.84791709061E+03  0.96939162985E+03  0.15035235697E+04  0.00000000000E+00 0.  1.
        -13    1    5    5    0    0  0.41201536015E+03 -0.55180938351E+03  0.60859655434E+03  0.91904299066E+03  0.00000000000E+00 0. -1.
          2    1    6    6  503    0 -0.77148250310E+02  0.22273761797E+02 -0.15819210170E+02  0.81842656365E+02  0.00000000000E+00 0.  1.
         -2    1    6    6    0  503  0.24157255712E+02  0.18025615143E+02  0.10915285186E+02  0.32056812935E+02  0.00000000000E+00 0. -1.
<mgrwt>
<rscale>  0 0.38242420E+04</rscale>
<asrwt>0</asrwt>
<pdfrwt beam="1">  1        1 0.51212962E+00 0.38242420E+04</pdfrwt>
<pdfrwt beam="2">  1       -4 0.16897566E+00 0.38242420E+04</pdfrwt>
<totfact> 0.28505876E-02</totfact>
</mgrwt>
</event>
<event>
12    5  0.5297412E-008  0.2904086E+04  0.7818608E-02  0.8271663E-01
         -2   -1    0    0    0  501 -0.00000000000E+00  0.00000000000E+00  0.80565191721E+03  0.80565191721E+03  0.00000000000E+00 0.  1.
          1   -1    0    0  501    0  0.00000000000E+00 -0.00000000000E+00 -0.26170467632E+04  0.26170467632E+04  0.00000000000E+00 0. -1.
        -24    2    1    2    0    0  0.10561161452E+04 -0.68326208081E+03 -0.38611048618E+03  0.13181738976E+04  0.79200590620E+02 0.  0.
        254    2    1    2    0    0 -0.10561161452E+04  0.68326208081E+03 -0.14252843598E+04  0.21045247828E+04  0.90297323973E+03 0.  0.
         23    2    4    4    0    0 -0.96727075576E+03  0.43113497560E+03 -0.57494081714E+03  0.12084640697E+04  0.91314743746E+02 0.  0.
         23    2    4    4    0    0 -0.88845389482E+02  0.25212710522E+03 -0.85034354268E+03  0.89606071308E+03  0.91537317614E+02 0.  0.
          3    1    3    3  502    0  0.22060875647E+03 -0.17923036913E+03 -0.74138339735E+02  0.29374860351E+03  0.00000000000E+00 0. -1.
         -4    1    3    3    0  502  0.83550738877E+03 -0.50403171169E+03 -0.31197214645E+03  0.10244252941E+04  0.00000000000E+00 0.  1.
         13    1    5    5    0    0 -0.35927543417E+03  0.12679156512E+03 -0.17098209453E+03  0.41760006613E+03  0.00000000000E+00 0. -1.
        -13    1    5    5    0    0 -0.60799532159E+03  0.30434341048E+03 -0.40395872261E+03  0.79086400358E+03  0.00000000000E+00 0.  1.
          3    1    6    6  503    0 -0.78213971518E+02  0.10256656380E+03 -0.32259260019E+03  0.34742382050E+03  0.00000000000E+00 0. -1.
         -3    1    6    6    0  503 -0.10631417965E+02  0.14956054142E+03 -0.52775094249E+03  0.54863689258E+03  0.00000000000E+00 0.  1.
<mgrwt>
<rscale>  0 0.29040859E+04</rscale>
<asrwt>0</asrwt>
<pdfrwt beam="1">  1        1 0.40262257E+00 0.29040859E+04</pdfrwt>
<pdfrwt beam="2">  1       -2 0.12394645E+00 0.29040859E+04</pdfrwt>
<totfact> 0.41485722E-01</totfact>
</mgrwt>
</event>
<event>
12    5  0.5297412E-008  0.2472427E+04  0.7818608E-02  0.8412875E-01
          1   -1    0    0  501    0  0.00000000000E+00  0.00000000000E+00  0.73155101511E+03  0.73155101511E+03  0.00000000000E+00 0. -1.
         -2   -1    0    0    0  501 -0.00000000000E+00 -0.00000000000E+00 -0.20890190886E+04  0.20890190886E+04  0.00000000000E+00 0.  1.
        -24    2    1    2    0    0  0.53808058251E+03  0.84638219115E+03 -0.18551647743E+03  0.10248837714E+04  0.10038353799E+03 0.  0.
        254    2    1    2    0    0 -0.53808058251E+03 -0.84638219115E+03 -0.11719515960E+04  0.17956863323E+04  0.91930698559E+03 0.  0.
         23    2    4    4    0    0 -0.91498053231E+02 -0.19846301953E+03 -0.94110400907E+03  0.97036254228E+03  0.90372803962E+02 0.  0.
         23    2    4    4    0    0 -0.44658252928E+03 -0.64791917163E+03 -0.23084758696E+03  0.82532379002E+03  0.92916852844E+02 0.  0.
          1    1    3    3  502    0  0.16516741407E+02  0.72636927887E+02 -0.20777772551E+02  0.77334609792E+02  0.00000000000E+00 0. -1.
         -2    1    3    3    0  502  0.52156384110E+03  0.77374526326E+03 -0.16473870488E+03  0.94754916160E+03  0.00000000000E+00 0.  1.
         13    1    5    5    0    0 -0.10025325577E+03 -0.20316094028E+03 -0.90077881219E+03  0.92883128255E+03  0.00000000000E+00 0.  1.
        -13    1    5    5    0    0  0.87552025415E+01  0.46979207571E+01 -0.40325196881E+02  0.41531259726E+02  0.00000000000E+00 0. -1.
          1    1    6    6  503    0 -0.12251096813E+03 -0.13033238023E+03 -0.82011039776E+02  0.19677722758E+03  0.00000000000E+00 0. -1.
         -1    1    6    6    0  503 -0.32407156115E+03 -0.51758679140E+03 -0.14883654719E+03  0.62854656244E+03  0.00000000000E+00 0.  1.
<mgrwt>
<rscale>  0 0.24724272E+04</rscale>
<asrwt>0</asrwt>
<pdfrwt beam="1">  1        1 0.11254631E+00 0.24724272E+04</pdfrwt>
<pdfrwt beam="2">  1       -2 0.32138755E+00 0.24724272E+04</pdfrwt>
<totfact> 0.46677506E-01</totfact>
</mgrwt>
</event>
<event>
12    5  0.5297412E-008  0.2331044E+04  0.7818608E-02  0.8465781E-01
          1   -1    0    0  501    0  0.00000000000E+00  0.00000000000E+00  0.13282851912E+04  0.13282851912E+04  0.00000000000E+00 0. -1.
         -2   -1    0    0    0  501 -0.00000000000E+00 -0.00000000000E+00 -0.10227027755E+04  0.10227027755E+04  0.00000000000E+00 0.  1.
        -24    2    1    2    0    0  0.12642634236E+03 -0.42274947394E+03  0.10320077324E+04  0.11252523003E+04  0.80324602856E+02 0.  0.
        254    2    1    2    0    0 -0.12642634236E+03  0.42274947394E+03 -0.72642531663E+03  0.12257356664E+04  0.88319502120E+03 0.  0.
         23    2    4    4    0    0  0.12458126005E+03 -0.15332797437E+03 -0.51081663493E+03  0.55516523213E+03  0.90801114384E+02 0.  0.
         23    2    4    4    0    0 -0.25100760240E+03  0.57607744831E+03 -0.21560868171E+03  0.67057043426E+03  0.91145821461E+02 0.  0.
          3    1    3    3  502    0  0.13364723403E+03 -0.37023784702E+03  0.93966948182E+03  0.10187818126E+04  0.00000000000E+00 0. -1.
         -4    1    3    3    0  502 -0.72208916763E+01 -0.52511626923E+02  0.92338250540E+02  0.10647048770E+03  0.00000000000E+00 0.  1.
         13    1    5    5    0    0  0.33105023533E+02 -0.91601844609E+02 -0.15913945883E+03  0.18658029873E+03  0.00000000000E+00 0. -1.
        -13    1    5    5    0    0  0.91476236514E+02 -0.61726129758E+02 -0.35167717610E+03  0.36858493340E+03  0.00000000000E+00 0.  1.
          2    1    6    6  503    0 -0.11981462967E+03  0.37747253047E+03 -0.15194226475E+03  0.42417862813E+03  0.00000000000E+00 0. -1.
         -2    1    6    6    0  503 -0.13119297273E+03  0.19860491783E+03 -0.63666416961E+02  0.24639180614E+03  0.00000000000E+00 0.  1.
<mgrwt>
<rscale>  0 0.23310435E+04</rscale>
<asrwt>0</asrwt>
<pdfrwt beam="1">  1        1 0.20435157E+00 0.23310435E+04</pdfrwt>
<pdfrwt beam="2">  1       -2 0.15733889E+00 0.23310435E+04</pdfrwt>
<totfact> 0.18011078E+00</totfact>
</mgrwt>
</event>
<event>
12    5  0.5297412E-008  0.1588618E+04  0.7818608E-02  0.8827571E-01
          1   -1    0    0  501    0  0.00000000000E+00  0.00000000000E+00  0.56814750340E+03  0.56814750340E+03  0.00000000000E+00 0. -1.
         -2   -1    0    0    0  501 -0.00000000000E+00 -0.00000000000E+00 -0.11104987944E+04  0.11104987944E+04  0.00000000000E+00 0.  1.
        -24    2    1    2    0    0 -0.33866834314E+03  0.19567748235E+03  0.22872985119E+03  0.45971790224E+03  0.77699942497E+02 0.  0.
        254    2    1    2    0    0  0.33866834314E+03 -0.19567748235E+03 -0.77108114215E+03  0.12189283955E+04  0.85920566915E+03 0.  0.
         23    2    4    4    0    0 -0.17254050155E+03 -0.35163221194E+03 -0.32937583793E+03  0.51976975564E+03  0.90866490600E+02 0.  0.
         23    2    4    4    0    0  0.51120884469E+03  0.15595472959E+03 -0.44170530422E+03  0.69915863989E+03  0.89793470722E+02 0.  0.
          1    1    3    3  502    0 -0.32739847491E+03  0.18050547725E+03  0.19650067676E+03  0.42235589809E+03  0.00000000000E+00 0. -1.
         -2    1    3    3    0  502 -0.11269868237E+02  0.15172005104E+02  0.32229174435E+02  0.37362004145E+02  0.00000000000E+00 0.  1.
         13    1    5    5    0    0 -0.51615371773E+02 -0.14011922112E+03 -0.73429415069E+02  0.16640138740E+03  0.00000000000E+00 0. -1.
        -13    1    5    5    0    0 -0.12092512978E+03 -0.21151299082E+03 -0.25594642286E+03  0.35336836824E+03  0.00000000000E+00 0.  1.
          3    1    6    6  503    0  0.85656483189E+02  0.11095786831E+02 -0.11319430845E+03  0.14238364044E+03  0.00000000000E+00 0. -1.
         -3    1    6    6    0  503  0.42555236150E+03  0.14485894276E+03 -0.32851099577E+03  0.55677499946E+03  0.00000000000E+00 0.  1.
<mgrwt>
<rscale>  0 0.15886184E+04</rscale>
<asrwt>0</asrwt>
<pdfrwt beam="1">  1        1 0.87407310E-01 0.15886184E+04</pdfrwt>
<pdfrwt beam="2">  1       -2 0.17084597E+00 0.15886184E+04</pdfrwt>
<totfact> 0.65378038E+00</totfact>
</mgrwt>
</event>
<event>
12    5  0.5297412E-008  0.1587268E+04  0.7818608E-02  0.8828408E-01
          1   -1    0    0  501    0  0.00000000000E+00  0.00000000000E+00  0.12450853280E+04  0.12450853280E+04  0.00000000000E+00 0. -1.
         -2   -1    0    0    0  501 -0.00000000000E+00 -0.00000000000E+00 -0.50587267184E+03  0.50587267184E+03  0.00000000000E+00 0.  1.
        -24    2    1    2    0    0 -0.17759549686E+03 -0.50076398112E+03  0.30873383456E+03  0.61985748088E+03  0.81252635092E+02 0.  0.
        254    2    1    2    0    0  0.17759549686E+03  0.50076398112E+03  0.43047882163E+03  0.11311005190E+04  0.90098370846E+03 0.  0.
         23    2    4    4    0    0  0.46221270204E+03  0.41724488606E+03  0.37536684967E+02  0.63027338782E+03  0.90009242884E+02 0.  0.
         23    2    4    4    0    0 -0.28461720518E+03  0.83519095054E+02  0.39294213666E+03  0.50082713117E+03  0.91879811867E+02 0.  0.
          3    1    3    3  502    0 -0.16154647187E+03 -0.45502817002E+03  0.30527906984E+03  0.57126456967E+03  0.00000000000E+00 0. -1.
         -4    1    3    3    0  502 -0.16049024990E+02 -0.45735811098E+02  0.34547647218E+01  0.48592911203E+02  0.00000000000E+00 0.  1.
         13    1    5    5    0    0  0.14986824785E+03  0.18728269434E+03  0.34940057387E+02  0.24239659016E+03  0.00000000000E+00 0.  1.
        -13    1    5    5    0    0  0.31234445419E+03  0.22996219172E+03  0.25966275794E+01  0.38787679766E+03  0.00000000000E+00 0. -1.
          2    1    6    6  503    0 -0.28282001148E+02 -0.15631140138E+02  0.21721654218E+02  0.38936286327E+02  0.00000000000E+00 0.  1.
         -2    1    6    6    0  503 -0.25633520404E+03  0.99150235192E+02  0.37122048244E+03  0.46189084484E+03  0.00000000000E+00 0. -1.
<mgrwt>
<rscale>  0 0.15872676E+04</rscale>
<asrwt>0</asrwt>
<pdfrwt beam="1">  1        1 0.19155159E+00 0.15872676E+04</pdfrwt>
<pdfrwt beam="2">  1       -2 0.77826566E-01 0.15872676E+04</pdfrwt>
<totfact> 0.12274507E+01</totfact>
</mgrwt>
</event>
<event>
12    5  0.5297412E-008  0.1646053E+04  0.7818608E-02  0.8792745E-01
          1   -1    0    0  501    0  0.00000000000E+00  0.00000000000E+00  0.11027146710E+04  0.11027146710E+04  0.00000000000E+00 0. -1.
         -2   -1    0    0    0  501 -0.00000000000E+00 -0.00000000000E+00 -0.61427700359E+03  0.61427700359E+03  0.00000000000E+00 0.  1.
        -24    2    1    2    0    0 -0.44571097526E+03  0.30477984803E+03 -0.32222035768E+02  0.54677504007E+03  0.79847702661E+02 0.  0.
        254    2    1    2    0    0  0.44571097526E+03 -0.30477984803E+03  0.52065970317E+03  0.11702166345E+04  0.89820455128E+03 0.  0.
         23    2    4    4    0    0 -0.17337496620E+03 -0.37004283452E+03  0.20650038058E+03  0.46688123865E+03  0.91351549157E+02 0.  0.
         23    2    4    4    0    0  0.61908594146E+03  0.65262986489E+02  0.31415932259E+03  0.70333539586E+03  0.91967052744E+02 0.  0.
          3    1    3    3  502    0 -0.54875872067E+02  0.50303469866E+02 -0.30347258427E+02  0.80391271352E+02  0.00000000000E+00 0. -1.
         -4    1    3    3    0  502 -0.39083510319E+03  0.25447637817E+03 -0.18747773411E+01  0.46638376872E+03  0.00000000000E+00 0.  1.
         13    1    5    5    0    0 -0.11343799322E+03 -0.32129924990E+03  0.17888047909E+03  0.38483712411E+03  0.00000000000E+00 0.  1.
        -13    1    5    5    0    0 -0.59936972982E+02 -0.48743584618E+02  0.27619901499E+02  0.82044114538E+02  0.00000000000E+00 0. -1.
          2    1    6    6  503    0  0.29578361993E+03  0.75364374589E+02  0.13745728008E+03  0.33475699040E+03  0.00000000000E+00 0. -1.
         -2    1    6    6    0  503  0.32330232153E+03 -0.10101388100E+02  0.17670204250E+03  0.36857840546E+03  0.00000000000E+00 0.  1.
<mgrwt>
<rscale>  0 0.16460526E+04</rscale>
<asrwt>0</asrwt>
<pdfrwt beam="1">  1        1 0.16964841E+00 0.16460526E+04</pdfrwt>
<pdfrwt beam="2">  1       -2 0.94504155E-01 0.16460526E+04</pdfrwt>
<totfact> 0.99799905E+00</totfact>
</mgrwt>
</event>
<event>
12    5  0.5297412E-008  0.1553439E+04  0.7818608E-02  0.8849674E-01
          1   -1    0    0  501    0  0.00000000000E+00  0.00000000000E+00  0.33924106224E+03  0.33924106224E+03  0.00000000000E+00 0. -1.
         -2   -1    0    0    0  501 -0.00000000000E+00 -0.00000000000E+00 -0.17783621261E+04  0.17783621261E+04  0.00000000000E+00 0.  1.
        -24    2    1    2    0    0 -0.33009750667E+03  0.38712358615E+03 -0.57346626297E+03  0.77134577863E+03  0.85332998237E+02 0.  0.
        254    2    1    2    0    0  0.33009750667E+03 -0.38712358615E+03 -0.86565480089E+03  0.13462574097E+04  0.89678411228E+03 0.  0.
         23    2    4    4    0    0  0.24641452796E+03  0.17020136110E+03 -0.67609841074E+03  0.74508738360E+03  0.91419501651E+02 0.  0.
         23    2    4    4    0    0  0.83682978710E+02 -0.55732494725E+03 -0.18955639016E+03  0.60117002612E+03  0.88655724545E+02 0.  0.
          1    1    3    3  502    0  0.39159496467E+01  0.33170583034E+01 -0.61888277765E+00  0.51691927142E+01  0.00000000000E+00 0. -1.
         -2    1    3    3    0  502 -0.33401345632E+03  0.38380652785E+03 -0.57284738019E+03  0.76617658592E+03  0.00000000000E+00 0.  1.
         13    1    5    5    0    0  0.13042717281E+03  0.14343438793E+03 -0.40523283039E+03  0.44921967663E+03  0.00000000000E+00 0.  1.
        -13    1    5    5    0    0  0.11598735516E+03  0.26766973178E+02 -0.27086558034E+03  0.29586770696E+03  0.00000000000E+00 0. -1.
          2    1    6    6  503    0  0.46267347381E+02 -0.49941912758E+03 -0.16598397066E+03  0.52830938942E+03  0.00000000000E+00 0.  1.
         -2    1    6    6    0  503  0.37415631328E+02 -0.57905819671E+02 -0.23572419500E+02  0.72860636702E+02  0.00000000000E+00 0. -1.
<mgrwt>
<rscale>  0 0.15534394E+04</rscale>
<asrwt>0</asrwt>
<pdfrwt beam="1">  1        1 0.52190933E-01 0.15534394E+04</pdfrwt>
<pdfrwt beam="2">  1       -2 0.27359417E+00 0.15534394E+04</pdfrwt>
<totfact> 0.28986137E+00</totfact>
</mgrwt>
</event>
<event>
12    5  0.5297412E-008  0.1997930E+04  0.7818608E-02  0.8607589E-01
          1   -1    0    0  501    0  0.00000000000E+00  0.00000000000E+00  0.17804302748E+04  0.17804302748E+04  0.00000000000E+00 0. -1.
         -2   -1    0    0    0  501 -0.00000000000E+00 -0.00000000000E+00 -0.56050001744E+03  0.56050001744E+03  0.00000000000E+00 0.  1.
        -24    2    1    2    0    0 -0.14450635430E+03  0.30380879480E+03 -0.35765994641E+03  0.49762216479E+03  0.80779399585E+02 0.  0.
        254    2    1    2    0    0  0.14450635430E+03 -0.30380879480E+03  0.15775902038E+04  0.18433081275E+04  0.89208302948E+03 0.  0.
         23    2    4    4    0    0 -0.22342484038E+03 -0.33978653053E+03  0.31073035320E+03  0.52017033278E+03  0.93006865750E+02 0.  0.
         23    2    4    4    0    0  0.36793119468E+03  0.35977735731E+02  0.12668598506E+04  0.13231377947E+04  0.95351881090E+02 0.  0.
          3    1    3    3  502    0  0.94936116682E+01  0.34148332935E+02 -0.37645223246E+02  0.51704933401E+02  0.00000000000E+00 0. -1.
         -4    1    3    3    0  502 -0.15399996597E+03  0.26966046186E+03 -0.32001472316E+03  0.44591723139E+03  0.00000000000E+00 0.  1.
         13    1    5    5    0    0 -0.48171678067E+02 -0.46958139884E+02  0.95101655719E+02  0.11648992398E+03  0.00000000000E+00 0.  1.
        -13    1    5    5    0    0 -0.17525316231E+03 -0.29282839064E+03  0.21562869748E+03  0.40368040879E+03  0.00000000000E+00 0. -1.
          4    1    6    6  503    0  0.34422735324E+02 -0.11325858398E+02  0.23261989688E+03  0.23542560651E+03  0.00000000000E+00 0. -1.
         -4    1    6    6    0  503  0.33350845935E+03  0.47303594130E+02  0.10342399537E+04  0.10877121882E+04  0.00000000000E+00 0.  1.
<mgrwt>
<rscale>  0 0.19979301E+04</rscale>
<asrwt>0</asrwt>
<pdfrwt beam="1">  1        1 0.27391235E+00 0.19979301E+04</pdfrwt>
<pdfrwt beam="2">  1       -2 0.86230773E-01 0.19979301E+04</pdfrwt>
<totfact> 0.39901956E+00</totfact>
</mgrwt>
</event>
<event>
12    5  0.5297412E-008  0.1972404E+04  0.7818608E-02  0.8619633E-01
          1   -1    0    0  501    0  0.00000000000E+00  0.00000000000E+00  0.10982100771E+04  0.10982100771E+04  0.00000000000E+00 0. -1.
         -2   -1    0    0    0  501 -0.00000000000E+00 -0.00000000000E+00 -0.88561744504E+03  0.88561744504E+03  0.00000000000E+00 0.  1.
        -24    2    1    2    0    0 -0.33283683043E+03 -0.38012563130E+03  0.66798659332E+03  0.84130501231E+03  0.79449251938E+02 0.  0.
        254    2    1    2    0    0  0.33283683043E+03  0.38012563130E+03 -0.45539396128E+03  0.11425225098E+04  0.91798593353E+03 0.  0.
         23    2    4    4    0    0  0.28142576200E+03  0.28986001222E+03  0.20945294472E+03  0.46436026342E+03  0.92415539791E+02 0.  0.
         23    2    4    4    0    0  0.51411068439E+02  0.90265619080E+02 -0.66484690600E+03  0.67816224638E+03  0.84211899685E+02 0.  0.
          1    1    3    3  502    0 -0.33640294761E+03 -0.36982381956E+03  0.64690165915E+03  0.81756856427E+03  0.00000000000E+00 0. -1.
         -2    1    3    3    0  502  0.35661171799E+01 -0.10301811732E+02  0.21084934169E+02  0.23736448041E+02  0.00000000000E+00 0.  1.
         13    1    5    5    0    0  0.76524240639E+02  0.12239491069E+03  0.38783561953E+02  0.14946785021E+03  0.00000000000E+00 0.  1.
        -13    1    5    5    0    0  0.20490152136E+03  0.16746510152E+03  0.17066938276E+03  0.31489241321E+03  0.00000000000E+00 0. -1.
          2    1    6    6  503    0  0.11947887295E+02  0.36002099740E+02 -0.48031917636E+03  0.48181470959E+03  0.00000000000E+00 0. -1.
         -2    1    6    6    0  503  0.39463181144E+02  0.54263519340E+02 -0.18452772964E+03  0.19634753679E+03  0.00000000000E+00 0.  1.
<mgrwt>
<rscale>  0 0.19724036E+04</rscale>
<asrwt>0</asrwt>
<pdfrwt beam="1">  1        1 0.16895540E+00 0.19724036E+04</pdfrwt>
<pdfrwt beam="2">  1       -2 0.13624884E+00 0.19724036E+04</pdfrwt>
<totfact> 0.39958824E+00</totfact>
</mgrwt>
</event>
<event>
12    5  0.5297412E-008  0.1166579E+04  0.7818608E-02  0.9142623E-01
          1   -1    0    0  501    0  0.00000000000E+00  0.00000000000E+00  0.64124664315E+03  0.64124664315E+03  0.00000000000E+00 0. -1.
         -2   -1    0    0    0  501 -0.00000000000E+00 -0.00000000000E+00 -0.53057081714E+03  0.53057081714E+03  0.00000000000E+00 0.  1.
        -24    2    1    2    0    0 -0.60702962352E+02 -0.36670101794E+02 -0.16592510697E+03  0.19724648697E+03  0.79658580800E+02 0.  0.
        254    2    1    2    0    0  0.60702962352E+02  0.36670101794E+02  0.27660093297E+03  0.97457097332E+03  0.93179984970E+03 0.  0.
         23    2    4    4    0    0 -0.53788495084E+02  0.20990077136E+03 -0.28459522087E+03  0.36907543271E+03  0.90943384967E+02 0.  0.
         23    2    4    4    0    0  0.11449145744E+03 -0.17323066956E+03  0.56119615385E+03  0.60549554060E+03  0.92555755591E+02 0.  0.
          3    1    3    3  502    0 -0.82468203110E+01 -0.43631500542E+02 -0.36701866480E+02  0.57608548740E+02  0.00000000000E+00 0. -1.
         -4    1    3    3    0  502 -0.52456142041E+02  0.69613987484E+01 -0.12922324049E+03  0.13963793823E+03  0.00000000000E+00 0.  1.
         13    1    5    5    0    0  0.16131428990E+02  0.18234602298E+02 -0.64611680992E+02  0.69046310856E+02  0.00000000000E+00 0. -1.
        -13    1    5    5    0    0 -0.69919924073E+02  0.19166616906E+03 -0.21998353988E+03  0.30002912186E+03  0.00000000000E+00 0.  1.
          1    1    6    6  503    0  0.95583360743E+01  0.11359866053E+02  0.42702116935E+02  0.45209281525E+02  0.00000000000E+00 0. -1.
         -1    1    6    6    0  503  0.10493312136E+03 -0.18459053561E+03  0.51849403691E+03  0.56028625908E+03  0.00000000000E+00 0.  1.
<mgrwt>
<rscale>  0 0.11665792E+04</rscale>
<asrwt>0</asrwt>
<pdfrwt beam="1">  1        1 0.98653330E-01 0.11665792E+04</pdfrwt>
<pdfrwt beam="2">  1       -2 0.81626279E-01 0.11665792E+04</pdfrwt>
<totfact> 0.35659643E+01</totfact>
</mgrwt>
</event>
<event>
12    5  0.5297412E-008  0.2949168E+04  0.7818608E-02  0.8258397E-01
          1   -1    0    0  501    0  0.00000000000E+00  0.00000000000E+00  0.19207380221E+04  0.19207380221E+04  0.00000000000E+00 0. -1.
         -2   -1    0    0    0  501 -0.00000000000E+00 -0.00000000000E+00 -0.11320641114E+04  0.11320641114E+04  0.00000000000E+00 0.  1.
        -24    2    1    2    0    0  0.84003087429E+03  0.63814850500E+03  0.12077665560E+04  0.16055577022E+04  0.78930963963E+02 0.  0.
        254    2    1    2    0    0 -0.84003087429E+03 -0.63814850500E+03 -0.41909264530E+03  0.14472444313E+04  0.89777080289E+03 0.  0.
         23    2    4    4    0    0  0.10943635355E+03  0.90332881483E+02  0.19328080177E+02  0.16961808411E+03  0.90886604176E+02 0.  0.
         23    2    4    4    0    0 -0.94946722784E+03 -0.72848138648E+03 -0.43842072548E+03  0.12776263472E+04  0.89124651122E+02 0.  0.
          3    1    3    3  502    0  0.78521331398E+03  0.57714141094E+03  0.11345754341E+04  0.14956314962E+04  0.00000000000E+00 0. -1.
         -4    1    3    3    0  502  0.54817560311E+02  0.61007094056E+02  0.73191121859E+02  0.10992620599E+03  0.00000000000E+00 0.  1.
         13    1    5    5    0    0  0.47334125094E+02  0.92501893692E+02  0.26023406732E+02  0.10711833378E+03  0.00000000000E+00 0.  1.
        -13    1    5    5    0    0  0.62102228454E+02 -0.21690122090E+01 -0.66953265545E+01  0.62499750324E+02  0.00000000000E+00 0. -1.
          2    1    6    6  503    0 -0.55685191009E+03 -0.37157992873E+03 -0.24768856877E+03  0.71379641377E+03  0.00000000000E+00 0. -1.
         -2    1    6    6    0  503 -0.39261531775E+03 -0.35690145775E+03 -0.19073215671E+03  0.56382993347E+03  0.00000000000E+00 0.  1.
<mgrwt>
<rscale>  0 0.29491684E+04</rscale>
<asrwt>0</asrwt>
<pdfrwt beam="1">  1        1 0.29549816E+00 0.29491684E+04</pdfrwt>
<pdfrwt beam="2">  1       -2 0.17416371E+00 0.29491684E+04</pdfrwt>
<totfact> 0.50473072E-01</totfact>
</mgrwt>
</event>
<event>
12    5  0.5297412E-008  0.1187636E+04  0.7818608E-02  0.9123748E-01
         -2   -1    0    0    0  501 -0.00000000000E+00  0.00000000000E+00  0.93900470903E+03  0.93900470903E+03  0.00000000000E+00 0.  1.
          1   -1    0    0  501    0  0.00000000000E+00 -0.00000000000E+00 -0.37552537608E+03  0.37552537608E+03  0.00000000000E+00 0. -1.
        -24    2    1    2    0    0  0.75167088737E+02  0.84305879854E+02  0.39503821690E+03  0.41851324248E+03  0.79627688116E+02 0.  0.
        254    2    1    2    0    0 -0.75167088737E+02 -0.84305879854E+02  0.16844111606E+03  0.89601684263E+03  0.87276354191E+03 0.  0.
         23    2    4    4    0    0  0.42278442128E+02  0.18068308542E+03  0.44103252796E+03  0.48683232698E+03  0.89789642177E+02 0.  0.
         23    2    4    4    0    0 -0.11744553086E+03 -0.26498896527E+03 -0.27259141190E+03  0.40918451565E+03  0.95463530061E+02 0.  0.
          3    1    3    3  502    0 -0.84156194699E+01  0.24947241448E+02  0.15912635466E+03  0.16128975248E+03  0.00000000000E+00 0. -1.
         -4    1    3    3    0  502  0.83582708207E+02  0.59358638407E+02  0.23591186223E+03  0.25722349000E+03  0.00000000000E+00 0.  1.
         13    1    5    5    0    0 -0.17459423025E+02  0.10633843731E+03  0.27495935784E+03  0.29532243932E+03  0.00000000000E+00 0.  1.
        -13    1    5    5    0    0  0.59737865153E+02  0.74344648105E+02  0.16607317012E+03  0.19150988766E+03  0.00000000000E+00 0. -1.
          2    1    6    6  503    0 -0.59968450730E+02 -0.38970641720E+02 -0.73437527465E+02  0.10250851886E+03  0.00000000000E+00 0. -1.
         -2    1    6    6    0  503 -0.57477080135E+02 -0.22601832355E+03 -0.19915388444E+03  0.30667599679E+03  0.00000000000E+00 0.  1.
<mgrwt>
<rscale>  0 0.11876365E+04</rscale>
<asrwt>0</asrwt>
<pdfrwt beam="1">  1        1 0.57773135E-01 0.11876365E+04</pdfrwt>
<pdfrwt beam="2">  1       -2 0.14446226E+00 0.11876365E+04</pdfrwt>
<totfact> 0.18664073E+01</totfact>
</mgrwt>
</event>
<event>
12    5  0.5297412E-008  0.1817109E+04  0.7818608E-02  0.8697253E-01
          1   -1    0    0  501    0  0.00000000000E+00  0.00000000000E+00  0.48167186692E+03  0.48167186692E+03  0.00000000000E+00 0. -1.
         -2   -1    0    0    0  501 -0.00000000000E+00 -0.00000000000E+00 -0.17137633480E+04  0.17137633480E+04  0.00000000000E+00 0.  1.
        -24    2    1    2    0    0 -0.23282503016E+03  0.21273475221E+03  0.26434164092E+03  0.41928458098E+03  0.80370935377E+02 0.  0.
        254    2    1    2    0    0  0.23282503016E+03 -0.21273475221E+03 -0.14964331220E+04  0.17761506339E+04  0.90329143490E+03 0.  0.
         23    2    4    4    0    0  0.41939862201E+03 -0.17894191671E+03 -0.14956713751E+04  0.15664690304E+04  0.94217553664E+02 0.  0.
         23    2    4    4    0    0 -0.18657359185E+03 -0.33792835497E+02 -0.76174694198E+00  0.20968160351E+03  0.89521693944E+02 0.  0.
          3    1    3    3  502    0 -0.10987367177E+03  0.68099048095E+02  0.14857450575E+03  0.19693676106E+03  0.00000000000E+00 0. -1.
         -4    1    3    3    0  502 -0.12295135840E+03  0.14463570412E+03  0.11576713518E+03  0.22234781992E+03  0.00000000000E+00 0.  1.
         13    1    5    5    0    0  0.40256874352E+03 -0.15118228545E+03 -0.14292477169E+04  0.14925370056E+04  0.00000000000E+00 0. -1.
        -13    1    5    5    0    0  0.16829878489E+02 -0.27759631268E+02 -0.66423658132E+02  0.73932024845E+02  0.00000000000E+00 0.  1.
          1    1    6    6  503    0 -0.94100850300E+02  0.12656955450E+02  0.33483379597E+02  0.10067921959E+03  0.00000000000E+00 0. -1.
         -1    1    6    6    0  503 -0.92472741550E+02 -0.46449790947E+02 -0.34245126539E+02  0.10900238392E+03  0.00000000000E+00 0.  1.
<mgrwt>
<rscale>  0 0.18171093E+04</rscale>
<asrwt>0</asrwt>
<pdfrwt beam="1">  1        1 0.74103365E-01 0.18171093E+04</pdfrwt>
<pdfrwt beam="2">  1       -2 0.26365590E+00 0.18171093E+04</pdfrwt>
<totfact> 0.20394236E+00</totfact>
</mgrwt>
</event>
<event>
12    5  0.5297412E-008  0.1991793E+04  0.7818608E-02  0.8610467E-01
          1   -1    0    0  501    0  0.00000000000E+00  0.00000000000E+00  0.11776823318E+04  0.11776823318E+04  0.00000000000E+00 0. -1.
         -2   -1    0    0    0  501 -0.00000000000E+00 -0.00000000000E+00 -0.84217094335E+03  0.84217094335E+03  0.00000000000E+00 0.  1.
        -24    2    1    2    0    0  0.40827197494E+03 -0.16436966370E+03  0.79784694027E+03  0.91475406095E+03  0.80696096976E+02 0.  0.
        254    2    1    2    0    0 -0.40827197494E+03  0.16436966370E+03 -0.46233555179E+03  0.11050992142E+04  0.90210127977E+03 0.  0.
         23    2    4    4    0    0 -0.64534820888E+03  0.21236852098E+02 -0.13365422181E+03  0.66574672536E+03  0.91814686905E+02 0.  0.
         23    2    4    4    0    0  0.23707623394E+03  0.14313281160E+03 -0.32868132998E+03  0.43935248886E+03  0.91143021306E+02 0.  0.
          1    1    3    3  502    0  0.17825484751E+03 -0.63926653790E+02  0.26452207407E+03  0.32532035810E+03  0.00000000000E+00 0. -1.
         -4    1    3    3    0  502  0.23001712744E+03 -0.10044300991E+03  0.53332486619E+03  0.58943370285E+03  0.00000000000E+00 0.  1.
         13    1    5    5    0    0 -0.90873311000E+02  0.21306773853E+02  0.73411521890E+01  0.93626010166E+02  0.00000000000E+00 0. -1.
        -13    1    5    5    0    0 -0.55447489788E+03 -0.69921755145E-01 -0.14099537399E+03  0.57212071520E+03  0.00000000000E+00 0.  1.
          3    1    6    6  503    0  0.24478102067E+02  0.53576929552E+02 -0.88657366217E+02  0.10644150246E+03  0.00000000000E+00 0. -1.
         -3    1    6    6    0  503  0.21259813187E+03  0.89555882047E+02 -0.24002396376E+03  0.33291098640E+03  0.00000000000E+00 0.  1.
<mgrwt>
<rscale>  0 0.19917930E+04</rscale>
<asrwt>0</asrwt>
<pdfrwt beam="1">  1        1 0.18118190E+00 0.19917930E+04</pdfrwt>
<pdfrwt beam="2">  1       -2 0.12956476E+00 0.19917930E+04</pdfrwt>
<totfact> 0.39576270E+00</totfact>
</mgrwt>
</event>
<event>
12    5  0.5297412E-008  0.1316812E+04  0.7818608E-02  0.9016339E-01
         -2   -1    0    0    0  501 -0.00000000000E+00  0.00000000000E+00  0.36554308601E+03  0.36554308601E+03  0.00000000000E+00 0.  1.
          1   -1    0    0  501    0  0.00000000000E+00 -0.00000000000E+00 -0.11859018982E+04  0.11859018982E+04  0.00000000000E+00 0. -1.
        -24    2    1    2    0    0  0.26267588299E+03  0.19352816274E+03 -0.32790393866E+03  0.46927949185E+03  0.79059972175E+02 0.  0.
        254    2    1    2    0    0 -0.26267588299E+03 -0.19352816274E+03 -0.49245487353E+03  0.10821654924E+04  0.90670754995E+03 0.  0.
         23    2    4    4    0    0  0.14988723504E+03 -0.17258112278E+03 -0.59753859562E+03  0.64568046108E+03  0.87180602233E+02 0.  0.
         23    2    4    4    0    0 -0.41256311802E+03 -0.20947039965E+02  0.10508372209E+03  0.43648503128E+03  0.93965360898E+02 0.  0.
          1    1    3    3  502    0  0.12325184228E+03  0.11089699868E+03 -0.21614635454E+03  0.27241220150E+03  0.00000000000E+00 0. -1.
         -2    1    3    3    0  502  0.13942404071E+03  0.82631164062E+02 -0.11175758411E+03  0.19686729035E+03  0.00000000000E+00 0.  1.
         13    1    5    5    0    0  0.43379468779E+02 -0.10257149182E+03 -0.20973812143E+03  0.23747161689E+03  0.00000000000E+00 0. -1.
        -13    1    5    5    0    0  0.10650776626E+03 -0.70009630957E+02 -0.38780047419E+03  0.40820884420E+03  0.00000000000E+00 0.  1.
          3    1    6    6  503    0 -0.26467571884E+03  0.14666104536E+02  0.29774718602E+02  0.26674869191E+03  0.00000000000E+00 0. -1.
         -3    1    6    6    0  503 -0.14788739918E+03 -0.35613144501E+02  0.75309003487E+02  0.16973633937E+03  0.00000000000E+00 0.  1.
<mgrwt>
<rscale>  0 0.13168117E+04</rscale>
<asrwt>0</asrwt>
<pdfrwt beam="1">  1        1 0.18244644E+00 0.13168117E+04</pdfrwt>
<pdfrwt beam="2">  1       -2 0.56237398E-01 0.13168117E+04</pdfrwt>
<totfact> 0.27950691E+01</totfact>
</mgrwt>
</event>
<event>
12    5  0.5297412E-008  0.2289908E+04  0.7818608E-02  0.8481911E-01
          1   -1    0    0  501    0  0.00000000000E+00  0.00000000000E+00  0.31592868326E+04  0.31592868326E+04  0.00000000000E+00 0. -1.
         -2   -1    0    0    0  501 -0.00000000000E+00 -0.00000000000E+00 -0.41494155384E+03  0.41494155384E+03  0.00000000000E+00 0.  1.
        -24    2    1    2    0    0  0.73432633808E+03  0.62005910698E+03  0.12227324504E+04  0.15572755087E+04  0.79522937524E+02 0.  0.
        254    2    1    2    0    0 -0.73432633808E+03 -0.62005910698E+03  0.15216128283E+04  0.20169528777E+04  0.91054096276E+03 0.  0.
         23    2    4    4    0    0 -0.92318575081E+03 -0.52936206475E+03  0.10746564355E+04  0.15151843062E+04  0.91656430645E+02 0.  0.
         23    2    4    4    0    0  0.18885941273E+03 -0.90697042233E+02  0.44695639278E+03  0.50176857154E+03  0.90043606624E+02 0.  0.
          3    1    3    3  502    0  0.52221708638E+03  0.46409072925E+03  0.93631253876E+03  0.11682345914E+04  0.00000000000E+00 0. -1.
         -4    1    3    3    0  502  0.21210925170E+03  0.15596837773E+03  0.28641991166E+03  0.38904091727E+03  0.00000000000E+00 0.  1.
         13    1    5    5    0    0 -0.20588973619E+03 -0.16233129007E+03  0.25145467323E+03  0.36327879637E+03  0.00000000000E+00 0. -1.
        -13    1    5    5    0    0 -0.71729601461E+03 -0.36703077467E+03  0.82320176229E+03  0.11519055098E+04  0.00000000000E+00 0.  1.
          3    1    6    6  503    0  0.13734449582E+03 -0.31605182473E+02  0.34847167502E+03  0.37589214727E+03  0.00000000000E+00 0. -1.
         -3    1    6    6    0  503  0.51514916914E+02 -0.59091859760E+02  0.98484717759E+02  0.12587642427E+03  0.00000000000E+00 0.  1.
<mgrwt>
<rscale>  0 0.22899078E+04</rscale>
<asrwt>0</asrwt>
<pdfrwt beam="1">  1        1 0.48604411E+00 0.22899078E+04</pdfrwt>
<pdfrwt beam="2">  1       -2 0.63837164E-01 0.22899078E+04</pdfrwt>
<totfact> 0.82369023E-01</totfact>
</mgrwt>
</event>
<event>
12    5  0.5297412E-008  0.2371566E+04  0.7818608E-02  0.8450226E-01
          1   -1    0    0  501    0  0.00000000000E+00  0.00000000000E+00  0.27861512842E+04  0.27861512842E+04  0.00000000000E+00 0. -1.
         -2   -1    0    0    0  501 -0.00000000000E+00 -0.00000000000E+00 -0.50466783419E+03  0.50466783419E+03  0.00000000000E+00 0.  1.
        -24    2    1    2    0    0 -0.15919033467E+03 -0.45321120465E+03 -0.25966706783E+03  0.55217866237E+03  0.82050779336E+02 0.  0.
        254    2    1    2    0    0  0.15919033467E+03  0.45321120465E+03  0.25411505179E+04  0.27386404561E+04  0.90109024761E+03 0.  0.
         23    2    4    4    0    0 -0.28861334525E+03  0.45530003337E+03  0.11277149714E+04  0.12532190504E+04  0.90670546818E+02 0.  0.
         23    2    4    4    0    0  0.44780367992E+03 -0.20888287143E+01  0.14134355465E+04  0.14854214057E+04  0.90245273793E+02 0.  0.
          1    1    3    3  502    0  0.60552503202E+01 -0.62007848802E+01 -0.12802764229E+02  0.15460483870E+02  0.00000000000E+00 0. -1.
         -2    1    3    3    0  502 -0.16524558499E+03 -0.44701041977E+03 -0.24686430360E+03  0.53671817850E+03  0.00000000000E+00 0.  1.
         13    1    5    5    0    0 -0.28147176241E+03  0.42944664895E+03  0.11033773672E+04  0.12170013935E+04  0.00000000000E+00 0. -1.
        -13    1    5    5    0    0 -0.71415828392E+01  0.25853384420E+02  0.24337604201E+02  0.36217656877E+02  0.00000000000E+00 0.  1.
          4    1    6    6  503    0  0.35831867251E+03 -0.82333973081E+01  0.12311995116E+04  0.12823074114E+04  0.00000000000E+00 0. -1.
         -4    1    6    6    0  503  0.89485007404E+02  0.61445685938E+01  0.18223603488E+03  0.20311399431E+03  0.00000000000E+00 0.  1.
<mgrwt>
<rscale>  0 0.23715657E+04</rscale>
<asrwt>0</asrwt>
<pdfrwt beam="1">  1        1 0.42863865E+00 0.23715657E+04</pdfrwt>
<pdfrwt beam="2">  1       -2 0.77641207E-01 0.23715657E+04</pdfrwt>
<totfact> 0.99532550E-01</totfact>
</mgrwt>
</event>
<event>
12    5  0.5532596E-008  0.1471736E+04  0.7818608E-02  0.8903469E-01
         -2   -1    0    0    0  501 -0.00000000000E+00  0.00000000000E+00  0.42815967440E+03  0.42815967440E+03  0.00000000000E+00 0.  1.
          1   -1    0    0  501    0  0.00000000000E+00 -0.00000000000E+00 -0.12647193348E+04  0.12647193348E+04  0.00000000000E+00 0. -1.
        -24    2    1    2    0    0  0.21809157146E+03 -0.81730867458E+02 -0.69826487764E+03  0.74177290353E+03  0.91702414509E+02 0.  0.
        254    2    1    2    0    0 -0.21809157146E+03  0.81730867458E+02 -0.13829478279E+03  0.95110610571E+03  0.91172008266E+03 0.  0.
         23    2    4    4    0    0 -0.14528422237E+03  0.46247091586E+02 -0.52042921384E+03  0.54999566694E+03  0.91664433052E+02 0.  0.
         23    2    4    4    0    0 -0.72807349092E+02  0.35483775872E+02  0.38213443105E+03  0.40111043876E+03  0.91119988243E+02 0.  0.
          3    1    3    3  502    0  0.14154626490E+03 -0.94832028972E+02 -0.43099029765E+03  0.46344481386E+03  0.00000000000E+00 0. -1.
         -4    1    3    3    0  502  0.76545306564E+02  0.13101161515E+02 -0.26727457999E+03  0.27832808967E+03  0.00000000000E+00 0.  1.
         13    1    5    5    0    0 -0.12643575577E+03  0.32825538017E+02 -0.50630976552E+03  0.52288918037E+03  0.00000000000E+00 0. -1.
        -13    1    5    5    0    0 -0.18848466607E+02  0.13421553569E+02 -0.14119448318E+02  0.27106486575E+02  0.00000000000E+00 0.  1.
          3    1    6    6  503    0 -0.56008725288E+02  0.36550161508E+02  0.37787445582E+03  0.38374730745E+03  0.00000000000E+00 0. -1.
         -3    1    6    6    0  503 -0.16798623804E+02 -0.10663856356E+01  0.42599752340E+01  0.17363131314E+02  0.00000000000E+00 0.  1.
<mgrwt>
<rscale>  0 0.14717361E+04</rscale>
<asrwt>0</asrwt>
<pdfrwt beam="1">  1        1 0.19457220E+00 0.14717361E+04</pdfrwt>
<pdfrwt beam="2">  1       -2 0.65870720E-01 0.14717361E+04</pdfrwt>
<totfact> 0.17300197E+01</totfact>
</mgrwt>
</event>
<event>
12    5  0.5297412E-008  0.1657272E+04  0.7818608E-02  0.8786116E-01
         -2   -1    0    0    0  501 -0.00000000000E+00  0.00000000000E+00  0.34461719438E+03  0.34461719438E+03  0.00000000000E+00 0.  1.
          1   -1    0    0  501    0  0.00000000000E+00 -0.00000000000E+00 -0.19924646768E+04  0.19924646768E+04  0.00000000000E+00 0. -1.
        -24    2    1    2    0    0  0.11941613868E+02 -0.17853520938E+03 -0.14076642056E+04  0.14213743974E+04  0.82275383633E+02 0.  0.
        254    2    1    2    0    0 -0.11941613868E+02  0.17853520938E+03 -0.24018327676E+03  0.91570747371E+03  0.86534082756E+03 0.  0.
         23    2    4    4    0    0  0.35809400424E+03 -0.13110914400E+03 -0.88590988055E+02  0.40205712140E+03  0.91545847510E+02 0.  0.
         23    2    4    4    0    0 -0.37003561810E+03  0.30964435338E+03 -0.15159228871E+03  0.51365035230E+03  0.89724456971E+02 0.  0.
          1    1    3    3  502    0  0.83536547516E+01 -0.17692490203E+03 -0.14059856760E+04  0.14170984178E+04  0.00000000000E+00 0. -1.
         -4    1    3    3    0  502  0.35879591166E+01 -0.16103073478E+01 -0.16785296107E+01  0.42759796574E+01  0.00000000000E+00 0.  1.
         13    1    5    5    0    0  0.22857241616E+03 -0.36461191644E+02 -0.59977270357E+02  0.23910675625E+03  0.00000000000E+00 0.  1.
        -13    1    5    5    0    0  0.12952158808E+03 -0.94647952357E+02 -0.28613717697E+02  0.16295036516E+03  0.00000000000E+00 0. -1.
          3    1    6    6  503    0 -0.31918998868E+03  0.23909263891E+03 -0.95233912176E+02  0.41002077616E+03  0.00000000000E+00 0. -1.
         -3    1    6    6    0  503 -0.50845629424E+02  0.70551714470E+02 -0.56358376530E+02  0.10362957614E+03  0.00000000000E+00 0.  1.
<mgrwt>
<rscale>  0 0.16572720E+04</rscale>
<asrwt>0</asrwt>
<pdfrwt beam="1">  1        1 0.30653303E+00 0.16572720E+04</pdfrwt>
<pdfrwt beam="2">  1       -2 0.53018030E-01 0.16572720E+04</pdfrwt>
<totfact> 0.84846005E+00</totfact>
</mgrwt>
</event>
<event>
12    5  0.5297412E-008  0.1857524E+04  0.7818608E-02  0.8676293E-01
         -2   -1    0    0    0  501 -0.00000000000E+00  0.00000000000E+00  0.51015805837E+03  0.51015805837E+03  0.00000000000E+00 0.  1.
          1   -1    0    0  501    0  0.00000000000E+00 -0.00000000000E+00 -0.16908467848E+04  0.16908467848E+04  0.00000000000E+00 0. -1.
        -24    2    1    2    0    0  0.43248548665E+03  0.30031479883E+03 -0.10170820026E+04  0.11483641658E+04  0.83974892835E+02 0.  0.
        254    2    1    2    0    0 -0.43248548665E+03 -0.30031479883E+03 -0.16360672382E+03  0.10526406774E+04  0.89668977974E+03 0.  0.
         23    2    4    4    0    0 -0.19206538036E+03 -0.46970031773E+03 -0.40896718923E+03  0.65854670720E+03  0.94456894417E+02 0.  0.
         23    2    4    4    0    0 -0.24042010629E+03  0.16938551890E+03  0.24536046541E+03  0.39409397020E+03  0.92817120411E+02 0.  0.
          1    1    3    3  502    0  0.40080959648E+03  0.26569930259E+03 -0.96554940915E+03  0.10786705306E+04  0.00000000000E+00 0. -1.
         -2    1    3    3    0  502  0.31675890172E+02  0.34615496233E+02 -0.51532593487E+02  0.69693635213E+02  0.00000000000E+00 0.  1.
         13    1    5    5    0    0 -0.14339490832E+03 -0.35004981105E+03 -0.24873109102E+03  0.45272963851E+03  0.00000000000E+00 0.  1.
        -13    1    5    5    0    0 -0.48670472041E+02 -0.11965050667E+03 -0.16023609821E+03  0.20581706869E+03  0.00000000000E+00 0. -1.
          1    1    6    6  503    0 -0.16081945695E+03  0.97742509395E+02  0.20841169820E+03  0.28080586145E+03  0.00000000000E+00 0. -1.
         -1    1    6    6    0  503 -0.79600649344E+02  0.71643009503E+02  0.36948767205E+02  0.11328810875E+03  0.00000000000E+00 0.  1.
<mgrwt>
<rscale>  0 0.18575243E+04</rscale>
<asrwt>0</asrwt>
<pdfrwt beam="1">  1        1 0.26013027E+00 0.18575243E+04</pdfrwt>
<pdfrwt beam="2">  1       -2 0.78485856E-01 0.18575243E+04</pdfrwt>
<totfact> 0.57505682E+00</totfact>
</mgrwt>
</event>
<event>
12    5  0.5297412E-008  0.1749780E+04  0.7818608E-02  0.8733471E-01
          1   -1    0    0  501    0  0.00000000000E+00  0.00000000000E+00  0.64207652382E+03  0.64207652382E+03  0.00000000000E+00 0. -1.
         -2   -1    0    0    0  501 -0.00000000000E+00 -0.00000000000E+00 -0.11921206533E+04  0.11921206533E+04  0.00000000000E+00 0.  1.
        -24    2    1    2    0    0  0.98796233248E+02  0.59984462928E+03 -0.40578047502E+03  0.73512381318E+03  0.78580861705E+02 0.  0.
        254    2    1    2    0    0 -0.98796233248E+02 -0.59984462928E+03 -0.14426365447E+03  0.10990733639E+04  0.90419908336E+03 0.  0.
         23    2    4    4    0    0  0.19711438840E+03  0.15512078958E+03  0.16715002040E+02  0.26638310116E+03  0.88113698218E+02 0.  0.
         23    2    4    4    0    0 -0.29591062165E+03 -0.75496541886E+03 -0.16097865651E+03  0.83269026279E+03  0.99614588323E+02 0.  0.
          3    1    3    3  502    0  0.50259491845E+02  0.16562820131E+03 -0.14864806627E+03  0.22815557235E+03  0.00000000000E+00 0. -1.
         -4    1    3    3    0  502  0.48536741403E+02  0.43421642797E+03 -0.25713240875E+03  0.50696824084E+03  0.00000000000E+00 0.  1.
         13    1    5    5    0    0  0.64434335078E+02  0.20019850659E+02 -0.25928643377E+02  0.72283279566E+02  0.00000000000E+00 0. -1.
        -13    1    5    5    0    0  0.13268005332E+03  0.13510093892E+03  0.42643645416E+02  0.19409982159E+03  0.00000000000E+00 0.  1.
          4    1    6    6  503    0 -0.21894026487E+03 -0.48785278745E+03 -0.14601570191E+03  0.55430656410E+03  0.00000000000E+00 0.  1.
         -4    1    6    6    0  503 -0.76970356776E+02 -0.26711263141E+03 -0.14962954604E+02  0.27838369868E+03  0.00000000000E+00 0. -1.
<mgrwt>
<rscale>  0 0.17497802E+04</rscale>
<asrwt>0</asrwt>
<pdfrwt beam="1">  1        1 0.98781004E-01 0.17497802E+04</pdfrwt>
<pdfrwt beam="2">  1       -2 0.18340318E+00 0.17497802E+04</pdfrwt>
<totfact> 0.44175098E+00</totfact>
</mgrwt>
</event>
<event>
12    5  0.5297412E-008  0.1820357E+04  0.7818608E-02  0.8695548E-01
         -4   -1    0    0    0  501 -0.00000000000E+00  0.00000000000E+00  0.17807572513E+04  0.17807572513E+04  0.00000000000E+00 0.  1.
          3   -1    0    0  501    0  0.00000000000E+00 -0.00000000000E+00 -0.46520938060E+03  0.46520938060E+03  0.00000000000E+00 0. -1.
        -24    2    1    2    0    0 -0.68300726248E+03  0.74673350766E+02  0.50785165787E+03  0.85817668004E+03  0.80491476882E+02 0.  0.
        254    2    1    2    0    0  0.68300726248E+03 -0.74673350766E+02  0.80769621280E+03  0.13877899518E+04  0.89527244363E+03 0.  0.
         23    2    4    4    0    0  0.23551552748E+03 -0.99724496793E+01  0.88471315198E+03  0.92015967567E+03  0.91703075225E+02 0.  0.
         23    2    4    4    0    0  0.44749173500E+03 -0.64700901087E+02 -0.77016939186E+02  0.46763027616E+03  0.91166917041E+02 0.  0.
          3    1    3    3  502    0 -0.30988043558E+03  0.62372401507E+02  0.19776313332E+03  0.37286251853E+03  0.00000000000E+00 0. -1.
         -4    1    3    3    0  502 -0.37312682690E+03  0.12300949259E+02  0.31008852455E+03  0.48531416151E+03  0.00000000000E+00 0.  1.
         13    1    5    5    0    0  0.15352218207E+03 -0.48891711087E+02  0.52457149725E+03  0.54875742868E+03  0.00000000000E+00 0.  1.
        -13    1    5    5    0    0  0.81993345411E+02  0.38919261408E+02  0.36014165473E+03  0.37140224699E+03  0.00000000000E+00 0. -1.
          2    1    6    6  503    0  0.28807506439E+01  0.99950014228E+01 -0.16137594185E+01  0.10526300261E+02  0.00000000000E+00 0.  1.
         -2    1    6    6    0  503  0.44461098435E+03 -0.74695902510E+02 -0.75403179768E+02  0.45710397590E+03  0.00000000000E+00 0. -1.
<mgrwt>
<rscale>  0 0.18203571E+04</rscale>
<asrwt>0</asrwt>
<pdfrwt beam="1">  1        3 0.71570675E-01 0.18203571E+04</pdfrwt>
<pdfrwt beam="2">  1       -4 0.27396265E+00 0.18203571E+04</pdfrwt>
<totfact> 0.17988296E-01</totfact>
</mgrwt>
</event>
<event>
12    5  0.5297412E-008  0.1953764E+04  0.7818608E-02  0.8628548E-01
          1   -1    0    0  501    0  0.00000000000E+00  0.00000000000E+00  0.13024238149E+04  0.13024238149E+04  0.00000000000E+00 0. -1.
         -2   -1    0    0    0  501 -0.00000000000E+00 -0.00000000000E+00 -0.73270964673E+03  0.73270964673E+03  0.00000000000E+00 0.  1.
        -24    2    1    2    0    0 -0.68955242160E+03 -0.31892353743E+03  0.96395591860E+02  0.77000791780E+03  0.80158084407E+02 0.  0.
        254    2    1    2    0    0  0.68955242160E+03  0.31892353743E+03  0.47331857630E+03  0.12651255438E+04  0.89404552574E+03 0.  0.
         23    2    4    4    0    0 -0.18475097440E+03  0.19999332230E+03  0.12194131007E+03  0.31101413507E+03  0.87919608734E+02 0.  0.
         23    2    4    4    0    0  0.87430339600E+03  0.11893021513E+03  0.35137726622E+03  0.95411140875E+03  0.91168924324E+02 0.  0.
          3    1    3    3  502    0 -0.37343136125E+03 -0.16273713197E+03  0.12388568656E+02  0.40753874948E+03  0.00000000000E+00 0. -1.
         -4    1    3    3    0  502 -0.31612106034E+03 -0.15618640546E+03  0.84007023204E+02  0.36246916833E+03  0.00000000000E+00 0.  1.
         13    1    5    5    0    0 -0.11123402171E+03  0.80074518808E+02  0.22837491887E+02  0.13894778581E+03  0.00000000000E+00 0. -1.
        -13    1    5    5    0    0 -0.73516952698E+02  0.11991880349E+03  0.99103818187E+02  0.17206634925E+03  0.00000000000E+00 0.  1.
          2    1    6    6  503    0  0.44748294204E+01 -0.56553814116E+01  0.78025697472E+01  0.10624854442E+02  0.00000000000E+00 0. -1.
         -2    1    6    6    0  503  0.86982856658E+03  0.12458559654E+03  0.34357469647E+03  0.94348655431E+03  0.00000000000E+00 0.  1.
<mgrwt>
<rscale>  0 0.19537641E+04</rscale>
<asrwt>0</asrwt>
<pdfrwt beam="1">  1        1 0.20037290E+00 0.19537641E+04</pdfrwt>
<pdfrwt beam="2">  1       -2 0.11272456E+00 0.19537641E+04</pdfrwt>
<totfact> 0.45580243E+00</totfact>
</mgrwt>
</event>
<event>
12    5  0.5297412E-008  0.1362615E+04  0.7818608E-02  0.8981333E-01
          1   -1    0    0  501    0  0.00000000000E+00  0.00000000000E+00  0.19440852443E+04  0.19440852443E+04  0.00000000000E+00 0. -1.
         -4   -1    0    0    0  501 -0.00000000000E+00 -0.00000000000E+00 -0.23876523752E+03  0.23876523752E+03  0.00000000000E+00 0.  1.
        -24    2    1    2    0    0 -0.81759250725E+02 -0.16718302658E+03 -0.50211624119E+02  0.20775402112E+03  0.77497010508E+02 0.  0.
        254    2    1    2    0    0  0.81759250725E+02  0.16718302658E+03  0.17555316309E+04  0.19750964607E+04  0.88570874587E+03 0.  0.
         23    2    4    4    0    0  0.23610908431E+02 -0.35254956349E+03  0.85817249359E+03  0.93236148842E+03  0.89382585746E+02 0.  0.
         23    2    4    4    0    0  0.58148342293E+02  0.51973259007E+03  0.89735913728E+03  0.10427349722E+04  0.92409989643E+02 0.  0.
          1    1    3    3  502    0 -0.99309831514E+01 -0.99578953947E+02 -0.77767475214E+01  0.10037464968E+03  0.00000000000E+00 0. -1.
         -2    1    3    3    0  502 -0.71828267573E+02 -0.67604072635E+02 -0.42434876598E+02  0.10737937144E+03  0.00000000000E+00 0.  1.
         13    1    5    5    0    0 -0.80915508658E+01 -0.27339696064E+03  0.57701032868E+03  0.63855484548E+03  0.00000000000E+00 0.  1.
        -13    1    5    5    0    0  0.31702459297E+02 -0.79152602850E+02  0.28116216491E+03  0.29380664294E+03  0.00000000000E+00 0. -1.
          1    1    6    6  503    0  0.18841935340E+00  0.38904661881E+01 -0.19579697589E+01  0.43594580616E+01  0.00000000000E+00 0. -1.
         -1    1    6    6    0  503  0.57959922940E+02  0.51584212388E+03  0.89931710704E+03  0.10383755142E+04  0.00000000000E+00 0.  1.
<mgrwt>
<rscale>  0 0.13626151E+04</rscale>
<asrwt>0</asrwt>
<pdfrwt beam="1">  1        1 0.29909003E+00 0.13626151E+04</pdfrwt>
<pdfrwt beam="2">  1       -4 0.36733115E-01 0.13626151E+04</pdfrwt>
<totfact> 0.11399584E+01</totfact>
</mgrwt>
</event>
<event>
12    5  0.5297412E-008  0.1107833E+04  0.7818608E-02  0.9197590E-01
          1   -1    0    0  501    0  0.00000000000E+00  0.00000000000E+00  0.19743533871E+04  0.19743533871E+04  0.00000000000E+00 0. -1.
         -2   -1    0    0    0  501 -0.00000000000E+00 -0.00000000000E+00 -0.15540466634E+03  0.15540466634E+03  0.00000000000E+00 0.  1.
        -24    2    1    2    0    0  0.52488035475E+02 -0.57527750870E+02  0.65588261557E+03  0.66520422952E+03  0.79058368169E+02 0.  0.
        254    2    1    2    0    0 -0.52488035475E+02  0.57527750870E+02  0.11630661052E+04  0.14645538239E+04  0.88664011985E+03 0.  0.
         23    2    4    4    0    0 -0.26701222619E+03 -0.27159792925E+03  0.24600933395E+03  0.46251792174E+03  0.91330561334E+02 0.  0.
         23    2    4    4    0    0  0.21452419071E+03  0.32912568012E+03  0.91705677128E+03  0.10020359022E+04  0.93479868747E+02 0.  0.
          3    1    3    3  502    0  0.10349455184E+02  0.10312628664E+02  0.30492226495E+03  0.30527209042E+03  0.00000000000E+00 0. -1.
         -4    1    3    3    0  502  0.42138580291E+02 -0.67840379534E+02  0.35096035062E+03  0.35993213909E+03  0.00000000000E+00 0.  1.
         13    1    5    5    0    0 -0.50201526800E+02 -0.36511668494E+02  0.53960690042E+01  0.62309010504E+02  0.00000000000E+00 0. -1.
        -13    1    5    5    0    0 -0.21681069939E+03 -0.23508626075E+03  0.24061326494E+03  0.40020891123E+03  0.00000000000E+00 0.  1.
          1    1    6    6  503    0  0.64983278610E+02  0.37985422490E+02  0.20421632982E+03  0.21764656714E+03  0.00000000000E+00 0. -1.
         -1    1    6    6    0  503  0.14954091210E+03  0.29114025763E+03  0.71284044146E+03  0.78438933508E+03  0.00000000000E+00 0.  1.
<mgrwt>
<rscale>  0 0.11078334E+04</rscale>
<asrwt>0</asrwt>
<pdfrwt beam="1">  1        1 0.30374666E+00 0.11078334E+04</pdfrwt>
<pdfrwt beam="2">  1       -2 0.23908412E-01 0.11078334E+04</pdfrwt>
<totfact> 0.42290083E+01</totfact>
</mgrwt>
</event>
<event>
12    5  0.5297412E-008  0.1746140E+04  0.7818608E-02  0.8735478E-01
          3   -1    0    0  501    0  0.00000000000E+00  0.00000000000E+00  0.88783800304E+03  0.88783800304E+03  0.00000000000E+00 0. -1.
         -4   -1    0    0    0  501 -0.00000000000E+00 -0.00000000000E+00 -0.85854812090E+03  0.85854812090E+03  0.00000000000E+00 0.  1.
        -24    2    1    2    0    0  0.40421130569E+03  0.48412472914E+03  0.12972726606E+03  0.64901582800E+03  0.81417740240E+02 0.  0.
        254    2    1    2    0    0 -0.40421130569E+03 -0.48412472914E+03 -0.10043738392E+03  0.10973702959E+04  0.89239585684E+03 0.  0.
         23    2    4    4    0    0 -0.60227258908E+03 -0.50168639829E+03 -0.25402000078E+03  0.82906807584E+03  0.91685330280E+02 0.  0.
         23    2    4    4    0    0  0.19806128339E+03  0.17561669151E+02  0.15358261686E+03  0.26830222009E+03  0.94137011329E+02 0.  0.
          1    1    3    3  502    0  0.38032011108E+03  0.47844372718E+03  0.12176749052E+03  0.62320069698E+03  0.00000000000E+00 0. -1.
         -2    1    3    3    0  502  0.23891194605E+02  0.56810019621E+01  0.79597755396E+01  0.25815131020E+02  0.00000000000E+00 0.  1.
         13    1    5    5    0    0 -0.59942746071E+03 -0.50093499796E+03 -0.25923958510E+03  0.82307612972E+03  0.00000000000E+00 0.  1.
        -13    1    5    5    0    0 -0.28451283752E+01 -0.75140033347E+00  0.52195843136E+01  0.59919461229E+01  0.00000000000E+00 0. -1.
          3    1    6    6  503    0  0.99768723202E+02 -0.19312224389E+02  0.29600496534E+02  0.10584398677E+03  0.00000000000E+00 0. -1.
         -3    1    6    6    0  503  0.98292560193E+02  0.36873893540E+02  0.12398212033E+03  0.16245823332E+03  0.00000000000E+00 0.  1.
<mgrwt>
<rscale>  0 0.17461405E+04</rscale>
<asrwt>0</asrwt>
<pdfrwt beam="1">  1        3 0.13659046E+00 0.17461405E+04</pdfrwt>
<pdfrwt beam="2">  1       -4 0.13208433E+00 0.17461405E+04</pdfrwt>
<totfact> 0.37062041E-01</totfact>
</mgrwt>
</event>
<event>
12    5  0.5297412E-008  0.1765536E+04  0.7818608E-02  0.8724845E-01
          1   -1    0    0  501    0  0.00000000000E+00  0.00000000000E+00  0.30705553060E+04  0.30705553060E+04  0.00000000000E+00 0. -1.
         -2   -1    0    0    0  501 -0.00000000000E+00 -0.00000000000E+00 -0.25379099236E+03  0.25379099236E+03  0.00000000000E+00 0.  1.
        -24    2    1    2    0    0 -0.39642893537E+03 -0.27040407391E+03  0.18265123145E+04  0.18902111610E+04  0.80478160054E+02 0.  0.
        254    2    1    2    0    0  0.39642893537E+03  0.27040407391E+03  0.99025199918E+03  0.14341351374E+04  0.91971207800E+03 0.  0.
         23    2    4    4    0    0  0.38726619001E+03  0.60936083707E+02  0.11064881721E+04  0.11773055116E+04  0.89687705146E+02 0.  0.
         23    2    4    4    0    0  0.91627453646E+01  0.20946799020E+03 -0.11623617288E+03  0.25682962581E+03  0.92140186609E+02 0.  0.
          3    1    3    3  502    0 -0.22397107722E+03 -0.17413951387E+03  0.12109604348E+04  0.12437494878E+04  0.00000000000E+00 0. -1.
         -4    1    3    3    0  502 -0.17245785816E+03 -0.96264560036E+02  0.61555187969E+03  0.64646167322E+03  0.00000000000E+00 0.  1.
         13    1    5    5    0    0  0.99936920130E+02  0.36430126445E+01  0.18415498726E+03  0.20955600416E+03  0.00000000000E+00 0.  1.
        -13    1    5    5    0    0  0.28732926988E+03  0.57293071062E+02  0.92233318480E+03  0.96774950742E+03  0.00000000000E+00 0. -1.
          1    1    6    6  503    0 -0.67349104528E+01  0.21014374158E+03 -0.11751884461E+03  0.24086600006E+03  0.00000000000E+00 0. -1.
         -1    1    6    6    0  503  0.15897655817E+02 -0.67575138605E+00  0.12826717288E+01  0.15963625753E+02  0.00000000000E+00 0.  1.
<mgrwt>
<rscale>  0 0.17655359E+04</rscale>
<asrwt>0</asrwt>
<pdfrwt beam="1">  1        1 0.47239310E+00 0.17655359E+04</pdfrwt>
<pdfrwt beam="2">  1       -2 0.39044770E-01 0.17655359E+04</pdfrwt>
<totfact> 0.27452399E+00</totfact>
</mgrwt>
</event>
<event>
12    5  0.5297412E-008  0.1639323E+04  0.7818608E-02  0.8796748E-01
         -2   -1    0    0    0  501 -0.00000000000E+00  0.00000000000E+00  0.70215284978E+03  0.70215284978E+03  0.00000000000E+00 0.  1.
          1   -1    0    0  501    0  0.00000000000E+00 -0.00000000000E+00 -0.95683599608E+03  0.95683599608E+03  0.00000000000E+00 0. -1.
        -24    2    1    2    0    0 -0.17401251477E+03 -0.49952456735E+03 -0.30428795038E+03  0.61533683324E+03  0.79013371743E+02 0.  0.
        254    2    1    2    0    0  0.17401251477E+03  0.49952456735E+03  0.49604804087E+02  0.10436520126E+04  0.89830047210E+03 0.  0.
         23    2    4    4    0    0 -0.16486592921E+03  0.29243303900E+03 -0.33594463661E+03  0.48333287373E+03  0.89744142116E+02 0.  0.
         23    2    4    4    0    0  0.33887844398E+03  0.20709152835E+03  0.38554944070E+03  0.56031913889E+03  0.87084242365E+02 0.  0.
          1    1    3    3  502    0 -0.15372381350E+03 -0.46040192131E+03 -0.30100640070E+03  0.57114428409E+03  0.00000000000E+00 0. -1.
         -2    1    3    3    0  502 -0.20288701268E+02 -0.39122646040E+02 -0.32815496777E+01  0.44192549153E+02  0.00000000000E+00 0.  1.
         13    1    5    5    0    0 -0.14726258718E+03  0.29113187877E+03 -0.33152317858E+03  0.46513617184E+03  0.00000000000E+00 0. -1.
        -13    1    5    5    0    0 -0.17603342029E+02  0.13011602306E+01 -0.44214580388E+01  0.18196701891E+02  0.00000000000E+00 0.  1.
          2    1    6    6  503    0  0.10713983512E+03  0.93776583155E+02  0.18569370110E+03  0.23399816761E+03  0.00000000000E+00 0. -1.
         -2    1    6    6    0  503  0.23173860886E+03  0.11331494519E+03  0.19985573960E+03  0.32632097127E+03  0.00000000000E+00 0.  1.
<mgrwt>
<rscale>  0 0.16393232E+04</rscale>
<asrwt>0</asrwt>
<pdfrwt beam="1">  1        1 0.14720554E+00 0.16393232E+04</pdfrwt>
<pdfrwt beam="2">  1       -2 0.10802352E+00 0.16393232E+04</pdfrwt>
<totfact> 0.94194308E+00</totfact>
</mgrwt>
</event>
<event>
12    5  0.5297412E-008  0.2017159E+04  0.7818608E-02  0.8598640E-01
          1   -1    0    0  501    0  0.00000000000E+00  0.00000000000E+00  0.13262810926E+04  0.13262810926E+04  0.00000000000E+00 0. -1.
         -2   -1    0    0    0  501 -0.00000000000E+00 -0.00000000000E+00 -0.76698103119E+03  0.76698103119E+03  0.00000000000E+00 0.  1.
        -24    2    1    2    0    0  0.23622133461E+03  0.68873230160E+03 -0.16025788341E+03  0.74985029147E+03  0.80250658785E+02 0.  0.
        254    2    1    2    0    0 -0.23622133461E+03 -0.68873230160E+03  0.71955794487E+03  0.13434118324E+04  0.86996494936E+03 0.  0.
         23    2    4    4    0    0  0.17976915161E+03 -0.59325118996E+03  0.18681463221E+03  0.65372702849E+03  0.90528441496E+02 0.  0.
         23    2    4    4    0    0 -0.41599048621E+03 -0.95481111643E+02  0.53274331267E+03  0.68968480387E+03  0.98412215719E+02 0.  0.
          3    1    3    3  502    0  0.11402824500E+03  0.22238036639E+03 -0.41360539955E+02  0.25331040696E+03  0.00000000000E+00 0. -1.
         -4    1    3    3    0  502  0.12219308961E+03  0.46635193521E+03 -0.11889734345E+03  0.49653988451E+03  0.00000000000E+00 0.  1.
         13    1    5    5    0    0  0.93121956884E+02 -0.20847406501E+03  0.10311589215E+03  0.25053147876E+03  0.00000000000E+00 0.  1.
        -13    1    5    5    0    0  0.86647194722E+02 -0.38477712495E+03  0.83698740051E+02  0.40319554973E+03  0.00000000000E+00 0. -1.
          4    1    6    6  503    0 -0.22874488380E+03 -0.27164732321E+02  0.35167162871E+03  0.42039871430E+03  0.00000000000E+00 0. -1.
         -4    1    6    6    0  503 -0.18724560241E+03 -0.68316379322E+02  0.18107168396E+03  0.26928608958E+03  0.00000000000E+00 0.  1.
<mgrwt>
<rscale>  0 0.20171588E+04</rscale>
<asrwt>0</asrwt>
<pdfrwt beam="1">  1        1 0.20404325E+00 0.20171588E+04</pdfrwt>
<pdfrwt beam="2">  1       -2 0.11799708E+00 0.20171588E+04</pdfrwt>
<totfact> 0.38983201E+00</totfact>
</mgrwt>
</event>
<event>
12    5  0.5297412E-008  0.2019904E+04  0.7818608E-02  0.8597371E-01
          1   -1    0    0  501    0  0.00000000000E+00  0.00000000000E+00  0.18186195252E+04  0.18186195252E+04  0.00000000000E+00 0. -1.
         -2   -1    0    0    0  501 -0.00000000000E+00 -0.00000000000E+00 -0.56086677223E+03  0.56086677223E+03  0.00000000000E+00 0.  1.
        -24    2    1    2    0    0  0.32071473964E+03 -0.43686234726E+03 -0.19792684209E+03  0.58291671937E+03  0.83127686274E+02 0.  0.
        254    2    1    2    0    0 -0.32071473964E+03  0.43686234726E+03  0.14556795950E+04  0.17965695780E+04  0.90274720195E+03 0.  0.
         23    2    4    4    0    0  0.16506942511E+03  0.10042964823E+03 -0.82601810693E+01  0.21479327383E+03  0.93455286330E+02 0.  0.
         23    2    4    4    0    0 -0.48578416475E+03  0.33643269903E+03  0.14639397761E+04  0.15817763042E+04  0.98607265282E+02 0.  0.
          1    1    3    3  502    0  0.43237821110E+02 -0.35980619654E+02  0.12303292633E+01  0.56263912725E+02  0.00000000000E+00 0. -1.
         -2    1    3    3    0  502  0.27747691853E+03 -0.40088172760E+03 -0.19915717136E+03  0.52665280665E+03  0.00000000000E+00 0.  1.
         13    1    5    5    0    0  0.57234379641E+02  0.74085103333E+02  0.28497113493E+02  0.97859400296E+02  0.00000000000E+00 0.  1.
        -13    1    5    5    0    0  0.10783504547E+03  0.26344544898E+02 -0.36757294563E+02  0.11693387354E+03  0.00000000000E+00 0. -1.
          4    1    6    6  503    0 -0.37273350389E+03  0.21517955071E+03  0.11236010786E+04  0.12032089959E+04  0.00000000000E+00 0. -1.
         -4    1    6    6    0  503 -0.11305066086E+03  0.12125314832E+03  0.34033869747E+03  0.37856730828E+03  0.00000000000E+00 0.  1.
<mgrwt>
<rscale>  0 0.20199042E+04</rscale>
<asrwt>0</asrwt>
<pdfrwt beam="1">  1        1 0.27978762E+00 0.20199042E+04</pdfrwt>
<pdfrwt beam="2">  1       -2 0.86287197E-01 0.20199042E+04</pdfrwt>
<totfact> 0.37460914E+00</totfact>
</mgrwt>
</event>
<event>
12    5  0.5297412E-008  0.1498546E+04  0.7818608E-02  0.8885420E-01
         -2   -1    0    0    0  501 -0.00000000000E+00  0.00000000000E+00  0.47712931399E+03  0.47712931399E+03  0.00000000000E+00 0.  1.
          1   -1    0    0  501    0  0.00000000000E+00 -0.00000000000E+00 -0.11766415579E+04  0.11766415579E+04  0.00000000000E+00 0. -1.
        -24    2    1    2    0    0 -0.95045664896E+02  0.42280932800E+03 -0.43629436393E+03  0.62000048063E+03  0.79034281931E+02 0.  0.
        254    2    1    2    0    0  0.95045664896E+02 -0.42280932800E+03 -0.26321787993E+03  0.10337703912E+04  0.90088632091E+03 0.  0.
         23    2    4    4    0    0  0.42074844540E+02 -0.26637369648E+03  0.31564505394E+03  0.42526353211E+03  0.92152227026E+02 0.  0.
         23    2    4    4    0    0  0.52970820356E+02 -0.15643563152E+03 -0.57886293387E+03  0.60850685912E+03  0.88995992988E+02 0.  0.
          1    1    3    3  502    0 -0.84288973531E+02  0.42083986778E+03 -0.42911505322E+03  0.60691890255E+03  0.00000000000E+00 0. -1.
         -2    1    3    3    0  502 -0.10756691365E+02  0.19694602187E+01 -0.71793107097E+01  0.13081578076E+02  0.00000000000E+00 0.  1.
         13    1    5    5    0    0 -0.18733139897E+02 -0.10900436022E+02  0.16755059968E+02  0.27394927823E+02  0.00000000000E+00 0. -1.
        -13    1    5    5    0    0  0.60807984437E+02 -0.25547326045E+03  0.29888999397E+03  0.39786860428E+03  0.00000000000E+00 0.  1.
          4    1    6    6  503    0 -0.16479725536E+02 -0.16439111147E+02 -0.15528022845E+03  0.15701520651E+03  0.00000000000E+00 0. -1.
         -4    1    6    6    0  503  0.69450545892E+02 -0.13999652037E+03 -0.42358270542E+03  0.45149165260E+03  0.00000000000E+00 0.  1.
<mgrwt>
<rscale>  0 0.14985462E+04</rscale>
<asrwt>0</asrwt>
<pdfrwt beam="1">  1        1 0.18102178E+00 0.14985462E+04</pdfrwt>
<pdfrwt beam="2">  1       -2 0.73404509E-01 0.14985462E+04</pdfrwt>
<totfact> 0.15795815E+01</totfact>
</mgrwt>
</event>
<event>
12    5  0.5297412E-008  0.1420700E+04  0.7818608E-02  0.8938970E-01
          1   -1    0    0  501    0  0.00000000000E+00  0.00000000000E+00  0.10977454472E+04  0.10977454472E+04  0.00000000000E+00 0. -1.
         -2   -1    0    0    0  501 -0.00000000000E+00 -0.00000000000E+00 -0.45966661957E+03  0.45966661957E+03  0.00000000000E+00 0.  1.
        -24    2    1    2    0    0  0.16789977109E+03  0.34966799740E+03  0.37304139850E+03  0.54403036243E+03  0.79693843650E+02 0.  0.
        254    2    1    2    0    0 -0.16789977109E+03 -0.34966799740E+03  0.26503742911E+03  0.10133817043E+04  0.89790845764E+03 0.  0.
         23    2    4    4    0    0 -0.51598677896E+02 -0.62733950463E+03  0.29069292030E+03  0.69907861594E+03  0.89393846156E+02 0.  0.
         23    2    4    4    0    0 -0.11630109320E+03  0.27767150723E+03 -0.25655491195E+02  0.31430308838E+03  0.86607256805E+02 0.  0.
          1    1    3    3  502    0  0.15213240331E+03  0.25896214354E+03  0.25268573819E+03  0.39249935313E+03  0.00000000000E+00 0. -1.
         -2    1    3    3    0  502  0.15767367778E+02  0.90705853858E+02  0.12035566031E+03  0.15153100930E+03  0.00000000000E+00 0.  1.
         13    1    5    5    0    0 -0.62299807360E+02 -0.33842192607E+03  0.18902426447E+03  0.39260774139E+03  0.00000000000E+00 0.  1.
        -13    1    5    5    0    0  0.10701129465E+02 -0.28891757855E+03  0.10166865584E+03  0.30647087455E+03  0.00000000000E+00 0. -1.
          3    1    6    6  503    0 -0.11569900065E+03  0.27814559361E+03 -0.12900966900E+02  0.30152556267E+03  0.00000000000E+00 0. -1.
         -3    1    6    6    0  503 -0.60209254390E+00 -0.47408637925E+00 -0.12754524295E+02  0.12777525711E+02  0.00000000000E+00 0.  1.
<mgrwt>
<rscale>  0 0.14206997E+04</rscale>
<asrwt>0</asrwt>
<pdfrwt beam="1">  1        1 0.16888391E+00 0.14206997E+04</pdfrwt>
<pdfrwt beam="2">  1       -2 0.70717942E-01 0.14206997E+04</pdfrwt>
<totfact> 0.19752206E+01</totfact>
</mgrwt>
</event>
<event>
12    5  0.5297412E-008  0.1928341E+04  0.7818608E-02  0.8640877E-01
         -2   -1    0    0    0  501 -0.00000000000E+00  0.00000000000E+00  0.24374149068E+04  0.24374149068E+04  0.00000000000E+00 0.  1.
          1   -1    0    0  501    0  0.00000000000E+00 -0.00000000000E+00 -0.38139777060E+03  0.38139777060E+03  0.00000000000E+00 0. -1.
        -24    2    1    2    0    0 -0.69177269350E+03  0.30173259394E+03  0.85267345482E+03  0.11418260876E+04  0.84396540486E+02 0.  0.
        254    2    1    2    0    0  0.69177269350E+03 -0.30173259394E+03  0.12033436813E+04  0.16769865898E+04  0.89143479240E+03 0.  0.
         23    2    4    4    0    0  0.88445688694E+03 -0.15014213451E+03  0.87041436928E+03  0.12532054300E+04  0.89977941942E+02 0.  0.
         23    2    4    4    0    0 -0.19268419343E+03 -0.15159045944E+03  0.33292931205E+03  0.42378115980E+03  0.92960630289E+02 0.  0.
          1    1    3    3  502    0 -0.13010064419E+03  0.35130204652E+02  0.19240811961E+03  0.23490677595E+03  0.00000000000E+00 0. -1.
         -2    1    3    3    0  502 -0.56167204932E+03  0.26660238929E+03  0.66026533521E+03  0.90691931165E+03  0.00000000000E+00 0.  1.
         13    1    5    5    0    0  0.19044413579E+03 -0.30544741663E+02  0.24104536934E+03  0.30871478776E+03  0.00000000000E+00 0.  1.
        -13    1    5    5    0    0  0.69401275114E+03 -0.11959739285E+03  0.62936899994E+03  0.94449064221E+03  0.00000000000E+00 0. -1.
          1    1    6    6  503    0 -0.13998976428E+03 -0.65452665104E+02  0.24614562305E+03  0.29063525805E+03  0.00000000000E+00 0. -1.
         -1    1    6    6    0  503 -0.52694429158E+02 -0.86137794332E+02  0.86783688999E+02  0.13314590175E+03  0.00000000000E+00 0.  1.
<mgrwt>
<rscale>  0 0.19283409E+04</rscale>
<asrwt>0</asrwt>
<pdfrwt beam="1">  1        1 0.58676582E-01 0.19283409E+04</pdfrwt>
<pdfrwt beam="2">  1       -2 0.37498690E+00 0.19283409E+04</pdfrwt>
<totfact> 0.56475902E-01</totfact>
</mgrwt>
</event>
<event>
12    5  0.5297412E-008  0.1659376E+04  0.7818608E-02  0.8784879E-01
          1   -1    0    0  501    0  0.00000000000E+00  0.00000000000E+00  0.92283856043E+03  0.92283856043E+03  0.00000000000E+00 0. -1.
         -2   -1    0    0    0  501 -0.00000000000E+00 -0.00000000000E+00 -0.74593999469E+03  0.74593999469E+03  0.00000000000E+00 0.  1.
        -24    2    1    2    0    0  0.23163437570E+03  0.18870491067E+03  0.57735564694E+03  0.65510604646E+03  0.80996059976E+02 0.  0.
        254    2    1    2    0    0 -0.23163437570E+03 -0.18870491067E+03 -0.40045708120E+03  0.10136725087E+04  0.88198755865E+03 0.  0.
         23    2    4    4    0    0 -0.11222027228E+03 -0.53341353262E+03 -0.21947081099E+03  0.59515046793E+03  0.94410043487E+02 0.  0.
         23    2    4    4    0    0 -0.11941410343E+03  0.34470862195E+03 -0.18098627021E+03  0.41852204073E+03  0.96544841547E+02 0.  0.
          1    1    3    3  502    0  0.19986917957E+03  0.16722079557E+03  0.54801644083E+03  0.60682164005E+03  0.00000000000E+00 0. -1.
         -2    1    3    3    0  502  0.31765196133E+02  0.21484115098E+02  0.29339206115E+02  0.48284406410E+02  0.00000000000E+00 0.  1.
         13    1    5    5    0    0 -0.12545922765E+03 -0.44697340239E+03 -0.16818319275E+03  0.49377203907E+03  0.00000000000E+00 0. -1.
        -13    1    5    5    0    0  0.13238955372E+02 -0.86440130233E+02 -0.51287618232E+02  0.10137842886E+03  0.00000000000E+00 0.  1.
          2    1    6    6  503    0 -0.27810576914E+02  0.73440168301E+02 -0.86936954986E+02  0.11715340648E+03  0.00000000000E+00 0. -1.
         -2    1    6    6    0  503 -0.91603526512E+02  0.27126845365E+03 -0.94049315228E+02  0.30136863425E+03  0.00000000000E+00 0.  1.
<mgrwt>
<rscale>  0 0.16593760E+04</rscale>
<asrwt>0</asrwt>
<pdfrwt beam="1">  1        1 0.14197516E+00 0.16593760E+04</pdfrwt>
<pdfrwt beam="2">  1       -2 0.11476000E+00 0.16593760E+04</pdfrwt>
<totfact> 0.86450857E+00</totfact>
</mgrwt>
</event>
<event>
12    5  0.5297412E-008  0.1798834E+04  0.7818608E-02  0.8706920E-01
         -2   -1    0    0    0  501 -0.00000000000E+00  0.00000000000E+00  0.10583570352E+04  0.10583570352E+04  0.00000000000E+00 0.  1.
          1   -1    0    0  501    0  0.00000000000E+00 -0.00000000000E+00 -0.76434582596E+03  0.76434582596E+03  0.00000000000E+00 0. -1.
        -24    2    1    2    0    0  0.57988095378E+03  0.48907845108E+02 -0.22916455337E+03  0.63055263991E+03  0.80164464110E+02 0.  0.
        254    2    1    2    0    0 -0.57988095378E+03 -0.48907845108E+02  0.52317576260E+03  0.11921502212E+04  0.89936387162E+03 0.  0.
         23    2    4    4    0    0 -0.25210828779E+03 -0.45843530454E+03  0.18708556926E+03  0.56297794822E+03  0.90673274613E+02 0.  0.
         23    2    4    4    0    0 -0.32777266598E+03  0.40952745944E+03  0.33609019334E+03  0.62917227302E+03  0.88053793138E+02 0.  0.
          3    1    3    3  502    0  0.41400614450E+03  0.61549583343E+02 -0.13720154295E+03  0.44046986535E+03  0.00000000000E+00 0. -1.
         -4    1    3    3    0  502  0.16587480928E+03 -0.12641738235E+02 -0.91963010415E+02  0.19008277456E+03  0.00000000000E+00 0.  1.
         13    1    5    5    0    0 -0.21331724998E+03 -0.43241243192E+03  0.15562288583E+03  0.50665890204E+03  0.00000000000E+00 0. -1.
        -13    1    5    5    0    0 -0.38791037810E+02 -0.26022872621E+02  0.31462683434E+02  0.56319046181E+02  0.00000000000E+00 0.  1.
          1    1    6    6  503    0 -0.28270539470E+03  0.39176486712E+03  0.29894602017E+03  0.56812918802E+03  0.00000000000E+00 0. -1.
         -1    1    6    6    0  503 -0.45067271287E+02  0.17762592316E+02  0.37144173162E+02  0.61043085005E+02  0.00000000000E+00 0.  1.
<mgrwt>
<rscale>  0 0.17988338E+04</rscale>
<asrwt>0</asrwt>
<pdfrwt beam="1">  1        1 0.11759167E+00 0.17988338E+04</pdfrwt>
<pdfrwt beam="2">  1       -2 0.16282416E+00 0.17988338E+04</pdfrwt>
<totfact> 0.47167076E+00</totfact>
</mgrwt>
</event>
<event>
12    5  0.5297412E-008  0.1897192E+04  0.7818608E-02  0.8656255E-01
         -2   -1    0    0    0  501 -0.00000000000E+00  0.00000000000E+00  0.17758090720E+04  0.17758090720E+04  0.00000000000E+00 0.  1.
          1   -1    0    0  501    0  0.00000000000E+00 -0.00000000000E+00 -0.50671799911E+03  0.50671799911E+03  0.00000000000E+00 0. -1.
        -24    2    1    2    0    0  0.47707509481E+03 -0.33701940432E+03  0.10324165867E+04  0.11888619612E+04  0.79536340192E+02 0.  0.
        254    2    1    2    0    0 -0.47707509481E+03  0.33701940432E+03  0.23667448619E+03  0.10936651099E+04  0.89381532499E+03 0.  0.
         23    2    4    4    0    0 -0.67273344563E+03  0.12413058678E+03  0.34526156034E+03  0.77186612181E+03  0.92698832327E+02 0.  0.
         23    2    4    4    0    0  0.19565835082E+03  0.21288881755E+03 -0.10858707415E+03  0.32179898807E+03  0.90330488575E+02 0.  0.
          3    1    3    3  502    0  0.18907862465E+03 -0.15501664218E+03  0.50339725169E+03  0.55963352175E+03  0.00000000000E+00 0. -1.
         -4    1    3    3    0  502  0.28799647016E+03 -0.18200276215E+03  0.52901933498E+03  0.62922843947E+03  0.00000000000E+00 0.  1.
         13    1    5    5    0    0 -0.54514454440E+03  0.12386972743E+03  0.24874064899E+03  0.61188086595E+03  0.00000000000E+00 0. -1.
        -13    1    5    5    0    0 -0.12758890123E+03  0.26085934558E+00  0.96520911349E+02  0.15998525586E+03  0.00000000000E+00 0.  1.
          3    1    6    6  503    0  0.18159297161E+03  0.17283679339E+03 -0.11986271821E+03  0.27787701543E+03  0.00000000000E+00 0. -1.
         -3    1    6    6    0  503  0.14065379211E+02  0.40052024159E+02  0.11275644059E+02  0.43921972639E+02  0.00000000000E+00 0.  1.
<mgrwt>
<rscale>  0 0.18971921E+04</rscale>
<asrwt>0</asrwt>
<pdfrwt beam="1">  1        1 0.77956616E-01 0.18971921E+04</pdfrwt>
<pdfrwt beam="2">  1       -2 0.27320139E+00 0.18971921E+04</pdfrwt>
<totfact> 0.16520207E+00</totfact>
</mgrwt>
</event>
<event>
12    5  0.5297412E-008  0.1559153E+04  0.7818608E-02  0.8846043E-01
         -2   -1    0    0    0  501 -0.00000000000E+00  0.00000000000E+00  0.64706615268E+03  0.64706615268E+03  0.00000000000E+00 0.  1.
          1   -1    0    0  501    0  0.00000000000E+00 -0.00000000000E+00 -0.93922276155E+03  0.93922276155E+03  0.00000000000E+00 0. -1.
        -24    2    1    2    0    0  0.43196515867E+03 -0.23078384496E+03  0.82924782810E+02  0.50306504145E+03  0.79641916887E+02 0.  0.
        254    2    1    2    0    0 -0.43196515867E+03  0.23078384496E+03 -0.37508139168E+03  0.10832238728E+04  0.89041160524E+03 0.  0.
         23    2    4    4    0    0  0.37260968905E+02 -0.23511943385E+02  0.24274020609E+03  0.26196128043E+03  0.88089236033E+02 0.  0.
         23    2    4    4    0    0 -0.46922612758E+03  0.25429578835E+03 -0.61782159778E+03  0.82126259234E+03  0.89046123584E+02 0.  0.
          1    1    3    3  502    0  0.38421230661E+03 -0.19576386389E+03  0.46907797164E+02  0.43375445634E+03  0.00000000000E+00 0. -1.
         -2    1    3    3    0  502  0.47752852063E+02 -0.35019981071E+02  0.36016985646E+02  0.69310585118E+02  0.00000000000E+00 0.  1.
         13    1    5    5    0    0  0.63024012528E+02 -0.20242076977E+02  0.20991876870E+03  0.22010828537E+03  0.00000000000E+00 0.  1.
        -13    1    5    5    0    0 -0.25763043622E+02 -0.32698664080E+01  0.32821437389E+02  0.41852995058E+02  0.00000000000E+00 0. -1.
          2    1    6    6  503    0 -0.31376564965E+03  0.14287688682E+03 -0.44940940951E+03  0.56641990170E+03  0.00000000000E+00 0.  1.
         -2    1    6    6    0  503 -0.15546047793E+03  0.11141890153E+03 -0.16841218827E+03  0.25484269064E+03  0.00000000000E+00 0. -1.
<mgrwt>
<rscale>  0 0.15591527E+04</rscale>
<asrwt>0</asrwt>
<pdfrwt beam="1">  1        1 0.14449581E+00 0.15591527E+04</pdfrwt>
<pdfrwt beam="2">  1       -2 0.99548639E-01 0.15591527E+04</pdfrwt>
<totfact> 0.11912365E+01</totfact>
</mgrwt>
</event>
<event>
12    5  0.5297412E-008  0.2333923E+04  0.7818608E-02  0.8464665E-01
         -2   -1    0    0    0  501 -0.00000000000E+00  0.00000000000E+00  0.14930177235E+04  0.14930177235E+04  0.00000000000E+00 0.  1.
          1   -1    0    0  501    0  0.00000000000E+00 -0.00000000000E+00 -0.91211192132E+03  0.91211192132E+03  0.00000000000E+00 0. -1.
        -24    2    1    2    0    0 -0.26328275103E+03 -0.33339208778E+03 -0.63753252003E+03  0.77043188924E+03  0.81544409214E+02 0.  0.
        254    2    1    2    0    0  0.26328275103E+03  0.33339208778E+03  0.12184383222E+04  0.16346977556E+04  0.10035819428E+04 0.  0.
         23    2    4    4    0    0 -0.12230582296E+03  0.46746159407E+03  0.19483981353E+03  0.52896764844E+03  0.91461269965E+02 0.  0.
         23    2    4    4    0    0  0.38558857399E+03 -0.13406950629E+03  0.10235985087E+04  0.11057301072E+04  0.90730270432E+02 0.  0.
          3    1    3    3  502    0 -0.18102051465E+03 -0.20315262088E+03 -0.34083409868E+03  0.43612761540E+03  0.00000000000E+00 0. -1.
         -4    1    3    3    0  502 -0.82262236380E+02 -0.13023946691E+03 -0.29669842135E+03  0.33430427383E+03  0.00000000000E+00 0.  1.
         13    1    5    5    0    0 -0.65829158816E+00  0.17521823414E+03  0.68121209882E+02  0.18799564399E+03  0.00000000000E+00 0. -1.
        -13    1    5    5    0    0 -0.12164753137E+03  0.29224335993E+03  0.12671860364E+03  0.34097200446E+03  0.00000000000E+00 0.  1.
          4    1    6    6  503    0  0.10191943453E+02 -0.25075733124E+02  0.57817557827E+02  0.63839941229E+02  0.00000000000E+00 0. -1.
         -4    1    6    6    0  503  0.37539663053E+03 -0.10899377317E+03  0.96578095088E+03  0.10418901659E+04  0.00000000000E+00 0.  1.
<mgrwt>
<rscale>  0 0.23339231E+04</rscale>
<asrwt>0</asrwt>
<pdfrwt beam="1">  1        1 0.14032491E+00 0.23339231E+04</pdfrwt>
<pdfrwt beam="2">  1       -2 0.22969503E+00 0.23339231E+04</pdfrwt>
<totfact> 0.12066522E+00</totfact>
</mgrwt>
</event>
<event>
12    5  0.5297412E-008  0.1153331E+04  0.7818608E-02  0.9154716E-01
         -2   -1    0    0    0  501 -0.00000000000E+00  0.00000000000E+00  0.70676218314E+03  0.70676218314E+03  0.00000000000E+00 0.  1.
          1   -1    0    0  501    0  0.00000000000E+00 -0.00000000000E+00 -0.47051587503E+03  0.47051587503E+03  0.00000000000E+00 0. -1.
        -24    2    1    2    0    0  0.15824169472E+03  0.43252380943E+02 -0.71515399043E+02  0.19610455896E+03  0.80195656622E+02 0.  0.
        254    2    1    2    0    0 -0.15824169472E+03 -0.43252380943E+02  0.30776170715E+03  0.98117349921E+03  0.91710030245E+03 0.  0.
         23    2    4    4    0    0  0.25488659455E+03 -0.30123763832E+03  0.26576355222E+03  0.48418300649E+03  0.89953472784E+02 0.  0.
         23    2    4    4    0    0 -0.41312828927E+03  0.25798525737E+03  0.41998154926E+02  0.49699049272E+03  0.89466912454E+02 0.  0.
          1    1    3    3  502    0  0.15681450419E+03  0.58360265878E+02 -0.67348104995E+02  0.18036761518E+03  0.00000000000E+00 0. -1.
         -2    1    3    3    0  502  0.14271905264E+01 -0.15107884935E+02 -0.41672940481E+01  0.15736943785E+02  0.00000000000E+00 0.  1.
         13    1    5    5    0    0  0.63926570054E+02 -0.11124513420E+03  0.12952743209E+03  0.18231687224E+03  0.00000000000E+00 0.  1.
        -13    1    5    5    0    0  0.19096002449E+03 -0.18999250412E+03  0.13623612014E+03  0.30186613425E+03  0.00000000000E+00 0. -1.
          2    1    6    6  503    0 -0.25455974632E+03  0.10701029417E+03  0.29061962158E+02  0.27766250224E+03  0.00000000000E+00 0. -1.
         -2    1    6    6    0  503 -0.15856854295E+03  0.15097496320E+03  0.12936192768E+02  0.21932799048E+03  0.00000000000E+00 0.  1.
<mgrwt>
<rscale>  0 0.11533305E+04</rscale>
<asrwt>0</asrwt>
<pdfrwt beam="1">  1        1 0.72387058E-01 0.11533305E+04</pdfrwt>
<pdfrwt beam="2">  1       -2 0.10873264E+00 0.11533305E+04</pdfrwt>
<totfact> 0.28264012E+01</totfact>
</mgrwt>
</event>
<event>
12    5  0.5297412E-008  0.1368515E+04  0.7818608E-02  0.8976930E-01
         -4   -1    0    0    0  501 -0.00000000000E+00  0.00000000000E+00  0.81540134113E+03  0.81540134113E+03  0.00000000000E+00 0.  1.
          1   -1    0    0  501    0  0.00000000000E+00 -0.00000000000E+00 -0.57420570839E+03  0.57420570839E+03  0.00000000000E+00 0. -1.
        -24    2    1    2    0    0  0.12716615453E+03  0.98739673307E+01 -0.28737384832E+03  0.32405511451E+03  0.78480968716E+02 0.  0.
        254    2    1    2    0    0 -0.12716615453E+03 -0.98739673307E+01  0.52856948107E+03  0.10655519350E+04  0.91637683504E+03 0.  0.
         23    2    4    4    0    0  0.77900536345E+02  0.39023818923E+03  0.43948616521E+03  0.59956123648E+03  0.89281851396E+02 0.  0.
         23    2    4    4    0    0 -0.20506669087E+03 -0.40011215656E+03  0.89083315863E+02  0.46599069853E+03  0.84079774124E+02 0.  0.
          1    1    3    3  502    0  0.13257178833E+03  0.68237473645E+01 -0.22401589517E+03  0.26039386298E+03  0.00000000000E+00 0. -1.
         -2    1    3    3    0  502 -0.54056337965E+01  0.30502199662E+01 -0.63357953157E+02  0.63661251533E+02  0.00000000000E+00 0.  1.
         13    1    5    5    0    0 -0.13818630529E+02  0.12575680210E+03  0.16021471553E+03  0.20414329011E+03  0.00000000000E+00 0. -1.
        -13    1    5    5    0    0  0.91719166873E+02  0.26448138713E+03  0.27927144968E+03  0.39541794638E+03  0.00000000000E+00 0.  1.
          4    1    6    6  503    0 -0.31486027305E+02 -0.13929952776E+03  0.44202490876E+02  0.14949778777E+03  0.00000000000E+00 0. -1.
         -4    1    6    6    0  503 -0.17358066357E+03 -0.26081262880E+03  0.44880824987E+02  0.31649291076E+03  0.00000000000E+00 0.  1.
<mgrwt>
<rscale>  0 0.13685147E+04</rscale>
<asrwt>0</asrwt>
<pdfrwt beam="1">  1        1 0.88339339E-01 0.13685147E+04</pdfrwt>
<pdfrwt beam="2">  1       -4 0.12544636E+00 0.13685147E+04</pdfrwt>
<totfact> 0.81181367E+00</totfact>
</mgrwt>
</event>
<event>
12    5  0.5297412E-008  0.1898602E+04  0.7818608E-02  0.8655553E-01
         -2   -1    0    0    0  501 -0.00000000000E+00  0.00000000000E+00  0.69456726333E+03  0.69456726333E+03  0.00000000000E+00 0.  1.
          1   -1    0    0  501    0  0.00000000000E+00 -0.00000000000E+00 -0.12974581111E+04  0.12974581111E+04  0.00000000000E+00 0. -1.
        -24    2    1    2    0    0 -0.47274261443E+03  0.54030186926E+03 -0.61895709763E+02  0.72509274330E+03  0.80726192050E+02 0.  0.
        254    2    1    2    0    0  0.47274261443E+03 -0.54030186926E+03 -0.54099513799E+03  0.12669326311E+04  0.89276585004E+03 0.  0.
         23    2    4    4    0    0  0.35642860365E+03 -0.76218252586E+03 -0.53346042313E+03  0.10004031711E+04  0.90900657117E+02 0.  0.
         23    2    4    4    0    0  0.11631401078E+03  0.22188065660E+03 -0.75347148622E+01  0.26652946001E+03  0.90670867709E+02 0.  0.
          3    1    3    3  502    0 -0.13880815962E+02  0.18046916917E+01  0.39694434769E+01  0.14549585747E+02  0.00000000000E+00 0. -1.
         -4    1    3    3    0  502 -0.45886179846E+03  0.53849717757E+03 -0.65865153239E+02  0.71054315756E+03  0.00000000000E+00 0.  1.
         13    1    5    5    0    0  0.50216675204E+02 -0.66405866922E+02 -0.78801575565E+02  0.11463481994E+03  0.00000000000E+00 0. -1.
        -13    1    5    5    0    0  0.30621192844E+03 -0.69577665893E+03 -0.45465884756E+03  0.88576835115E+03  0.00000000000E+00 0.  1.
          1    1    6    6  503    0 -0.74776234376E+01 -0.30508127146E+01  0.49635127034E+01  0.94793865229E+01  0.00000000000E+00 0. -1.
         -1    1    6    6    0  503  0.12379163422E+03  0.22493146931E+03 -0.12498227566E+02  0.25705007349E+03  0.00000000000E+00 0.  1.
<mgrwt>
<rscale>  0 0.18986015E+04</rscale>
<asrwt>0</asrwt>
<pdfrwt beam="1">  1        1 0.19960894E+00 0.18986015E+04</pdfrwt>
<pdfrwt beam="2">  1       -2 0.10685650E+00 0.18986015E+04</pdfrwt>
<totfact> 0.52554488E+00</totfact>
</mgrwt>
</event>
<event>
12    5  0.5297412E-008  0.2246135E+04  0.7818608E-02  0.8499467E-01
         -2   -1    0    0    0  501 -0.00000000000E+00  0.00000000000E+00  0.34892785363E+03  0.34892785363E+03  0.00000000000E+00 0.  1.
          1   -1    0    0  501    0  0.00000000000E+00 -0.00000000000E+00 -0.36147316508E+04  0.36147316508E+04  0.00000000000E+00 0. -1.
        -24    2    1    2    0    0  0.28511254367E+03  0.71421727436E+03 -0.40523868066E+03  0.87295435311E+03  0.80221173984E+02 0.  0.
        254    2    1    2    0    0 -0.28511254367E+03 -0.71421727436E+03 -0.28605651165E+04  0.30907051514E+04  0.88217349153E+03 0.  0.
         23    2    4    4    0    0 -0.39806581462E+03 -0.45191365142E+03 -0.26631136465E+04  0.27318323422E+04  0.89729096078E+02 0.  0.
         23    2    4    4    0    0  0.11295327095E+03 -0.26230362294E+03 -0.19745147000E+03  0.35887280911E+03  0.90779833049E+02 0.  0.
          3    1    3    3  502    0  0.14209414856E+03  0.28379704738E+03 -0.13425518781E+03  0.34460987597E+03  0.00000000000E+00 0. -1.
         -4    1    3    3    0  502  0.14301839511E+03  0.43042022698E+03 -0.27098349285E+03  0.52834447714E+03  0.00000000000E+00 0.  1.
         13    1    5    5    0    0 -0.20065426249E+03 -0.25937966343E+03 -0.16220256339E+04  0.16548435273E+04  0.00000000000E+00 0.  1.
        -13    1    5    5    0    0 -0.19741155213E+03 -0.19253398799E+03 -0.10410880126E+04  0.10769888149E+04  0.00000000000E+00 0. -1.
          4    1    6    6  503    0  0.61952586204E+02 -0.48718068890E+02 -0.37991939971E+02  0.87492632127E+02  0.00000000000E+00 0. -1.
         -4    1    6    6    0  503  0.51000684749E+02 -0.21358555405E+03 -0.15945953002E+03  0.27138017698E+03  0.00000000000E+00 0.  1.
<mgrwt>
<rscale>  0 0.22461350E+04</rscale>
<asrwt>0</asrwt>
<pdfrwt beam="1">  1        1 0.55611256E+00 0.22461350E+04</pdfrwt>
<pdfrwt beam="2">  1       -2 0.53681209E-01 0.22461350E+04</pdfrwt>
<totfact> 0.52976235E-01</totfact>
</mgrwt>
</event>
<event>
12    5  0.5297412E-008  0.1141425E+04  0.7818608E-02  0.9165731E-01
          1   -1    0    0  501    0  0.00000000000E+00  0.00000000000E+00  0.13262708055E+04  0.13262708055E+04  0.00000000000E+00 0. -1.
         -2   -1    0    0    0  501 -0.00000000000E+00 -0.00000000000E+00 -0.24558548952E+03  0.24558548952E+03  0.00000000000E+00 0.  1.
        -24    2    1    2    0    0 -0.19383558755E+03 -0.44910978333E+02  0.21384257883E+03  0.30384849977E+03  0.83702038893E+02 0.  0.
        254    2    1    2    0    0  0.19383558755E+03  0.44910978333E+02  0.86684273719E+03  0.12680077953E+04  0.90379101950E+03 0.  0.
         23    2    4    4    0    0  0.25966272730E+03  0.26775579292E+03  0.17378143151E+02  0.38281305729E+03  0.84415285260E+02 0.  0.
         23    2    4    4    0    0 -0.65827139748E+02 -0.22284481459E+03  0.84946459404E+03  0.88519473800E+03  0.89367801500E+02 0.  0.
          1    1    3    3  502    0 -0.93558709032E+02 -0.97836616962E+00  0.48075559011E+02  0.10519243609E+03  0.00000000000E+00 0. -1.
         -4    1    3    3    0  502 -0.10027687852E+03 -0.43932612163E+02  0.16576701982E+03  0.19865606368E+03  0.00000000000E+00 0.  1.
         13    1    5    5    0    0  0.14854407407E+03  0.10636302074E+03  0.35200574744E+02  0.18605782592E+03  0.00000000000E+00 0.  1.
        -13    1    5    5    0    0  0.11111865323E+03  0.16139277218E+03 -0.17822431593E+02  0.19675523138E+03  0.00000000000E+00 0. -1.
          4    1    6    6  503    0 -0.48003550909E+02 -0.19897895463E+03  0.81162534708E+03  0.83703803337E+03  0.00000000000E+00 0. -1.
         -4    1    6    6    0  503 -0.17823588839E+02 -0.23865859955E+02  0.37839246957E+02  0.48156704630E+02  0.00000000000E+00 0.  1.
<mgrwt>
<rscale>  0 0.11414252E+04</rscale>
<asrwt>0</asrwt>
<pdfrwt beam="1">  1        1 0.20404166E+00 0.11414252E+04</pdfrwt>
<pdfrwt beam="2">  1       -2 0.37782384E-01 0.11414252E+04</pdfrwt>
<totfact> 0.49905787E+01</totfact>
</mgrwt>
</event>
<event>
12    5  0.5297412E-008  0.1816436E+04  0.7818608E-02  0.8697607E-01
          1   -1    0    0  501    0  0.00000000000E+00  0.00000000000E+00  0.16085750027E+04  0.16085750027E+04  0.00000000000E+00 0. -1.
         -2   -1    0    0    0  501 -0.00000000000E+00 -0.00000000000E+00 -0.51278940854E+03  0.51278940854E+03  0.00000000000E+00 0.  1.
        -24    2    1    2    0    0  0.17270854533E+03  0.46685784321E+03 -0.13066809920E+03  0.52117197168E+03  0.82228854553E+02 0.  0.
        254    2    1    2    0    0 -0.17270854533E+03 -0.46685784321E+03  0.12264536934E+04  0.16001924396E+04  0.89924562510E+03 0.  0.
         23    2    4    4    0    0  0.29731442922E+03 -0.13190807695E+03  0.13665734330E+03  0.36358419315E+03  0.87878469732E+02 0.  0.
         23    2    4    4    0    0 -0.47002297455E+03 -0.33494976625E+03  0.10897963501E+04  0.12366082464E+04  0.91820084633E+02 0.  0.
          3    1    3    3  502    0  0.56965674526E+02  0.13628745967E+03 -0.77823151959E+02  0.16696048250E+03  0.00000000000E+00 0. -1.
         -4    1    3    3    0  502  0.11574287081E+03  0.33057038354E+03 -0.52844947244E+02  0.35421148918E+03  0.00000000000E+00 0.  1.
         13    1    5    5    0    0  0.17037159605E+03 -0.90066090707E+02  0.35491008691E+02  0.19595405873E+03  0.00000000000E+00 0.  1.
        -13    1    5    5    0    0  0.12694283317E+03 -0.41841986244E+02  0.10116633461E+03  0.16763013442E+03  0.00000000000E+00 0. -1.
          3    1    6    6  503    0 -0.20997343969E+03 -0.16778079585E+03  0.41594762990E+03  0.49522890834E+03  0.00000000000E+00 0. -1.
         -3    1    6    6    0  503 -0.26004953486E+03 -0.16716897040E+03  0.67384872019E+03  0.74137933809E+03  0.00000000000E+00 0.  1.
<mgrwt>
<rscale>  0 0.18164363E+04</rscale>
<asrwt>0</asrwt>
<pdfrwt beam="1">  1        1 0.24747308E+00 0.18164363E+04</pdfrwt>
<pdfrwt beam="2">  1       -2 0.78890679E-01 0.18164363E+04</pdfrwt>
<totfact> 0.64939811E+00</totfact>
</mgrwt>
</event>
<event>
12    5  0.5297412E-008  0.1882626E+04  0.7818608E-02  0.8663553E-01
          1   -1    0    0  501    0  0.00000000000E+00  0.00000000000E+00  0.11100802022E+04  0.11100802022E+04  0.00000000000E+00 0. -1.
         -2   -1    0    0    0  501 -0.00000000000E+00 -0.00000000000E+00 -0.79820386409E+03  0.79820386409E+03  0.00000000000E+00 0.  1.
        -24    2    1    2    0    0  0.40204083455E+03  0.19024078635E+03  0.70203243745E+03  0.83442533727E+03  0.74750992085E+02 0.  0.
        254    2    1    2    0    0 -0.40204083455E+03 -0.19024078635E+03 -0.39015609937E+03  0.10738587290E+04  0.89617096500E+03 0.  0.
         23    2    4    4    0    0  0.77092899477E+02 -0.33562974444E+03  0.96140505233E+02  0.36892125822E+03  0.90935457974E+02 0.  0.
         23    2    4    4    0    0 -0.47913373402E+03  0.14538895809E+03 -0.48629660460E+03  0.70493747076E+03  0.98718619446E+02 0.  0.
          1    1    3    3  502    0  0.40480780953E+03  0.18969203241E+03  0.69072853869E+03  0.82277478326E+03  0.00000000000E+00 0. -1.
         -2    1    3    3    0  502 -0.27669749871E+01  0.54875394073E+00  0.11303898764E+02  0.11650554010E+02  0.00000000000E+00 0.  1.
         13    1    5    5    0    0  0.21200467762E+02 -0.16845329988E+03  0.90869647550E+02  0.19257016103E+03  0.00000000000E+00 0.  1.
        -13    1    5    5    0    0  0.55892431715E+02 -0.16717644456E+03  0.52708576834E+01  0.17635109719E+03  0.00000000000E+00 0. -1.
          4    1    6    6  503    0 -0.92955116206E+02  0.70911244229E+02 -0.11834042435E+03  0.16635358194E+03  0.00000000000E+00 0. -1.
         -4    1    6    6    0  503 -0.38617861782E+03  0.74477713865E+02 -0.36795618025E+03  0.53858388883E+03  0.00000000000E+00 0.  1.
<mgrwt>
<rscale>  0 0.18826262E+04</rscale>
<asrwt>0</asrwt>
<pdfrwt beam="1">  1        1 0.17078157E+00 0.18826262E+04</pdfrwt>
<pdfrwt beam="2">  1       -2 0.12280059E+00 0.18826262E+04</pdfrwt>
<totfact> 0.51321062E+00</totfact>
</mgrwt>
</event>
<event>
12    5  0.5297412E-008  0.3182607E+04  0.7818608E-02  0.8193426E-01
          1   -1    0    0  501    0  0.00000000000E+00  0.00000000000E+00  0.25422329606E+04  0.25422329606E+04  0.00000000000E+00 0. -1.
         -2   -1    0    0    0  501 -0.00000000000E+00 -0.00000000000E+00 -0.99607220805E+03  0.99607220805E+03  0.00000000000E+00 0.  1.
        -24    2    1    2    0    0 -0.12621520640E+04  0.71559722812E+03  0.90001072288E+03  0.17092338536E+04  0.79710973584E+02 0.  0.
        254    2    1    2    0    0  0.12621520640E+04 -0.71559722812E+03  0.64615002972E+03  0.18290713151E+04  0.90712997372E+03 0.  0.
         23    2    4    4    0    0  0.32010570606E+03  0.20366536098E+03  0.16801827855E+03  0.42532342670E+03  0.93395037654E+02 0.  0.
         23    2    4    4    0    0  0.94204635797E+03 -0.91926258910E+03  0.47813175117E+03  0.14037478884E+04  0.96969657445E+02 0.  0.
          3    1    3    3  502    0 -0.82267720422E+03  0.42762204095E+03  0.59565556602E+03  0.11020271982E+04  0.00000000000E+00 0. -1.
         -4    1    3    3    0  502 -0.43947485981E+03  0.28797518717E+03  0.30435515686E+03  0.60720665538E+03  0.00000000000E+00 0.  1.
         13    1    5    5    0    0  0.22084443730E+03  0.13493333834E+03  0.16011788064E+03  0.30433042402E+03  0.00000000000E+00 0. -1.
        -13    1    5    5    0    0  0.99261268757E+02  0.68732022635E+02  0.79003979157E+01  0.12099300268E+03  0.00000000000E+00 0.  1.
          2    1    6    6  503    0  0.82235154735E+03 -0.83270148260E+03  0.44704021810E+03  0.12527963854E+04  0.00000000000E+00 0.  1.
         -2    1    6    6    0  503  0.11969481062E+03 -0.86561106498E+02  0.31091533072E+02  0.15095150306E+03  0.00000000000E+00 0. -1.
<mgrwt>
<rscale>  0 0.31826075E+04</rscale>
<asrwt>0</asrwt>
<pdfrwt beam="1">  1        1 0.39111276E+00 0.31826075E+04</pdfrwt>
<pdfrwt beam="2">  1       -2 0.15324188E+00 0.31826075E+04</pdfrwt>
<totfact> 0.26413347E-01</totfact>
</mgrwt>
</event>
<event>
12    5  0.5297412E-008  0.1986436E+04  0.7818608E-02  0.8612989E-01
         -2   -1    0    0    0  501 -0.00000000000E+00  0.00000000000E+00  0.85314128024E+03  0.85314128024E+03  0.00000000000E+00 0.  1.
          1   -1    0    0  501    0  0.00000000000E+00 -0.00000000000E+00 -0.11562934269E+04  0.11562934269E+04  0.00000000000E+00 0. -1.
        -24    2    1    2    0    0 -0.51342798439E+03  0.59407312357E+03 -0.68849974842E+02  0.79222938274E+03  0.79723927018E+02 0.  0.
        254    2    1    2    0    0  0.51342798439E+03 -0.59407312357E+03 -0.23430217181E+03  0.12172053244E+04  0.90008895266E+03 0.  0.
         23    2    4    4    0    0  0.24141806532E+03 -0.22062412799E+03 -0.55350248232E+03  0.64940191756E+03  0.91652411213E+02 0.  0.
         23    2    4    4    0    0  0.27200991907E+03 -0.37344899558E+03  0.31920031052E+03  0.56780340682E+03  0.84013821448E+02 0.  0.
          1    1    3    3  502    0 -0.50754295324E+02  0.89469972519E+02 -0.26964869285E+02  0.10633897993E+03  0.00000000000E+00 0. -1.
         -2    1    3    3    0  502 -0.46267368906E+03  0.50460315105E+03 -0.41885105557E+02  0.68589040281E+03  0.00000000000E+00 0.  1.
         13    1    5    5    0    0  0.13434505104E+03 -0.68992560002E+02 -0.20601665441E+03  0.25544359058E+03  0.00000000000E+00 0.  1.
        -13    1    5    5    0    0  0.10707301428E+03 -0.15163156799E+03 -0.34748582791E+03  0.39395832698E+03  0.00000000000E+00 0. -1.
          4    1    6    6  503    0  0.20969644460E+03 -0.22602576757E+03  0.22924049182E+03  0.38420235498E+03  0.00000000000E+00 0. -1.
         -4    1    6    6    0  503  0.62313474468E+02 -0.14742322801E+03  0.89959818700E+02  0.18360105184E+03  0.00000000000E+00 0.  1.
<mgrwt>
<rscale>  0 0.19864357E+04</rscale>
<asrwt>0</asrwt>
<pdfrwt beam="1">  1        1 0.17789130E+00 0.19864357E+04</pdfrwt>
<pdfrwt beam="2">  1       -2 0.13125250E+00 0.19864357E+04</pdfrwt>
<totfact> 0.39733131E+00</totfact>
</mgrwt>
</event>
<event>
12    5  0.5297412E-008  0.2460765E+04  0.7818608E-02  0.8417098E-01
         -2   -1    0    0    0  501 -0.00000000000E+00  0.00000000000E+00  0.46325343124E+03  0.46325343124E+03  0.00000000000E+00 0.  1.
          1   -1    0    0  501    0  0.00000000000E+00 -0.00000000000E+00 -0.32678464240E+04  0.32678464240E+04  0.00000000000E+00 0. -1.
        -24    2    1    2    0    0 -0.28291880291E+03 -0.38886761664E+02  0.33514280770E+03  0.44764224585E+03  0.80670003358E+02 0.  0.
        254    2    1    2    0    0  0.28291880291E+03  0.38886761664E+02 -0.31397358004E+04  0.32834576093E+04  0.91738636716E+03 0.  0.
         23    2    4    4    0    0 -0.30631749749E+03  0.13505683186E+03 -0.92031779847E+03  0.98334580042E+03  0.88957045385E+02 0.  0.
         23    2    4    4    0    0  0.58923630040E+03 -0.96170070191E+02 -0.22194180019E+04  0.23001118089E+04  0.90829323797E+02 0.  0.
          3    1    3    3  502    0 -0.23431300893E+01  0.10941323135E+02  0.78043898674E+01  0.13642261974E+02  0.00000000000E+00 0. -1.
         -4    1    3    3    0  502 -0.28057567282E+03 -0.49828084799E+02  0.32733841783E+03  0.43399998388E+03  0.00000000000E+00 0.  1.
         13    1    5    5    0    0 -0.22070961560E+03  0.12982237438E+03 -0.61416378922E+03  0.66540494685E+03  0.00000000000E+00 0.  1.
        -13    1    5    5    0    0 -0.85607881887E+02  0.52344574771E+01 -0.30615400925E+03  0.31794085357E+03  0.00000000000E+00 0. -1.
          1    1    6    6  503    0  0.29866306908E+02 -0.19611875386E+02 -0.83243266339E+02  0.90587324363E+02  0.00000000000E+00 0. -1.
         -1    1    6    6    0  503  0.55936999350E+03 -0.76558194805E+02 -0.21361747356E+04  0.22095244846E+04  0.00000000000E+00 0.  1.
<mgrwt>
<rscale>  0 0.24607650E+04</rscale>
<asrwt>0</asrwt>
<pdfrwt beam="1">  1        1 0.50274562E+00 0.24607650E+04</pdfrwt>
<pdfrwt beam="2">  1       -2 0.71269757E-01 0.24607650E+04</pdfrwt>
<totfact> 0.52950918E-01</totfact>
</mgrwt>
</event>
<event>
12    5  0.5297412E-008  0.1571035E+04  0.7818608E-02  0.8838543E-01
          1   -1    0    0  501    0  0.00000000000E+00  0.00000000000E+00  0.27883541978E+03  0.27883541978E+03  0.00000000000E+00 0. -1.
         -2   -1    0    0    0  501 -0.00000000000E+00 -0.00000000000E+00 -0.22129096655E+04  0.22129096655E+04  0.00000000000E+00 0.  1.
        -24    2    1    2    0    0 -0.44798737954E+03 -0.14386671744E+03 -0.29830447570E+03  0.56275685101E+03  0.79494581715E+02 0.  0.
        254    2    1    2    0    0  0.44798737954E+03  0.14386671744E+03 -0.16357697700E+04  0.19289882343E+04  0.90766874069E+03 0.  0.
         23    2    4    4    0    0  0.37686002778E+03  0.10678199775E+03 -0.17306165228E+04  0.17766807443E+04  0.90194472013E+02 0.  0.
         23    2    4    4    0    0  0.71127351756E+02  0.37084719690E+02  0.94846752757E+02  0.15230748994E+03  0.88132221011E+02 0.  0.
          1    1    3    3  502    0 -0.35991593602E+03 -0.14755825043E+03 -0.24636747898E+03  0.46044527684E+03  0.00000000000E+00 0. -1.
         -2    1    3    3    0  502 -0.88071443519E+02  0.36915329922E+01 -0.51936996727E+02  0.10231157417E+03  0.00000000000E+00 0.  1.
         13    1    5    5    0    0  0.30028455291E+03  0.94611536960E+02 -0.12084471137E+04  0.12487860434E+04  0.00000000000E+00 0. -1.
        -13    1    5    5    0    0  0.76575474871E+02  0.12170460787E+02 -0.52216940910E+03  0.52789470092E+03  0.00000000000E+00 0.  1.
          3    1    6    6  503    0  0.62469843197E+01  0.25854495451E+01  0.76195710438E+02  0.76495069460E+02  0.00000000000E+00 0. -1.
         -3    1    6    6    0  503  0.64880367436E+02  0.34499270145E+02  0.18651042319E+02  0.75812420478E+02  0.00000000000E+00 0.  1.
<mgrwt>
<rscale>  0 0.15710348E+04</rscale>
<asrwt>0</asrwt>
<pdfrwt beam="1">  1        1 0.42897756E-01 0.15710348E+04</pdfrwt>
<pdfrwt beam="2">  1       -2 0.34044765E+00 0.15710348E+04</pdfrwt>
<totfact> 0.14555636E+00</totfact>
</mgrwt>
</event>
<event>
12    5  0.5297412E-008  0.2255516E+04  0.7818608E-02  0.8495670E-01
          1   -1    0    0  501    0  0.00000000000E+00  0.00000000000E+00  0.20275524480E+04  0.20275524480E+04  0.00000000000E+00 0. -1.
         -2   -1    0    0    0  501 -0.00000000000E+00 -0.00000000000E+00 -0.62727765240E+03  0.62727765240E+03  0.00000000000E+00 0.  1.
        -24    2    1    2    0    0 -0.25075620401E+03  0.87457209507E+03  0.33699937951E+03  0.97363802437E+03  0.81531572886E+02 0.  0.
        254    2    1    2    0    0  0.25075620401E+03 -0.87457209507E+03  0.10632754160E+04  0.16811920760E+04  0.93171731909E+03 0.  0.
         23    2    4    4    0    0 -0.11304353496E+03 -0.91029901941E+03  0.80332910468E+03  0.12231615205E+04  0.96764193879E+02 0.  0.
         23    2    4    4    0    0  0.36379973897E+03  0.35726924336E+02  0.25994631136E+03  0.45803055551E+03  0.92699740019E+02 0.  0.
          1    1    3    3  502    0 -0.16868551629E+03  0.51693887060E+03  0.16390921824E+03  0.56793206563E+03  0.00000000000E+00 0. -1.
         -2    1    3    3    0  502 -0.82070687713E+02  0.35763322447E+03  0.17309016127E+03  0.40570595874E+03  0.00000000000E+00 0.  1.
         13    1    5    5    0    0  0.11142086328E+02 -0.19127253115E+03  0.19201970153E+03  0.27125798244E+03  0.00000000000E+00 0. -1.
        -13    1    5    5    0    0 -0.12418562129E+03 -0.71902648826E+03  0.61130940315E+03  0.95190353804E+03  0.00000000000E+00 0.  1.
          4    1    6    6  503    0  0.13704781568E+03  0.56976416818E+02  0.11862995030E+03  0.19000389724E+03  0.00000000000E+00 0. -1.
         -4    1    6    6    0  503  0.22675192329E+03 -0.21249492482E+02  0.14131636106E+03  0.26802665828E+03  0.00000000000E+00 0.  1.
<mgrwt>
<rscale>  0 0.22555162E+04</rscale>
<asrwt>0</asrwt>
<pdfrwt beam="1">  1        1 0.31193114E+00 0.22555162E+04</pdfrwt>
<pdfrwt beam="2">  1       -2 0.96504255E-01 0.22555162E+04</pdfrwt>
<totfact> 0.20437913E+00</totfact>
</mgrwt>
</event>
<event>
12    5  0.5297412E-008  0.1287999E+04  0.7818608E-02  0.9039137E-01
         -2   -1    0    0    0  501 -0.00000000000E+00  0.00000000000E+00  0.21331768312E+03  0.21331768312E+03  0.00000000000E+00 0.  1.
          1   -1    0    0  501    0  0.00000000000E+00 -0.00000000000E+00 -0.19442142426E+04  0.19442142426E+04  0.00000000000E+00 0. -1.
        -24    2    1    2    0    0  0.31428077451E+03 -0.45107885522E+02 -0.53636338827E+03  0.62854527654E+03  0.81094721315E+02 0.  0.
        254    2    1    2    0    0 -0.31428077451E+03  0.45107885522E+02 -0.11945331712E+04  0.15289866492E+04  0.90004641530E+03 0.  0.
         23    2    4    4    0    0  0.69786926089E+02 -0.33061145853E+03 -0.74498223971E+03  0.82352783126E+03  0.95002104298E+02 0.  0.
         23    2    4    4    0    0 -0.38406770060E+03  0.37571934405E+03 -0.44955093151E+03  0.70545881793E+03  0.83084773817E+02 0.  0.
          1    1    3    3  502    0  0.13194501315E+03  0.10762998565E+02 -0.27279976012E+03  0.30322440165E+03  0.00000000000E+00 0. -1.
         -2    1    3    3    0  502  0.18233576135E+03 -0.55870884088E+02 -0.26356362815E+03  0.32532087489E+03  0.00000000000E+00 0.  1.
         13    1    5    5    0    0  0.42694215398E+02 -0.18619679610E+03 -0.52783981388E+03  0.56134384474E+03  0.00000000000E+00 0.  1.
        -13    1    5    5    0    0  0.27092710691E+02 -0.14441466242E+03 -0.21714242582E+03  0.26218398652E+03  0.00000000000E+00 0. -1.
          4    1    6    6  503    0 -0.36988748310E+02  0.22589188863E+02 -0.66802655092E+02  0.79630607698E+02  0.00000000000E+00 0. -1.
         -4    1    6    6    0  503 -0.34707895229E+03  0.35313015518E+03 -0.38274827642E+03  0.62582821023E+03  0.00000000000E+00 0.  1.
<mgrwt>
<rscale>  0 0.12879989E+04</rscale>
<asrwt>0</asrwt>
<pdfrwt beam="1">  1        1 0.29910988E+00 0.12879989E+04</pdfrwt>
<pdfrwt beam="2">  1       -2 0.32818106E-01 0.12879989E+04</pdfrwt>
<totfact> 0.24335239E+01</totfact>
</mgrwt>
</event>
<event>
12    5  0.5297412E-008  0.1627225E+04  0.7818608E-02  0.8803995E-01
          1   -1    0    0  501    0  0.00000000000E+00  0.00000000000E+00  0.23267930284E+04  0.23267930284E+04  0.00000000000E+00 0. -1.
         -2   -1    0    0    0  501 -0.00000000000E+00 -0.00000000000E+00 -0.28449689550E+03  0.28449689550E+03  0.00000000000E+00 0.  1.
        -24    2    1    2    0    0  0.28560390341E+03  0.45527981793E+03  0.10063083977E+04  0.11436316769E+04  0.79921955211E+02 0.  0.
        254    2    1    2    0    0 -0.28560390341E+03 -0.45527981793E+03  0.10359877352E+04  0.14676582469E+04  0.88988810540E+03 0.  0.
         23    2    4    4    0    0 -0.53748100861E+03 -0.45614171170E+03  0.50199861322E+03  0.87013927646E+03  0.90491198439E+02 0.  0.
         23    2    4    4    0    0  0.25187710519E+03  0.86189376736E+00  0.53398912194E+03  0.59751897048E+03  0.91878826462E+02 0.  0.
          1    1    3    3  502    0  0.36104166729E+02  0.22579019785E+02  0.10241694814E+03  0.11091687994E+03  0.00000000000E+00 0. -1.
         -2    1    3    3    0  502  0.24949973668E+03  0.43270079814E+03  0.90389144955E+03  0.10327147970E+04  0.00000000000E+00 0.  1.
         13    1    5    5    0    0 -0.13262141013E+03 -0.67731131568E+02  0.89129526875E+02  0.17355119467E+03  0.00000000000E+00 0. -1.
        -13    1    5    5    0    0 -0.40485959847E+03 -0.38841058013E+03  0.41286908635E+03  0.69658808179E+03  0.00000000000E+00 0.  1.
          1    1    6    6  503    0  0.80535380395E+02 -0.21799070780E+02  0.26469727980E+03  0.27753521743E+03  0.00000000000E+00 0. -1.
         -1    1    6    6    0  503  0.17134172480E+03  0.22660964547E+02  0.26929184215E+03  0.31998375305E+03  0.00000000000E+00 0.  1.
<mgrwt>
<rscale>  0 0.16272251E+04</rscale>
<asrwt>0</asrwt>
<pdfrwt beam="1">  1        1 0.35796815E+00 0.16272251E+04</pdfrwt>
<pdfrwt beam="2">  1       -2 0.43768755E-01 0.16272251E+04</pdfrwt>
<totfact> 0.74331729E+00</totfact>
</mgrwt>
</event>
<event>
12    5  0.5297412E-008  0.1806831E+04  0.7818608E-02  0.8702675E-01
         -4   -1    0    0    0  501 -0.00000000000E+00  0.00000000000E+00  0.31835812089E+03  0.31835812089E+03  0.00000000000E+00 0.  1.
          1   -1    0    0  501    0  0.00000000000E+00 -0.00000000000E+00 -0.25636520895E+04  0.25636520895E+04  0.00000000000E+00 0. -1.
        -24    2    1    2    0    0  0.16529340613E+03 -0.47599761504E+03 -0.15522925303E+04  0.16346269208E+04  0.92181509508E+02 0.  0.
        254    2    1    2    0    0 -0.16529340613E+03  0.47599761504E+03 -0.69300143827E+03  0.12473832896E+04  0.90654202229E+03 0.  0.
         23    2    4    4    0    0 -0.20064381360E+03  0.26416204597E+02  0.16279344641E+03  0.27556421281E+03  0.92076997045E+02 0.  0.
         23    2    4    4    0    0  0.35350407462E+02  0.44958141044E+03 -0.85579488468E+03  0.97181907682E+03  0.93136123510E+02 0.  0.
          3    1    3    3  502    0  0.52143481506E+02 -0.27754198854E+03 -0.91770882578E+03  0.96017601875E+03  0.00000000000E+00 0. -1.
         -4    1    3    3    0  502  0.11314992463E+03 -0.19845562650E+03 -0.63458370456E+03  0.67445090201E+03  0.00000000000E+00 0.  1.
         13    1    5    5    0    0 -0.12833508358E+03  0.96992825977E+01  0.15420029028E+03  0.20085243161E+03  0.00000000000E+00 0.  1.
        -13    1    5    5    0    0 -0.72308730014E+02  0.16716921999E+02  0.85931561346E+01  0.74711781198E+02  0.00000000000E+00 0. -1.
          3    1    6    6  503    0  0.50068207876E+02  0.12897202238E+03 -0.22661934452E+03  0.26551258973E+03  0.00000000000E+00 0. -1.
         -3    1    6    6    0  503 -0.14717800414E+02  0.32060938807E+03 -0.62917554017E+03  0.70630648709E+03  0.00000000000E+00 0.  1.
<mgrwt>
<rscale>  0 0.18068309E+04</rscale>
<asrwt>0</asrwt>
<pdfrwt beam="1">  1        1 0.39440802E+00 0.18068309E+04</pdfrwt>
<pdfrwt beam="2">  1       -4 0.48978172E-01 0.18068309E+04</pdfrwt>
<totfact> 0.23099496E+00</totfact>
</mgrwt>
</event>
<event>
12    5  0.5297412E-008  0.1790016E+04  0.7818608E-02  0.8711627E-01
          1   -1    0    0  501    0  0.00000000000E+00  0.00000000000E+00  0.10874820698E+04  0.10874820698E+04  0.00000000000E+00 0. -1.
         -2   -1    0    0    0  501 -0.00000000000E+00 -0.00000000000E+00 -0.73659993578E+03  0.73659993578E+03  0.00000000000E+00 0.  1.
        -24    2    1    2    0    0 -0.40484209191E+02 -0.12173308994E+03 -0.47261485216E+03  0.49686043946E+03  0.83949874531E+02 0.  0.
        254    2    1    2    0    0  0.40484209191E+02  0.12173308994E+03  0.82349698614E+03  0.13272215661E+04  0.10329142670E+04 0.  0.
         23    2    4    4    0    0  0.46461631736E+03  0.10476256273E+03  0.74075349823E+03  0.88545069277E+03  0.91998191713E+02 0.  0.
         23    2    4    4    0    0 -0.42413210817E+03  0.16970527217E+02  0.82743487908E+02  0.44177087331E+03  0.90216272057E+02 0.  0.
          3    1    3    3  502    0 -0.47794879913E+02 -0.22150836169E+02 -0.14006226572E+03  0.14964106511E+03  0.00000000000E+00 0. -1.
         -4    1    3    3    0  502  0.73106707214E+01 -0.99582253775E+02 -0.33255258644E+03  0.34721937435E+03  0.00000000000E+00 0.  1.
         13    1    5    5    0    0  0.43228407637E+03  0.85930424517E+02  0.63251398419E+03  0.77092639125E+03  0.00000000000E+00 0.  1.
        -13    1    5    5    0    0  0.32332240991E+02  0.18832138211E+02  0.10823951405E+03  0.11452430152E+03  0.00000000000E+00 0. -1.
          2    1    6    6  503    0 -0.25938937261E+03 -0.20817516148E+02  0.81697624752E+02  0.27274661775E+03  0.00000000000E+00 0.  1.
         -2    1    6    6    0  503 -0.16474273556E+03  0.37788043366E+02  0.10458631562E+01  0.16902425557E+03  0.00000000000E+00 0. -1.
<mgrwt>
<rscale>  0 0.17900159E+04</rscale>
<asrwt>0</asrwt>
<pdfrwt beam="1">  1        1 0.16730493E+00 0.17900159E+04</pdfrwt>
<pdfrwt beam="2">  1       -2 0.11332307E+00 0.17900159E+04</pdfrwt>
<totfact> 0.65584129E+00</totfact>
</mgrwt>
</event>
<event>
12    5  0.5297412E-008  0.1849556E+04  0.7818608E-02  0.8680381E-01
          1   -1    0    0  501    0  0.00000000000E+00  0.00000000000E+00  0.34167066242E+03  0.34167066242E+03  0.00000000000E+00 0. -1.
         -2   -1    0    0    0  501 -0.00000000000E+00 -0.00000000000E+00 -0.25030369309E+04  0.25030369309E+04  0.00000000000E+00 0.  1.
        -24    2    1    2    0    0  0.87383711773E+02  0.15585574041E+03 -0.18927702933E+04  0.19026879235E+04  0.75597791794E+02 0.  0.
        254    2    1    2    0    0 -0.87383711773E+02 -0.15585574041E+03 -0.26859597518E+03  0.94201966982E+03  0.88505950961E+03 0.  0.
         23    2    4    4    0    0 -0.43702699771E+03 -0.95480915554E+02  0.45847000802E+02  0.45939254100E+03  0.93969980745E+02 0.  0.
         23    2    4    4    0    0  0.34964328594E+03 -0.60374824858E+02 -0.31444297599E+03  0.48262712882E+03  0.90327257529E+02 0.  0.
          3    1    3    3  502    0  0.40744471407E+02  0.53396546856E+02 -0.39297488812E+03  0.39867350785E+03  0.00000000000E+00 0. -1.
         -4    1    3    3    0  502  0.46639240366E+02  0.10245919355E+03 -0.14997954052E+04  0.15040144157E+04  0.00000000000E+00 0.  1.
         13    1    5    5    0    0 -0.18187072002E+03 -0.77393444065E+02 -0.87014291196E+01  0.19784443094E+03  0.00000000000E+00 0. -1.
        -13    1    5    5    0    0 -0.25515627769E+03 -0.18087471489E+02  0.54548429922E+02  0.26154811006E+03  0.00000000000E+00 0.  1.
          2    1    6    6  503    0  0.23145683249E+03 -0.55338893407E+01 -0.16465392034E+03  0.28410174713E+03  0.00000000000E+00 0. -1.
         -2    1    6    6    0  503  0.11818645345E+03 -0.54840935517E+02 -0.14978905564E+03  0.19852538169E+03  0.00000000000E+00 0.  1.
<mgrwt>
<rscale>  0 0.18495559E+04</rscale>
<asrwt>0</asrwt>
<pdfrwt beam="1">  1        1 0.52564716E-01 0.18495559E+04</pdfrwt>
<pdfrwt beam="2">  1       -2 0.38508262E+00 0.18495559E+04</pdfrwt>
<totfact> 0.56611276E-01</totfact>
</mgrwt>
</event>
<event>
12    5  0.5297412E-008  0.1583281E+04  0.7818608E-02  0.8830886E-01
         -2   -1    0    0    0  501 -0.00000000000E+00  0.00000000000E+00  0.12776063929E+04  0.12776063929E+04  0.00000000000E+00 0.  1.
          1   -1    0    0  501    0  0.00000000000E+00 -0.00000000000E+00 -0.49052224052E+03  0.49052224052E+03  0.00000000000E+00 0. -1.
        -24    2    1    2    0    0  0.35685161572E+03 -0.39214873577E+03  0.25560899354E+03  0.59404285968E+03  0.80170162472E+02 0.  0.
        254    2    1    2    0    0 -0.35685161572E+03  0.39214873577E+03  0.53147515887E+03  0.11740857738E+04  0.90271138969E+03 0.  0.
         23    2    4    4    0    0 -0.39991201824E+03  0.64150447944E+03  0.47975964238E+03  0.89975276692E+03  0.89039921694E+02 0.  0.
         23    2    4    4    0    0  0.43060402525E+02 -0.24935574367E+03  0.51715516496E+02  0.27433300685E+03  0.92474963287E+02 0.  0.
          3    1    3    3  502    0  0.20388777035E+03 -0.25557071093E+03  0.12032755420E+03  0.34837527392E+03  0.00000000000E+00 0. -1.
         -4    1    3    3    0  502  0.15296384537E+03 -0.13657802484E+03  0.13528143934E+03  0.24566758576E+03  0.00000000000E+00 0.  1.
         13    1    5    5    0    0 -0.26624800970E+03  0.39281703081E+03  0.25392846224E+03  0.53821267758E+03  0.00000000000E+00 0. -1.
        -13    1    5    5    0    0 -0.13366400854E+03  0.24868744862E+03  0.22583118013E+03  0.36154008935E+03  0.00000000000E+00 0.  1.
          2    1    6    6  503    0  0.12511921805E+02 -0.96873088214E+02  0.66428842915E+02  0.11812592678E+03  0.00000000000E+00 0.  1.
         -2    1    6    6    0  503  0.30548480720E+02 -0.15248265546E+03 -0.14713326419E+02  0.15620708007E+03  0.00000000000E+00 0. -1.
<mgrwt>
<rscale>  0 0.15832806E+04</rscale>
<asrwt>0</asrwt>
<pdfrwt beam="1">  1        1 0.75464961E-01 0.15832806E+04</pdfrwt>
<pdfrwt beam="2">  1       -2 0.19655483E+00 0.15832806E+04</pdfrwt>
<totfact> 0.53550894E+00</totfact>
</mgrwt>
</event>
<event>
12    5  0.5297412E-008  0.1284992E+04  0.7818608E-02  0.9041552E-01
          1   -1    0    0  501    0  0.00000000000E+00  0.00000000000E+00  0.70902654622E+03  0.70902654622E+03  0.00000000000E+00 0. -1.
         -2   -1    0    0    0  501 -0.00000000000E+00 -0.00000000000E+00 -0.58220847027E+03  0.58220847027E+03  0.00000000000E+00 0.  1.
        -24    2    1    2    0    0 -0.15111525806E+03 -0.17623926125E+03 -0.18871953460E+03  0.30955519724E+03  0.79456019116E+02 0.  0.
        254    2    1    2    0    0  0.15111525806E+03  0.17623926125E+03  0.31553761055E+03  0.98167981925E+03  0.90013064909E+03 0.  0.
         23    2    4    4    0    0  0.69355930556E+02  0.39446741226E+03  0.51698858335E+03  0.66015604335E+03  0.90077865336E+02 0.  0.
         23    2    4    4    0    0  0.81759327499E+02 -0.21822815101E+03 -0.20145097280E+03  0.32152377590E+03  0.92124538005E+02 0.  0.
          3    1    3    3  502    0 -0.30259661940E+02  0.13507076751E+01 -0.18660671234E+02  0.35576568171E+02  0.00000000000E+00 0. -1.
         -4    1    3    3    0  502 -0.12085559612E+03 -0.17758996893E+03 -0.17005886337E+03  0.27397862907E+03  0.00000000000E+00 0.  1.
         13    1    5    5    0    0 -0.98435539956E+01  0.71798924310E+01  0.33434038564E+02  0.35584847130E+02  0.00000000000E+00 0.  1.
        -13    1    5    5    0    0  0.79199484552E+02  0.38728751983E+03  0.48355454479E+03  0.62457119622E+03  0.00000000000E+00 0. -1.
          2    1    6    6  503    0  0.84994538961E+02 -0.20329189776E+03 -0.14677906578E+03  0.26475604148E+03  0.00000000000E+00 0. -1.
         -2    1    6    6    0  503 -0.32352114621E+01 -0.14936253246E+02 -0.54671907019E+02  0.56767734422E+02  0.00000000000E+00 0.  1.
<mgrwt>
<rscale>  0 0.12849922E+04</rscale>
<asrwt>0</asrwt>
<pdfrwt beam="1">  1        1 0.10908101E+00 0.12849922E+04</pdfrwt>
<pdfrwt beam="2">  1       -2 0.89570533E-01 0.12849922E+04</pdfrwt>
<totfact> 0.24594523E+01</totfact>
</mgrwt>
</event>
<event>
12    5  0.5297412E-008  0.1036142E+04  0.7818608E-02  0.9269769E-01
         -2   -1    0    0    0  501 -0.00000000000E+00  0.00000000000E+00  0.26521031450E+03  0.26521031450E+03  0.00000000000E+00 0.  1.
          1   -1    0    0  501    0  0.00000000000E+00 -0.00000000000E+00 -0.10120180325E+04  0.10120180325E+04  0.00000000000E+00 0. -1.
        -24    2    1    2    0    0  0.11033632311E+02  0.40672597304E+01 -0.21662678838E+03  0.23118280080E+03  0.79875141930E+02 0.  0.
        254    2    1    2    0    0 -0.11033632311E+02 -0.40672597304E+01 -0.53018092957E+03  0.10460455462E+04  0.90165469161E+03 0.  0.
         23    2    4    4    0    0 -0.15548165134E+03  0.11467457746E+03  0.19619142194E+03  0.29081481776E+03  0.93580882488E+02 0.  0.
         23    2    4    4    0    0  0.14444801903E+03 -0.11874183719E+03 -0.72637235151E+03  0.75523072839E+03  0.88271206937E+02 0.  0.
          3    1    3    3  502    0  0.46216135721E+01  0.55632088945E+01 -0.22234472772E+03  0.22246232613E+03  0.00000000000E+00 0. -1.
         -2    1    3    3    0  502  0.64120187386E+01 -0.14959491641E+01  0.57179393351E+01  0.87204746686E+01  0.00000000000E+00 0.  1.
         13    1    5    5    0    0 -0.72418168342E+01  0.20098239021E+02 -0.66428887059E+01  0.22372105246E+02  0.00000000000E+00 0.  1.
        -13    1    5    5    0    0 -0.14823983450E+03  0.94576338440E+02  0.20283431064E+03  0.26844271251E+03  0.00000000000E+00 0. -1.
          4    1    6    6  503    0  0.13278270338E+03 -0.11234056324E+03 -0.71955897922E+03  0.74028154985E+03  0.00000000000E+00 0. -1.
         -4    1    6    6    0  503  0.11665315642E+02 -0.64012739550E+01 -0.68133722861E+01  0.14949178545E+02  0.00000000000E+00 0.  1.
<mgrwt>
<rscale>  0 0.10361421E+04</rscale>
<asrwt>0</asrwt>
<pdfrwt beam="1">  1        1 0.15569508E+00 0.10361421E+04</pdfrwt>
<pdfrwt beam="2">  1       -2 0.40801586E-01 0.10361421E+04</pdfrwt>
<totfact> 0.73846338E+01</totfact>
</mgrwt>
</event>
<event>
12    5  0.5297412E-008  0.2395479E+04  0.7818608E-02  0.8441198E-01
          1   -1    0    0  501    0  0.00000000000E+00  0.00000000000E+00  0.23404686375E+04  0.23404686375E+04  0.00000000000E+00 0. -1.
         -2   -1    0    0    0  501 -0.00000000000E+00 -0.00000000000E+00 -0.61294557097E+03  0.61294557097E+03  0.00000000000E+00 0.  1.
        -24    2    1    2    0    0  0.34178405009E+03  0.36179660005E+02 -0.45005435724E+03  0.57175738692E+03  0.78944792896E+02 0.  0.
        254    2    1    2    0    0 -0.34178405009E+03 -0.36179660005E+02  0.21775774238E+04  0.23816568216E+04  0.90128823050E+03 0.  0.
         23    2    4    4    0    0 -0.11190392044E+02  0.79352718562E+01 -0.65615612311E+02  0.11207626484E+03  0.89819191423E+02 0.  0.
         23    2    4    4    0    0 -0.33059365805E+03 -0.44114931861E+02  0.22431930361E+04  0.22695805567E+04  0.88558524822E+02 0.  0.
          3    1    3    3  502    0  0.58860161603E+02  0.37356699899E+02 -0.87978662840E+02  0.11225099895E+03  0.00000000000E+00 0. -1.
         -4    1    3    3    0  502  0.28292388849E+03 -0.11770398939E+01 -0.36207569440E+03  0.45950638796E+03  0.00000000000E+00 0.  1.
         13    1    5    5    0    0  0.31159643379E+02  0.18814105523E+02 -0.56814518092E+02  0.67474316656E+02  0.00000000000E+00 0.  1.
        -13    1    5    5    0    0 -0.42350035423E+02 -0.10878833667E+02 -0.88010942184E+01  0.44601948183E+02  0.00000000000E+00 0. -1.
          2    1    6    6  503    0 -0.29930440547E+03 -0.66302964705E+02  0.20148424778E+04  0.20380307703E+04  0.00000000000E+00 0.  1.
         -2    1    6    6    0  503 -0.31289252573E+02  0.22188032843E+02  0.22835055833E+03  0.23154978648E+03  0.00000000000E+00 0. -1.
<mgrwt>
<rscale>  0 0.23954790E+04</rscale>
<asrwt>0</asrwt>
<pdfrwt beam="1">  1        1 0.36007209E+00 0.23954790E+04</pdfrwt>
<pdfrwt beam="2">  1       -2 0.94299320E-01 0.23954790E+04</pdfrwt>
<totfact> 0.13042482E+00</totfact>
</mgrwt>
</event>
<event>
12    5  0.5297412E-008  0.1052411E+04  0.7818608E-02  0.9252858E-01
          1   -1    0    0  501    0  0.00000000000E+00  0.00000000000E+00  0.23549318807E+04  0.23549318807E+04  0.00000000000E+00 0. -1.
         -2   -1    0    0    0  501 -0.00000000000E+00 -0.00000000000E+00 -0.11757971695E+03  0.11757971695E+03  0.00000000000E+00 0.  1.
        -24    2    1    2    0    0 -0.21114242649E+02 -0.74441430190E+02  0.20055465136E+03  0.22815510453E+03  0.76454207010E+02 0.  0.
        254    2    1    2    0    0  0.21114242649E+02  0.74441430190E+02  0.20367975124E+04  0.22443564931E+04  0.93947039545E+03 0.  0.
         23    2    4    4    0    0  0.27190344886E+03 -0.34097097542E+03  0.10808884457E+04  0.11693547972E+04  0.94223765255E+02 0.  0.
         23    2    4    4    0    0 -0.25078920621E+03  0.41541240561E+03  0.95590906667E+03  0.10750016960E+04  0.80023808301E+02 0.  0.
          3    1    3    3  502    0 -0.49121997956E+02 -0.38483192530E+02  0.10204890282E+03  0.11961565682E+03  0.00000000000E+00 0. -1.
         -4    1    3    3    0  502  0.28007755307E+02 -0.35958237660E+02  0.98505748547E+02  0.10853944771E+03  0.00000000000E+00 0.  1.
         13    1    5    5    0    0  0.59795278120E+02 -0.54728697717E+02  0.30490413838E+03  0.31549522855E+03  0.00000000000E+00 0. -1.
        -13    1    5    5    0    0  0.21210817074E+03 -0.28624227771E+03  0.77598430734E+03  0.85385956860E+03  0.00000000000E+00 0.  1.
          2    1    6    6  503    0 -0.18707459197E+03  0.29546008945E+03  0.60612101707E+03  0.69976871518E+03  0.00000000000E+00 0. -1.
         -2    1    6    6    0  503 -0.63714614238E+02  0.11995231617E+03  0.34978804961E+03  0.37523298079E+03  0.00000000000E+00 0.  1.
<mgrwt>
<rscale>  0 0.10524110E+04</rscale>
<asrwt>0</asrwt>
<pdfrwt beam="1">  1        1 0.36229718E+00 0.10524110E+04</pdfrwt>
<pdfrwt beam="2">  1       -2 0.18089189E-01 0.10524110E+04</pdfrwt>
<totfact> 0.38453419E+01</totfact>
</mgrwt>
</event>
<event>
12    5  0.5297412E-008  0.1280440E+04  0.7818608E-02  0.9045222E-01
          1   -1    0    0  501    0  0.00000000000E+00  0.00000000000E+00  0.33366804639E+03  0.33366804639E+03  0.00000000000E+00 0. -1.
         -2   -1    0    0    0  501 -0.00000000000E+00 -0.00000000000E+00 -0.12284111936E+04  0.12284111936E+04  0.00000000000E+00 0.  1.
        -24    2    1    2    0    0 -0.27290938322E+03  0.12906088224E+03 -0.12743944036E+03  0.33746643118E+03  0.80663116971E+02 0.  0.
        254    2    1    2    0    0  0.27290938322E+03 -0.12906088224E+03 -0.76730370683E+03  0.12246128088E+04  0.90541996341E+03 0.  0.
         23    2    4    4    0    0  0.18504120659E+03 -0.38443858408E+03 -0.35112473219E+02  0.43858953100E+03  0.95365705905E+02 0.  0.
         23    2    4    4    0    0  0.87868176634E+02  0.25537770184E+03 -0.73219123361E+03  0.78602327778E+03  0.93755018941E+02 0.  0.
          1    1    3    3  502    0 -0.27755776475E+03  0.12962467738E+03 -0.12919748868E+03  0.33246482647E+03  0.00000000000E+00 0. -1.
         -2    1    3    3    0  502  0.46483815276E+01 -0.56379514553E+00  0.17580483161E+01  0.50016047099E+01  0.00000000000E+00 0.  1.
         13    1    5    5    0    0  0.11468054535E+03 -0.13228363494E+03 -0.22312669446E+02  0.17648921433E+03  0.00000000000E+00 0.  1.
        -13    1    5    5    0    0  0.70360661238E+02 -0.25215494914E+03 -0.12799803773E+02  0.26210031667E+03  0.00000000000E+00 0. -1.
          4    1    6    6  503    0  0.80455758260E+02  0.18707835976E+03 -0.42537061267E+03  0.47160534333E+03  0.00000000000E+00 0. -1.
         -4    1    6    6    0  503  0.74124183743E+01  0.68299342076E+02 -0.30682062093E+03  0.31441793445E+03  0.00000000000E+00 0.  1.
<mgrwt>
<rscale>  0 0.12804399E+04</rscale>
<asrwt>0</asrwt>
<pdfrwt beam="1">  1        1 0.51333545E-01 0.12804399E+04</pdfrwt>
<pdfrwt beam="2">  1       -2 0.18898634E+00 0.12804399E+04</pdfrwt>
<totfact> 0.10307136E+01</totfact>
</mgrwt>
</event>
<event>
12    5  0.5297412E-008  0.1504572E+04  0.7818608E-02  0.8881418E-01
          1   -1    0    0  501    0  0.00000000000E+00  0.00000000000E+00  0.23211458720E+04  0.23211458720E+04  0.00000000000E+00 0. -1.
         -2   -1    0    0    0  501 -0.00000000000E+00 -0.00000000000E+00 -0.24381688048E+03  0.24381688048E+03  0.00000000000E+00 0.  1.
        -24    2    1    2    0    0 -0.36539136151E+03  0.26761245629E+03  0.48348389324E+03  0.66672453182E+03  0.75084302537E+02 0.  0.
        254    2    1    2    0    0  0.36539136151E+03 -0.26761245629E+03  0.15938450983E+04  0.18982382207E+04  0.92619591409E+03 0.  0.
         23    2    4    4    0    0  0.46612988627E+03 -0.72178190112E+02  0.26554622718E+03  0.54881047436E+03  0.90506220795E+02 0.  0.
         23    2    4    4    0    0 -0.10073852476E+03 -0.19543426618E+03  0.13282988711E+04  0.13494277463E+04  0.90744414455E+02 0.  0.
          1    1    3    3  502    0 -0.32241629656E+02  0.20487808237E+01  0.25008784885E+02  0.40855348575E+02  0.00000000000E+00 0. -1.
         -2    1    3    3    0  502 -0.33314973185E+03  0.26556367547E+03  0.45847510835E+03  0.62586918325E+03  0.00000000000E+00 0.  1.
         13    1    5    5    0    0  0.45150912616E+03 -0.57530000404E+02  0.23591108165E+03  0.51266385712E+03  0.00000000000E+00 0. -1.
        -13    1    5    5    0    0  0.14620760111E+02 -0.14648189708E+02  0.29635145525E+02  0.36146617245E+02  0.00000000000E+00 0.  1.
          1    1    6    6  503    0 -0.50839292132E+02 -0.15568699488E+03  0.11093463561E+04  0.11213707735E+04  0.00000000000E+00 0. -1.
         -1    1    6    6    0  503 -0.49899232625E+02 -0.39747271293E+02  0.21895251505E+03  0.22805697279E+03  0.00000000000E+00 0.  1.
<mgrwt>
<rscale>  0 0.15045724E+04</rscale>
<asrwt>0</asrwt>
<pdfrwt beam="1">  1        1 0.35709935E+00 0.15045724E+04</pdfrwt>
<pdfrwt beam="2">  1       -2 0.37510291E-01 0.15045724E+04</pdfrwt>
<totfact> 0.10262885E+01</totfact>
</mgrwt>
</event>
<event>
12    5  0.5297412E-008  0.1184043E+04  0.7818608E-02  0.9126940E-01
          1   -1    0    0  501    0  0.00000000000E+00  0.00000000000E+00  0.30752742232E+04  0.30752742232E+04  0.00000000000E+00 0. -1.
         -2   -1    0    0    0  501 -0.00000000000E+00 -0.00000000000E+00 -0.11397007900E+03  0.11397007900E+03  0.00000000000E+00 0.  1.
        -24    2    1    2    0    0  0.21467785105E+03  0.14929041403E+02  0.30690750861E+03  0.38264215912E+03  0.76898290528E+02 0.  0.
        254    2    1    2    0    0 -0.21467785105E+03 -0.14929041403E+02  0.26543966356E+04  0.28066021431E+04  0.88593715042E+03 0.  0.
         23    2    4    4    0    0 -0.30992515525E+03  0.37603939994E+03  0.15804067570E+04  0.16562759607E+04  0.90029485080E+02 0.  0.
         23    2    4    4    0    0  0.95247304197E+02 -0.39096844135E+03  0.10739898787E+04  0.11503261825E+04  0.88700031128E+02 0.  0.
          1    1    3    3  502    0  0.13825660636E+03  0.12668179333E+02  0.25463932639E+03  0.29002854776E+03  0.00000000000E+00 0. -1.
         -2    1    3    3    0  502  0.76421244685E+02  0.22608620697E+01  0.52268182218E+02  0.92613611358E+02  0.00000000000E+00 0.  1.
         13    1    5    5    0    0 -0.19753266714E+03  0.17047143828E+03  0.80214500740E+03  0.84351424336E+03  0.00000000000E+00 0. -1.
        -13    1    5    5    0    0 -0.11239248811E+03  0.20556796166E+03  0.77826174958E+03  0.81276171730E+03  0.00000000000E+00 0.  1.
          3    1    6    6  503    0  0.14550775792E+02 -0.24280742450E+03  0.62111617298E+03  0.66704757762E+03  0.00000000000E+00 0.  1.
         -3    1    6    6    0  503  0.80696528405E+02 -0.14816101684E+03  0.45287370568E+03  0.48327860485E+03  0.00000000000E+00 0. -1.
<mgrwt>
<rscale>  0 0.11840426E+04</rscale>
<asrwt>0</asrwt>
<pdfrwt beam="1">  1        1 0.47311905E+00 0.11840426E+04</pdfrwt>
<pdfrwt beam="2">  1       -2 0.17533861E-01 0.11840426E+04</pdfrwt>
<totfact> 0.12497115E+01</totfact>
</mgrwt>
</event>
<event>
12    5  0.5297412E-008  0.1768917E+04  0.7818608E-02  0.8723006E-01
          1   -1    0    0  501    0  0.00000000000E+00  0.00000000000E+00  0.47096023554E+03  0.47096023554E+03  0.00000000000E+00 0. -1.
         -2   -1    0    0    0  501 -0.00000000000E+00 -0.00000000000E+00 -0.16610034221E+04  0.16610034221E+04  0.00000000000E+00 0.  1.
        -24    2    1    2    0    0 -0.56326086705E+03 -0.22356984909E+03 -0.14717288223E+03  0.62892645263E+03  0.81500575348E+02 0.  0.
        254    2    1    2    0    0  0.56326086705E+03  0.22356984909E+03 -0.10428703043E+04  0.15030372050E+04  0.89682556061E+03 0.  0.
         23    2    4    4    0    0  0.72739237174E+03  0.12503219387E+03 -0.10552808652E+04  0.12909904896E+04  0.91137412291E+02 0.  0.
         23    2    4    4    0    0 -0.16413150469E+03  0.98537655220E+02  0.12410560874E+02  0.21204671536E+03  0.90338071406E+02 0.  0.
          3    1    3    3  502    0 -0.52164967904E+03 -0.19202284914E+03 -0.11514931793E+03  0.56767114394E+03  0.00000000000E+00 0. -1.
         -4    1    3    3    0  502 -0.41611188009E+02 -0.31546999942E+02 -0.32023564294E+02  0.61255308692E+02  0.00000000000E+00 0.  1.
         13    1    5    5    0    0  0.27348295105E+03  0.12507243544E+02 -0.43891235024E+03  0.51729431357E+03  0.00000000000E+00 0.  1.
        -13    1    5    5    0    0  0.45390942069E+03  0.11252495032E+03 -0.61636851492E+03  0.77369617604E+03  0.00000000000E+00 0. -1.
          1    1    6    6  503    0 -0.12701665606E+03  0.45691506014E+02  0.41499472801E+02  0.14122022122E+03  0.00000000000E+00 0. -1.
         -1    1    6    6    0  503 -0.37114848623E+02  0.52846149206E+02 -0.29088911927E+02  0.70826494134E+02  0.00000000000E+00 0.  1.
<mgrwt>
<rscale>  0 0.17689167E+04</rscale>
<asrwt>0</asrwt>
<pdfrwt beam="1">  1        1 0.72455420E-01 0.17689167E+04</pdfrwt>
<pdfrwt beam="2">  1       -2 0.25553899E+00 0.17689167E+04</pdfrwt>
<totfact> 0.23672031E+00</totfact>
</mgrwt>
</event>
<event>
12    5  0.5297412E-008  0.1599141E+04  0.7818608E-02  0.8821076E-01
         -2   -1    0    0    0  501 -0.00000000000E+00  0.00000000000E+00  0.44853225260E+03  0.44853225260E+03  0.00000000000E+00 0.  1.
          1   -1    0    0  501    0  0.00000000000E+00 -0.00000000000E+00 -0.14253441581E+04  0.14253441581E+04  0.00000000000E+00 0. -1.
        -24    2    1    2    0    0  0.39792304563E+03  0.97670761537E+02 -0.85875608549E+03  0.95491849471E+03  0.80777405649E+02 0.  0.
        254    2    1    2    0    0 -0.39792304563E+03 -0.97670761537E+02 -0.11805582005E+03  0.91895791602E+03  0.81404185818E+03 0.  0.
         23    2    4    4    0    0 -0.61264416390E+03 -0.11444441961E+03  0.48014245029E+02  0.63170574520E+03  0.91194210607E+02 0.  0.
         23    2    4    4    0    0  0.21472111827E+03  0.16773658072E+02 -0.16607006508E+03  0.28725217083E+03  0.92455550916E+02 0.  0.
          1    1    3    3  502    0  0.44023980562E+02 -0.71173533633E+01 -0.57716713498E+02  0.72938238260E+02  0.00000000000E+00 0. -1.
         -2    1    3    3    0  502  0.35389906507E+03  0.10478811490E+03 -0.80103937199E+03  0.88198025645E+03  0.00000000000E+00 0.  1.
         13    1    5    5    0    0 -0.13198384471E+03 -0.23959944396E+02  0.48390869757E+02  0.14260256126E+03  0.00000000000E+00 0. -1.
        -13    1    5    5    0    0 -0.48066031919E+03 -0.90484475213E+02 -0.37662472786E+00  0.48910318394E+03  0.00000000000E+00 0.  1.
          4    1    6    6  503    0 -0.49339613216E+00 -0.11869676650E+02 -0.26787956747E+02  0.29304049041E+02  0.00000000000E+00 0. -1.
         -4    1    6    6    0  503  0.21521451440E+03  0.28643334723E+02 -0.13928210833E+03  0.25794812179E+03  0.00000000000E+00 0.  1.
<mgrwt>
<rscale>  0 0.15991408E+04</rscale>
<asrwt>0</asrwt>
<pdfrwt beam="1">  1        1 0.21928372E+00 0.15991408E+04</pdfrwt>
<pdfrwt beam="2">  1       -2 0.69004962E-01 0.15991408E+04</pdfrwt>
<totfact> 0.11908240E+01</totfact>
</mgrwt>
</event>
<event>
12    5  0.5297412E-008  0.3140867E+04  0.7818608E-02  0.8204611E-01
         -2   -1    0    0    0  501 -0.00000000000E+00  0.00000000000E+00  0.72832918689E+03  0.72832918689E+03  0.00000000000E+00 0.  1.
          1   -1    0    0  501    0  0.00000000000E+00 -0.00000000000E+00 -0.33861898249E+04  0.33861898249E+04  0.00000000000E+00 0. -1.
        -24    2    1    2    0    0 -0.73642434527E+03  0.12324047355E+04 -0.13554157757E+04  0.19759774925E+04  0.78694838456E+02 0.  0.
        254    2    1    2    0    0  0.73642434527E+03 -0.12324047355E+04 -0.13024448623E+04  0.21385415192E+04  0.90324689967E+03 0.  0.
         23    2    4    4    0    0 -0.19708664249E+03 -0.16270586003E+03 -0.24889894543E+03  0.36788305710E+03  0.89838283219E+02 0.  0.
         23    2    4    4    0    0  0.93351098776E+03 -0.10696988755E+04 -0.10535459169E+04  0.17706584621E+04  0.97846523175E+02 0.  0.
          1    1    3    3  502    0 -0.38185870101E+03  0.59589269500E+03 -0.71258882505E+03  0.10043341103E+04  0.00000000000E+00 0. -1.
         -2    1    3    3    0  502 -0.35456564426E+03  0.63651204051E+03 -0.64282695064E+03  0.97164338225E+03  0.00000000000E+00 0.  1.
         13    1    5    5    0    0 -0.14768171031E+03 -0.92015215498E+02 -0.21150470349E+03  0.27388122798E+03  0.00000000000E+00 0.  1.
        -13    1    5    5    0    0 -0.49404932186E+02 -0.70690644528E+02 -0.37394241941E+02  0.94001829123E+02  0.00000000000E+00 0. -1.
          1    1    6    6  503    0 -0.13063714172E+01 -0.97091734363E+01 -0.77540084726E+01  0.12493970645E+02  0.00000000000E+00 0. -1.
         -1    1    6    6    0  503  0.93481735918E+03 -0.10599897020E+04 -0.10457919084E+04  0.17581644915E+04  0.00000000000E+00 0.  1.
<mgrwt>
<rscale>  0 0.31408667E+04</rscale>
<asrwt>0</asrwt>
<pdfrwt beam="1">  1        1 0.52095229E+00 0.31408667E+04</pdfrwt>
<pdfrwt beam="2">  1       -2 0.11205064E+00 0.31408667E+04</pdfrwt>
<totfact> 0.14246811E-01</totfact>
</mgrwt>
</event>
<event>
12    5  0.5297412E-008  0.1554770E+04  0.7818608E-02  0.8848827E-01
          1   -1    0    0  501    0  0.00000000000E+00  0.00000000000E+00  0.26046972194E+04  0.26046972194E+04  0.00000000000E+00 0. -1.
         -2   -1    0    0    0  501 -0.00000000000E+00 -0.00000000000E+00 -0.23201441943E+03  0.23201441943E+03  0.00000000000E+00 0.  1.
        -24    2    1    2    0    0  0.13922266620E+03 -0.39781419379E+03  0.25863083946E+03  0.50070241175E+03  0.78574235295E+02 0.  0.
        254    2    1    2    0    0 -0.13922266620E+03  0.39781419379E+03  0.21140519605E+04  0.23360092271E+04  0.90004685083E+03 0.  0.
         23    2    4    4    0    0 -0.29151871104E+03  0.45057701179E+03  0.20755633142E+04  0.21457822066E+04  0.91735515411E+02 0.  0.
         23    2    4    4    0    0  0.15229604483E+03 -0.52762818005E+02  0.38488646330E+02  0.19022702042E+03  0.93418109419E+02 0.  0.
          3    1    3    3  502    0  0.93073644068E+01 -0.50955811978E+01 -0.32814135836E+01  0.11106739173E+02  0.00000000000E+00 0. -1.
         -4    1    3    3    0  502  0.12991530180E+03 -0.39271861259E+03  0.26191225304E+03  0.48959567258E+03  0.00000000000E+00 0.  1.
         13    1    5    5    0    0 -0.18667494318E+02  0.51371288930E+02  0.32944262060E+03  0.33394599105E+03  0.00000000000E+00 0. -1.
        -13    1    5    5    0    0 -0.27285121672E+03  0.39920572286E+03  0.17461206936E+04  0.18118362156E+04  0.00000000000E+00 0.  1.
          2    1    6    6  503    0  0.11741547093E+03 -0.22799828727E+02 -0.14023120333E+02  0.12042787429E+03  0.00000000000E+00 0. -1.
         -2    1    6    6    0  503  0.34880573907E+02 -0.29962989279E+02  0.52511766662E+02  0.69799146131E+02  0.00000000000E+00 0.  1.
<mgrwt>
<rscale>  0 0.15547698E+04</rscale>
<asrwt>0</asrwt>
<pdfrwt beam="1">  1        1 0.40072263E+00 0.15547698E+04</pdfrwt>
<pdfrwt beam="2">  1       -2 0.35694528E-01 0.15547698E+04</pdfrwt>
<totfact> 0.71647283E+00</totfact>
</mgrwt>
</event>
<event>
12    5  0.5297412E-008  0.1956445E+04  0.7818608E-02  0.8627259E-01
         -2   -1    0    0    0  501 -0.00000000000E+00  0.00000000000E+00  0.36610547917E+03  0.36610547917E+03  0.00000000000E+00 0.  1.
          1   -1    0    0  501    0  0.00000000000E+00 -0.00000000000E+00 -0.26137795528E+04  0.26137795528E+04  0.00000000000E+00 0. -1.
        -24    2    1    2    0    0  0.71704285687E+03  0.23838226606E+03 -0.68037925429E+03  0.10199160673E+04  0.79600824541E+02 0.  0.
        254    2    1    2    0    0 -0.71704285687E+03 -0.23838226606E+03 -0.15672948193E+04  0.19599689646E+04  0.90226865646E+03 0.  0.
         23    2    4    4    0    0  0.20156054680E+03 -0.85003370760E+02 -0.38481554878E+03  0.45185607597E+03  0.90767173284E+02 0.  0.
         23    2    4    4    0    0 -0.91860340367E+03 -0.15337889530E+03 -0.11824792705E+04  0.15081128887E+04  0.93754791951E+02 0.  0.
          3    1    3    3  502    0  0.24161708061E+03  0.58317425607E+02 -0.18266292416E+03  0.30845660900E+03  0.00000000000E+00 0. -1.
         -4    1    3    3    0  502  0.47542577626E+03  0.18006484046E+03 -0.49771633013E+03  0.71145945828E+03  0.00000000000E+00 0.  1.
         13    1    5    5    0    0  0.15155717485E+03 -0.48610201297E+02 -0.34022086189E+03  0.37560985582E+03  0.00000000000E+00 0.  1.
        -13    1    5    5    0    0  0.50003371953E+02 -0.36393169463E+02 -0.44594686885E+02  0.76246220159E+02  0.00000000000E+00 0. -1.
          4    1    6    6  503    0 -0.77613198662E+02 -0.93966953312E+01 -0.62139921063E+02  0.99867293342E+02  0.00000000000E+00 0. -1.
         -4    1    6    6    0  503 -0.84099020501E+03 -0.14398219997E+03 -0.11203393495E+04  0.14082455953E+04  0.00000000000E+00 0.  1.
<mgrwt>
<rscale>  0 0.19564448E+04</rscale>
<asrwt>0</asrwt>
<pdfrwt beam="1">  1        1 0.40211995E+00 0.19564448E+04</pdfrwt>
<pdfrwt beam="2">  1       -2 0.56323917E-01 0.19564448E+04</pdfrwt>
<totfact> 0.27331334E+00</totfact>
</mgrwt>
</event>
<event>
12    5  0.5297412E-008  0.1814386E+04  0.7818608E-02  0.8698686E-01
          1   -1    0    0  501    0  0.00000000000E+00  0.00000000000E+00  0.22450825919E+04  0.22450825919E+04  0.00000000000E+00 0. -1.
         -2   -1    0    0    0  501 -0.00000000000E+00 -0.00000000000E+00 -0.36657874552E+03  0.36657874552E+03  0.00000000000E+00 0.  1.
        -24    2    1    2    0    0  0.12476321255E+03  0.62673862557E+03  0.49715261886E+03  0.81381968732E+03  0.82307916043E+02 0.  0.
        254    2    1    2    0    0 -0.12476321255E+03 -0.62673862557E+03  0.13813512275E+04  0.17978416501E+04  0.95694107502E+03 0.  0.
         23    2    4    4    0    0 -0.19570494111E+03 -0.30469072406E+03  0.14049711796E+04  0.14545377508E+04  0.10295237629E+03 0.  0.
         23    2    4    4    0    0  0.70941728560E+02 -0.32204790151E+03 -0.23619952068E+02  0.34330389928E+03  0.92477485953E+02 0.  0.
          3    1    3    3  502    0  0.50448956928E+02  0.17158247303E+03  0.18249662126E+03  0.25552036920E+03  0.00000000000E+00 0. -1.
         -2    1    3    3    0  502  0.74314255627E+02  0.45515615254E+03  0.31465599759E+03  0.55829931811E+03  0.00000000000E+00 0.  1.
         13    1    5    5    0    0 -0.20542501045E+03 -0.26534584267E+03  0.12727487553E+04  0.13162436117E+04  0.00000000000E+00 0.  1.
        -13    1    5    5    0    0  0.97200693312E+01 -0.39344881388E+02  0.13222242427E+03  0.13829413913E+03  0.00000000000E+00 0. -1.
          4    1    6    6  503    0  0.21209460722E+02 -0.33146872153E+02 -0.30945983479E+02  0.50062063992E+02  0.00000000000E+00 0. -1.
         -4    1    6    6    0  503  0.49732267837E+02 -0.28890102935E+03  0.73260314113E+01  0.29324183528E+03  0.00000000000E+00 0.  1.
<mgrwt>
<rscale>  0 0.18143865E+04</rscale>
<asrwt>0</asrwt>
<pdfrwt beam="1">  1        1 0.34539731E+00 0.18143865E+04</pdfrwt>
<pdfrwt beam="2">  1       -2 0.56396732E-01 0.18143865E+04</pdfrwt>
<totfact> 0.49580608E+00</totfact>
</mgrwt>
</event>
<event>
12    5  0.5297412E-008  0.1410915E+04  0.7818608E-02  0.8945955E-01
         -2   -1    0    0    0  501 -0.00000000000E+00  0.00000000000E+00  0.84962817612E+03  0.84962817612E+03  0.00000000000E+00 0.  1.
          1   -1    0    0  501    0  0.00000000000E+00 -0.00000000000E+00 -0.58575078556E+03  0.58575078556E+03  0.00000000000E+00 0. -1.
        -24    2    1    2    0    0 -0.23144833873E+03  0.26592336985E+03  0.34310055869E+03  0.49801314771E+03  0.77559846455E+02 0.  0.
        254    2    1    2    0    0  0.23144833873E+03 -0.26592336985E+03 -0.79223168126E+02  0.93736581398E+03  0.86492472893E+03 0.  0.
         23    2    4    4    0    0  0.33714785229E+03 -0.20564285362E+03 -0.40779866707E+03  0.57502099991E+03  0.91606440400E+02 0.  0.
         23    2    4    4    0    0 -0.10569951357E+03 -0.60280516227E+02  0.32857549894E+03  0.36234481407E+03  0.92335139407E+02 0.  0.
          1    1    3    3  502    0 -0.10541257801E+02  0.45727297255E+02  0.64729921646E+02  0.79950400790E+02  0.00000000000E+00 0. -1.
         -4    1    3    3    0  502 -0.22090708093E+03  0.22019607260E+03  0.27837063704E+03  0.41806274691E+03  0.00000000000E+00 0.  1.
         13    1    5    5    0    0  0.22492550989E+03 -0.12389980051E+03 -0.32182163121E+03  0.41171811702E+03  0.00000000000E+00 0.  1.
        -13    1    5    5    0    0  0.11222234240E+03 -0.81743053111E+02 -0.85977035862E+02  0.16330288289E+03  0.00000000000E+00 0. -1.
          3    1    6    6  503    0 -0.80113735226E+02  0.69330808581E+01  0.18673999699E+03  0.20331774310E+03  0.00000000000E+00 0. -1.
         -3    1    6    6    0  503 -0.25585778339E+02 -0.67213597085E+02  0.14183550195E+03  0.15902707097E+03  0.00000000000E+00 0.  1.
<mgrwt>
<rscale>  0 0.14109151E+04</rscale>
<asrwt>0</asrwt>
<pdfrwt beam="1">  1        1 0.90115506E-01 0.14109151E+04</pdfrwt>
<pdfrwt beam="2">  1       -2 0.13071203E+00 0.14109151E+04</pdfrwt>
<totfact> 0.12940928E+01</totfact>
</mgrwt>
</event>
<event>
12    5  0.5350286E-008  0.2186543E+04  0.7818608E-02  0.8524050E-01
          1   -1    0    0  501    0  0.00000000000E+00  0.00000000000E+00  0.11129448523E+04  0.11129448523E+04  0.00000000000E+00 0. -1.
         -2   -1    0    0    0  501 -0.00000000000E+00 -0.00000000000E+00 -0.10739459860E+04  0.10739459860E+04  0.00000000000E+00 0.  1.
        -24    2    1    2    0    0 -0.53587160166E+03  0.34776706161E+03 -0.62138151377E+03  0.89506844558E+03  0.83260038557E+02 0.  0.
        254    2    1    2    0    0  0.53587160166E+03 -0.34776706161E+03  0.66038038007E+03  0.12918223927E+04  0.90807628822E+03 0.  0.
         23    2    4    4    0    0  0.60623847852E+03  0.10010382021E+03  0.51702185853E+03  0.80821116185E+03  0.91366363007E+02 0.  0.
         23    2    4    4    0    0 -0.70366876858E+02 -0.44787088182E+03  0.14335852155E+03  0.48361123083E+03  0.88251531124E+02 0.  0.
          3    1    3    3  502    0 -0.71307291249E+01 -0.92619845238E+00  0.78923249830E+00  0.72338115376E+01  0.00000000000E+00 0. -1.
         -4    1    3    3    0  502 -0.52874087253E+03  0.34869326006E+03 -0.62217074627E+03  0.88783463405E+03  0.00000000000E+00 0.  1.
         13    1    5    5    0    0  0.52938494837E+03  0.65491775718E+02  0.41479248885E+03  0.67571473645E+03  0.00000000000E+00 0. -1.
        -13    1    5    5    0    0  0.76853530151E+02  0.34612044491E+02  0.10222936967E+03  0.13249642540E+03  0.00000000000E+00 0.  1.
          4    1    6    6  503    0 -0.72029362933E+02 -0.43209095707E+03  0.11794994795E+03  0.45365517139E+03  0.00000000000E+00 0. -1.
         -4    1    6    6    0  503  0.16624860754E+01 -0.15779924746E+02  0.25408573596E+02  0.29956059440E+02  0.00000000000E+00 0.  1.
<mgrwt>
<rscale>  0 0.21865431E+04</rscale>
<asrwt>0</asrwt>
<pdfrwt beam="1">  1        1 0.17122229E+00 0.21865431E+04</pdfrwt>
<pdfrwt beam="2">  1       -2 0.16522246E+00 0.21865431E+04</pdfrwt>
<totfact> 0.22892165E+00</totfact>
</mgrwt>
</event>
<event>
12    5  0.5297412E-008  0.1360547E+04  0.7818608E-02  0.8982883E-01
          1   -1    0    0  501    0  0.00000000000E+00  0.00000000000E+00  0.55383981559E+03  0.55383981559E+03  0.00000000000E+00 0. -1.
         -4   -1    0    0    0  501 -0.00000000000E+00 -0.00000000000E+00 -0.83556973103E+03  0.83556973103E+03  0.00000000000E+00 0.  1.
        -24    2    1    2    0    0 -0.12202229489E+03  0.23999579114E+03 -0.37987165291E+03  0.47282712266E+03  0.82314002580E+02 0.  0.
        254    2    1    2    0    0  0.12202229489E+03 -0.23999579114E+03  0.98141737471E+02  0.91658242396E+03  0.87063431995E+03 0.  0.
         23    2    4    4    0    0  0.15895881384E+03  0.20371323356E+03 -0.22824228516E+03  0.35665224194E+03  0.91319740051E+02 0.  0.
         23    2    4    4    0    0 -0.36936518950E+02 -0.44370902469E+03  0.32638402263E+03  0.55993018202E+03  0.93558930573E+02 0.  0.
          1    1    3    3  502    0  0.23442724190E+01  0.41736737895E+01  0.34543625677E+01  0.59032014047E+01  0.00000000000E+00 0. -1.
         -2    1    3    3    0  502 -0.12436656731E+03  0.23582211735E+03 -0.38332601548E+03  0.46692392125E+03  0.00000000000E+00 0.  1.
         13    1    5    5    0    0  0.89248236813E+02  0.11872926091E+03 -0.70560643656E+02  0.16444053516E+03  0.00000000000E+00 0. -1.
        -13    1    5    5    0    0  0.69710577026E+02  0.84983972644E+02 -0.15768164150E+03  0.19221170678E+03  0.00000000000E+00 0.  1.
          1    1    6    6  503    0 -0.36464060417E+02 -0.42159392082E+03  0.27685869103E+03  0.50568942699E+03  0.00000000000E+00 0. -1.
         -1    1    6    6    0  503 -0.47245853365E+00 -0.22115103870E+02  0.49525331598E+02  0.54240755030E+02  0.00000000000E+00 0.  1.
<mgrwt>
<rscale>  0 0.13605466E+04</rscale>
<asrwt>0</asrwt>
<pdfrwt beam="1">  1        1 0.85206125E-01 0.13605466E+04</pdfrwt>
<pdfrwt beam="2">  1       -4 0.12854919E+00 0.13605466E+04</pdfrwt>
<totfact> 0.80320754E+00</totfact>
</mgrwt>
</event>
<event>
12    5  0.5297412E-008  0.1256671E+04  0.7818608E-02  0.9064649E-01
          1   -1    0    0  501    0  0.00000000000E+00  0.00000000000E+00  0.16395961313E+04  0.16395961313E+04  0.00000000000E+00 0. -1.
         -2   -1    0    0    0  501 -0.00000000000E+00 -0.00000000000E+00 -0.24079446095E+03  0.24079446095E+03  0.00000000000E+00 0.  1.
        -24    2    1    2    0    0  0.69780621851E+02 -0.14270516760E+03  0.70233710249E+03  0.72442894135E+03  0.79282945725E+02 0.  0.
        254    2    1    2    0    0 -0.69780621851E+02  0.14270516760E+03  0.69646456788E+03  0.11559616509E+04  0.90881810283E+03 0.  0.
         23    2    4    4    0    0  0.19583220911E+03  0.20800348102E+03 -0.95157046548E+02  0.31386660515E+03  0.88553261279E+02 0.  0.
         23    2    4    4    0    0 -0.26561283096E+03 -0.65298313416E+02  0.79162161443E+03  0.84209504577E+03  0.87437062868E+02 0.  0.
          1    1    3    3  502    0  0.64403640586E+02 -0.11809338213E+03  0.67034931401E+03  0.68371198513E+03  0.00000000000E+00 0. -1.
         -2    1    3    3    0  502  0.53769812649E+01 -0.24611785467E+02  0.31987788482E+02  0.40716956215E+02  0.00000000000E+00 0.  1.
         13    1    5    5    0    0 -0.61555797069E+01  0.18450829032E+02  0.36136803668E+01  0.19783400600E+02  0.00000000000E+00 0.  1.
        -13    1    5    5    0    0  0.20198778882E+03  0.18955265198E+03 -0.98770726915E+02  0.29408320455E+03  0.00000000000E+00 0. -1.
          4    1    6    6  503    0 -0.19144351907E+02 -0.88694880235E+01  0.16524939799E+02  0.26800142968E+02  0.00000000000E+00 0.  1.
         -4    1    6    6    0  503 -0.24646847905E+03 -0.56428825392E+02  0.77509667463E+03  0.81529490280E+03  0.00000000000E+00 0. -1.
<mgrwt>
<rscale>  0 0.12566713E+04</rscale>
<asrwt>0</asrwt>
<pdfrwt beam="1">  1        1 0.25224555E+00 0.12566713E+04</pdfrwt>
<pdfrwt beam="2">  1       -2 0.37045303E-01 0.12566713E+04</pdfrwt>
<totfact> 0.31142864E+01</totfact>
</mgrwt>
</event>
<event>
12    5  0.5297412E-008  0.1546263E+04  0.7818608E-02  0.8854258E-01
          1   -1    0    0  501    0  0.00000000000E+00  0.00000000000E+00  0.13642696301E+04  0.13642696301E+04  0.00000000000E+00 0. -1.
         -2   -1    0    0    0  501 -0.00000000000E+00 -0.00000000000E+00 -0.43813340465E+03  0.43813340465E+03  0.00000000000E+00 0.  1.
        -24    2    1    2    0    0  0.25579784854E+03 -0.34972151745E+03  0.62724315660E+03  0.76644697602E+03  0.79178977369E+02 0.  0.
        254    2    1    2    0    0 -0.25579784854E+03  0.34972151745E+03  0.29889306882E+03  0.10359560587E+04  0.89226129016E+03 0.  0.
         23    2    4    4    0    0 -0.24626420590E+03  0.60576515532E+03  0.36845583211E+03  0.75544636950E+03  0.85685672486E+02 0.  0.
         23    2    4    4    0    0 -0.95336426387E+01 -0.25604363787E+03 -0.69562763289E+02  0.28050968921E+03  0.90539896557E+02 0.  0.
          1    1    3    3  502    0  0.24622344348E+03 -0.32997173181E+03  0.61810682642E+03  0.74267312917E+03  0.00000000000E+00 0. -1.
         -2    1    3    3    0  502  0.95744050635E+01 -0.19749785635E+02  0.91363301775E+01  0.23773846850E+02  0.00000000000E+00 0.  1.
         13    1    5    5    0    0 -0.89529303064E+02  0.25844909359E+03  0.19993924566E+03  0.33880249710E+03  0.00000000000E+00 0. -1.
        -13    1    5    5    0    0 -0.15673490284E+03  0.34731606173E+03  0.16851658645E+03  0.41664387241E+03  0.00000000000E+00 0.  1.
          2    1    6    6  503    0 -0.18835589136E+02 -0.25745755541E+03 -0.76010464218E+02  0.26910362860E+03  0.00000000000E+00 0. -1.
         -2    1    6    6    0  503  0.93019464973E+01  0.14139175347E+01  0.64477009295E+01  0.11406060613E+02  0.00000000000E+00 0.  1.
<mgrwt>
<rscale>  0 0.15462627E+04</rscale>
<asrwt>0</asrwt>
<pdfrwt beam="1">  1        1 0.20988763E+00 0.15462627E+04</pdfrwt>
<pdfrwt beam="2">  1       -2 0.67405140E-01 0.15462627E+04</pdfrwt>
<totfact> 0.13893418E+01</totfact>
</mgrwt>
</event>
<event>
12    5  0.5297412E-008  0.1937116E+04  0.7818608E-02  0.8636599E-01
          1   -1    0    0  501    0  0.00000000000E+00  0.00000000000E+00  0.30357424491E+04  0.30357424491E+04  0.00000000000E+00 0. -1.
         -2   -1    0    0    0  501 -0.00000000000E+00 -0.00000000000E+00 -0.30901972433E+03  0.30901972433E+03  0.00000000000E+00 0.  1.
        -24    2    1    2    0    0  0.64707005885E+03 -0.47561312069E+02  0.17254337558E+04  0.18450951219E+04  0.79326059302E+02 0.  0.
        254    2    1    2    0    0 -0.64707005885E+03  0.47561312069E+02  0.10012889690E+04  0.14996670516E+04  0.90854825225E+03 0.  0.
         23    2    4    4    0    0  0.17920489532E+03 -0.10176028901E+03  0.41079829865E+03  0.46914752471E+03  0.94205131730E+02 0.  0.
         23    2    4    4    0    0 -0.82627495417E+03  0.14932160108E+03  0.59049067035E+03  0.10305195269E+04  0.90906672113E+02 0.  0.
          1    1    3    3  502    0  0.59602949530E+03 -0.22218638296E+02  0.15610422698E+04  0.16711067576E+04  0.00000000000E+00 0. -1.
         -2    1    3    3    0  502  0.51040563551E+02 -0.25342673773E+02  0.16439148598E+03  0.17398836428E+03  0.00000000000E+00 0.  1.
         13    1    5    5    0    0  0.26258585701E+02 -0.39820382191E+02  0.17473513138E+03  0.18112852425E+03  0.00000000000E+00 0. -1.
        -13    1    5    5    0    0  0.15294630962E+03 -0.61939906815E+02  0.23606316727E+03  0.28801900046E+03  0.00000000000E+00 0.  1.
          4    1    6    6  503    0 -0.44894294099E+03  0.54010492216E+02  0.27248229304E+03  0.52793323210E+03  0.00000000000E+00 0. -1.
         -4    1    6    6    0  503 -0.37733201317E+03  0.95311108859E+02  0.31800837731E+03  0.50258629476E+03  0.00000000000E+00 0.  1.
<mgrwt>
<rscale>  0 0.19371157E+04</rscale>
<asrwt>0</asrwt>
<pdfrwt beam="1">  1        1 0.46703728E+00 0.19371157E+04</pdfrwt>
<pdfrwt beam="2">  1       -2 0.47541498E-01 0.19371157E+04</pdfrwt>
<totfact> 0.19380473E+00</totfact>
</mgrwt>
</event>
<event>
12    5  0.5297412E-008  0.1628706E+04  0.7818608E-02  0.8803104E-01
         -2   -1    0    0    0  501 -0.00000000000E+00  0.00000000000E+00  0.30447786394E+03  0.30447786394E+03  0.00000000000E+00 0.  1.
          1   -1    0    0  501    0  0.00000000000E+00 -0.00000000000E+00 -0.21780590338E+04  0.21780590338E+04  0.00000000000E+00 0. -1.
        -24    2    1    2    0    0 -0.24813383831E+03  0.12121920845E+01  0.11118353439E+03  0.28333932555E+03  0.79671349696E+02 0.  0.
        254    2    1    2    0    0  0.24813383831E+03 -0.12121920845E+01 -0.19847647043E+04  0.21991975722E+04  0.91411550650E+03 0.  0.
         23    2    4    4    0    0 -0.30457766930E+03 -0.16608140491E+03 -0.85723152959E+03  0.92939998313E+03  0.92670619071E+02 0.  0.
         23    2    4    4    0    0  0.55271150760E+03  0.16486921282E+03 -0.11275331747E+04  0.12697975891E+04  0.91558665715E+02 0.  0.
          1    1    3    3  502    0 -0.16447565715E+02 -0.22304648304E+02  0.10656400652E+02  0.29691389809E+02  0.00000000000E+00 0. -1.
         -2    1    3    3    0  502 -0.23168627259E+03  0.23516840389E+02  0.10052713373E+03  0.25364793574E+03  0.00000000000E+00 0.  1.
         13    1    5    5    0    0 -0.22728084686E+03 -0.16073058367E+03 -0.61473707563E+03  0.67482781213E+03  0.00000000000E+00 0. -1.
        -13    1    5    5    0    0 -0.77296822437E+02 -0.53508212371E+01 -0.24249445396E+03  0.25457217100E+03  0.00000000000E+00 0.  1.
          2    1    6    6  503    0  0.12248939578E+03  0.46948881274E+00 -0.26738424141E+03  0.29410577188E+03  0.00000000000E+00 0.  1.
         -2    1    6    6    0  503  0.43022211182E+03  0.16439972401E+03 -0.86014893327E+03  0.97569181721E+03  0.00000000000E+00 0. -1.
<mgrwt>
<rscale>  0 0.16287059E+04</rscale>
<asrwt>0</asrwt>
<pdfrwt beam="1">  1        1 0.33508601E+00 0.16287059E+04</pdfrwt>
<pdfrwt beam="2">  1       -2 0.46842748E-01 0.16287059E+04</pdfrwt>
<totfact> 0.81943446E+00</totfact>
</mgrwt>
</event>
<event>
12    5  0.5297412E-008  0.2453692E+04  0.7818608E-02  0.8419671E-01
          1   -1    0    0  501    0  0.00000000000E+00  0.00000000000E+00  0.18407428686E+04  0.18407428686E+04  0.00000000000E+00 0. -1.
         -2   -1    0    0    0  501 -0.00000000000E+00 -0.00000000000E+00 -0.81768683084E+03  0.81768683084E+03  0.00000000000E+00 0.  1.
        -24    2    1    2    0    0  0.11320582890E+03 -0.97043689681E+03 -0.45056034057E+01  0.98014368342E+03  0.78089751600E+02 0.  0.
        254    2    1    2    0    0 -0.11320582890E+03  0.97043689681E+03  0.10275616412E+04  0.16782860160E+04  0.89788512341E+03 0.  0.
         23    2    4    4    0    0  0.94242293135E+02  0.98992770792E+02 -0.13139662533E+03  0.21052553554E+03  0.91513657348E+02 0.  0.
         23    2    4    4    0    0 -0.20744812203E+03  0.87144412601E+03  0.11589582665E+04  0.14677604805E+04  0.93203951070E+02 0.  0.
          3    1    3    3  502    0  0.69815412763E+02 -0.39943351116E+03 -0.32661603486E+02  0.40680228864E+03  0.00000000000E+00 0. -1.
         -2    1    3    3    0  502  0.43390416135E+02 -0.57100338565E+03  0.28156000080E+02  0.57334139478E+03  0.00000000000E+00 0.  1.
         13    1    5    5    0    0  0.78962472755E+02  0.11603144677E+03 -0.10319353163E+03  0.17420468913E+03  0.00000000000E+00 0. -1.
        -13    1    5    5    0    0  0.15279820380E+02 -0.17038675978E+02 -0.28203093699E+02  0.36320846412E+02  0.00000000000E+00 0.  1.
          3    1    6    6  503    0 -0.10945569721E+03  0.38994289861E+03  0.59502787097E+03  0.71978759441E+03  0.00000000000E+00 0. -1.
         -3    1    6    6    0  503 -0.97992424827E+02  0.48150122740E+03  0.56393039555E+03  0.74797288610E+03  0.00000000000E+00 0.  1.
<mgrwt>
<rscale>  0 0.24536921E+04</rscale>
<asrwt>0</asrwt>
<pdfrwt beam="1">  1        1 0.28319121E+00 0.24536921E+04</pdfrwt>
<pdfrwt beam="2">  1       -2 0.12579797E+00 0.24536921E+04</pdfrwt>
<totfact> 0.14134123E+00</totfact>
</mgrwt>
</event>
<event>
12    5  0.5297412E-008  0.3062043E+04  0.7818608E-02  0.8226233E-01
          1   -1    0    0  501    0  0.00000000000E+00  0.00000000000E+00  0.22678095028E+04  0.22678095028E+04  0.00000000000E+00 0. -1.
         -2   -1    0    0    0  501 -0.00000000000E+00 -0.00000000000E+00 -0.10336086378E+04  0.10336086378E+04  0.00000000000E+00 0.  1.
        -24    2    1    2    0    0 -0.93859460244E+03  0.50566939157E+03 -0.40849504972E+03  0.11444528122E+04  0.79010584688E+02 0.  0.
        254    2    1    2    0    0  0.93859460244E+03 -0.50566939157E+03  0.16426959147E+04  0.21569653284E+04  0.90409523730E+03 0.  0.
         23    2    4    4    0    0  0.51626049651E+03 -0.67071728460E+03  0.68453401184E+03  0.10926592174E+04  0.94502782606E+02 0.  0.
         23    2    4    4    0    0  0.42233410594E+03  0.16504789304E+03  0.95816190291E+03  0.10643061109E+04  0.95217443626E+02 0.  0.
          1    1    3    3  502    0 -0.83958476033E+03  0.47486266489E+03 -0.35544000972E+03  0.10279760312E+04  0.00000000000E+00 0. -1.
         -2    1    3    3    0  502 -0.99009842108E+02  0.30806726680E+02 -0.53055039995E+02  0.11647678100E+03  0.00000000000E+00 0.  1.
         13    1    5    5    0    0  0.31179217119E+02 -0.12944534865E+02  0.35651973752E+02  0.49099570217E+02  0.00000000000E+00 0.  1.
        -13    1    5    5    0    0  0.48508127939E+03 -0.65777274974E+03  0.64888203808E+03  0.10435596472E+04  0.00000000000E+00 0. -1.
          1    1    6    6  503    0  0.34926970664E+03  0.16501535871E+03  0.85142999734E+03  0.93496119543E+03  0.00000000000E+00 0. -1.
         -1    1    6    6    0  503  0.73064399295E+02  0.32534326272E-01  0.10673190557E+03  0.12934491551E+03  0.00000000000E+00 0.  1.
<mgrwt>
<rscale>  0 0.30620434E+04</rscale>
<asrwt>0</asrwt>
<pdfrwt beam="1">  1        1 0.34889377E+00 0.30620434E+04</pdfrwt>
<pdfrwt beam="2">  1       -2 0.15901671E+00 0.30620434E+04</pdfrwt>
<totfact> 0.37341570E-01</totfact>
</mgrwt>
</event>
<event>
12    5  0.5297412E-008  0.1234727E+04  0.7818608E-02  0.9082992E-01
          1   -1    0    0  501    0  0.00000000000E+00  0.00000000000E+00  0.11799516501E+04  0.11799516501E+04  0.00000000000E+00 0. -1.
         -2   -1    0    0    0  501 -0.00000000000E+00 -0.00000000000E+00 -0.32301125445E+03  0.32301125445E+03  0.00000000000E+00 0.  1.
        -24    2    1    2    0    0  0.26030687577E+03 -0.47899918855E+01  0.66872721874E+02  0.28108705991E+03  0.82191001482E+02 0.  0.
        254    2    1    2    0    0 -0.26030687577E+03  0.47899918855E+01  0.79006767374E+03  0.12218758446E+04  0.89498102603E+03 0.  0.
         23    2    4    4    0    0  0.10688126289E+03  0.35758281813E+03  0.49472920341E+03  0.62632024816E+03  0.90724816752E+02 0.  0.
         23    2    4    4    0    0 -0.36718813866E+03 -0.35279282625E+03  0.29533847034E+03  0.59555559645E+03  0.90397726616E+02 0.  0.
          1    1    3    3  502    0  0.30040170775E+02 -0.16697710361E+02  0.33707648636E+02  0.48139702617E+02  0.00000000000E+00 0. -1.
         -2    1    3    3    0  502  0.23026670499E+03  0.11907718476E+02  0.33165073238E+02  0.23294735729E+03  0.00000000000E+00 0.  1.
         13    1    5    5    0    0  0.60022558490E+02  0.31496289488E+03  0.41859487037E+03  0.52728170666E+03  0.00000000000E+00 0. -1.
        -13    1    5    5    0    0  0.46858704399E+02  0.42619923256E+02  0.76134333033E+02  0.99038541501E+02  0.00000000000E+00 0.  1.
          1    1    6    6  503    0 -0.33864457800E+03 -0.35223121640E+03  0.27885523636E+03  0.56258974649E+03  0.00000000000E+00 0. -1.
         -1    1    6    6    0  503 -0.28543560660E+02 -0.56160984355E+00  0.16483233978E+02  0.32965849953E+02  0.00000000000E+00 0.  1.
<mgrwt>
<rscale>  0 0.12347270E+04</rscale>
<asrwt>0</asrwt>
<pdfrwt beam="1">  1        1 0.18153102E+00 0.12347270E+04</pdfrwt>
<pdfrwt beam="2">  1       -2 0.49694040E-01 0.12347270E+04</pdfrwt>
<totfact> 0.36670926E+01</totfact>
</mgrwt>
</event>
<event>
12    5  0.5297412E-008  0.1415202E+04  0.7818608E-02  0.8942888E-01
         -2   -1    0    0    0  501 -0.00000000000E+00  0.00000000000E+00  0.65934444650E+03  0.65934444650E+03  0.00000000000E+00 0.  1.
          1   -1    0    0  501    0  0.00000000000E+00 -0.00000000000E+00 -0.75938935182E+03  0.75938935182E+03  0.00000000000E+00 0. -1.
        -24    2    1    2    0    0  0.38232937399E+03  0.68550956038E+02  0.16766543459E+03  0.43049576489E+03  0.79623626111E+02 0.  0.
        254    2    1    2    0    0 -0.38232937399E+03 -0.68550956038E+02 -0.26771033991E+03  0.98823803343E+03  0.86837238603E+03 0.  0.
         23    2    4    4    0    0 -0.13426113215E+03  0.17071685026E+03 -0.50697984756E+03  0.55883272160E+03  0.89973053406E+02 0.  0.
         23    2    4    4    0    0 -0.24806824185E+03 -0.23926780630E+03  0.23926950765E+03  0.42940531182E+03  0.91389763037E+02 0.  0.
          1    1    3    3  502    0  0.66694882357E+02  0.79967155867E+01 -0.17322211483E+01  0.67194905930E+02  0.00000000000E+00 0. -1.
         -2    1    3    3    0  502  0.31563449164E+03  0.60554240452E+02  0.16939765574E+03  0.36330085896E+03  0.00000000000E+00 0.  1.
         13    1    5    5    0    0 -0.13243410582E+03  0.17955031124E+03 -0.49968618059E+03  0.54723247868E+03  0.00000000000E+00 0. -1.
        -13    1    5    5    0    0 -0.18270263312E+01 -0.88334609803E+01 -0.72936669699E+01  0.11600242927E+02  0.00000000000E+00 0.  1.
          1    1    6    6  503    0 -0.65680203087E+02 -0.55763430065E+02  0.15937422981E+02  0.87621062887E+02  0.00000000000E+00 0. -1.
         -1    1    6    6    0  503 -0.18238803876E+03 -0.18350437623E+03  0.22333208466E+03  0.34178424894E+03  0.00000000000E+00 0.  1.
<mgrwt>
<rscale>  0 0.14152020E+04</rscale>
<asrwt>0</asrwt>
<pdfrwt beam="1">  1        1 0.11682913E+00 0.14152020E+04</pdfrwt>
<pdfrwt beam="2">  1       -2 0.10143761E+00 0.14152020E+04</pdfrwt>
<totfact> 0.16359214E+01</totfact>
</mgrwt>
</event>
<event>
12    5  0.5297412E-008  0.1889399E+04  0.7818608E-02  0.8660151E-01
         -2   -1    0    0    0  501 -0.00000000000E+00  0.00000000000E+00  0.12346579322E+04  0.12346579322E+04  0.00000000000E+00 0.  1.
          1   -1    0    0  501    0  0.00000000000E+00 -0.00000000000E+00 -0.72283759189E+03  0.72283759189E+03  0.00000000000E+00 0. -1.
        -24    2    1    2    0    0  0.29372815240E+03  0.23556421193E+03  0.82621997156E+03  0.91154200138E+03  0.80639031626E+02 0.  0.
        254    2    1    2    0    0 -0.29372815240E+03 -0.23556421193E+03 -0.31439963129E+03  0.10459535227E+04  0.92379917621E+03 0.  0.
         23    2    4    4    0    0 -0.61411234827E+03 -0.19818651234E+03 -0.14126485232E+03  0.66848474315E+03  0.10249011346E+03 0.  0.
         23    2    4    4    0    0  0.32038419587E+03 -0.37377699596E+02 -0.17313477898E+03  0.37746877952E+03  0.91999469722E+02 0.  0.
          3    1    3    3  502    0  0.10371721197E+03  0.10118490823E+03  0.40746465223E+03  0.43246166134E+03  0.00000000000E+00 0. -1.
         -4    1    3    3    0  502  0.19001094043E+03  0.13437930370E+03  0.41875531933E+03  0.47908034004E+03  0.00000000000E+00 0.  1.
         13    1    5    5    0    0 -0.38104521062E+03 -0.17455418356E+03 -0.89758594965E+02  0.42862713506E+03  0.00000000000E+00 0. -1.
        -13    1    5    5    0    0 -0.23306713765E+03 -0.23632328775E+02 -0.51506257352E+02  0.23985760810E+03  0.00000000000E+00 0.  1.
          3    1    6    6  503    0  0.29728677959E+03 -0.49766081104E+02 -0.13283429193E+03  0.32939496241E+03  0.00000000000E+00 0. -1.
         -3    1    6    6    0  503  0.23097416278E+02  0.12388381508E+02 -0.40300487048E+02  0.48073817108E+02  0.00000000000E+00 0.  1.
<mgrwt>
<rscale>  0 0.18893990E+04</rscale>
<asrwt>0</asrwt>
<pdfrwt beam="1">  1        1 0.11120578E+00 0.18893990E+04</pdfrwt>
<pdfrwt beam="2">  1       -2 0.18994737E+00 0.18893990E+04</pdfrwt>
<totfact> 0.32980547E+00</totfact>
</mgrwt>
</event>
<event>
12    5  0.5297412E-008  0.1421092E+04  0.7818608E-02  0.8938691E-01
         -2   -1    0    0    0  501 -0.00000000000E+00  0.00000000000E+00  0.72392524680E+03  0.72392524680E+03  0.00000000000E+00 0.  1.
          1   -1    0    0  501    0  0.00000000000E+00 -0.00000000000E+00 -0.69741379686E+03  0.69741379686E+03  0.00000000000E+00 0. -1.
        -24    2    1    2    0    0 -0.36404895536E+03 -0.10562577434E+03  0.18090047904E+03  0.42761234733E+03  0.80242695422E+02 0.  0.
        254    2    1    2    0    0  0.36404895536E+03  0.10562577434E+03 -0.15438902911E+03  0.99372669632E+03  0.90552102602E+03 0.  0.
         23    2    4    4    0    0  0.42159470419E+03 -0.25515309108E+02  0.28861017023E+03  0.51934122044E+03  0.89589883826E+02 0.  0.
         23    2    4    4    0    0 -0.57545748830E+02  0.13114108345E+03 -0.44299919933E+03  0.47438547588E+03  0.91015340154E+02 0.  0.
          3    1    3    3  502    0 -0.16640748702E+03 -0.34908536050E+02  0.39621424169E+02  0.17458497896E+03  0.00000000000E+00 0. -1.
         -4    1    3    3    0  502 -0.19764146835E+03 -0.70717238292E+02  0.14127905488E+03  0.25302736838E+03  0.00000000000E+00 0.  1.
         13    1    5    5    0    0  0.22653128541E+03 -0.53302882871E+01  0.10148498602E+03  0.24828217341E+03  0.00000000000E+00 0.  1.
        -13    1    5    5    0    0  0.19506341878E+03 -0.20185020821E+02  0.18712518421E+03  0.27105904703E+03  0.00000000000E+00 0. -1.
          4    1    6    6  503    0 -0.13326609726E+02 -0.68346227203E+01 -0.11289171973E+03  0.11388086309E+03  0.00000000000E+00 0. -1.
         -4    1    6    6    0  503 -0.44219139103E+02  0.13797570617E+03 -0.33010747960E+03  0.36050461279E+03  0.00000000000E+00 0.  1.
<mgrwt>
<rscale>  0 0.14210918E+04</rscale>
<asrwt>0</asrwt>
<pdfrwt beam="1">  1        1 0.10729443E+00 0.14210918E+04</pdfrwt>
<pdfrwt beam="2">  1       -2 0.11137311E+00 0.14210918E+04</pdfrwt>
<totfact> 0.14886963E+01</totfact>
</mgrwt>
</event>
<event>
12    5  0.5297412E-008  0.2499053E+04  0.7818608E-02  0.8403323E-01
          1   -1    0    0  501    0  0.00000000000E+00  0.00000000000E+00  0.67623520726E+03  0.67623520726E+03  0.00000000000E+00 0. -1.
         -2   -1    0    0    0  501 -0.00000000000E+00 -0.00000000000E+00 -0.23088371971E+04  0.23088371971E+04  0.00000000000E+00 0.  1.
        -24    2    1    2    0    0 -0.15666723811E+03  0.50653884332E+03  0.42205291069E+03  0.68288983969E+03  0.84164424978E+02 0.  0.
        254    2    1    2    0    0  0.15666723811E+03 -0.50653884332E+03 -0.20546549006E+04  0.23021825647E+04  0.89292305239E+03 0.  0.
         23    2    4    4    0    0 -0.99181314171E+01 -0.72653260503E+03 -0.16368775370E+04  0.17931770784E+04  0.90376811159E+02 0.  0.
         23    2    4    4    0    0  0.16658536953E+03  0.21999376171E+03 -0.41777736360E+03  0.50900548630E+03  0.91655436349E+02 0.  0.
          3    1    3    3  502    0 -0.11610607696E+03  0.44911783461E+03  0.38808400281E+03  0.60481124634E+03  0.00000000000E+00 0. -1.
         -4    1    3    3    0  502 -0.40561161147E+02  0.57421008713E+02  0.33968907888E+02  0.78078593342E+02  0.00000000000E+00 0.  1.
         13    1    5    5    0    0  0.75901354635E+01 -0.41918188570E+03 -0.83768767861E+03  0.93674527506E+03  0.00000000000E+00 0.  1.
        -13    1    5    5    0    0 -0.17508266881E+02 -0.30735071933E+03 -0.79918985834E+03  0.85643180333E+03  0.00000000000E+00 0. -1.
          3    1    6    6  503    0  0.13739086885E+03  0.12984523470E+03 -0.22258048216E+03  0.29202415458E+03  0.00000000000E+00 0. -1.
         -3    1    6    6    0  503  0.29194500679E+02  0.90148527002E+02 -0.19519688144E+03  0.21698133172E+03  0.00000000000E+00 0.  1.
<mgrwt>
<rscale>  0 0.24990534E+04</rscale>
<asrwt>0</asrwt>
<pdfrwt beam="1">  1        1 0.10403618E+00 0.24990534E+04</pdfrwt>
<pdfrwt beam="2">  1       -2 0.35520573E+00 0.24990534E+04</pdfrwt>
<totfact> 0.32261959E-01</totfact>
</mgrwt>
</event>
<event>
12    5  0.5297412E-008  0.1566070E+04  0.7818608E-02  0.8841668E-01
         -2   -1    0    0    0  501 -0.00000000000E+00  0.00000000000E+00  0.41387162343E+03  0.41387162343E+03  0.00000000000E+00 0.  1.
          1   -1    0    0  501    0  0.00000000000E+00 -0.00000000000E+00 -0.14814837802E+04  0.14814837802E+04  0.00000000000E+00 0. -1.
        -24    2    1    2    0    0 -0.51431039826E+03  0.88968784546E+02 -0.30618634631E+03  0.61001763309E+03  0.77076608882E+02 0.  0.
        254    2    1    2    0    0  0.51431039826E+03 -0.88968784546E+02 -0.76142581046E+03  0.12853377705E+04  0.89436753583E+03 0.  0.
         23    2    4    4    0    0  0.39016133577E+03  0.33272353016E+03 -0.17997054803E+03  0.55102858769E+03  0.91171765655E+02 0.  0.
         23    2    4    4    0    0  0.12414906250E+03 -0.42169231470E+03 -0.58145526243E+03  0.73430918284E+03  0.88782632329E+02 0.  0.
          3    1    3    3  502    0 -0.18543793224E+03  0.61529641233E+02 -0.14118293695E+03  0.24105133302E+03  0.00000000000E+00 0. -1.
         -4    1    3    3    0  502 -0.32887246602E+03  0.27439143313E+02 -0.16500340936E+03  0.36896630008E+03  0.00000000000E+00 0.  1.
         13    1    5    5    0    0  0.38418094501E+03  0.30107801927E+03 -0.17453157428E+03  0.51836689962E+03  0.00000000000E+00 0. -1.
        -13    1    5    5    0    0  0.59803907562E+01  0.31645510881E+02 -0.54389737463E+01  0.32661688075E+02  0.00000000000E+00 0.  1.
          4    1    6    6  503    0  0.76492873450E+02 -0.17510642380E+03 -0.19189337103E+03  0.27080709959E+03  0.00000000000E+00 0.  1.
         -4    1    6    6    0  503  0.47656189045E+02 -0.24658589090E+03 -0.38956189140E+03  0.46350208325E+03  0.00000000000E+00 0. -1.
<mgrwt>
<rscale>  0 0.15660704E+04</rscale>
<asrwt>0</asrwt>
<pdfrwt beam="1">  1        1 0.22792058E+00 0.15660704E+04</pdfrwt>
<pdfrwt beam="2">  1       -2 0.63672558E-01 0.15660704E+04</pdfrwt>
<totfact> 0.12982560E+01</totfact>
</mgrwt>
</event>
<event>
12    5  0.5297412E-008  0.1630017E+04  0.7818608E-02  0.8802317E-01
         -2   -1    0    0    0  501 -0.00000000000E+00  0.00000000000E+00  0.37353394936E+03  0.37353394936E+03  0.00000000000E+00 0.  1.
          1   -1    0    0  501    0  0.00000000000E+00 -0.00000000000E+00 -0.17782562969E+04  0.17782562969E+04  0.00000000000E+00 0. -1.
        -24    2    1    2    0    0  0.45392271002E+03 -0.51822161983E+02 -0.55311386276E+02  0.46655679566E+03  0.76710696647E+02 0.  0.
        254    2    1    2    0    0 -0.45392271002E+03  0.51822161983E+02 -0.13494109613E+04  0.16852334506E+04  0.90020579730E+03 0.  0.
         23    2    4    4    0    0 -0.46264601572E+02 -0.30652681564E+03 -0.13199022834E+03  0.34910287088E+03  0.91390874901E+02 0.  0.
         23    2    4    4    0    0 -0.40765810845E+03  0.35834897762E+03 -0.12174207330E+04  0.13361305797E+04  0.92371867689E+02 0.  0.
          1    1    3    3  502    0  0.23781025135E+03 -0.59868398354E+02 -0.49733822044E+02  0.25022268847E+03  0.00000000000E+00 0. -1.
         -2    1    3    3    0  502  0.21611245867E+03  0.80462363705E+01 -0.55775642324E+01  0.21633410720E+03  0.00000000000E+00 0.  1.
         13    1    5    5    0    0  0.17870499932E+02 -0.17490680484E+03 -0.58608843922E+02  0.18532873963E+03  0.00000000000E+00 0.  1.
        -13    1    5    5    0    0 -0.64135101504E+02 -0.13162001080E+03 -0.73381384414E+02  0.16377413125E+03  0.00000000000E+00 0. -1.
          2    1    6    6  503    0 -0.79227036285E+02  0.78305893671E+02 -0.16976369934E+03  0.20304790045E+03  0.00000000000E+00 0. -1.
         -2    1    6    6    0  503 -0.32843107217E+03  0.28004308395E+03 -0.10476570336E+04  0.11330826793E+04  0.00000000000E+00 0.  1.
<mgrwt>
<rscale>  0 0.16300173E+04</rscale>
<asrwt>0</asrwt>
<pdfrwt beam="1">  1        1 0.27357789E+00 0.16300173E+04</pdfrwt>
<pdfrwt beam="2">  1       -2 0.57466762E-01 0.16300173E+04</pdfrwt>
<totfact> 0.10046442E+01</totfact>
</mgrwt>
</event>
<event>
12    5  0.5297412E-008  0.1760458E+04  0.7818608E-02  0.8727615E-01
         -2   -1    0    0    0  501 -0.00000000000E+00  0.00000000000E+00  0.27005232987E+03  0.27005232987E+03  0.00000000000E+00 0.  1.
          1   -1    0    0  501    0  0.00000000000E+00 -0.00000000000E+00 -0.28690840332E+04  0.28690840332E+04  0.00000000000E+00 0. -1.
        -24    2    1    2    0    0  0.21295622094E+03  0.41692134718E+03 -0.16264003185E+03  0.50144885723E+03  0.76324404310E+02 0.  0.
        254    2    1    2    0    0 -0.21295622094E+03 -0.41692134718E+03 -0.24363916715E+04  0.26376875059E+04  0.89566580810E+03 0.  0.
         23    2    4    4    0    0 -0.15913643692E+02 -0.64492646604E+03 -0.19677677231E+04  0.20728895034E+04  0.92615822341E+02 0.  0.
         23    2    4    4    0    0 -0.19704257725E+03  0.22800511887E+03 -0.46862394836E+03  0.56479800242E+03  0.92608137241E+02 0.  0.
          1    1    3    3  502    0  0.17468861221E+02  0.18826439017E+02  0.69836044024E+01  0.26615158254E+02  0.00000000000E+00 0. -1.
         -2    1    3    3    0  502  0.19548735972E+03  0.39809490816E+03 -0.16962363625E+03  0.47483369898E+03  0.00000000000E+00 0.  1.
         13    1    5    5    0    0  0.13300699752E+02 -0.34624321272E+03 -0.92391040554E+03  0.98674804709E+03  0.00000000000E+00 0. -1.
        -13    1    5    5    0    0 -0.29214343444E+02 -0.29868325332E+03 -0.10438573176E+04  0.10861414563E+04  0.00000000000E+00 0.  1.
          1    1    6    6  503    0 -0.18209114000E+03  0.22339998068E+03 -0.46738761493E+03  0.54910465052E+03  0.00000000000E+00 0. -1.
         -1    1    6    6    0  503 -0.14951437246E+02  0.46051381890E+01 -0.12363334298E+01  0.15693351899E+02  0.00000000000E+00 0.  1.
<mgrwt>
<rscale>  0 0.17604577E+04</rscale>
<asrwt>0</asrwt>
<pdfrwt beam="1">  1        1 0.44139755E+00 0.17604577E+04</pdfrwt>
<pdfrwt beam="2">  1       -2 0.41546512E-01 0.17604577E+04</pdfrwt>
<totfact> 0.34037854E+00</totfact>
</mgrwt>
</event>
