<event>
12    7  0.1625631E-007  0.2012017E+04  0.7818608E-02  0.8601023E-01
          2   -1    0    0  501    0  0.00000000000E+00  0.00000000000E+00  0.11238680270E+04  0.11238680270E+04  0.00000000000E+00 0. -1.
         -1   -1    0    0    0  501 -0.00000000000E+00 -0.00000000000E+00 -0.90050843926E+03  0.90050843926E+03  0.00000000000E+00 0.  1.
         24    2    1    2    0    0  0.25375799492E+03 -0.31460253953E+03  0.78941529789E+03  0.89036695573E+03  0.78796735126E+02 0.  0.
        254    2    1    2    0    0 -0.25375799492E+03  0.31460253953E+03 -0.56605571015E+03  0.11340095105E+04  0.89565095048E+03 0.  0.
         23    2    4    4    0    0 -0.31050500341E+03 -0.16952864140E+03  0.21814275415E+02  0.36580709594E+03  0.90474589948E+02 0.  0.
         23    2    4    4    0    0  0.56747008497E+02  0.48413118093E+03 -0.58786998556E+03  0.76820241458E+03  0.83310302628E+02 0.  0.
          4    1    3    3  502    0  0.25760870802E+03 -0.30885505614E+03  0.75683902169E+03  0.85706417315E+03  0.00000000000E+00 0. -1.
         -3    1    3    3    0  502 -0.38507131076E+01 -0.57474833867E+01  0.32576276198E+02  0.33302782581E+02  0.00000000000E+00 0.  1.
         13    1    5    5    0    0 -0.31340721566E+03 -0.17477085098E+03  0.19466200263E+02  0.35937148764E+03  0.00000000000E+00 0.  1.
        -13    1    5    5    0    0  0.29022122432E+01  0.52422095808E+01  0.23480751518E+01  0.64356082939E+01  0.00000000000E+00 0. -1.
          2    1    6    6  503    0  0.64633397256E+02  0.28466815268E+03 -0.30708900631E+03  0.42369457277E+03  0.00000000000E+00 0.  1.
         -2    1    6    6    0  503 -0.78863887584E+01  0.19946302824E+03 -0.28078097925E+03  0.34450784182E+03  0.00000000000E+00 0. -1.
<mgrwt>
<rscale>  0 0.20120165E+04</rscale>
<asrwt>0</asrwt>
<pdfrwt beam="1">  1        2 0.17290277E+00 0.20120165E+04</pdfrwt>
<pdfrwt beam="2">  1       -1 0.13853976E+00 0.20120165E+04</pdfrwt>
<totfact> 0.96044028E+00</totfact>
</mgrwt>
</event>
<event>
12    7  0.1625631E-007  0.1802391E+04  0.7818608E-02  0.8705029E-01
          2   -1    0    0  501    0  0.00000000000E+00  0.00000000000E+00  0.20432692951E+04  0.20432692951E+04  0.00000000000E+00 0. -1.
         -1   -1    0    0    0  501 -0.00000000000E+00 -0.00000000000E+00 -0.39747728564E+03  0.39747728564E+03  0.00000000000E+00 0.  1.
         24    2    1    2    0    0 -0.99284849474E+02  0.38876806197E+03  0.13549137900E+04  0.14154943521E+04  0.82672820115E+02 0.  0.
        254    2    1    2    0    0  0.99284849474E+02 -0.38876806197E+03  0.29087821943E+03  0.10252522286E+04  0.89751540731E+03 0.  0.
         23    2    4    4    0    0  0.90277545163E+01  0.23296145749E+03 -0.11212173625E+03  0.27343615238E+03  0.88563562821E+02 0.  0.
         23    2    4    4    0    0  0.90257094958E+02 -0.62172951947E+03  0.40299995568E+03  0.75181607621E+03  0.90136061635E+02 0.  0.
          2    1    3    3  502    0 -0.11174138717E+03  0.33169300126E+03  0.11194276823E+04  0.11728702914E+04  0.00000000000E+00 0. -1.
         -1    1    3    3    0  502  0.12456537700E+02  0.57075060712E+02  0.23548610778E+03  0.24262406073E+03  0.00000000000E+00 0.  1.
         13    1    5    5    0    0 -0.23308192348E+02  0.76058069577E+02 -0.74255861181E+02  0.10882111329E+03  0.00000000000E+00 0. -1.
        -13    1    5    5    0    0  0.32335946865E+02  0.15690338792E+03 -0.37865875070E+02  0.16461503909E+03  0.00000000000E+00 0.  1.
          4    1    6    6  503    0  0.38548588397E+02 -0.27112730351E+03  0.12324310862E+03  0.30030796226E+03  0.00000000000E+00 0. -1.
         -4    1    6    6    0  503  0.51708506561E+02 -0.35060221595E+03  0.27975684706E+03  0.45150811395E+03  0.00000000000E+00 0.  1.
<mgrwt>
<rscale>  0 0.18023908E+04</rscale>
<asrwt>0</asrwt>
<pdfrwt beam="1">  1        2 0.31434912E+00 0.18023908E+04</pdfrwt>
<pdfrwt beam="2">  1       -1 0.61150353E-01 0.18023908E+04</pdfrwt>
<totfact> 0.18427744E+01</totfact>
</mgrwt>
</event>
<event>
12    7  0.1625631E-007  0.1687257E+04  0.7818608E-02  0.8768666E-01
          2   -1    0    0  501    0  0.00000000000E+00  0.00000000000E+00  0.17778725559E+04  0.17778725559E+04  0.00000000000E+00 0. -1.
         -1   -1    0    0    0  501 -0.00000000000E+00 -0.00000000000E+00 -0.40031508857E+03  0.40031508857E+03  0.00000000000E+00 0.  1.
         24    2    1    2    0    0  0.18995812172E+03  0.18419154054E+03  0.12102678843E+04  0.12414491273E+04  0.80230744708E+02 0.  0.
        254    2    1    2    0    0 -0.18995812172E+03 -0.18419154054E+03  0.16728958307E+03  0.93673851716E+03  0.88288313683E+03 0.  0.
         23    2    4    4    0    0 -0.92195942225E+02  0.24195727644E+03 -0.21454714584E+03  0.34900927623E+03  0.93453634065E+02 0.  0.
         23    2    4    4    0    0 -0.97762179495E+02 -0.42614881698E+03  0.38183672891E+03  0.58772924092E+03  0.92011494594E+02 0.  0.
          4    1    3    3  502    0  0.12890450011E+03  0.15203935440E+03  0.10139667765E+04  0.10333735817E+04  0.00000000000E+00 0. -1.
         -1    1    3    3    0  502  0.61053621613E+02  0.32152186142E+02  0.19630110778E+03  0.20807554566E+03  0.00000000000E+00 0.  1.
         13    1    5    5    0    0  0.17884505919E+02  0.59770001303E+02 -0.46609120534E+02  0.77876304000E+02  0.00000000000E+00 0.  1.
        -13    1    5    5    0    0 -0.11008044814E+03  0.18218727514E+03 -0.16793802531E+03  0.27113297223E+03  0.00000000000E+00 0. -1.
          1    1    6    6  503    0 -0.72363145487E+02 -0.26728343807E+03  0.18280249516E+03  0.33180357642E+03  0.00000000000E+00 0. -1.
         -1    1    6    6    0  503 -0.25399034008E+02 -0.15886537892E+03  0.19903423375E+03  0.25592566450E+03  0.00000000000E+00 0.  1.
<mgrwt>
<rscale>  0 0.16872572E+04</rscale>
<asrwt>0</asrwt>
<pdfrwt beam="1">  1        2 0.27351885E+00 0.16872572E+04</pdfrwt>
<pdfrwt beam="2">  1       -1 0.61586938E-01 0.16872572E+04</pdfrwt>
<totfact> 0.25752420E+01</totfact>
</mgrwt>
</event>
<event>
12    7  0.1625631E-007  0.1739089E+04  0.7818608E-02  0.8739379E-01
          2   -1    0    0  501    0  0.00000000000E+00  0.00000000000E+00  0.23040613025E+04  0.23040613025E+04  0.00000000000E+00 0. -1.
         -1   -1    0    0    0  501 -0.00000000000E+00 -0.00000000000E+00 -0.32816309448E+03  0.32816309448E+03  0.00000000000E+00 0.  1.
         24    2    1    2    0    0 -0.48396755666E+03 -0.22888167650E+03  0.21423255870E+03  0.58240329791E+03  0.81771599457E+02 0.  0.
        254    2    1    2    0    0  0.48396755666E+03  0.22888167650E+03  0.17616656494E+04  0.20498210991E+04  0.90093798927E+03 0.  0.
         23    2    4    4    0    0  0.56280121857E+03  0.16878578974E+03  0.48907527975E+03  0.77043525262E+03  0.95613779258E+02 0.  0.
         23    2    4    4    0    0 -0.78833661915E+02  0.60095886767E+02  0.12725903696E+04  0.12793858465E+04  0.86692753490E+02 0.  0.
          4    1    3    3  502    0 -0.24458557640E+03 -0.12283495639E+03  0.15284211266E+03  0.31348244304E+03  0.00000000000E+00 0. -1.
         -3    1    3    3    0  502 -0.23938198026E+03 -0.10604672011E+03  0.61390446037E+02  0.26892085487E+03  0.00000000000E+00 0.  1.
         13    1    5    5    0    0  0.68524798962E+02  0.23661745422E+01  0.27156674863E+02  0.73747758233E+02  0.00000000000E+00 0.  1.
        -13    1    5    5    0    0  0.49427641961E+03  0.16641961519E+03  0.46191860489E+03  0.69668749439E+03  0.00000000000E+00 0. -1.
          1    1    6    6  503    0 -0.92540473354E+02  0.56537335661E+02  0.12234194025E+04  0.12282162855E+04  0.00000000000E+00 0. -1.
         -1    1    6    6    0  503  0.13706811439E+02  0.35585511067E+01  0.49170967088E+02  0.51169560973E+02  0.00000000000E+00 0.  1.
<mgrwt>
<rscale>  0 0.17390893E+04</rscale>
<asrwt>0</asrwt>
<pdfrwt beam="1">  1        2 0.35447096E+00 0.17390893E+04</pdfrwt>
<pdfrwt beam="2">  1       -1 0.50486631E-01 0.17390893E+04</pdfrwt>
<totfact> 0.19209231E+01</totfact>
</mgrwt>
</event>
<event>
12    7  0.1625631E-007  0.1798751E+04  0.7818608E-02  0.8706964E-01
          2   -1    0    0  501    0  0.00000000000E+00  0.00000000000E+00  0.67537492205E+03  0.67537492205E+03  0.00000000000E+00 0. -1.
         -1   -1    0    0    0  501 -0.00000000000E+00 -0.00000000000E+00 -0.11976699163E+04  0.11976699163E+04  0.00000000000E+00 0.  1.
         24    2    1    2    0    0 -0.61938956204E+02 -0.65976499993E+03 -0.25043438930E+03  0.71295435557E+03  0.80375620406E+02 0.  0.
        254    2    1    2    0    0  0.61938956204E+02  0.65976499993E+03 -0.27186060499E+03  0.11600904828E+04  0.91256531294E+03 0.  0.
         23    2    4    4    0    0  0.17515393348E+03  0.85598240909E+03 -0.25496800308E+03  0.91487928793E+03  0.92793554749E+02 0.  0.
         23    2    4    4    0    0 -0.11321497728E+03 -0.19621740916E+03 -0.16892601913E+02  0.24521119491E+03  0.92326959073E+02 0.  0.
          2    1    3    3  502    0 -0.43829374471E+02 -0.62311736218E+03 -0.22106800204E+03  0.66262155310E+03  0.00000000000E+00 0. -1.
         -1    1    3    3    0  502 -0.18109581733E+02 -0.36647637754E+02 -0.29366387261E+02  0.50332802468E+02  0.00000000000E+00 0.  1.
         13    1    5    5    0    0 -0.10069335096E+02  0.77016814013E+02 -0.29130748532E+02  0.82955299168E+02  0.00000000000E+00 0. -1.
        -13    1    5    5    0    0  0.18522326858E+03  0.77896559507E+03 -0.22583725455E+03  0.83192398876E+03  0.00000000000E+00 0.  1.
          3    1    6    6  503    0 -0.55956946331E+02 -0.23437114190E+02 -0.17673614142E+02  0.63188881942E+02  0.00000000000E+00 0. -1.
         -3    1    6    6    0  503 -0.57258030946E+02 -0.17278029497E+03  0.78101222832E+00  0.18202231296E+03  0.00000000000E+00 0.  1.
<mgrwt>
<rscale>  0 0.17987509E+04</rscale>
<asrwt>0</asrwt>
<pdfrwt beam="1">  1        2 0.10390383E+00 0.17987509E+04</pdfrwt>
<pdfrwt beam="2">  1       -1 0.18425691E+00 0.17987509E+04</pdfrwt>
<totfact> 0.89659997E+00</totfact>
</mgrwt>
</event>
<event>
12    7  0.1625631E-007  0.1703075E+04  0.7818608E-02  0.8759612E-01
          2   -1    0    0  501    0  0.00000000000E+00  0.00000000000E+00  0.92119724402E+03  0.92119724402E+03  0.00000000000E+00 0. -1.
         -1   -1    0    0    0  501 -0.00000000000E+00 -0.00000000000E+00 -0.78714554087E+03  0.78714554087E+03  0.00000000000E+00 0.  1.
         24    2    1    2    0    0  0.16822392180E+03 -0.56835788427E+03 -0.98622075104E+02  0.60617941626E+03  0.79982488850E+02 0.  0.
        254    2    1    2    0    0 -0.16822392180E+03  0.56835788427E+03  0.23267377825E+03  0.11021633686E+04  0.89960937721E+03 0.  0.
         23    2    4    4    0    0 -0.23917478474E+03  0.20210048559E+02 -0.25337830321E+03  0.36062491663E+03  0.90756499711E+02 0.  0.
         23    2    4    4    0    0  0.70950862938E+02  0.54814783571E+03  0.48605208147E+03  0.74153845199E+03  0.90180791349E+02 0.  0.
          4    1    3    3  502    0  0.55762427155E+01 -0.26592254115E+02 -0.22794164494E+02  0.35465707335E+02  0.00000000000E+00 0. -1.
         -3    1    3    3    0  502  0.16264767909E+03 -0.54176563016E+03 -0.75827910609E+02  0.57071370893E+03  0.00000000000E+00 0.  1.
         13    1    5    5    0    0 -0.20503342880E+03  0.31293775140E+02 -0.24960540010E+03  0.32453175969E+03  0.00000000000E+00 0.  1.
        -13    1    5    5    0    0 -0.34141355941E+02 -0.11083726581E+02 -0.37729031141E+01  0.36093156945E+02  0.00000000000E+00 0. -1.
          2    1    6    6  503    0  0.35358013997E+02  0.75454787802E+02  0.48381823670E+02  0.96355669359E+02  0.00000000000E+00 0. -1.
         -2    1    6    6    0  503  0.35592848941E+02  0.47269304791E+03  0.43767025780E+03  0.64518278263E+03  0.00000000000E+00 0.  1.
<mgrwt>
<rscale>  0 0.17030752E+04</rscale>
<asrwt>0</asrwt>
<pdfrwt beam="1">  1        2 0.14172265E+00 0.17030752E+04</pdfrwt>
<pdfrwt beam="2">  1       -1 0.12109931E+00 0.17030752E+04</pdfrwt>
<totfact> 0.18649821E+01</totfact>
</mgrwt>
</event>
<event>
12    7  0.1625631E-007  0.1988508E+04  0.7818608E-02  0.8612012E-01
          2   -1    0    0  501    0  0.00000000000E+00  0.00000000000E+00  0.18296805620E+04  0.18296805620E+04  0.00000000000E+00 0. -1.
         -1   -1    0    0    0  501 -0.00000000000E+00 -0.00000000000E+00 -0.54028067489E+03  0.54028067489E+03  0.00000000000E+00 0.  1.
         24    2    1    2    0    0 -0.48799030640E+03 -0.53015025258E+03  0.90030111269E+03  0.11555340995E+04  0.74317777542E+02 0.  0.
        254    2    1    2    0    0  0.48799030640E+03  0.53015025258E+03  0.38909877443E+03  0.12144271374E+04  0.89679517529E+03 0.  0.
         23    2    4    4    0    0  0.46865740425E+03  0.69624416794E+03  0.78222243434E+02  0.84786580541E+03  0.91443975556E+02 0.  0.
         23    2    4    4    0    0  0.19332902155E+02 -0.16609391536E+03  0.31087653099E+03  0.36656133203E+03  0.98803050514E+02 0.  0.
          4    1    3    3  502    0 -0.35243494201E+03 -0.42918202451E+03  0.69157229352E+03  0.88694973684E+03  0.00000000000E+00 0. -1.
         -3    1    3    3    0  502 -0.13555536439E+03 -0.10096822808E+03  0.20872881917E+03  0.26858436263E+03  0.00000000000E+00 0.  1.
         13    1    5    5    0    0  0.21401724045E+03  0.36064651487E+03  0.78203074704E+02  0.42659700983E+03  0.00000000000E+00 0.  1.
        -13    1    5    5    0    0  0.25464016380E+03  0.33559765307E+03  0.19168730476E-01  0.42126879558E+03  0.00000000000E+00 0. -1.
          4    1    6    6  503    0  0.52413974435E+02 -0.14480468120E+03  0.23266861022E+03  0.27901667082E+03  0.00000000000E+00 0.  1.
         -4    1    6    6    0  503 -0.33081072280E+02 -0.21289234155E+02  0.78207920776E+02  0.87544661209E+02  0.00000000000E+00 0. -1.
<mgrwt>
<rscale>  0 0.19885080E+04</rscale>
<asrwt>0</asrwt>
<pdfrwt beam="1">  1        2 0.28148931E+00 0.19885080E+04</pdfrwt>
<pdfrwt beam="2">  1       -1 0.83120105E-01 0.19885080E+04</pdfrwt>
<totfact> 0.12641097E+01</totfact>
</mgrwt>
</event>
<event>
12    7  0.1625631E-007  0.1491889E+04  0.7818608E-02  0.8889865E-01
          4   -1    0    0  501    0  0.00000000000E+00  0.00000000000E+00  0.64096647771E+03  0.64096647771E+03  0.00000000000E+00 0. -1.
         -3   -1    0    0    0  501 -0.00000000000E+00 -0.00000000000E+00 -0.86811596721E+03  0.86811596721E+03  0.00000000000E+00 0.  1.
         24    2    1    2    0    0  0.46862040926E+03  0.33089381187E+02 -0.18291855273E+02  0.47689673081E+03  0.79974400745E+02 0.  0.
        254    2    1    2    0    0 -0.46862040926E+03 -0.33089381187E+02 -0.20885763423E+03  0.10321857141E+04  0.89503398925E+03 0.  0.
         23    2    4    4    0    0 -0.45455136871E+03  0.31716210069E+03  0.83227271481E+02  0.56781968136E+03  0.91014652185E+02 0.  0.
         23    2    4    4    0    0 -0.14069040547E+02 -0.35025148188E+03 -0.29208490571E+03  0.46436603275E+03  0.86302849149E+02 0.  0.
          2    1    3    3  502    0  0.44901502704E+03  0.48400368560E+02 -0.15736264542E+02  0.45189016388E+03  0.00000000000E+00 0. -1.
         -1    1    3    3    0  502  0.19605382212E+02 -0.15310987373E+02 -0.25555907318E+01  0.25006566937E+02  0.00000000000E+00 0.  1.
         13    1    5    5    0    0 -0.16977151932E+03  0.15012238113E+03  0.70816471245E+02  0.23743224441E+03  0.00000000000E+00 0.  1.
        -13    1    5    5    0    0 -0.28477984939E+03  0.16703971956E+03  0.12410800235E+02  0.33038743695E+03  0.00000000000E+00 0. -1.
          1    1    6    6  503    0  0.15966369503E+02 -0.23284829746E+03 -0.14918821136E+03  0.27700248554E+03  0.00000000000E+00 0. -1.
         -1    1    6    6    0  503 -0.30035410051E+02 -0.11740318441E+03 -0.14289669435E+03  0.18736354722E+03  0.00000000000E+00 0.  1.
<mgrwt>
<rscale>  0 0.14918890E+04</rscale>
<asrwt>0</asrwt>
<pdfrwt beam="1">  1        4 0.98610228E-01 0.14918890E+04</pdfrwt>
<pdfrwt beam="2">  1       -3 0.13355630E+00 0.14918890E+04</pdfrwt>
<totfact> 0.81927496E-01</totfact>
</mgrwt>
</event>
<event>
12    7  0.1625631E-007  0.2940198E+04  0.7818608E-02  0.8261017E-01
         -1   -1    0    0    0  501 -0.00000000000E+00  0.00000000000E+00  0.92640122516E+03  0.92640122516E+03  0.00000000000E+00 0.  1.
          2   -1    0    0  501    0  0.00000000000E+00 -0.00000000000E+00 -0.23328896208E+04  0.23328896208E+04  0.00000000000E+00 0. -1.
         24    2    1    2    0    0  0.50206346159E+02 -0.86692975206E+02  0.83221120623E+03  0.84208020478E+03  0.80543344651E+02 0.  0.
        254    2    1    2    0    0 -0.50206346159E+02  0.86692975206E+02 -0.22386996019E+04  0.24172106412E+04  0.90614293979E+03 0.  0.
         23    2    4    4    0    0 -0.40779865336E+03 -0.17946989302E+03 -0.11996607613E+04  0.12829541430E+04  0.90973658516E+02 0.  0.
         23    2    4    4    0    0  0.35759230720E+03  0.26616286822E+03 -0.10390388405E+04  0.11342564982E+04  0.90670618091E+02 0.  0.
          2    1    3    3  502    0  0.14950864280E+02  0.14580301902E+02  0.11212838527E+03  0.11405651375E+03  0.00000000000E+00 0. -1.
         -1    1    3    3    0  502  0.35255481879E+02 -0.10127327711E+03  0.72008282096E+03  0.72802369103E+03  0.00000000000E+00 0.  1.
         13    1    5    5    0    0 -0.28115239632E+03 -0.95135869964E+02 -0.69166383092E+03  0.75265952377E+03  0.00000000000E+00 0.  1.
        -13    1    5    5    0    0 -0.12664625703E+03 -0.84334023055E+02 -0.50799693042E+03  0.53029461923E+03  0.00000000000E+00 0. -1.
          3    1    6    6  503    0  0.57840698116E+01  0.93349516823E+01 -0.82297175939E+02  0.83026634004E+02  0.00000000000E+00 0. -1.
         -3    1    6    6    0  503  0.35180823739E+03  0.25682791654E+03 -0.95674166459E+03  0.10512298642E+04  0.00000000000E+00 0.  1.
<mgrwt>
<rscale>  0 0.29401985E+04</rscale>
<asrwt>0</asrwt>
<pdfrwt beam="1">  1        2 0.35890609E+00 0.29401985E+04</pdfrwt>
<pdfrwt beam="2">  1       -1 0.14252327E+00 0.29401985E+04</pdfrwt>
<totfact> 0.16982567E+00</totfact>
</mgrwt>
</event>
<event>
12    7  0.1625631E-007  0.1373401E+04  0.7818608E-02  0.8973300E-01
          2   -1    0    0  501    0  0.00000000000E+00  0.00000000000E+00  0.18493570351E+04  0.18493570351E+04  0.00000000000E+00 0. -1.
         -1   -1    0    0    0  501 -0.00000000000E+00 -0.00000000000E+00 -0.25498474940E+03  0.25498474940E+03  0.00000000000E+00 0.  1.
         24    2    1    2    0    0  0.95274069671E+02  0.41598930380E+02 -0.11459131818E+03  0.17387410494E+03  0.79331045677E+02 0.  0.
        254    2    1    2    0    0 -0.95274069671E+02 -0.41598930380E+02  0.17089636038E+04  0.19304676795E+04  0.89181906408E+03 0.  0.
         23    2    4    4    0    0  0.33414945461E+03  0.89588135758E+02  0.11704109279E+04  0.12235350698E+04  0.86570404591E+02 0.  0.
         23    2    4    4    0    0 -0.42942352428E+03 -0.13118706614E+03  0.53855267596E+03  0.70693260968E+03  0.90000668410E+02 0.  0.
          2    1    3    3  502    0  0.37580947361E+01 -0.16918274096E+02 -0.20337881377E+01  0.17449572161E+02  0.00000000000E+00 0. -1.
         -1    1    3    3    0  502  0.91515974935E+02  0.58517204475E+02 -0.11255753004E+03  0.15642453278E+03  0.00000000000E+00 0.  1.
         13    1    5    5    0    0  0.19371003871E+03  0.74711472779E+02  0.81660321681E+03  0.84258305049E+03  0.00000000000E+00 0.  1.
        -13    1    5    5    0    0  0.14043941590E+03  0.14876662979E+02  0.35380771106E+03  0.38095201935E+03  0.00000000000E+00 0. -1.
          3    1    6    6  503    0 -0.41784284303E+03 -0.11588489852E+03  0.48775402315E+03  0.65263001638E+03  0.00000000000E+00 0. -1.
         -3    1    6    6    0  503 -0.11580681251E+02 -0.15302167614E+02  0.50798652808E+02  0.54302593299E+02  0.00000000000E+00 0.  1.
<mgrwt>
<rscale>  0 0.13734014E+04</rscale>
<asrwt>0</asrwt>
<pdfrwt beam="1">  1        2 0.28451646E+00 0.13734014E+04</pdfrwt>
<pdfrwt beam="2">  1       -1 0.39228424E-01 0.13734014E+04</pdfrwt>
<totfact> 0.56816985E+01</totfact>
</mgrwt>
</event>
<event>
12    7  0.1625631E-007  0.1876729E+04  0.7818608E-02  0.8666528E-01
          2   -1    0    0  501    0  0.00000000000E+00  0.00000000000E+00  0.19901639893E+04  0.19901639893E+04  0.00000000000E+00 0. -1.
         -3   -1    0    0    0  501 -0.00000000000E+00 -0.00000000000E+00 -0.44243968782E+03  0.44243968782E+03  0.00000000000E+00 0.  1.
         24    2    1    2    0    0  0.43936370879E+03  0.55120088809E+03  0.78735723911E+03  0.10600884110E+04  0.83624933023E+02 0.  0.
        254    2    1    2    0    0 -0.43936370879E+03 -0.55120088809E+03  0.76036706232E+03  0.13725152661E+04  0.89932040932E+03 0.  0.
         23    2    4    4    0    0  0.24783096971E+03 -0.11379232799E+02  0.17541244243E+03  0.31696600859E+03  0.90267652892E+02 0.  0.
         23    2    4    4    0    0 -0.68719467849E+03 -0.53982165529E+03  0.58495461990E+03  0.10555492575E+04  0.91478861240E+02 0.  0.
          2    1    3    3  502    0  0.31737837037E+03  0.34851029935E+03  0.48705272119E+03  0.67779702858E+03  0.00000000000E+00 0. -1.
         -1    1    3    3    0  502  0.12198533842E+03  0.20269058874E+03  0.30030451793E+03  0.38229138238E+03  0.00000000000E+00 0.  1.
         13    1    5    5    0    0  0.14825631854E+02 -0.18622062041E+02 -0.21877215659E+01  0.23903277603E+02  0.00000000000E+00 0.  1.
        -13    1    5    5    0    0  0.23300533785E+03  0.72428292416E+01  0.17760016399E+03  0.29306273099E+03  0.00000000000E+00 0. -1.
          4    1    6    6  503    0 -0.55017457304E+03 -0.42180492384E+03  0.41862851968E+03  0.80985263603E+03  0.00000000000E+00 0. -1.
         -4    1    6    6    0  503 -0.13702010545E+03 -0.11801673145E+03  0.16632610022E+03  0.24569662149E+03  0.00000000000E+00 0.  1.
<mgrwt>
<rscale>  0 0.18767286E+04</rscale>
<asrwt>0</asrwt>
<pdfrwt beam="1">  1        2 0.30617907E+00 0.18767286E+04</pdfrwt>
<pdfrwt beam="2">  1       -3 0.68067646E-01 0.18767286E+04</pdfrwt>
<totfact> 0.84291561E+00</totfact>
</mgrwt>
</event>
<event>
12    7  0.1625631E-007  0.1451681E+04  0.7818608E-02  0.8917236E-01
         -1   -1    0    0    0  501 -0.00000000000E+00  0.00000000000E+00  0.34720146897E+03  0.34720146897E+03  0.00000000000E+00 0.  1.
          2   -1    0    0  501    0  0.00000000000E+00 -0.00000000000E+00 -0.15174030205E+04  0.15174030205E+04  0.00000000000E+00 0. -1.
         24    2    1    2    0    0 -0.29967918418E+03  0.19376168844E+03 -0.27968855949E+02  0.36670821012E+03  0.79633216230E+02 0.  0.
        254    2    1    2    0    0  0.29967918418E+03 -0.19376168844E+03 -0.11422326956E+04  0.14978962794E+04  0.90091427312E+03 0.  0.
         23    2    4    4    0    0 -0.56254652515E+02  0.31796317106E+03 -0.46422271168E+03  0.57282775546E+03  0.91453525417E+02 0.  0.
         23    2    4    4    0    0  0.35593383670E+03 -0.51172485950E+03 -0.67800998390E+03  0.92506852389E+03  0.86619903556E+02 0.  0.
          4    1    3    3  502    0 -0.37417833115E+01 -0.17051877355E+01 -0.10882323876E+02  0.11633296202E+02  0.00000000000E+00 0. -1.
         -3    1    3    3    0  502 -0.29593740087E+03  0.19546687618E+03 -0.17086532073E+02  0.35507491392E+03  0.00000000000E+00 0.  1.
         13    1    5    5    0    0  0.22666345515E+02  0.67916465775E+02 -0.12535500023E+03  0.14436164874E+03  0.00000000000E+00 0. -1.
        -13    1    5    5    0    0 -0.78920998030E+02  0.25004670528E+03 -0.33886771144E+03  0.42846610672E+03  0.00000000000E+00 0.  1.
          3    1    6    6  503    0  0.86767465706E+02 -0.15541152515E+03 -0.14396392808E+03  0.22892563824E+03  0.00000000000E+00 0. -1.
         -3    1    6    6    0  503  0.26916637099E+03 -0.35631333434E+03 -0.53404605583E+03  0.69614288565E+03  0.00000000000E+00 0.  1.
<mgrwt>
<rscale>  0 0.14516812E+04</rscale>
<asrwt>0</asrwt>
<pdfrwt beam="1">  1        2 0.23344662E+00 0.14516812E+04</pdfrwt>
<pdfrwt beam="2">  1       -1 0.53415610E-01 0.14516812E+04</pdfrwt>
<totfact> 0.48476623E+01</totfact>
</mgrwt>
</event>
<event>
12    7  0.1625631E-007  0.1957747E+04  0.7818608E-02  0.8626634E-01
         -1   -1    0    0    0  501 -0.00000000000E+00  0.00000000000E+00  0.56347019458E+03  0.56347019458E+03  0.00000000000E+00 0.  1.
          2   -1    0    0  501    0  0.00000000000E+00 -0.00000000000E+00 -0.17005209141E+04  0.17005209141E+04  0.00000000000E+00 0. -1.
         24    2    1    2    0    0 -0.45472960087E+03 -0.59046560890E+03 -0.23082111373E+03  0.78433642358E+03  0.80477286299E+02 0.  0.
        254    2    1    2    0    0  0.45472960087E+03  0.59046560890E+03 -0.90622960575E+03  0.14796546851E+04  0.90149722325E+03 0.  0.
         23    2    4    4    0    0  0.17026850379E+03  0.74550707927E+03 -0.39001383468E+03  0.86333768564E+03  0.92027167614E+02 0.  0.
         23    2    4    4    0    0  0.28446109708E+03 -0.15504147038E+03 -0.51621577107E+03  0.61631699944E+03  0.91716673540E+02 0.  0.
          2    1    3    3  502    0 -0.27275202085E+03 -0.39425224973E+03 -0.11667140049E+03  0.49339711895E+03  0.00000000000E+00 0. -1.
         -1    1    3    3    0  502 -0.18197758002E+03 -0.19621335917E+03 -0.11414971324E+03  0.29093930463E+03  0.00000000000E+00 0.  1.
         13    1    5    5    0    0  0.11671262708E+03  0.49606722573E+03 -0.21044369365E+03  0.55135385911E+03  0.00000000000E+00 0.  1.
        -13    1    5    5    0    0  0.53555876714E+02  0.24943985354E+03 -0.17957014103E+03  0.31198382653E+03  0.00000000000E+00 0. -1.
          2    1    6    6  503    0  0.60778499229E+02 -0.78138325773E+02 -0.12956057589E+03  0.16305081032E+03  0.00000000000E+00 0. -1.
         -2    1    6    6    0  503  0.22368259785E+03 -0.76903144602E+02 -0.38665519518E+03  0.45326618911E+03  0.00000000000E+00 0.  1.
<mgrwt>
<rscale>  0 0.19577465E+04</rscale>
<asrwt>0</asrwt>
<pdfrwt beam="1">  1        2 0.26161861E+00 0.19577465E+04</pdfrwt>
<pdfrwt beam="2">  1       -1 0.86687721E-01 0.19577465E+04</pdfrwt>
<totfact> 0.13649012E+01</totfact>
</mgrwt>
</event>
<event>
12    7  0.1625631E-007  0.1637887E+04  0.7818608E-02  0.8797605E-01
         -1   -1    0    0    0  501 -0.00000000000E+00  0.00000000000E+00  0.53828163747E+03  0.53828163747E+03  0.00000000000E+00 0.  1.
          2   -1    0    0  501    0  0.00000000000E+00 -0.00000000000E+00 -0.12459429801E+04  0.12459429801E+04  0.00000000000E+00 0. -1.
         24    2    1    2    0    0 -0.26227062074E+03 -0.49868023902E+03 -0.31155056541E+03  0.64861921489E+03  0.78582897765E+02 0.  0.
        254    2    1    2    0    0  0.26227062074E+03  0.49868023902E+03 -0.39611077720E+03  0.11356054027E+04  0.90289978595E+03 0.  0.
         23    2    4    4    0    0  0.18754421399E+03 -0.13378169312E+03 -0.42510489446E+03  0.49194928974E+03  0.90716915517E+02 0.  0.
         23    2    4    4    0    0  0.74726406749E+02  0.63246193214E+03  0.28994117256E+02  0.64365611294E+03  0.88658904888E+02 0.  0.
          2    1    3    3  502    0 -0.17915861419E+03 -0.40394984688E+03 -0.22631571513E+03  0.49647969822E+03  0.00000000000E+00 0. -1.
         -1    1    3    3    0  502 -0.83112006555E+02 -0.94730392132E+02 -0.85234850284E+02  0.15213951666E+03  0.00000000000E+00 0.  1.
         13    1    5    5    0    0  0.14510069895E+03 -0.72519421530E+02 -0.35187005845E+03  0.38746073010E+03  0.00000000000E+00 0.  1.
        -13    1    5    5    0    0  0.42443515042E+02 -0.61262271593E+02 -0.73234836014E+02  0.10448855964E+03  0.00000000000E+00 0. -1.
          3    1    6    6  503    0  0.42948731780E+02  0.41645199954E+03 -0.22732532672E+02  0.41927750897E+03  0.00000000000E+00 0. -1.
         -3    1    6    6    0  503  0.31777674969E+02  0.21600993260E+03  0.51726649928E+02  0.22437860397E+03  0.00000000000E+00 0.  1.
<mgrwt>
<rscale>  0 0.16378867E+04</rscale>
<asrwt>0</asrwt>
<pdfrwt beam="1">  1        2 0.19168354E+00 0.16378867E+04</pdfrwt>
<pdfrwt beam="2">  1       -1 0.82812560E-01 0.16378867E+04</pdfrwt>
<totfact> 0.28088075E+01</totfact>
</mgrwt>
</event>
<event>
12    7  0.1625631E-007  0.2321579E+04  0.7818608E-02  0.8469461E-01
         -1   -1    0    0    0  501 -0.00000000000E+00  0.00000000000E+00  0.66342072791E+03  0.66342072791E+03  0.00000000000E+00 0.  1.
          2   -1    0    0  501    0  0.00000000000E+00 -0.00000000000E+00 -0.20310381213E+04  0.20310381213E+04  0.00000000000E+00 0. -1.
         24    2    1    2    0    0 -0.24399786519E+03 -0.66543713513E+03 -0.13773468040E+04  0.15511181296E+04  0.80880741999E+02 0.  0.
        254    2    1    2    0    0  0.24399786519E+03  0.66543713513E+03  0.97294105612E+01  0.11433407197E+04  0.89710188987E+03 0.  0.
         23    2    4    4    0    0 -0.13880999710E+03  0.60367065576E+03  0.25432067286E+03  0.67604503831E+03  0.93120423432E+02 0.  0.
         23    2    4    4    0    0  0.38280786228E+03  0.61766479368E+02 -0.24459126229E+03  0.46729568136E+03  0.90462206634E+02 0.  0.
          4    1    3    3  502    0 -0.17181065038E+03 -0.55432650885E+03 -0.10977145595E+04  0.12416819368E+04  0.00000000000E+00 0. -1.
         -3    1    3    3    0  502 -0.72187214809E+02 -0.11111062627E+03 -0.27963224444E+03  0.30943619275E+03  0.00000000000E+00 0.  1.
         13    1    5    5    0    0 -0.23149596684E+02  0.14737689371E+03  0.20952877982E+02  0.15064818526E+03  0.00000000000E+00 0.  1.
        -13    1    5    5    0    0 -0.11566040041E+03  0.45629376205E+03  0.23336779487E+03  0.52539685305E+03  0.00000000000E+00 0. -1.
          2    1    6    6  503    0  0.24563020402E+03  0.39174210842E+02 -0.20613677990E+03  0.32304982270E+03  0.00000000000E+00 0. -1.
         -2    1    6    6    0  503  0.13717765826E+03  0.22592268526E+02 -0.38454482397E+02  0.14424585866E+03  0.00000000000E+00 0.  1.
<mgrwt>
<rscale>  0 0.23215795E+04</rscale>
<asrwt>0</asrwt>
<pdfrwt beam="1">  1        2 0.31246741E+00 0.23215795E+04</pdfrwt>
<pdfrwt beam="2">  1       -1 0.10206473E+00 0.23215795E+04</pdfrwt>
<totfact> 0.60125466E+00</totfact>
</mgrwt>
</event>
<event>
12    7  0.1625631E-007  0.1427726E+04  0.7818608E-02  0.8933990E-01
          2   -1    0    0  501    0  0.00000000000E+00  0.00000000000E+00  0.10349770658E+04  0.10349770658E+04  0.00000000000E+00 0. -1.
         -1   -1    0    0    0  501 -0.00000000000E+00 -0.00000000000E+00 -0.49237836627E+03  0.49237836627E+03  0.00000000000E+00 0.  1.
         24    2    1    2    0    0  0.22332782084E+03 -0.23024463342E+03  0.47617057780E+03  0.57965446324E+03  0.79830888798E+02 0.  0.
        254    2    1    2    0    0 -0.22332782084E+03  0.23024463342E+03  0.66428121746E+02  0.94770096884E+03  0.88928989885E+03 0.  0.
         23    2    4    4    0    0 -0.13725632736E+03 -0.27558841817E+03 -0.18227487943E+03  0.36905816531E+03  0.90507027787E+02 0.  0.
         23    2    4    4    0    0 -0.86071493481E+02  0.50583305159E+03  0.24870300118E+03  0.57864280353E+03  0.98483162076E+02 0.  0.
          2    1    3    3  502    0  0.18256004753E+03 -0.19663835690E+03  0.44090696854E+03  0.51613348009E+03  0.00000000000E+00 0. -1.
         -1    1    3    3    0  502  0.40767773312E+02 -0.33606276521E+02  0.35263609261E+02  0.63520983152E+02  0.00000000000E+00 0.  1.
         13    1    5    5    0    0 -0.13578197767E+03 -0.26630725384E+03 -0.19220536906E+03  0.35538599128E+03  0.00000000000E+00 0.  1.
        -13    1    5    5    0    0 -0.14743496947E+01 -0.92811643319E+01  0.99304896254E+01  0.13672174025E+02  0.00000000000E+00 0. -1.
          1    1    6    6  503    0  0.64916281826E+01  0.23416977003E+03  0.13140611311E+03  0.26859856477E+03  0.00000000000E+00 0. -1.
         -1    1    6    6    0  503 -0.92563121664E+02  0.27166328155E+03  0.11729688807E+03  0.31004423876E+03  0.00000000000E+00 0.  1.
<mgrwt>
<rscale>  0 0.14277259E+04</rscale>
<asrwt>0</asrwt>
<pdfrwt beam="1">  1        2 0.15922724E+00 0.14277259E+04</pdfrwt>
<pdfrwt beam="2">  1       -1 0.75750518E-01 0.14277259E+04</pdfrwt>
<totfact> 0.46430050E+01</totfact>
</mgrwt>
</event>
<event>
12    7  0.1625631E-007  0.1788052E+04  0.7818608E-02  0.8712679E-01
          2   -1    0    0  501    0  0.00000000000E+00  0.00000000000E+00  0.12702065311E+04  0.12702065311E+04  0.00000000000E+00 0. -1.
         -1   -1    0    0    0  501 -0.00000000000E+00 -0.00000000000E+00 -0.62925424606E+03  0.62925424606E+03  0.00000000000E+00 0.  1.
         24    2    1    2    0    0 -0.54123212011E+03 -0.15934653565E+03 -0.14014886100E+03  0.58627038009E+03  0.75813778929E+02 0.  0.
        254    2    1    2    0    0  0.54123212011E+03  0.15934653565E+03  0.78110114603E+03  0.13131903971E+04  0.89220316763E+03 0.  0.
         23    2    4    4    0    0 -0.11421816311E+03 -0.22376344111E+03  0.33211188206E+03  0.42648123302E+03  0.92043867514E+02 0.  0.
         23    2    4    4    0    0  0.65545028322E+03  0.38310997675E+03  0.44898926397E+03  0.88670916404E+03  0.90958531082E+02 0.  0.
          2    1    3    3  502    0 -0.12015614423E+03 -0.57279121039E+02 -0.58389988035E+02  0.14535400719E+03  0.00000000000E+00 0. -1.
         -1    1    3    3    0  502 -0.42107597588E+03 -0.10206741461E+03 -0.81758872962E+02  0.44091637290E+03  0.00000000000E+00 0.  1.
         13    1    5    5    0    0 -0.86959614272E+02 -0.86871455884E+02  0.11470519830E+03  0.16812467659E+03  0.00000000000E+00 0.  1.
        -13    1    5    5    0    0 -0.27258548839E+02 -0.13689198522E+03  0.21740668376E+03  0.25835655643E+03  0.00000000000E+00 0. -1.
          4    1    6    6  503    0  0.29822718706E+03  0.16014417251E+03  0.14992968304E+03  0.37022225885E+03  0.00000000000E+00 0. -1.
         -4    1    6    6    0  503  0.35722309616E+03  0.22296580424E+03  0.29905958093E+03  0.51648690519E+03  0.00000000000E+00 0.  1.
<mgrwt>
<rscale>  0 0.17880524E+04</rscale>
<asrwt>0</asrwt>
<pdfrwt beam="1">  1        2 0.19541639E+00 0.17880524E+04</pdfrwt>
<pdfrwt beam="2">  1       -1 0.96808346E-01 0.17880524E+04</pdfrwt>
<totfact> 0.19026488E+01</totfact>
</mgrwt>
</event>
<event>
12    7  0.1625631E-007  0.1157222E+04  0.7818608E-02  0.9151146E-01
          2   -1    0    0  501    0  0.00000000000E+00  0.00000000000E+00  0.22425497054E+04  0.22425497054E+04  0.00000000000E+00 0. -1.
         -1   -1    0    0    0  501 -0.00000000000E+00 -0.00000000000E+00 -0.14929027470E+03  0.14929027470E+03  0.00000000000E+00 0.  1.
         24    2    1    2    0    0  0.11425256025E+03  0.17295170969E+03  0.23632589234E+03  0.32380517328E+03  0.77678320329E+02 0.  0.
        254    2    1    2    0    0 -0.11425256025E+03 -0.17295170969E+03  0.18569335384E+04  0.20680348068E+04  0.88634071039E+03 0.  0.
         23    2    4    4    0    0  0.20027876118E+03 -0.42037239778E+03  0.75224078062E+03  0.88945800321E+03  0.91895660717E+02 0.  0.
         23    2    4    4    0    0 -0.31453132143E+03  0.24742068809E+03  0.11046927578E+04  0.11785768036E+04  0.92467529044E+02 0.  0.
          4    1    3    3  502    0 -0.11169880184E+02  0.23624781358E+02  0.23481959051E+02  0.35132590546E+02  0.00000000000E+00 0. -1.
         -3    1    3    3    0  502  0.12542244043E+03  0.14932692833E+03  0.21284393328E+03  0.28867258274E+03  0.00000000000E+00 0.  1.
         13    1    5    5    0    0 -0.78337060319E+01 -0.33764613343E+02  0.70595289695E+02  0.78645476612E+02  0.00000000000E+00 0. -1.
        -13    1    5    5    0    0  0.20811246721E+03 -0.38660778444E+03  0.68164549093E+03  0.81081252660E+03  0.00000000000E+00 0.  1.
          2    1    6    6  503    0 -0.33576114870E+02  0.95752836478E+01  0.46253045182E+02  0.57951580956E+02  0.00000000000E+00 0. -1.
         -2    1    6    6    0  503 -0.28095520656E+03  0.23784540444E+03  0.10584397126E+04  0.11206252227E+04  0.00000000000E+00 0.  1.
<mgrwt>
<rscale>  0 0.11572223E+04</rscale>
<asrwt>0</asrwt>
<pdfrwt beam="1">  1        2 0.34500762E+00 0.11572223E+04</pdfrwt>
<pdfrwt beam="2">  1       -1 0.22967736E-01 0.11572223E+04</pdfrwt>
<totfact> 0.89527104E+01</totfact>
</mgrwt>
</event>
<event>
12    7  0.1625631E-007  0.1400486E+04  0.7818608E-02  0.8953467E-01
         -3   -1    0    0    0  501 -0.00000000000E+00  0.00000000000E+00  0.61030006166E+03  0.61030006166E+03  0.00000000000E+00 0.  1.
          2   -1    0    0  501    0  0.00000000000E+00 -0.00000000000E+00 -0.80344163440E+03  0.80344163440E+03  0.00000000000E+00 0. -1.
         24    2    1    2    0    0  0.38769850720E+03 -0.74702682405E+02 -0.18102472973E+03  0.44293682179E+03  0.86789700325E+02 0.  0.
        254    2    1    2    0    0 -0.38769850720E+03  0.74702682405E+02 -0.12116843011E+02  0.97080487427E+03  0.88680587660E+03 0.  0.
         23    2    4    4    0    0 -0.15807867000E+03 -0.24181728412E+03  0.32691053295E+03  0.44565399639E+03  0.90953411934E+02 0.  0.
         23    2    4    4    0    0 -0.22961983720E+03  0.31651996652E+03 -0.33902737596E+03  0.52515087787E+03  0.89071454664E+02 0.  0.
          2    1    3    3  502    0  0.21572285130E+03 -0.79192836552E+01 -0.12806889237E+03  0.25099941199E+03  0.00000000000E+00 0. -1.
         -1    1    3    3    0  502  0.17197565590E+03 -0.66783398750E+02 -0.52955837356E+02  0.19193740980E+03  0.00000000000E+00 0.  1.
         13    1    5    5    0    0 -0.16339787236E+03 -0.24495682802E+03  0.30955348138E+03  0.42723069894E+03  0.00000000000E+00 0.  1.
        -13    1    5    5    0    0  0.53192023617E+01  0.31395439044E+01  0.17357051574E+02  0.18423297453E+02  0.00000000000E+00 0. -1.
          3    1    6    6  503    0 -0.30853911298E+02  0.58140420215E+02 -0.10474446093E+03  0.12370802076E+03  0.00000000000E+00 0. -1.
         -3    1    6    6    0  503 -0.19876592590E+03  0.25837954631E+03 -0.23428291503E+03  0.40144285711E+03  0.00000000000E+00 0.  1.
<mgrwt>
<rscale>  0 0.14004863E+04</rscale>
<asrwt>0</asrwt>
<pdfrwt beam="1">  1        2 0.12360641E+00 0.14004863E+04</pdfrwt>
<pdfrwt beam="2">  1       -3 0.93892317E-01 0.14004863E+04</pdfrwt>
<totfact> 0.21341590E+01</totfact>
</mgrwt>
</event>
<event>
12    7  0.1625631E-007  0.1428625E+04  0.7818608E-02  0.8933355E-01
          2   -1    0    0  501    0  0.00000000000E+00  0.00000000000E+00  0.70503274302E+03  0.70503274302E+03  0.00000000000E+00 0. -1.
         -1   -1    0    0    0  501 -0.00000000000E+00 -0.00000000000E+00 -0.72371396418E+03  0.72371396418E+03  0.00000000000E+00 0.  1.
         24    2    1    2    0    0  0.37775585325E+02 -0.24150814035E+03  0.33891662765E+03  0.42541221917E+03  0.79736434734E+02 0.  0.
        254    2    1    2    0    0 -0.37775585325E+02  0.24150814035E+03 -0.35759784881E+03  0.10033344880E+04  0.90501419695E+03 0.  0.
         23    2    4    4    0    0  0.18864270420E+03  0.64734946373E+02  0.24520715886E+03  0.32932473927E+03  0.92474591164E+02 0.  0.
         23    2    4    4    0    0 -0.22641828952E+03  0.17677319397E+03 -0.60280500766E+03  0.67400974875E+03  0.91658388685E+02 0.  0.
          2    1    3    3  502    0  0.38996983229E+02 -0.24280418247E+03  0.30655689213E+03  0.39300351631E+03  0.00000000000E+00 0. -1.
         -1    1    3    3    0  502 -0.12213979044E+01  0.12960421186E+01  0.32359735522E+02  0.32408702860E+02  0.00000000000E+00 0.  1.
         13    1    5    5    0    0  0.70951271817E+02 -0.19087454967E+02  0.63038522321E+02  0.96810480869E+02  0.00000000000E+00 0.  1.
        -13    1    5    5    0    0  0.11769143238E+03  0.83822401340E+02  0.18216863653E+03  0.23251425840E+03  0.00000000000E+00 0. -1.
          3    1    6    6  503    0 -0.71618243011E+02  0.16033515058E+02 -0.20705202553E+03  0.21967427617E+03  0.00000000000E+00 0. -1.
         -3    1    6    6    0  503 -0.15480004651E+03  0.16073967892E+03 -0.39575298214E+03  0.45433547258E+03  0.00000000000E+00 0.  1.
<mgrwt>
<rscale>  0 0.14286246E+04</rscale>
<asrwt>0</asrwt>
<pdfrwt beam="1">  1        2 0.10846658E+00 0.14286246E+04</pdfrwt>
<pdfrwt beam="2">  1       -1 0.11134061E+00 0.14286246E+04</pdfrwt>
<totfact> 0.33415363E+01</totfact>
</mgrwt>
</event>
<event>
12    7  0.1625631E-007  0.2301752E+04  0.7818608E-02  0.8477231E-01
         -1   -1    0    0    0  501 -0.00000000000E+00  0.00000000000E+00  0.55509515710E+03  0.55509515710E+03  0.00000000000E+00 0.  1.
          2   -1    0    0  501    0  0.00000000000E+00 -0.00000000000E+00 -0.23861058960E+04  0.23861058960E+04  0.00000000000E+00 0. -1.
         24    2    1    2    0    0 -0.72910115729E+03 -0.39545798492E+03 -0.14269039846E+04  0.16523737774E+04  0.79426717652E+02 0.  0.
        254    2    1    2    0    0  0.72910115729E+03  0.39545798492E+03 -0.40410675427E+03  0.12888272757E+04  0.89988774988E+03 0.  0.
         23    2    4    4    0    0  0.92860994210E+03  0.34664580594E+03 -0.28385678148E+03  0.10350681272E+04  0.91168065306E+02 0.  0.
         23    2    4    4    0    0 -0.19950878481E+03  0.48812178975E+02 -0.12024997279E+03  0.25375914856E+03  0.88018551956E+02 0.  0.
          2    1    3    3  502    0 -0.70859009712E+03 -0.36652766715E+03 -0.13663333987E+04  0.15821850123E+04  0.00000000000E+00 0. -1.
         -1    1    3    3    0  502 -0.20511060166E+02 -0.28930317771E+02 -0.60570585903E+02  0.70188765142E+02  0.00000000000E+00 0.  1.
         13    1    5    5    0    0  0.63084165746E+03  0.19092132624E+03 -0.19907622038E+03  0.68850816344E+03  0.00000000000E+00 0. -1.
        -13    1    5    5    0    0  0.29776828464E+03  0.15572447971E+03 -0.84780561104E+02  0.34655996372E+03  0.00000000000E+00 0.  1.
          3    1    6    6  503    0 -0.13531832059E+03  0.64705429908E+02 -0.52060642770E+02  0.15877075006E+03  0.00000000000E+00 0. -1.
         -3    1    6    6    0  503 -0.64190464215E+02 -0.15893250933E+02 -0.68189330016E+02  0.94988398499E+02  0.00000000000E+00 0.  1.
<mgrwt>
<rscale>  0 0.23017522E+04</rscale>
<asrwt>0</asrwt>
<pdfrwt beam="1">  1        2 0.36709322E+00 0.23017522E+04</pdfrwt>
<pdfrwt beam="2">  1       -1 0.85399255E-01 0.23017522E+04</pdfrwt>
<totfact> 0.56591515E+00</totfact>
</mgrwt>
</event>
<event>
12    7  0.1625631E-007  0.2034010E+04  0.7818608E-02  0.8590883E-01
         -1   -1    0    0    0  501 -0.00000000000E+00  0.00000000000E+00  0.40949706558E+03  0.40949706558E+03  0.00000000000E+00 0.  1.
          2   -1    0    0  501    0  0.00000000000E+00 -0.00000000000E+00 -0.25257784004E+04  0.25257784004E+04  0.00000000000E+00 0. -1.
         24    2    1    2    0    0  0.61234670164E+03 -0.39820229625E+03 -0.13494587530E+04  0.15365150667E+04  0.79410783605E+02 0.  0.
        254    2    1    2    0    0 -0.61234670164E+03  0.39820229625E+03 -0.76682258184E+03  0.13987603992E+04  0.91377252679E+03 0.  0.
         23    2    4    4    0    0 -0.38453894715E+03  0.31548167121E+03 -0.95322087714E+03  0.10790699362E+04  0.91449438391E+02 0.  0.
         23    2    4    4    0    0 -0.22780775449E+03  0.82720625042E+02  0.18639829531E+03  0.31969046307E+03  0.93373405593E+02 0.  0.
          4    1    3    3  502    0  0.50873991912E+03 -0.29523687528E+03 -0.11023641240E+04  0.12494750016E+04  0.00000000000E+00 0. -1.
         -3    1    3    3    0  502  0.10360678252E+03 -0.10296542097E+03 -0.24709462900E+03  0.28704006512E+03  0.00000000000E+00 0.  1.
         13    1    5    5    0    0 -0.10370804523E+03  0.72986380744E+02 -0.16698864323E+03  0.20968447102E+03  0.00000000000E+00 0.  1.
        -13    1    5    5    0    0 -0.28083090192E+03  0.24249529047E+03 -0.78623223391E+03  0.86938546515E+03  0.00000000000E+00 0. -1.
          3    1    6    6  503    0 -0.11947934035E+03  0.22747030242E+02  0.40186480041E+02  0.12809251865E+03  0.00000000000E+00 0. -1.
         -3    1    6    6    0  503 -0.10832841413E+03  0.59973594800E+02  0.14621181527E+03  0.19159794442E+03  0.00000000000E+00 0.  1.
<mgrwt>
<rscale>  0 0.20340097E+04</rscale>
<asrwt>0</asrwt>
<pdfrwt beam="1">  1        2 0.38858130E+00 0.20340097E+04</pdfrwt>
<pdfrwt beam="2">  1       -1 0.62999548E-01 0.20340097E+04</pdfrwt>
<totfact> 0.90684591E+00</totfact>
</mgrwt>
</event>
<event>
12    7  0.1625631E-007  0.1552608E+04  0.7818608E-02  0.8850204E-01
          2   -1    0    0  501    0  0.00000000000E+00  0.00000000000E+00  0.20188984083E+04  0.20188984083E+04  0.00000000000E+00 0. -1.
         -1   -1    0    0    0  501 -0.00000000000E+00 -0.00000000000E+00 -0.29850339425E+03  0.29850339425E+03  0.00000000000E+00 0.  1.
         24    2    1    2    0    0  0.24555611654E+03  0.11288426877E+03  0.12153221977E+04  0.12476218790E+04  0.80694760058E+02 0.  0.
        254    2    1    2    0    0 -0.24555611654E+03 -0.11288426877E+03  0.50507281635E+03  0.10697799235E+04  0.90348761499E+03 0.  0.
         23    2    4    4    0    0 -0.53776070411E+03 -0.19761033281E+03  0.47803740063E+03  0.75099919313E+03  0.85109418842E+02 0.  0.
         23    2    4    4    0    0  0.29220458757E+03  0.84726064046E+02  0.27035415720E+02  0.31878073038E+03  0.91259045770E+02 0.  0.
          2    1    3    3  502    0  0.87561656354E+02  0.50827031639E+02  0.63366994440E+03  0.64170712108E+03  0.00000000000E+00 0. -1.
         -1    1    3    3    0  502  0.15799446019E+03  0.62057237127E+02  0.58165225327E+03  0.60591475792E+03  0.00000000000E+00 0.  1.
         13    1    5    5    0    0 -0.29154745717E+03 -0.14615498627E+03  0.29688498364E+03  0.44102368792E+03  0.00000000000E+00 0. -1.
        -13    1    5    5    0    0 -0.24621324693E+03 -0.51455346544E+02  0.18115241699E+03  0.30997550522E+03  0.00000000000E+00 0.  1.
          3    1    6    6  503    0  0.27586917961E+03  0.82539865530E+02  0.98446689348E+00  0.28795416794E+03  0.00000000000E+00 0. -1.
         -3    1    6    6    0  503  0.16335407962E+02  0.21861985160E+01  0.26050948827E+02  0.30826562442E+02  0.00000000000E+00 0.  1.
<mgrwt>
<rscale>  0 0.15526082E+04</rscale>
<asrwt>0</asrwt>
<pdfrwt beam="1">  1        2 0.31059975E+00 0.15526082E+04</pdfrwt>
<pdfrwt beam="2">  1       -1 0.45923600E-01 0.15526082E+04</pdfrwt>
<totfact> 0.33713537E+01</totfact>
</mgrwt>
</event>
<event>
12    7  0.1625631E-007  0.2348063E+04  0.7818608E-02  0.8459208E-01
          2   -1    0    0  501    0  0.00000000000E+00  0.00000000000E+00  0.15809023863E+04  0.15809023863E+04  0.00000000000E+00 0. -1.
         -1   -1    0    0    0  501 -0.00000000000E+00 -0.00000000000E+00 -0.87187526832E+03  0.87187526832E+03  0.00000000000E+00 0.  1.
         24    2    1    2    0    0 -0.54456798594E+03  0.29167146416E+03  0.11233511127E+04  0.12842782619E+04  0.76330840772E+02 0.  0.
        254    2    1    2    0    0  0.54456798594E+03 -0.29167146416E+03 -0.41432399472E+03  0.11684993927E+04  0.90116586925E+03 0.  0.
         23    2    4    4    0    0  0.48143957107E+03  0.24245249213E+03 -0.19312838737E+03  0.57975925068E+03  0.90856718029E+02 0.  0.
         23    2    4    4    0    0  0.63128414862E+02 -0.53412395629E+03 -0.22119560735E+03  0.58874014205E+03  0.91727099100E+02 0.  0.
          4    1    3    3  502    0 -0.36432318251E+03  0.17727713664E+03  0.80108369459E+03  0.89771579591E+03  0.00000000000E+00 0. -1.
         -3    1    3    3    0  502 -0.18024480343E+03  0.11439432752E+03  0.32226741812E+03  0.38656246599E+03  0.00000000000E+00 0.  1.
         13    1    5    5    0    0  0.15248928639E+03  0.31685386496E+02 -0.47660757051E+02  0.16287570090E+03  0.00000000000E+00 0.  1.
        -13    1    5    5    0    0  0.32895028468E+03  0.21076710563E+03 -0.14546763032E+03  0.41688354978E+03  0.00000000000E+00 0. -1.
          3    1    6    6  503    0  0.38300399196E+02 -0.48447392796E+03 -0.21935859350E+03  0.53319799324E+03  0.00000000000E+00 0. -1.
         -3    1    6    6    0  503  0.24828015666E+02 -0.49650028326E+02 -0.18370138486E+01  0.55542148811E+02  0.00000000000E+00 0.  1.
<mgrwt>
<rscale>  0 0.23480628E+04</rscale>
<asrwt>0</asrwt>
<pdfrwt beam="1">  1        2 0.24321575E+00 0.23480628E+04</pdfrwt>
<pdfrwt beam="2">  1       -1 0.13413466E+00 0.23480628E+04</pdfrwt>
<totfact> 0.55054905E+00</totfact>
</mgrwt>
</event>
<event>
12    7  0.1625631E-007  0.1617449E+04  0.7818608E-02  0.8809900E-01
          2   -1    0    0  501    0  0.00000000000E+00  0.00000000000E+00  0.73676095549E+03  0.73676095549E+03  0.00000000000E+00 0. -1.
         -1   -1    0    0    0  501 -0.00000000000E+00 -0.00000000000E+00 -0.88771674552E+03  0.88771674552E+03  0.00000000000E+00 0.  1.
         24    2    1    2    0    0  0.49038384387E+03 -0.99469600983E+02  0.17038905791E+03  0.53451670501E+03  0.79405044125E+02 0.  0.
        254    2    1    2    0    0 -0.49038384387E+03  0.99469600983E+02 -0.32134484794E+03  0.10899609960E+04  0.91344509723E+03 0.  0.
         23    2    4    4    0    0 -0.11747421104E+03  0.44234667929E+03  0.28166164164E+02  0.46766221994E+03  0.91890392426E+02 0.  0.
         23    2    4    4    0    0 -0.37290963283E+03 -0.34287707830E+03 -0.34951101210E+03  0.62229877606E+03  0.92040936637E+02 0.  0.
          2    1    3    3  502    0  0.31228346654E+03 -0.95594462141E+02  0.13218338669E+03  0.35232330661E+03  0.00000000000E+00 0. -1.
         -1    1    3    3    0  502  0.17810037733E+03 -0.38751388422E+01  0.38205671215E+02  0.18219339840E+03  0.00000000000E+00 0.  1.
         13    1    5    5    0    0 -0.33078765989E+01  0.18733157143E+03  0.14606688916E+02  0.18792928208E+03  0.00000000000E+00 0. -1.
        -13    1    5    5    0    0 -0.11416633444E+03  0.25501510786E+03  0.13559475248E+02  0.27973293786E+03  0.00000000000E+00 0.  1.
          1    1    6    6  503    0 -0.31925831618E+03 -0.25760486562E+03 -0.24843936070E+03  0.47959175888E+03  0.00000000000E+00 0. -1.
         -1    1    6    6    0  503 -0.53651316653E+02 -0.85272212686E+02 -0.10107165140E+03  0.14270701718E+03  0.00000000000E+00 0.  1.
<mgrwt>
<rscale>  0 0.16174487E+04</rscale>
<asrwt>0</asrwt>
<pdfrwt beam="1">  1        2 0.11334784E+00 0.16174487E+04</pdfrwt>
<pdfrwt beam="2">  1       -1 0.13657181E+00 0.16174487E+04</pdfrwt>
<totfact> 0.18766540E+01</totfact>
</mgrwt>
</event>
<event>
12    7  0.1625631E-007  0.1468092E+04  0.7818608E-02  0.8905953E-01
         -1   -1    0    0    0  501 -0.00000000000E+00  0.00000000000E+00  0.24832020465E+04  0.24832020465E+04  0.00000000000E+00 0.  1.
          2   -1    0    0  501    0  0.00000000000E+00 -0.00000000000E+00 -0.21698724411E+03  0.21698724411E+03  0.00000000000E+00 0. -1.
         24    2    1    2    0    0  0.21780287537E+03 -0.26497030631E+03  0.18114536601E+03  0.39649613780E+03  0.82147354912E+02 0.  0.
        254    2    1    2    0    0 -0.21780287537E+03  0.26497030631E+03  0.20850694364E+04  0.23036931528E+04  0.91751851864E+03 0.  0.
         23    2    4    4    0    0 -0.27880536422E+03  0.57788504389E+03  0.13634126646E+04  0.15096091991E+04  0.91336109811E+02 0.  0.
         23    2    4    4    0    0  0.61002488848E+02 -0.31291473758E+03  0.72165677179E+03  0.79408395372E+03  0.90243518597E+02 0.  0.
          2    1    3    3  502    0  0.11509421197E+03 -0.86740714864E+02  0.50027849139E+02  0.15255626809E+03  0.00000000000E+00 0. -1.
         -1    1    3    3    0  502  0.10270866340E+03 -0.17822959145E+03  0.13111751687E+03  0.24393986971E+03  0.00000000000E+00 0.  1.
         13    1    5    5    0    0 -0.38844053116E+02  0.11004948311E+03  0.33194738381E+03  0.35186476779E+03  0.00000000000E+00 0. -1.
        -13    1    5    5    0    0 -0.23996131110E+03  0.46783556078E+03  0.10314652808E+04  0.11577444313E+04  0.00000000000E+00 0.  1.
          1    1    6    6  503    0  0.65198350596E+01  0.53427358531E+01  0.17187939358E+02  0.19143623872E+02  0.00000000000E+00 0. -1.
         -1    1    6    6    0  503  0.54482653788E+02 -0.31825747343E+03  0.70446883243E+03  0.77494032985E+03  0.00000000000E+00 0.  1.
<mgrwt>
<rscale>  0 0.14680915E+04</rscale>
<asrwt>0</asrwt>
<pdfrwt beam="1">  1        2 0.33382655E-01 0.14680915E+04</pdfrwt>
<pdfrwt beam="2">  1       -1 0.38203106E+00 0.14680915E+04</pdfrwt>
<totfact> 0.16722607E+00</totfact>
</mgrwt>
</event>
<event>
12    7  0.1625631E-007  0.1142122E+04  0.7818608E-02  0.9165082E-01
          2   -1    0    0  501    0  0.00000000000E+00  0.00000000000E+00  0.86291725898E+03  0.86291725898E+03  0.00000000000E+00 0. -1.
         -1   -1    0    0    0  501 -0.00000000000E+00 -0.00000000000E+00 -0.37791636010E+03  0.37791636010E+03  0.00000000000E+00 0.  1.
         24    2    1    2    0    0 -0.13156908404E+03  0.15809957955E+03  0.11421240737E+03  0.24951803344E+03  0.83119637183E+02 0.  0.
        254    2    1    2    0    0  0.13156908404E+03 -0.15809957955E+03  0.37078849151E+03  0.99131558564E+03  0.89605612768E+03 0.  0.
         23    2    4    4    0    0  0.11124949366E+03  0.36028830235E+03  0.20575635726E+03  0.43923713713E+03  0.91703181157E+02 0.  0.
         23    2    4    4    0    0  0.20319590386E+02 -0.51838788190E+03  0.16503213426E+03  0.55207844851E+03  0.91739446881E+02 0.  0.
          2    1    3    3  502    0 -0.45867929083E+01  0.37475995479E+02  0.50705276899E+02  0.63217988040E+02  0.00000000000E+00 0. -1.
         -1    1    3    3    0  502 -0.12698229114E+03  0.12062358407E+03  0.63507130466E+02  0.18630004540E+03  0.00000000000E+00 0.  1.
         13    1    5    5    0    0  0.11444852423E+02  0.18861159550E+03  0.88906084972E+02  0.20882914200E+03  0.00000000000E+00 0.  1.
        -13    1    5    5    0    0  0.99804641235E+02  0.17167670685E+03  0.11685027228E+03  0.23040799513E+03  0.00000000000E+00 0. -1.
          1    1    6    6  503    0 -0.92751040813E+01 -0.31357329224E+03  0.57751580951E+02  0.31898194661E+03  0.00000000000E+00 0. -1.
         -1    1    6    6    0  503  0.29594694467E+02 -0.20481458966E+03  0.10728055330E+03  0.23309650190E+03  0.00000000000E+00 0.  1.
<mgrwt>
<rscale>  0 0.11421218E+04</rscale>
<asrwt>0</asrwt>
<pdfrwt beam="1">  1        2 0.13275650E+00 0.11421218E+04</pdfrwt>
<pdfrwt beam="2">  1       -1 0.58140979E-01 0.11421218E+04</pdfrwt>
<totfact> 0.10531171E+02</totfact>
</mgrwt>
</event>
<event>
12    7  0.1625631E-007  0.2515112E+04  0.7818608E-02  0.8397622E-01
          2   -1    0    0  501    0  0.00000000000E+00  0.00000000000E+00  0.11401794181E+04  0.11401794181E+04  0.00000000000E+00 0. -1.
         -1   -1    0    0    0  501 -0.00000000000E+00 -0.00000000000E+00 -0.13870155671E+04  0.13870155671E+04  0.00000000000E+00 0.  1.
         24    2    1    2    0    0  0.81312241175E+03 -0.19698263425E+03  0.60253856802E+03  0.10339374743E+04  0.77483934818E+02 0.  0.
        254    2    1    2    0    0 -0.81312241175E+03  0.19698263425E+03 -0.84937471700E+03  0.14932575108E+04  0.89911643801E+03 0.  0.
         23    2    4    4    0    0 -0.11299468990E+03  0.43516057289E+03 -0.17912058028E+03  0.49119083340E+03  0.83974569868E+02 0.  0.
         23    2    4    4    0    0 -0.70012772185E+03 -0.23817793864E+03 -0.67025413672E+03  0.10020666774E+04  0.89383784309E+02 0.  0.
          2    1    3    3  502    0  0.70299496371E+03 -0.19633275774E+03  0.51588161023E+03  0.89380216297E+03  0.00000000000E+00 0. -1.
         -1    1    3    3    0  502  0.11012744804E+03 -0.64987651085E+00  0.86656957787E+02  0.14013531134E+03  0.00000000000E+00 0.  1.
         13    1    5    5    0    0 -0.71970108714E+01 -0.35837201418E+00  0.24672367367E+01  0.76166037771E+01  0.00000000000E+00 0. -1.
        -13    1    5    5    0    0 -0.10579767903E+03  0.43551894491E+03 -0.18158781702E+03  0.48357422962E+03  0.00000000000E+00 0.  1.
          4    1    6    6  503    0 -0.67812293354E+03 -0.23946321651E+03 -0.66479171962E+03  0.97935763413E+03  0.00000000000E+00 0.  1.
         -4    1    6    6    0  503 -0.22004788308E+02  0.12852778691E+01 -0.54624171028E+01  0.22709043315E+02  0.00000000000E+00 0. -1.
<mgrwt>
<rscale>  0 0.25151116E+04</rscale>
<asrwt>0</asrwt>
<pdfrwt beam="1">  1        2 0.17541222E+00 0.25151116E+04</pdfrwt>
<pdfrwt beam="2">  1       -1 0.21338701E+00 0.25151116E+04</pdfrwt>
<totfact> 0.25482641E+00</totfact>
</mgrwt>
</event>
<event>
12    7  0.1625631E-007  0.2998289E+04  0.7818608E-02  0.8244220E-01
         -1   -1    0    0    0  501 -0.00000000000E+00  0.00000000000E+00  0.12747904104E+04  0.12747904104E+04  0.00000000000E+00 0.  1.
          2   -1    0    0  501    0  0.00000000000E+00 -0.00000000000E+00 -0.17629832768E+04  0.17629832768E+04  0.00000000000E+00 0. -1.
         24    2    1    2    0    0 -0.20196060040E+02 -0.14977592013E+03  0.11501779697E+04  0.11628141743E+04  0.79917050342E+02 0.  0.
        254    2    1    2    0    0  0.20196060040E+02  0.14977592013E+03 -0.16383708360E+04  0.18749595129E+04  0.89909591900E+03 0.  0.
         23    2    4    4    0    0  0.11862630815E+03 -0.80468191952E+02  0.40248726291E+02  0.17512660728E+03  0.92206494941E+02 0.  0.
         23    2    4    4    0    0 -0.98430248106E+02  0.23024411209E+03 -0.16786195623E+04  0.16998329056E+04  0.94696394525E+02 0.  0.
          4    1    3    3  502    0 -0.74475894972E+01 -0.33346620144E+02  0.91404299297E+02  0.97581809752E+02  0.00000000000E+00 0. -1.
         -3    1    3    3    0  502 -0.12748470543E+02 -0.11642929999E+03  0.10587736704E+04  0.10652323646E+04  0.00000000000E+00 0.  1.
         13    1    5    5    0    0  0.72793884067E+02 -0.51732850248E+02 -0.22683391383E+02  0.92139967424E+02  0.00000000000E+00 0. -1.
        -13    1    5    5    0    0  0.45832424080E+02 -0.28735341705E+02  0.62932117674E+02  0.82986639857E+02  0.00000000000E+00 0.  1.
          2    1    6    6  503    0 -0.74434626026E+02  0.16125887908E+03 -0.14210982504E+04  0.14321540340E+04  0.00000000000E+00 0.  1.
         -2    1    6    6    0  503 -0.23995622081E+02  0.68985233003E+02 -0.25752131185E+03  0.26767887162E+03  0.00000000000E+00 0. -1.
<mgrwt>
<rscale>  0 0.29982890E+04</rscale>
<asrwt>0</asrwt>
<pdfrwt beam="1">  1        2 0.27122820E+00 0.29982890E+04</pdfrwt>
<pdfrwt beam="2">  1       -1 0.19612160E+00 0.29982890E+04</pdfrwt>
<totfact> 0.14114316E+00</totfact>
</mgrwt>
</event>
<event>
12    7  0.1625631E-007  0.2271280E+04  0.7818608E-02  0.8489332E-01
          2   -1    0    0  501    0  0.00000000000E+00  0.00000000000E+00  0.13996011074E+04  0.13996011074E+04  0.00000000000E+00 0. -1.
         -1   -1    0    0    0  501 -0.00000000000E+00 -0.00000000000E+00 -0.92146126904E+03  0.92146126904E+03  0.00000000000E+00 0.  1.
         24    2    1    2    0    0 -0.23606580959E+02 -0.40471119638E+03 -0.68342435163E+03  0.79859889925E+03  0.79642541038E+02 0.  0.
        254    2    1    2    0    0  0.23606580959E+02  0.40471119638E+03  0.11615641900E+04  0.15224634772E+04  0.89683624411E+03 0.  0.
         23    2    4    4    0    0  0.40636914895E+03  0.38648451512E+02  0.34346169371E+03  0.54343605086E+03  0.10357228539E+03 0.  0.
         23    2    4    4    0    0 -0.38276256799E+03  0.36606274487E+03  0.81810249629E+03  0.97902742634E+03  0.93241034138E+02 0.  0.
          4    1    3    3  502    0 -0.26190110413E+02 -0.60021376108E+02 -0.14761177991E+03  0.16148599023E+03  0.00000000000E+00 0. -1.
         -3    1    3    3    0  502  0.25835294538E+01 -0.34468982027E+03 -0.53581257173E+03  0.63711290902E+03  0.00000000000E+00 0.  1.
         13    1    5    5    0    0  0.40101893261E+03  0.52961885725E+02  0.32161640699E+03  0.51677679795E+03  0.00000000000E+00 0. -1.
        -13    1    5    5    0    0  0.53502163427E+01 -0.14313434213E+02  0.21845286722E+02  0.26659252912E+02  0.00000000000E+00 0.  1.
          1    1    6    6  503    0 -0.38269505263E+03  0.35390422278E+03  0.81319865440E+03  0.96591705324E+03  0.00000000000E+00 0. -1.
         -1    1    6    6    0  503 -0.67515364125E-01  0.12158522085E+02  0.49038418904E+01  0.13110373103E+02  0.00000000000E+00 0.  1.
<mgrwt>
<rscale>  0 0.22712800E+04</rscale>
<asrwt>0</asrwt>
<pdfrwt beam="1">  1        2 0.21532325E+00 0.22712800E+04</pdfrwt>
<pdfrwt beam="2">  1       -1 0.14176327E+00 0.22712800E+04</pdfrwt>
<totfact> 0.60808654E+00</totfact>
</mgrwt>
</event>
<event>
12    7  0.1625631E-007  0.1668015E+04  0.7818608E-02  0.8779820E-01
          2   -1    0    0  501    0  0.00000000000E+00  0.00000000000E+00  0.17807488344E+04  0.17807488344E+04  0.00000000000E+00 0. -1.
         -1   -1    0    0    0  501 -0.00000000000E+00 -0.00000000000E+00 -0.39060464507E+03  0.39060464507E+03  0.00000000000E+00 0.  1.
         24    2    1    2    0    0  0.14873051387E+03  0.45152408589E+03  0.93776381802E+03  0.10563747560E+04  0.10262495214E+03 0.  0.
        254    2    1    2    0    0 -0.14873051387E+03 -0.45152408589E+03  0.45238037126E+03  0.11149787234E+04  0.90140711530E+03 0.  0.
         23    2    4    4    0    0 -0.16553265913E+03 -0.57980285374E+03  0.63116242069E+03  0.87780753321E+03  0.92777441389E+02 0.  0.
         23    2    4    4    0    0  0.16802145256E+02  0.12827876785E+03 -0.17878204943E+03  0.23717119022E+03  0.86887271272E+02 0.  0.
          2    1    3    3  502    0  0.84761482164E+02  0.27543136016E+03  0.45559308249E+03  0.53908440882E+03  0.00000000000E+00 0. -1.
         -1    1    3    3    0  502  0.63969031711E+02  0.17609272573E+03  0.48217073553E+03  0.51729034717E+03  0.00000000000E+00 0.  1.
         13    1    5    5    0    0 -0.94511848829E+02 -0.45113257714E+03  0.50912234200E+03  0.68677409011E+03  0.00000000000E+00 0. -1.
        -13    1    5    5    0    0 -0.71020810302E+02 -0.12867027660E+03  0.12204007869E+03  0.19103344310E+03  0.00000000000E+00 0.  1.
          3    1    6    6  503    0  0.29765151097E+02  0.69773283381E+02 -0.15525116617E+03  0.17279236063E+03  0.00000000000E+00 0. -1.
         -3    1    6    6    0  503 -0.12963005841E+02  0.58505484468E+02 -0.23530883253E+02  0.64378829595E+02  0.00000000000E+00 0.  1.
<mgrwt>
<rscale>  0 0.16680153E+04</rscale>
<asrwt>0</asrwt>
<pdfrwt beam="1">  1        2 0.27396135E+00 0.16680153E+04</pdfrwt>
<pdfrwt beam="2">  1       -1 0.60093023E-01 0.16680153E+04</pdfrwt>
<totfact> 0.26982798E+01</totfact>
</mgrwt>
</event>
<event>
12    7  0.1625631E-007  0.2358468E+04  0.7818608E-02  0.8455218E-01
         -1   -1    0    0    0  501 -0.00000000000E+00  0.00000000000E+00  0.10040303061E+04  0.10040303061E+04  0.00000000000E+00 0.  1.
          2   -1    0    0  501    0  0.00000000000E+00 -0.00000000000E+00 -0.13850109394E+04  0.13850109394E+04  0.00000000000E+00 0. -1.
         24    2    1    2    0    0  0.14762181932E+03  0.15740012407E+03  0.83167019493E+03  0.86308224999E+03  0.81661842464E+02 0.  0.
        254    2    1    2    0    0 -0.14762181932E+03 -0.15740012407E+03 -0.12126508282E+04  0.15259589955E+04  0.90081175856E+03 0.  0.
         23    2    4    4    0    0  0.92919194278E+02  0.33357334667E+03 -0.35122471943E+03  0.50152152897E+03  0.90883916124E+02 0.  0.
         23    2    4    4    0    0 -0.24054101360E+03 -0.49097347074E+03 -0.86142610878E+03  0.10244374666E+04  0.92207666953E+02 0.  0.
          2    1    3    3  502    0 -0.80209291032E+01  0.97685990677E+00  0.57942939051E+02  0.58503621638E+02  0.00000000000E+00 0. -1.
         -1    1    3    3    0  502  0.15564274843E+03  0.15642326417E+03  0.77372725588E+03  0.80457862835E+03  0.00000000000E+00 0.  1.
         13    1    5    5    0    0  0.96920718031E+02  0.33583145247E+03 -0.35283026531E+03  0.49665439309E+03  0.00000000000E+00 0.  1.
        -13    1    5    5    0    0 -0.40015237533E+01 -0.22581057972E+01  0.16055458851E+01  0.48671358856E+01  0.00000000000E+00 0. -1.
          1    1    6    6  503    0 -0.57566768696E+02 -0.11866144611E+03 -0.14071549954E+03  0.19286089148E+03  0.00000000000E+00 0. -1.
         -1    1    6    6    0  503 -0.18297424490E+03 -0.37231202463E+03 -0.72071060924E+03  0.83157657510E+03  0.00000000000E+00 0.  1.
<mgrwt>
<rscale>  0 0.23584681E+04</rscale>
<asrwt>0</asrwt>
<pdfrwt beam="1">  1        2 0.21307861E+00 0.23584681E+04</pdfrwt>
<pdfrwt beam="2">  1       -1 0.15446620E+00 0.23584681E+04</pdfrwt>
<totfact> 0.48887311E+00</totfact>
</mgrwt>
</event>
<event>
12    7  0.1625631E-007  0.3245100E+04  0.7818608E-02  0.8177007E-01
          2   -1    0    0  501    0  0.00000000000E+00  0.00000000000E+00  0.31375432286E+04  0.31375432286E+04  0.00000000000E+00 0. -1.
         -1   -1    0    0    0  501 -0.00000000000E+00 -0.00000000000E+00 -0.83908576676E+03  0.83908576676E+03  0.00000000000E+00 0.  1.
         24    2    1    2    0    0  0.10515333488E+04  0.86411191607E+03  0.27529899753E+03  0.13908346165E+04  0.78864474391E+02 0.  0.
        254    2    1    2    0    0 -0.10515333488E+04 -0.86411191607E+03  0.20231584643E+04  0.25857943789E+04  0.86066869989E+03 0.  0.
         23    2    4    4    0    0 -0.11398765036E+04 -0.67001058793E+03  0.14358687536E+04  0.19541051119E+04  0.92601724724E+02 0.  0.
         23    2    4    4    0    0  0.88343154861E+02 -0.19410132814E+03  0.58728971069E+03  0.63168926692E+03  0.92963901915E+02 0.  0.
          4    1    3    3  502    0  0.40596680610E+02  0.25873219521E+02  0.23849186491E+02  0.53724274413E+02  0.00000000000E+00 0. -1.
         -3    1    3    3    0  502  0.10109366682E+04  0.83823869654E+03  0.25144981104E+03  0.13371103421E+04  0.00000000000E+00 0.  1.
         13    1    5    5    0    0 -0.11152629204E+04 -0.65289011876E+03  0.14205824889E+04  0.19204508576E+04  0.00000000000E+00 0. -1.
        -13    1    5    5    0    0 -0.24613583270E+02 -0.17120469170E+02  0.15286264730E+02  0.33654254343E+02  0.00000000000E+00 0.  1.
          1    1    6    6  503    0  0.10170485459E+03 -0.14413616783E+03  0.50024750464E+03  0.53044007977E+03  0.00000000000E+00 0. -1.
         -1    1    6    6    0  503 -0.13361699730E+02 -0.49965160309E+02  0.87042206044E+02  0.10124918714E+03  0.00000000000E+00 0.  1.
<mgrwt>
<rscale>  0 0.32450996E+04</rscale>
<asrwt>0</asrwt>
<pdfrwt beam="1">  1        2 0.48269896E+00 0.32450996E+04</pdfrwt>
<pdfrwt beam="2">  1       -1 0.12909012E+00 0.32450996E+04</pdfrwt>
<totfact> 0.69957081E-01</totfact>
</mgrwt>
</event>
<event>
12    7  0.1625631E-007  0.2094393E+04  0.7818608E-02  0.8563717E-01
          2   -1    0    0  501    0  0.00000000000E+00  0.00000000000E+00  0.85396334914E+03  0.85396334914E+03  0.00000000000E+00 0. -1.
         -1   -1    0    0    0  501 -0.00000000000E+00 -0.00000000000E+00 -0.12841538704E+04  0.12841538704E+04  0.00000000000E+00 0.  1.
         24    2    1    2    0    0 -0.61238271962E+03  0.36625710074E+03 -0.64371798799E+03  0.96428128850E+03  0.79427301097E+02 0.  0.
        254    2    1    2    0    0  0.61238271962E+03 -0.36625710074E+03  0.21352746674E+03  0.11738359310E+04  0.90727060726E+03 0.  0.
         23    2    4    4    0    0  0.72578491654E+02 -0.31429796310E+03 -0.27855687789E+03  0.43575342840E+03  0.90753892913E+02 0.  0.
         23    2    4    4    0    0  0.53980422797E+03 -0.51959137638E+02  0.49208434463E+03  0.73808250264E+03  0.92360283420E+02 0.  0.
          4    1    3    3  502    0 -0.14819466674E+01  0.32137003359E+01 -0.15113065652E+02  0.15521880980E+02  0.00000000000E+00 0. -1.
         -1    1    3    3    0  502 -0.61090077295E+03  0.36304340040E+03 -0.62860492234E+03  0.94875940752E+03  0.00000000000E+00 0.  1.
         13    1    5    5    0    0  0.31126773975E+02 -0.58379493466E+02 -0.18848779383E+02  0.68791843991E+02  0.00000000000E+00 0.  1.
        -13    1    5    5    0    0  0.41451717679E+02 -0.25591846963E+03 -0.25970809851E+03  0.36696158441E+03  0.00000000000E+00 0. -1.
          4    1    6    6  503    0  0.47097123169E+03 -0.69659340433E+02  0.40043729446E+03  0.62210638285E+03  0.00000000000E+00 0. -1.
         -4    1    6    6    0  503  0.68832996275E+02  0.17700202795E+02  0.91647050177E+02  0.11597611979E+03  0.00000000000E+00 0.  1.
<mgrwt>
<rscale>  0 0.20943928E+04</rscale>
<asrwt>0</asrwt>
<pdfrwt beam="1">  1        2 0.13137898E+00 0.20943928E+04</pdfrwt>
<pdfrwt beam="2">  1       -1 0.19756213E+00 0.20943928E+04</pdfrwt>
<totfact> 0.51904204E+00</totfact>
</mgrwt>
</event>
<event>
12    7  0.1625631E-007  0.1345086E+04  0.7818608E-02  0.8994557E-01
          2   -1    0    0  501    0  0.00000000000E+00  0.00000000000E+00  0.71869503305E+03  0.71869503305E+03  0.00000000000E+00 0. -1.
         -1   -1    0    0    0  501 -0.00000000000E+00 -0.00000000000E+00 -0.62935427744E+03  0.62935427744E+03  0.00000000000E+00 0.  1.
         24    2    1    2    0    0  0.21839186179E+03 -0.31198932627E+03  0.42516322312E+02  0.39106568961E+03  0.78053769453E+02 0.  0.
        254    2    1    2    0    0 -0.21839186179E+03  0.31198932627E+03  0.46824433299E+02  0.95698362088E+03  0.87669423295E+03 0.  0.
         23    2    4    4    0    0  0.29375642966E+03  0.14104669644E+02  0.16293419628E+03  0.34650529560E+03  0.83824733177E+02 0.  0.
         23    2    4    4    0    0 -0.51214829144E+03  0.29788465662E+03 -0.11610976298E+03  0.61047832528E+03  0.90394510320E+02 0.  0.
          2    1    3    3  502    0  0.21215315800E+02 -0.31748175900E+02 -0.19447479790E+02  0.42851379997E+02  0.00000000000E+00 0. -1.
         -1    1    3    3    0  502  0.19717654599E+03 -0.28024115037E+03  0.61963802102E+02  0.34821430961E+03  0.00000000000E+00 0.  1.
         13    1    5    5    0    0  0.15544618296E+03  0.42433458391E+02  0.60668777001E+02  0.17217669613E+03  0.00000000000E+00 0.  1.
        -13    1    5    5    0    0  0.13831024670E+03 -0.28328788746E+02  0.10226541928E+03  0.17432859948E+03  0.00000000000E+00 0. -1.
          2    1    6    6  503    0 -0.51394501183E+03  0.28828116584E+03 -0.11174248159E+03  0.59977653168E+03  0.00000000000E+00 0. -1.
         -2    1    6    6    0  503  0.17967203899E+01  0.96034907851E+01 -0.43672813939E+01  0.10701793597E+02  0.00000000000E+00 0.  1.
<mgrwt>
<rscale>  0 0.13450856E+04</rscale>
<asrwt>0</asrwt>
<pdfrwt beam="1">  1        2 0.11056847E+00 0.13450856E+04</pdfrwt>
<pdfrwt beam="2">  1       -1 0.96823735E-01 0.13450856E+04</pdfrwt>
<totfact> 0.45376727E+01</totfact>
</mgrwt>
</event>
<event>
12    7  0.1625631E-007  0.1525384E+04  0.7818608E-02  0.8867746E-01
          2   -1    0    0  501    0  0.00000000000E+00  0.00000000000E+00  0.75155040137E+03  0.75155040137E+03  0.00000000000E+00 0. -1.
         -1   -1    0    0    0  501 -0.00000000000E+00 -0.00000000000E+00 -0.77399907791E+03  0.77399907791E+03  0.00000000000E+00 0.  1.
         24    2    1    2    0    0 -0.11171757995E+03 -0.48650148317E+03  0.16900238781E+02  0.50599479387E+03  0.81120913194E+02 0.  0.
        254    2    1    2    0    0  0.11171757995E+03  0.48650148317E+03 -0.39348915323E+02  0.10195546854E+04  0.88813225852E+03 0.  0.
         23    2    4    4    0    0 -0.14067868389E+03  0.67013485012E+03 -0.61663553256E+02  0.69323618120E+03  0.88897692165E+02 0.  0.
         23    2    4    4    0    0  0.25239626384E+03 -0.18363336695E+03  0.22314637933E+02  0.32631850422E+03  0.92524243692E+02 0.  0.
          4    1    3    3  502    0 -0.29508618291E+02 -0.13173311296E+03  0.40839964897E+02  0.14103997425E+03  0.00000000000E+00 0. -1.
         -3    1    3    3    0  502 -0.82208961663E+02 -0.35476837021E+03 -0.23939726115E+02  0.36495481963E+03  0.00000000000E+00 0.  1.
         13    1    5    5    0    0 -0.84638477738E+02  0.47246868859E+03 -0.46372954435E+01  0.48001233121E+03  0.00000000000E+00 0. -1.
        -13    1    5    5    0    0 -0.56040206151E+02  0.19766616153E+03 -0.57026257813E+02  0.21322384998E+03  0.00000000000E+00 0.  1.
          3    1    6    6  503    0  0.23016426896E+03 -0.18023258278E+03  0.43341278924E+02  0.29552976341E+03  0.00000000000E+00 0. -1.
         -3    1    6    6    0  503  0.22231994884E+02 -0.34007841712E+01 -0.21026640991E+02  0.30788740813E+02  0.00000000000E+00 0.  1.
<mgrwt>
<rscale>  0 0.15253843E+04</rscale>
<asrwt>0</asrwt>
<pdfrwt beam="1">  1        2 0.11562314E+00 0.15253843E+04</pdfrwt>
<pdfrwt beam="2">  1       -1 0.11907678E+00 0.15253843E+04</pdfrwt>
<totfact> 0.25991255E+01</totfact>
</mgrwt>
</event>
<event>
12    7  0.1625631E-007  0.1854991E+04  0.7818608E-02  0.8677591E-01
          2   -1    0    0  501    0  0.00000000000E+00  0.00000000000E+00  0.19364386556E+04  0.19364386556E+04  0.00000000000E+00 0. -1.
         -1   -1    0    0    0  501 -0.00000000000E+00 -0.00000000000E+00 -0.44424211916E+03  0.44424211916E+03  0.00000000000E+00 0.  1.
         24    2    1    2    0    0 -0.40970514326E+02  0.47854480027E+03 -0.92873100996E+02  0.49574423410E+03  0.80331960324E+02 0.  0.
        254    2    1    2    0    0  0.40970514326E+02 -0.47854480027E+03  0.15850696374E+04  0.18849365407E+04  0.89992016195E+03 0.  0.
         23    2    4    4    0    0 -0.26622951729E+03 -0.54902018198E+03  0.13412747863E+04  0.14762565004E+04  0.89520312382E+02 0.  0.
         23    2    4    4    0    0  0.30720003162E+03  0.70475381717E+02  0.24379485110E+03  0.40868004029E+03  0.90800919877E+02 0.  0.
          4    1    3    3  502    0 -0.43987476577E+02  0.28272193872E+03 -0.20150317583E+02  0.28683205544E+03  0.00000000000E+00 0. -1.
         -3    1    3    3    0  502  0.30169622514E+01  0.19582286155E+03 -0.72722783413E+02  0.20891217866E+03  0.00000000000E+00 0.  1.
         13    1    5    5    0    0 -0.19299726718E+03 -0.45274452815E+03  0.10086361143E+04  0.11223067157E+04  0.00000000000E+00 0. -1.
        -13    1    5    5    0    0 -0.73232250114E+02 -0.96275653838E+02  0.33263867199E+03  0.35394978469E+03  0.00000000000E+00 0.  1.
          4    1    6    6  503    0  0.24602289681E+02 -0.47471508472E+01  0.55423766840E+02  0.60824353917E+02  0.00000000000E+00 0.  1.
         -4    1    6    6    0  503  0.28259774194E+03  0.75222532564E+02  0.18837108426E+03  0.34785568637E+03  0.00000000000E+00 0. -1.
<mgrwt>
<rscale>  0 0.18549907E+04</rscale>
<asrwt>0</asrwt>
<pdfrwt beam="1">  1        2 0.29791363E+00 0.18549907E+04</pdfrwt>
<pdfrwt beam="2">  1       -1 0.68344942E-01 0.18549907E+04</pdfrwt>
<totfact> 0.16810859E+01</totfact>
</mgrwt>
</event>
<event>
12    7  0.1625631E-007  0.1252493E+04  0.7818608E-02  0.9068111E-01
          2   -1    0    0  501    0  0.00000000000E+00  0.00000000000E+00  0.10247013591E+04  0.10247013591E+04  0.00000000000E+00 0. -1.
         -1   -1    0    0    0  501 -0.00000000000E+00 -0.00000000000E+00 -0.38273051282E+03  0.38273051282E+03  0.00000000000E+00 0.  1.
         24    2    1    2    0    0  0.89895736419E+02 -0.27722686519E+03  0.11280145333E+03  0.32276249721E+03  0.80718545115E+02 0.  0.
        254    2    1    2    0    0 -0.89895736419E+02  0.27722686519E+03  0.52916939293E+03  0.10846693747E+04  0.90086149199E+03 0.  0.
         23    2    4    4    0    0 -0.38234503386E+03  0.12793915242E+03  0.60741628617E+03  0.73480855523E+03  0.91830912600E+02 0.  0.
         23    2    4    4    0    0  0.29244929744E+03  0.14928771277E+03 -0.78246893238E+02  0.34986081945E+03  0.92014150681E+02 0.  0.
          4    1    3    3  502    0  0.66944904377E+02 -0.16574254027E+03  0.10798761588E+03  0.20883853825E+03  0.00000000000E+00 0. -1.
         -3    1    3    3    0  502  0.22950832042E+02 -0.11148432492E+03  0.48138374512E+01  0.11392395896E+03  0.00000000000E+00 0.  1.
         13    1    5    5    0    0 -0.14001982844E+03  0.77719599857E+02  0.18008001158E+03  0.24098692730E+03  0.00000000000E+00 0.  1.
        -13    1    5    5    0    0 -0.24232520542E+03  0.50219552559E+02  0.42733627459E+03  0.49382162794E+03  0.00000000000E+00 0. -1.
          3    1    6    6  503    0  0.29114963877E+03  0.15264652812E+03 -0.87287163429E+02  0.34012956884E+03  0.00000000000E+00 0. -1.
         -3    1    6    6    0  503  0.12996586734E+01 -0.33588153492E+01  0.90402701914E+01  0.97312506057E+01  0.00000000000E+00 0.  1.
<mgrwt>
<rscale>  0 0.12524927E+04</rscale>
<asrwt>0</asrwt>
<pdfrwt beam="1">  1        2 0.15764636E+00 0.12524927E+04</pdfrwt>
<pdfrwt beam="2">  1       -1 0.58881618E-01 0.12524927E+04</pdfrwt>
<totfact> 0.79638024E+01</totfact>
</mgrwt>
</event>
<event>
12    7  0.1625631E-007  0.1617852E+04  0.7818608E-02  0.8809655E-01
          2   -1    0    0  501    0  0.00000000000E+00  0.00000000000E+00  0.29129797957E+04  0.29129797957E+04  0.00000000000E+00 0. -1.
         -1   -1    0    0    0  501 -0.00000000000E+00 -0.00000000000E+00 -0.22463650103E+03  0.22463650103E+03  0.00000000000E+00 0.  1.
         24    2    1    2    0    0 -0.25231301548E+03 -0.18039242417E+03  0.35276954859E+02  0.32217474911E+03  0.79679488868E+02 0.  0.
        254    2    1    2    0    0  0.25231301548E+03  0.18039242417E+03  0.26530663398E+04  0.28154415476E+04  0.88980156220E+03 0.  0.
         23    2    4    4    0    0 -0.11372076029E+03 -0.19868361101E+03  0.17452806648E+04  0.17625104136E+04  0.89614566640E+02 0.  0.
         23    2    4    4    0    0  0.36603377576E+03  0.37907603518E+03  0.90778567501E+03  0.10529311340E+04  0.83125060860E+02 0.  0.
          4    1    3    3  502    0 -0.12070945365E+03 -0.59558498134E+02  0.48376781455E+02  0.14303251338E+03  0.00000000000E+00 0. -1.
         -3    1    3    3    0  502 -0.13160356183E+03 -0.12083392603E+03 -0.13099826596E+02  0.17914223573E+03  0.00000000000E+00 0.  1.
         13    1    5    5    0    0 -0.59724546969E+02 -0.28600308432E+02  0.55271389080E+03  0.55666654672E+03  0.00000000000E+00 0.  1.
        -13    1    5    5    0    0 -0.53996213318E+02 -0.17008330258E+03  0.11925667740E+04  0.12058438669E+04  0.00000000000E+00 0. -1.
          1    1    6    6  503    0  0.30222235074E+03  0.30086276299E+03  0.79048354006E+03  0.89817647406E+03  0.00000000000E+00 0. -1.
         -1    1    6    6    0  503  0.63811425020E+02  0.78213272190E+02  0.11730213494E+03  0.15475465994E+03  0.00000000000E+00 0.  1.
<mgrwt>
<rscale>  0 0.16178524E+04</rscale>
<asrwt>0</asrwt>
<pdfrwt beam="1">  1        2 0.44815071E+00 0.16178524E+04</pdfrwt>
<pdfrwt beam="2">  1       -1 0.34559464E-01 0.16178524E+04</pdfrwt>
<totfact> 0.17157881E+01</totfact>
</mgrwt>
</event>
<event>
12    7  0.1625631E-007  0.3718302E+04  0.7818608E-02  0.8063918E-01
          2   -1    0    0  501    0  0.00000000000E+00  0.00000000000E+00  0.15253920079E+04  0.15253920079E+04  0.00000000000E+00 0. -1.
         -1   -1    0    0    0  501 -0.00000000000E+00 -0.00000000000E+00 -0.22659367534E+04  0.22659367534E+04  0.00000000000E+00 0.  1.
         24    2    1    2    0    0  0.40383476775E+02  0.17180525665E+04 -0.60486001334E+03  0.18235241754E+04  0.77777477131E+02 0.  0.
        254    2    1    2    0    0 -0.40383476775E+02 -0.17180525665E+04 -0.13568473217E+03  0.19678045859E+04  0.94895157690E+03 0.  0.
         23    2    4    4    0    0 -0.33195133548E+03 -0.15932674251E+04 -0.15538950450E+03  0.16372233492E+04  0.87530680731E+02 0.  0.
         23    2    4    4    0    0  0.29156785870E+03 -0.12478514142E+03  0.19704772327E+02  0.33058123671E+03  0.91173067658E+02 0.  0.
          4    1    3    3  502    0  0.58927919507E+02  0.10444836451E+04 -0.38497318246E+03  0.11147299834E+04  0.00000000000E+00 0. -1.
         -3    1    3    3    0  502 -0.18544442732E+02  0.67356892139E+03 -0.21988683089E+03  0.70879419200E+03  0.00000000000E+00 0.  1.
         13    1    5    5    0    0 -0.32362919659E+03 -0.14273581943E+04 -0.14574195076E+03  0.14708256143E+04  0.00000000000E+00 0.  1.
        -13    1    5    5    0    0 -0.83221388910E+01 -0.16590923085E+03 -0.96475537394E+01  0.16639773487E+03  0.00000000000E+00 0. -1.
          1    1    6    6  503    0  0.26981888336E+03 -0.13945127367E+03  0.19467062182E+02  0.30434824470E+03  0.00000000000E+00 0.  1.
         -1    1    6    6    0  503  0.21748975344E+02  0.14666132247E+02  0.23771014483E+00  0.26232992009E+02  0.00000000000E+00 0. -1.
<mgrwt>
<rscale>  0 0.37183017E+04</rscale>
<asrwt>0</asrwt>
<pdfrwt beam="1">  1        2 0.23467569E+00 0.37183017E+04</pdfrwt>
<pdfrwt beam="2">  1       -1 0.34860566E+00 0.37183017E+04</pdfrwt>
<totfact> 0.17908736E-01</totfact>
</mgrwt>
</event>
<event>
12    7  0.1625631E-007  0.2516658E+04  0.7818608E-02  0.8397075E-01
         -1   -1    0    0    0  501 -0.00000000000E+00  0.00000000000E+00  0.20892799308E+04  0.20892799308E+04  0.00000000000E+00 0.  1.
          2   -1    0    0  501    0  0.00000000000E+00 -0.00000000000E+00 -0.75786469966E+03  0.75786469966E+03  0.00000000000E+00 0. -1.
         24    2    1    2    0    0  0.87564589394E+02 -0.92049030869E+03 -0.77542110926E+02  0.93138535083E+03  0.80597314265E+02 0.  0.
        254    2    1    2    0    0 -0.87564589394E+02  0.92049030869E+03  0.14089573421E+04  0.19157592796E+04  0.91104492756E+03 0.  0.
         23    2    4    4    0    0  0.16434477733E+03  0.91931299493E+03  0.73965531304E+03  0.11949236932E+04  0.92774253196E+02 0.  0.
         23    2    4    4    0    0 -0.25190936672E+03  0.11773137608E+01  0.66930202901E+03  0.72083558639E+03  0.90437942591E+02 0.  0.
          4    1    3    3  502    0  0.53307055176E+02 -0.56035259799E+03 -0.76622743430E+01  0.56293462023E+03  0.00000000000E+00 0. -1.
         -3    1    3    3    0  502  0.34257534218E+02 -0.36013771070E+03 -0.69879836583E+02  0.36845073060E+03  0.00000000000E+00 0.  1.
         13    1    5    5    0    0  0.45841351714E+02  0.34382879068E+03  0.22176966041E+03  0.41170553689E+03  0.00000000000E+00 0. -1.
        -13    1    5    5    0    0  0.11850342561E+03  0.57548420425E+03  0.51788565263E+03  0.78321815634E+03  0.00000000000E+00 0.  1.
          2    1    6    6  503    0 -0.39595711139E+02 -0.32580544729E+02  0.10194650470E+03  0.11411573974E+03  0.00000000000E+00 0.  1.
         -2    1    6    6    0  503 -0.21231365558E+03  0.33757858490E+02  0.56735552431E+03  0.60671984665E+03  0.00000000000E+00 0. -1.
<mgrwt>
<rscale>  0 0.25166577E+04</rscale>
<asrwt>0</asrwt>
<pdfrwt beam="1">  1        2 0.11659457E+00 0.25166577E+04</pdfrwt>
<pdfrwt beam="2">  1       -1 0.32142768E+00 0.25166577E+04</pdfrwt>
<totfact> 0.90046631E-01</totfact>
</mgrwt>
</event>
<event>
12    7  0.1625631E-007  0.1492589E+04  0.7818608E-02  0.8889396E-01
          2   -1    0    0  501    0  0.00000000000E+00  0.00000000000E+00  0.96858735067E+03  0.96858735067E+03  0.00000000000E+00 0. -1.
         -1   -1    0    0    0  501 -0.00000000000E+00 -0.00000000000E+00 -0.57501871469E+03  0.57501871469E+03  0.00000000000E+00 0.  1.
         24    2    1    2    0    0  0.35033979190E+03  0.11049578280E+03 -0.17203445790E+03  0.41336541777E+03  0.79547634101E+02 0.  0.
        254    2    1    2    0    0 -0.35033979190E+03 -0.11049578280E+03  0.56560309389E+03  0.11302406476E+04  0.90696734994E+03 0.  0.
         23    2    4    4    0    0 -0.27952751371E+03 -0.47914260173E+03  0.46685507106E+03  0.73085322448E+03  0.92084280131E+02 0.  0.
         23    2    4    4    0    0 -0.70812278196E+02  0.36864681893E+03  0.98748022831E+02  0.39938742312E+03  0.94044063510E+02 0.  0.
          4    1    3    3  502    0 -0.12025917242E+01 -0.46789020710E+01  0.10553032777E+01  0.49448980225E+01  0.00000000000E+00 0. -1.
         -3    1    3    3    0  502  0.35154238363E+03  0.11517468487E+03 -0.17308976118E+03  0.40842051974E+03  0.00000000000E+00 0.  1.
         13    1    5    5    0    0 -0.26692759187E+03 -0.41555611355E+03  0.38377445362E+03  0.62547586209E+03  0.00000000000E+00 0.  1.
        -13    1    5    5    0    0 -0.12599921838E+02 -0.63586488181E+02  0.83080617444E+02  0.10537736239E+03  0.00000000000E+00 0. -1.
          4    1    6    6  503    0 -0.72418521263E+02  0.13969527848E+03  0.28629845002E+02  0.15993398975E+03  0.00000000000E+00 0. -1.
         -4    1    6    6    0  503  0.16062430676E+01  0.22895154045E+03  0.70118177829E+02  0.23945343337E+03  0.00000000000E+00 0.  1.
<mgrwt>
<rscale>  0 0.14925895E+04</rscale>
<asrwt>0</asrwt>
<pdfrwt beam="1">  1        2 0.14901344E+00 0.14925895E+04</pdfrwt>
<pdfrwt beam="2">  1       -1 0.88464418E-01 0.14925895E+04</pdfrwt>
<totfact> 0.36543585E+01</totfact>
</mgrwt>
</event>
<event>
12    7  0.1625631E-007  0.2198380E+04  0.7818608E-02  0.8519103E-01
          2   -1    0    0  501    0  0.00000000000E+00  0.00000000000E+00  0.13972839324E+04  0.13972839324E+04  0.00000000000E+00 0. -1.
         -1   -1    0    0    0  501 -0.00000000000E+00 -0.00000000000E+00 -0.86469085538E+03  0.86469085538E+03  0.00000000000E+00 0.  1.
         24    2    1    2    0    0  0.87928968905E+03  0.22393659014E+03  0.32142757463E+03  0.96594874125E+03  0.80270363868E+02 0.  0.
        254    2    1    2    0    0 -0.87928968905E+03 -0.22393659014E+03  0.21116550237E+03  0.12960260465E+04  0.90099649843E+03 0.  0.
         23    2    4    4    0    0 -0.27996444904E+03 -0.51737737893E+03  0.22306089589E+02  0.59655004744E+03  0.96514001654E+02 0.  0.
         23    2    4    4    0    0 -0.59932524001E+03  0.29344078878E+03  0.18885941278E+03  0.69947599908E+03  0.91107385311E+02 0.  0.
          2    1    3    3  502    0  0.70734731725E+03  0.20985273237E+03  0.24707603770E+03  0.77809058914E+03  0.00000000000E+00 0. -1.
         -1    1    3    3    0  502  0.17194237180E+03  0.14083857775E+02  0.74351536939E+02  0.18785815212E+03  0.00000000000E+00 0.  1.
         13    1    5    5    0    0 -0.90110805123E+02 -0.91637879047E+02 -0.12340516233E+02  0.12911137214E+03  0.00000000000E+00 0. -1.
        -13    1    5    5    0    0 -0.18985364392E+03 -0.42573949988E+03  0.34646605821E+02  0.46743867529E+03  0.00000000000E+00 0.  1.
          2    1    6    6  503    0 -0.93573206514E+02  0.21537612452E+02  0.34761911486E+01  0.96082764491E+02  0.00000000000E+00 0. -1.
         -2    1    6    6    0  503 -0.50575203349E+03  0.27190317633E+03  0.18538322163E+03  0.60339323458E+03  0.00000000000E+00 0.  1.
<mgrwt>
<rscale>  0 0.21983800E+04</rscale>
<asrwt>0</asrwt>
<pdfrwt beam="1">  1        2 0.21496676E+00 0.21983800E+04</pdfrwt>
<pdfrwt beam="2">  1       -1 0.13302936E+00 0.21983800E+04</pdfrwt>
<totfact> 0.72361983E+00</totfact>
</mgrwt>
</event>
<event>
12    7  0.1625631E-007  0.1234891E+04  0.7818608E-02  0.9082853E-01
         -1   -1    0    0    0  501 -0.00000000000E+00  0.00000000000E+00  0.35070746455E+03  0.35070746455E+03  0.00000000000E+00 0.  1.
          2   -1    0    0  501    0  0.00000000000E+00 -0.00000000000E+00 -0.10870565050E+04  0.10870565050E+04  0.00000000000E+00 0. -1.
         24    2    1    2    0    0  0.46757592605E+02 -0.93976901543E+02  0.13330059055E+03  0.18540507479E+03  0.74753353287E+02 0.  0.
        254    2    1    2    0    0 -0.46757592605E+02  0.93976901543E+02 -0.86964963099E+03  0.12523588948E+04  0.89503876457E+03 0.  0.
         23    2    4    4    0    0 -0.10461718813E+03  0.18854775800E+03 -0.10195952712E+04  0.10467243135E+04  0.97786800636E+02 0.  0.
         23    2    4    4    0    0  0.57859595524E+02 -0.94570856461E+02  0.14994564020E+03  0.20563458123E+03  0.86663177280E+02 0.  0.
          4    1    3    3  502    0 -0.16953954729E+02 -0.22880876800E+01  0.15244477451E+02  0.22914319081E+02  0.00000000000E+00 0. -1.
         -3    1    3    3    0  502  0.63711547334E+02 -0.91688813863E+02  0.11805611310E+03  0.16249075571E+03  0.00000000000E+00 0.  1.
         13    1    5    5    0    0  0.14250240553E+02  0.34643088507E+02 -0.99838137422E+02  0.10663426570E+03  0.00000000000E+00 0.  1.
        -13    1    5    5    0    0 -0.11886742868E+03  0.15390466950E+03 -0.91975713377E+03  0.94009004782E+03  0.00000000000E+00 0. -1.
          4    1    6    6  503    0  0.70316369272E+02 -0.10153652285E+03  0.14513536257E+03  0.19057368845E+03  0.00000000000E+00 0. -1.
         -4    1    6    6    0  503 -0.12456773748E+02  0.69656663882E+01  0.48102776252E+01  0.15060892778E+02  0.00000000000E+00 0.  1.
<mgrwt>
<rscale>  0 0.12348908E+04</rscale>
<asrwt>0</asrwt>
<pdfrwt beam="1">  1        2 0.16723946E+00 0.12348908E+04</pdfrwt>
<pdfrwt beam="2">  1       -1 0.53954995E-01 0.12348908E+04</pdfrwt>
<totfact> 0.86386435E+01</totfact>
</mgrwt>
</event>
<event>
12    7  0.1625631E-007  0.1713828E+04  0.7818608E-02  0.8753517E-01
         -1   -1    0    0    0  501 -0.00000000000E+00  0.00000000000E+00  0.78633833000E+03  0.78633833000E+03  0.00000000000E+00 0.  1.
          2   -1    0    0  501    0  0.00000000000E+00 -0.00000000000E+00 -0.93382413127E+03  0.93382413127E+03  0.00000000000E+00 0. -1.
         24    2    1    2    0    0 -0.48432077844E+03  0.21965577903E+03 -0.34733085888E+03  0.63984908017E+03  0.77154663979E+02 0.  0.
        254    2    1    2    0    0  0.48432077844E+03 -0.21965577903E+03  0.19984505762E+03  0.10803133811E+04  0.91887087049E+03 0.  0.
         23    2    4    4    0    0  0.60529022344E+03  0.36099597505E+02  0.38950567600E+03  0.72661432576E+03  0.92597360828E+02 0.  0.
         23    2    4    4    0    0 -0.12096944500E+03 -0.25575537654E+03 -0.18966061838E+03  0.35369905534E+03  0.95328129787E+02 0.  0.
          2    1    3    3  502    0 -0.18997988441E+03  0.10263857921E+03 -0.18279585886E+03  0.28291581865E+03  0.00000000000E+00 0. -1.
         -1    1    3    3    0  502 -0.29434089402E+03  0.11701719982E+03 -0.16453500002E+03  0.35693326152E+03  0.00000000000E+00 0.  1.
         13    1    5    5    0    0  0.60106762723E+03  0.42864329810E+02  0.37412083751E+03  0.70928558729E+03  0.00000000000E+00 0. -1.
        -13    1    5    5    0    0  0.42225962159E+01 -0.67647323050E+01  0.15384838485E+02  0.17328738476E+02  0.00000000000E+00 0.  1.
          3    1    6    6  503    0 -0.11858845417E+03 -0.20390717811E+03 -0.18822212280E+03  0.30177628512E+03  0.00000000000E+00 0. -1.
         -3    1    6    6    0  503 -0.23809908355E+01 -0.51848198431E+02 -0.14384955780E+01  0.51922770221E+02  0.00000000000E+00 0.  1.
<mgrwt>
<rscale>  0 0.17138281E+04</rscale>
<asrwt>0</asrwt>
<pdfrwt beam="1">  1        2 0.14366525E+00 0.17138281E+04</pdfrwt>
<pdfrwt beam="2">  1       -1 0.12097513E+00 0.17138281E+04</pdfrwt>
<totfact> 0.18321407E+01</totfact>
</mgrwt>
</event>
<event>
12    7  0.1625631E-007  0.2084664E+04  0.7818608E-02  0.8568029E-01
          2   -1    0    0  501    0  0.00000000000E+00  0.00000000000E+00  0.74155976341E+03  0.74155976341E+03  0.00000000000E+00 0. -1.
         -1   -1    0    0    0  501 -0.00000000000E+00 -0.00000000000E+00 -0.14650960645E+04  0.14650960645E+04  0.00000000000E+00 0.  1.
         24    2    1    2    0    0  0.77504428550E+01  0.64581521043E+02  0.59909573618E+03  0.60786424458E+03  0.79701922852E+02 0.  0.
        254    2    1    2    0    0 -0.77504428550E+01 -0.64581521043E+02 -0.13226320373E+04  0.15987915834E+04  0.89585053369E+03 0.  0.
         23    2    4    4    0    0  0.17685440971E+03  0.33147118415E+03 -0.32345878567E+03  0.50433461048E+03  0.92613093786E+02 0.  0.
         23    2    4    4    0    0 -0.18460485257E+03 -0.39605270520E+03 -0.99917325164E+03  0.10944569729E+04  0.92478007250E+02 0.  0.
          2    1    3    3  502    0  0.11418900989E+01  0.33757730090E+02  0.53850543820E+03  0.53956370822E+03  0.00000000000E+00 0. -1.
         -1    1    3    3    0  502  0.66085527560E+01  0.30823790952E+02  0.60590297973E+02  0.68300536357E+02  0.00000000000E+00 0.  1.
         13    1    5    5    0    0  0.68688331752E+02  0.15818523348E+03 -0.20615309824E+03  0.26877454292E+03  0.00000000000E+00 0. -1.
        -13    1    5    5    0    0  0.10816607796E+03  0.17328595068E+03 -0.11730568742E+03  0.23556006755E+03  0.00000000000E+00 0.  1.
          4    1    6    6  503    0 -0.63992543037E+01 -0.22322830571E+02 -0.17618718591E+02  0.29149244675E+02  0.00000000000E+00 0. -1.
         -4    1    6    6    0  503 -0.17820559826E+03 -0.37372987463E+03 -0.98155453305E+03  0.10653077282E+04  0.00000000000E+00 0.  1.
<mgrwt>
<rscale>  0 0.20846643E+04</rscale>
<asrwt>0</asrwt>
<pdfrwt beam="1">  1        2 0.11408612E+00 0.20846643E+04</pdfrwt>
<pdfrwt beam="2">  1       -1 0.22539939E+00 0.20846643E+04</pdfrwt>
<totfact> 0.40582432E+00</totfact>
</mgrwt>
</event>
<event>
12    7  0.1625631E-007  0.3509866E+04  0.7818608E-02  0.8111456E-01
          2   -1    0    0  501    0  0.00000000000E+00  0.00000000000E+00  0.23282214062E+04  0.23282214062E+04  0.00000000000E+00 0. -1.
         -1   -1    0    0    0  501 -0.00000000000E+00 -0.00000000000E+00 -0.13228078475E+04  0.13228078475E+04  0.00000000000E+00 0.  1.
         24    2    1    2    0    0 -0.96605637519E+03 -0.52195838490E+03  0.17349705369E+04  0.20547678151E+04  0.79009711372E+02 0.  0.
        254    2    1    2    0    0  0.96605637519E+03  0.52195838490E+03 -0.72955697819E+03  0.15962614386E+04  0.90005095422E+03 0.  0.
         23    2    4    4    0    0  0.14937019831E+03  0.10555481347E+03 -0.63683628357E+03  0.67027733482E+03  0.10128168002E+03 0.  0.
         23    2    4    4    0    0  0.81668617688E+03  0.41640357143E+03 -0.92720694616E+02  0.92598410374E+03  0.92093362214E+02 0.  0.
          2    1    3    3  502    0 -0.92528474661E+03 -0.49569155237E+03  0.16843292790E+04  0.19846478523E+04  0.00000000000E+00 0. -1.
         -1    1    3    3    0  502 -0.40771628578E+02 -0.26266832524E+02  0.50641257911E+02  0.70119962854E+02  0.00000000000E+00 0.  1.
         13    1    5    5    0    0  0.12236045273E+03  0.84638731125E+02 -0.33548433305E+03  0.36699527643E+03  0.00000000000E+00 0. -1.
        -13    1    5    5    0    0  0.27009745578E+02  0.20916082342E+02 -0.30135195052E+03  0.30328205839E+03  0.00000000000E+00 0.  1.
          4    1    6    6  503    0  0.47513852584E+03  0.28574719861E+03 -0.78975555949E+02  0.56004037237E+03  0.00000000000E+00 0. -1.
         -4    1    6    6    0  503  0.34154765104E+03  0.13065637282E+03 -0.13745138666E+02  0.36594373137E+03  0.00000000000E+00 0.  1.
<mgrwt>
<rscale>  0 0.35098658E+04</rscale>
<asrwt>0</asrwt>
<pdfrwt beam="1">  1        2 0.35818791E+00 0.35098658E+04</pdfrwt>
<pdfrwt beam="2">  1       -1 0.20350890E+00 0.35098658E+04</pdfrwt>
<totfact> 0.58052493E-01</totfact>
</mgrwt>
</event>
<event>
12    7  0.1625631E-007  0.1481337E+04  0.7818608E-02  0.8896960E-01
          2   -1    0    0  501    0  0.00000000000E+00  0.00000000000E+00  0.14346936311E+04  0.14346936311E+04  0.00000000000E+00 0. -1.
         -1   -1    0    0    0  501 -0.00000000000E+00 -0.00000000000E+00 -0.38237397863E+03  0.38237397863E+03  0.00000000000E+00 0.  1.
         24    2    1    2    0    0 -0.12657833118E+03 -0.88531667007E+02  0.10364650483E+04  0.10509538870E+04  0.79902104537E+02 0.  0.
        254    2    1    2    0    0  0.12657833118E+03  0.88531667007E+02  0.15854604153E+02  0.76611372270E+03  0.75021259497E+03 0.  0.
         23    2    4    4    0    0 -0.23812986487E+03 -0.16959839062E+03  0.15558158637E+02  0.31028692451E+03  0.10279334891E+03 0.  0.
         23    2    4    4    0    0  0.36470819605E+03  0.25813005763E+03  0.29644551624E+00  0.45582679819E+03  0.90193054886E+02 0.  0.
          2    1    3    3  502    0 -0.76227689587E+02 -0.77280069152E+02  0.86813057205E+03  0.87489059881E+03  0.00000000000E+00 0. -1.
         -1    1    3    3    0  502 -0.50350641597E+02 -0.11251597855E+02  0.16833447625E+03  0.17606328822E+03  0.00000000000E+00 0.  1.
         13    1    5    5    0    0 -0.69340050821E+02 -0.71192957401E+02 -0.40049718142E+02  0.10714690735E+03  0.00000000000E+00 0.  1.
        -13    1    5    5    0    0 -0.16878981405E+03 -0.98405433220E+02  0.55607876779E+02  0.20314001716E+03  0.00000000000E+00 0. -1.
          2    1    6    6  503    0  0.34990080184E+03  0.23565421854E+03 -0.19668261745E+02  0.42231542994E+03  0.00000000000E+00 0. -1.
         -2    1    6    6    0  503  0.14807394211E+02  0.22475839085E+02  0.19964707262E+02  0.33511368249E+02  0.00000000000E+00 0.  1.
<mgrwt>
<rscale>  0 0.14813366E+04</rscale>
<asrwt>0</asrwt>
<pdfrwt beam="1">  1        2 0.22072209E+00 0.14813366E+04</pdfrwt>
<pdfrwt beam="2">  1       -1 0.58826767E-01 0.14813366E+04</pdfrwt>
<totfact> 0.44642158E+01</totfact>
</mgrwt>
</event>
<event>
12    7  0.1625631E-007  0.2311965E+04  0.7818608E-02  0.8473218E-01
         -1   -1    0    0    0  501 -0.00000000000E+00  0.00000000000E+00  0.69641658029E+03  0.69641658029E+03  0.00000000000E+00 0.  1.
          2   -1    0    0  501    0  0.00000000000E+00 -0.00000000000E+00 -0.19188163751E+04  0.19188163751E+04  0.00000000000E+00 0. -1.
         24    2    1    2    0    0  0.43089877590E+03  0.62025587516E+03  0.13354579467E+03  0.77034813738E+03  0.72184955087E+02 0.  0.
        254    2    1    2    0    0 -0.43089877590E+03 -0.62025587516E+03 -0.13559455895E+04  0.18448848180E+04  0.99730659498E+03 0.  0.
         23    2    4    4    0    0 -0.43223219822E+03 -0.60248125422E+02 -0.11630532963E+04  0.12456375695E+04  0.92008014907E+02 0.  0.
         23    2    4    4    0    0  0.13334223193E+01 -0.56000774974E+03 -0.19289229324E+03  0.59924724854E+03  0.90991045189E+02 0.  0.
          2    1    3    3  502    0  0.16340601306E+03  0.29734233560E+03  0.65434996649E+02  0.34553686986E+03  0.00000000000E+00 0. -1.
         -1    1    3    3    0  502  0.26749276284E+03  0.32291353956E+03  0.68110798026E+02  0.42481126752E+03  0.00000000000E+00 0.  1.
         13    1    5    5    0    0 -0.60247909511E+02  0.15072663032E+02 -0.11062619401E+03  0.12686666454E+03  0.00000000000E+00 0.  1.
        -13    1    5    5    0    0 -0.37198428870E+03 -0.75320788454E+02 -0.10524271023E+04  0.11187709050E+04  0.00000000000E+00 0. -1.
          2    1    6    6  503    0 -0.39232824906E+02 -0.38556421217E+03 -0.14567731096E+03  0.41403001725E+03  0.00000000000E+00 0. -1.
         -2    1    6    6    0  503  0.40566247226E+02 -0.17444353757E+03 -0.47214982284E+02  0.18521723128E+03  0.00000000000E+00 0.  1.
<mgrwt>
<rscale>  0 0.23119650E+04</rscale>
<asrwt>0</asrwt>
<pdfrwt beam="1">  1        2 0.29520252E+00 0.23119650E+04</pdfrwt>
<pdfrwt beam="2">  1       -1 0.10714101E+00 0.23119650E+04</pdfrwt>
<totfact> 0.62056697E+00</totfact>
</mgrwt>
</event>
<event>
12    7  0.1625631E-007  0.1164399E+04  0.7818608E-02  0.9144601E-01
         -1   -1    0    0    0  501 -0.00000000000E+00  0.00000000000E+00  0.33335223636E+03  0.33335223636E+03  0.00000000000E+00 0.  1.
          2   -1    0    0  501    0  0.00000000000E+00 -0.00000000000E+00 -0.10168119575E+04  0.10168119575E+04  0.00000000000E+00 0. -1.
         24    2    1    2    0    0 -0.15182633538E+03  0.39291765246E+02  0.50288253046E+02  0.18368368722E+03  0.81337012638E+02 0.  0.
        254    2    1    2    0    0  0.15182633538E+03 -0.39291765246E+02 -0.73374797420E+03  0.11664805067E+04  0.89313806539E+03 0.  0.
         23    2    4    4    0    0  0.59221250298E+01  0.27445073686E+03  0.60157427090E+02  0.29565032464E+03  0.91825486099E+02 0.  0.
         23    2    4    4    0    0  0.14590421035E+03 -0.31374250210E+03 -0.79390540129E+03  0.87083018203E+03  0.91307302554E+02 0.  0.
          2    1    3    3  502    0  0.75571625225E+01 -0.19820727481E+01  0.12533825329E+02  0.14769431104E+02  0.00000000000E+00 0. -1.
         -1    1    3    3    0  502 -0.15938349790E+03  0.41273837995E+02  0.37754427717E+02  0.16891425612E+03  0.00000000000E+00 0.  1.
         13    1    5    5    0    0  0.39623269356E+02  0.23103492934E+03  0.45725659431E+02  0.23882625061E+03  0.00000000000E+00 0. -1.
        -13    1    5    5    0    0 -0.33701144326E+02  0.43415807514E+02  0.14431767659E+02  0.56824074025E+02  0.00000000000E+00 0.  1.
          3    1    6    6  503    0  0.78977583139E+02 -0.24615031930E+03 -0.51671432544E+03  0.57777256117E+03  0.00000000000E+00 0. -1.
         -3    1    6    6    0  503  0.66926627213E+02 -0.67592182799E+02 -0.27719107586E+03  0.29305762086E+03  0.00000000000E+00 0.  1.
<mgrwt>
<rscale>  0 0.11643995E+04</rscale>
<asrwt>0</asrwt>
<pdfrwt beam="1">  1        2 0.15643261E+00 0.11643995E+04</pdfrwt>
<pdfrwt beam="2">  1       -1 0.51284959E-01 0.11643995E+04</pdfrwt>
<totfact> 0.10595250E+02</totfact>
</mgrwt>
</event>
<event>
12    7  0.1625631E-007  0.1181476E+04  0.7818608E-02  0.9129227E-01
          2   -1    0    0  501    0  0.00000000000E+00  0.00000000000E+00  0.60235581364E+03  0.60235581364E+03  0.00000000000E+00 0. -1.
         -1   -1    0    0    0  501 -0.00000000000E+00 -0.00000000000E+00 -0.57934447977E+03  0.57934447977E+03  0.00000000000E+00 0.  1.
         24    2    1    2    0    0  0.24389649462E+03  0.42159223810E+01 -0.33899985425E+00  0.25659743671E+03  0.79616929816E+02 0.  0.
        254    2    1    2    0    0 -0.24389649462E+03 -0.42159223810E+01  0.23350333729E+02  0.92510285670E+03  0.89205761210E+03 0.  0.
         23    2    4    4    0    0  0.12509697683E+03  0.33621129870E+03 -0.13001587245E+03  0.39211930797E+03  0.90366662018E+02 0.  0.
         23    2    4    4    0    0 -0.36899347145E+03 -0.34042722108E+03  0.15336620618E+03  0.53298354874E+03  0.92213855791E+02 0.  0.
          4    1    3    3  502    0  0.12341690411E+03 -0.15808159954E+02  0.35364734565E+02  0.12935337101E+03  0.00000000000E+00 0. -1.
         -3    1    3    3    0  502  0.12047959051E+03  0.20024082335E+02 -0.35703734419E+02  0.12724406569E+03  0.00000000000E+00 0.  1.
         13    1    5    5    0    0  0.10343613164E+03  0.32077555756E+03 -0.99038858557E+02  0.35129003282E+03  0.00000000000E+00 0. -1.
        -13    1    5    5    0    0  0.21660845183E+02  0.15435741141E+02 -0.30977013897E+02  0.40829275142E+02  0.00000000000E+00 0.  1.
          4    1    6    6  503    0 -0.24034673787E+03 -0.24841434318E+03  0.64687055704E+02  0.35165417028E+03  0.00000000000E+00 0. -1.
         -4    1    6    6    0  503 -0.12864673358E+03 -0.92012877900E+02  0.88679150480E+02  0.18132937845E+03  0.00000000000E+00 0.  1.
<mgrwt>
<rscale>  0 0.11814762E+04</rscale>
<asrwt>0</asrwt>
<pdfrwt beam="1">  1        2 0.92670126E-01 0.11814762E+04</pdfrwt>
<pdfrwt beam="2">  1       -1 0.89129920E-01 0.11814762E+04</pdfrwt>
<totfact> 0.68815605E+01</totfact>
</mgrwt>
</event>
<event>
12    7  0.1852305E-007  0.1913732E+04  0.7818608E-02  0.8648051E-01
         -1   -1    0    0    0  501 -0.00000000000E+00  0.00000000000E+00  0.42248853499E+03  0.42248853499E+03  0.00000000000E+00 0.  1.
          2   -1    0    0  501    0  0.00000000000E+00 -0.00000000000E+00 -0.21671427378E+04  0.21671427378E+04  0.00000000000E+00 0. -1.
         24    2    1    2    0    0  0.45326854978E+03 -0.18661231965E+03  0.69313358002E+02  0.50156195661E+03  0.80520299640E+02 0.  0.
        254    2    1    2    0    0 -0.45326854978E+03  0.18661231965E+03 -0.18139675608E+04  0.20880693162E+04  0.91064736393E+03 0.  0.
         23    2    4    4    0    0  0.85794904196E+02  0.36274748170E+03 -0.11393972085E+04  0.12021086414E+04  0.88840789530E+02 0.  0.
         23    2    4    4    0    0 -0.53906345398E+03 -0.17613516205E+03 -0.67457035233E+03  0.88596067482E+03  0.90929392119E+02 0.  0.
          2    1    3    3  502    0  0.16863185318E+03 -0.60030233048E+02 -0.12652606869E+02  0.17944475264E+03  0.00000000000E+00 0. -1.
         -1    1    3    3    0  502  0.28463669660E+03 -0.12658208660E+03  0.81965964871E+02  0.32211720397E+03  0.00000000000E+00 0.  1.
         13    1    5    5    0    0  0.98174829120E+02  0.32042815799E+03 -0.10540525611E+04  0.11060467002E+04  0.00000000000E+00 0. -1.
        -13    1    5    5    0    0 -0.12379924924E+02  0.42319323711E+02 -0.85344647418E+02  0.96061941181E+02  0.00000000000E+00 0.  1.
          3    1    6    6  503    0 -0.52991912721E+03 -0.18524231802E+03 -0.65707401277E+03  0.86421944900E+03  0.00000000000E+00 0. -1.
         -3    1    6    6    0  503 -0.91443267644E+01  0.91071559734E+01 -0.17496339566E+02  0.21741225819E+02  0.00000000000E+00 0.  1.
<mgrwt>
<rscale>  0 0.19137324E+04</rscale>
<asrwt>0</asrwt>
<pdfrwt beam="1">  1        2 0.33340657E+00 0.19137324E+04</pdfrwt>
<pdfrwt beam="2">  1       -1 0.64998238E-01 0.19137324E+04</pdfrwt>
<totfact> 0.13774970E+01</totfact>
</mgrwt>
</event>
<event>
12    7  0.1625631E-007  0.1463286E+04  0.7818608E-02  0.8909241E-01
          2   -1    0    0  501    0  0.00000000000E+00  0.00000000000E+00  0.25139537801E+04  0.25139537801E+04  0.00000000000E+00 0. -1.
         -1   -1    0    0    0  501 -0.00000000000E+00 -0.00000000000E+00 -0.21293221720E+03  0.21293221720E+03  0.00000000000E+00 0.  1.
         24    2    1    2    0    0  0.22088948460E+03 -0.24990275928E+03  0.16101042499E+03  0.37882908222E+03  0.79646488164E+02 0.  0.
        254    2    1    2    0    0 -0.22088948460E+03  0.24990275928E+03  0.21400111379E+04  0.23480569151E+04  0.90690685990E+03 0.  0.
         23    2    4    4    0    0  0.30949514345E+03 -0.20190450313E+02  0.10938541379E+04  0.11406671684E+04  0.91705048628E+02 0.  0.
         23    2    4    4    0    0 -0.53038462804E+03  0.27009320960E+03  0.10461570000E+04  0.12073897467E+04  0.95327520572E+02 0.  0.
          2    1    3    3  502    0 -0.39587889664E+01 -0.49134654366E+00  0.97457165767E+01  0.10530547141E+02  0.00000000000E+00 0. -1.
         -1    1    3    3    0  502  0.22484827356E+03 -0.24941141274E+03  0.15126470841E+03  0.36829853508E+03  0.00000000000E+00 0.  1.
         13    1    5    5    0    0  0.24614380553E+03 -0.33235208994E+02  0.72970189753E+03  0.77081529005E+03  0.00000000000E+00 0. -1.
        -13    1    5    5    0    0  0.63351337915E+02  0.13044758681E+02  0.36415224038E+03  0.36985187835E+03  0.00000000000E+00 0.  1.
          2    1    6    6  503    0 -0.44199033669E+03  0.18234570464E+03  0.82082857178E+03  0.94992892260E+03  0.00000000000E+00 0.  1.
         -2    1    6    6    0  503 -0.88394291351E+02  0.87747504957E+02  0.22532842821E+03  0.25746082407E+03  0.00000000000E+00 0. -1.
<mgrwt>
<rscale>  0 0.14632864E+04</rscale>
<asrwt>0</asrwt>
<pdfrwt beam="1">  1        2 0.38676210E+00 0.14632864E+04</pdfrwt>
<pdfrwt beam="2">  1       -1 0.32758804E-01 0.14632864E+04</pdfrwt>
<totfact> 0.33032312E+01</totfact>
</mgrwt>
</event>
<event>
12    7  0.1625631E-007  0.3473950E+04  0.7818608E-02  0.8119991E-01
          2   -1    0    0  501    0  0.00000000000E+00  0.00000000000E+00  0.21887511266E+04  0.21887511266E+04  0.00000000000E+00 0. -1.
         -1   -1    0    0    0  501 -0.00000000000E+00 -0.00000000000E+00 -0.13784488516E+04  0.13784488516E+04  0.00000000000E+00 0.  1.
         24    2    1    2    0    0  0.33835446254E+03 -0.26501804992E+03 -0.12259466895E+04  0.13015592673E+04  0.79955811828E+02 0.  0.
        254    2    1    2    0    0 -0.33835446254E+03  0.26501804992E+03  0.20362489645E+04  0.22656407108E+04  0.89560017650E+03 0.  0.
         23    2    4    4    0    0 -0.28123289676E+03  0.33010723528E+03  0.20856211553E+04  0.21320686821E+04  0.88535489026E+02 0.  0.
         23    2    4    4    0    0 -0.57121565777E+02 -0.65089185365E+02 -0.49372190798E+02  0.13357202874E+03  0.88906683159E+02 0.  0.
          2    1    3    3  502    0  0.10004674539E+03 -0.10451323465E+03 -0.50959906015E+03  0.52973915240E+03  0.00000000000E+00 0. -1.
         -1    1    3    3    0  502  0.23830771714E+03 -0.16050481527E+03 -0.71634762931E+03  0.77182011492E+03  0.00000000000E+00 0.  1.
         13    1    5    5    0    0 -0.80502959066E+02  0.15397898714E+03  0.72981751654E+03  0.75021587716E+03  0.00000000000E+00 0. -1.
        -13    1    5    5    0    0 -0.20072993769E+03  0.17612824814E+03  0.13558036387E+04  0.13818528049E+04  0.00000000000E+00 0.  1.
          4    1    6    6  503    0  0.12455873266E+02 -0.27946970115E+02  0.12776749981E+02  0.33157612362E+02  0.00000000000E+00 0. -1.
         -4    1    6    6    0  503 -0.69577439043E+02 -0.37142215249E+02 -0.62148940780E+02  0.10041441638E+03  0.00000000000E+00 0.  1.
<mgrwt>
<rscale>  0 0.34739496E+04</rscale>
<asrwt>0</asrwt>
<pdfrwt beam="1">  1        2 0.33673094E+00 0.34739496E+04</pdfrwt>
<pdfrwt beam="2">  1       -1 0.21206905E+00 0.34739496E+04</pdfrwt>
<totfact> 0.61063803E-01</totfact>
</mgrwt>
</event>
<event>
12    7  0.1625631E-007  0.2080634E+04  0.7818608E-02  0.8569823E-01
         -1   -1    0    0    0  501 -0.00000000000E+00  0.00000000000E+00  0.13588092937E+04  0.13588092937E+04  0.00000000000E+00 0.  1.
          2   -1    0    0  501    0  0.00000000000E+00 -0.00000000000E+00 -0.79647601090E+03  0.79647601090E+03  0.00000000000E+00 0. -1.
         24    2    1    2    0    0  0.34341694430E+03 -0.74040344520E+03  0.45504304257E+03  0.93837790793E+03  0.85769856012E+02 0.  0.
        254    2    1    2    0    0 -0.34341694430E+03  0.74040344520E+03  0.10729024026E+03  0.12169073967E+04  0.89622539420E+03 0.  0.
         23    2    4    4    0    0 -0.58976872992E+03  0.62247594230E+03 -0.91067623882E+02  0.86701167645E+03  0.90069314730E+02 0.  0.
         23    2    4    4    0    0  0.24635178562E+03  0.11792750290E+03  0.19835786414E+03  0.34989572026E+03  0.92114464498E+02 0.  0.
          4    1    3    3  502    0  0.19839222150E+03 -0.39891200354E+03  0.20125171093E+03  0.48886860328E+03  0.00000000000E+00 0. -1.
         -3    1    3    3    0  502  0.14502472280E+03 -0.34149144166E+03  0.25379133165E+03  0.44950930465E+03  0.00000000000E+00 0.  1.
         13    1    5    5    0    0 -0.12803249694E+03  0.19292228389E+03 -0.27480171405E+02  0.23316622336E+03  0.00000000000E+00 0. -1.
        -13    1    5    5    0    0 -0.46173623298E+03  0.42955365841E+03 -0.63587452478E+02  0.63384545310E+03  0.00000000000E+00 0.  1.
          1    1    6    6  503    0  0.14907639837E+03  0.24940887377E+02  0.81788589304E+02  0.17185806282E+03  0.00000000000E+00 0. -1.
         -1    1    6    6    0  503  0.97275387243E+02  0.92986615523E+02  0.11656927484E+03  0.17803765744E+03  0.00000000000E+00 0.  1.
<mgrwt>
<rscale>  0 0.20806336E+04</rscale>
<asrwt>0</asrwt>
<pdfrwt beam="1">  1        2 0.12253477E+00 0.20806336E+04</pdfrwt>
<pdfrwt beam="2">  1       -1 0.20904758E+00 0.20806336E+04</pdfrwt>
<totfact> 0.47618162E+00</totfact>
</mgrwt>
</event>
<event>
12    7  0.1625631E-007  0.1586142E+04  0.7818608E-02  0.8829107E-01
          2   -1    0    0  501    0  0.00000000000E+00  0.00000000000E+00  0.24482992986E+04  0.24482992986E+04  0.00000000000E+00 0. -1.
         -1   -1    0    0    0  501 -0.00000000000E+00 -0.00000000000E+00 -0.25689748459E+03  0.25689748459E+03  0.00000000000E+00 0.  1.
         24    2    1    2    0    0 -0.12227476746E+03 -0.40120076901E+03  0.18065500046E+03  0.46354771252E+03  0.79542924132E+02 0.  0.
        254    2    1    2    0    0  0.12227476746E+03  0.40120076901E+03  0.20107468135E+04  0.22416490707E+04  0.89776089914E+03 0.  0.
         23    2    4    4    0    0 -0.24856171936E+03  0.52140974978E+03  0.10728043138E+04  0.12218207005E+04  0.91025671739E+02 0.  0.
         23    2    4    4    0    0  0.37083648682E+03 -0.12020898077E+03  0.93794249971E+03  0.10198283702E+04  0.91344801670E+02 0.  0.
          2    1    3    3  502    0  0.44688684931E+01 -0.10552177301E+02  0.18989708366E+02  0.22179455702E+02  0.00000000000E+00 0. -1.
         -1    1    3    3    0  502 -0.12674363595E+03 -0.39064859171E+03  0.16166529209E+03  0.44136825682E+03  0.00000000000E+00 0.  1.
         13    1    5    5    0    0 -0.23262658442E+03  0.51383966498E+03  0.10127382061E+04  0.11592174098E+04  0.00000000000E+00 0.  1.
        -13    1    5    5    0    0 -0.15935134947E+02  0.75700847997E+01  0.60066107734E+02  0.62603290712E+02  0.00000000000E+00 0. -1.
          2    1    6    6  503    0  0.10672545523E+03  0.18409924468E+01  0.30718396357E+03  0.32520101402E+03  0.00000000000E+00 0. -1.
         -2    1    6    6    0  503  0.26411103160E+03 -0.12204997322E+03  0.63075853614E+03  0.69462735613E+03  0.00000000000E+00 0.  1.
<mgrwt>
<rscale>  0 0.15861424E+04</rscale>
<asrwt>0</asrwt>
<pdfrwt beam="1">  1        2 0.37666142E+00 0.15861424E+04</pdfrwt>
<pdfrwt beam="2">  1       -1 0.39522692E-01 0.15861424E+04</pdfrwt>
<totfact> 0.25432823E+01</totfact>
</mgrwt>
</event>
<event>
12    7  0.1625631E-007  0.1626771E+04  0.7818608E-02  0.8804268E-01
          2   -1    0    0  501    0  0.00000000000E+00  0.00000000000E+00  0.11237984528E+04  0.11237984528E+04  0.00000000000E+00 0. -1.
         -1   -1    0    0    0  501 -0.00000000000E+00 -0.00000000000E+00 -0.58871414996E+03  0.58871414996E+03  0.00000000000E+00 0.  1.
         24    2    1    2    0    0  0.17936178001E+03  0.33362184452E+02 -0.37803584619E+03  0.42757852565E+03  0.81416282875E+02 0.  0.
        254    2    1    2    0    0 -0.17936178001E+03 -0.33362184452E+02  0.91312014901E+03  0.12849340771E+04  0.88542842311E+03 0.  0.
         23    2    4    4    0    0  0.19060984365E+03  0.24276777280E+03  0.85693134078E+02  0.33329139615E+03  0.92040955609E+02 0.  0.
         23    2    4    4    0    0 -0.36997162366E+03 -0.27612995725E+03  0.82742701493E+03  0.95164268094E+03  0.88665503673E+02 0.  0.
          4    1    3    3  502    0  0.52581662236E+02  0.48040051890E+02 -0.11612498191E+03  0.13622660978E+03  0.00000000000E+00 0. -1.
         -3    1    3    3    0  502  0.12678011777E+03 -0.14677867437E+02 -0.26191086428E+03  0.29135191587E+03  0.00000000000E+00 0.  1.
         13    1    5    5    0    0  0.16210377684E+03  0.22413756929E+03  0.45035200178E+02  0.28025605023E+03  0.00000000000E+00 0.  1.
        -13    1    5    5    0    0  0.28506066809E+02  0.18630203513E+02  0.40657933901E+02  0.53035345921E+02  0.00000000000E+00 0. -1.
          2    1    6    6  503    0 -0.19018056471E+03 -0.14279761341E+03  0.33610728357E+03  0.41173767335E+03  0.00000000000E+00 0. -1.
         -2    1    6    6    0  503 -0.17979105895E+03 -0.13333234385E+03  0.49131973136E+03  0.53990500759E+03  0.00000000000E+00 0.  1.
<mgrwt>
<rscale>  0 0.16267711E+04</rscale>
<asrwt>0</asrwt>
<pdfrwt beam="1">  1        2 0.17289207E+00 0.16267711E+04</pdfrwt>
<pdfrwt beam="2">  1       -1 0.90571408E-01 0.16267711E+04</pdfrwt>
<totfact> 0.27388434E+01</totfact>
</mgrwt>
</event>
<event>
12    7  0.1625631E-007  0.2375225E+04  0.7818608E-02  0.8448838E-01
         -1   -1    0    0    0  501 -0.00000000000E+00  0.00000000000E+00  0.69372510229E+03  0.69372510229E+03  0.00000000000E+00 0.  1.
          2   -1    0    0  501    0  0.00000000000E+00 -0.00000000000E+00 -0.20331154595E+04  0.20331154595E+04  0.00000000000E+00 0. -1.
         24    2    1    2    0    0  0.72015377453E+03  0.65233058444E+03 -0.23365287592E+03  0.10025201937E+04  0.79349996889E+02 0.  0.
        254    2    1    2    0    0 -0.72015377453E+03 -0.65233058444E+03 -0.11057374813E+04  0.17243203680E+04  0.89803602590E+03 0.  0.
         23    2    4    4    0    0 -0.70217438170E+03 -0.47269929088E+02 -0.56758624049E+03  0.90937509250E+03  0.97599231292E+02 0.  0.
         23    2    4    4    0    0 -0.17979392835E+02 -0.60506065536E+03 -0.53815124076E+03  0.81494527554E+03  0.90041040468E+02 0.  0.
          2    1    3    3  502    0  0.24202336973E+03  0.17247490997E+03 -0.83115906201E+02  0.30859546323E+03  0.00000000000E+00 0. -1.
         -1    1    3    3    0  502  0.47813040480E+03  0.47985567448E+03 -0.15053696972E+03  0.69392473049E+03  0.00000000000E+00 0.  1.
         13    1    5    5    0    0 -0.22507046706E+02 -0.96304064176E+01 -0.23684761280E+01  0.24595153148E+02  0.00000000000E+00 0. -1.
        -13    1    5    5    0    0 -0.67966733499E+03 -0.37639522670E+02 -0.56521776436E+03  0.88477993935E+03  0.00000000000E+00 0.  1.
          4    1    6    6  503    0 -0.14128295290E+02 -0.38972214942E+02 -0.65274023868E+02  0.77324901922E+02  0.00000000000E+00 0. -1.
         -4    1    6    6    0  503 -0.38510975447E+01 -0.56608844041E+03 -0.47287721689E+03  0.73762037362E+03  0.00000000000E+00 0.  1.
<mgrwt>
<rscale>  0 0.23752248E+04</rscale>
<asrwt>0</asrwt>
<pdfrwt beam="1">  1        2 0.31278699E+00 0.23752248E+04</pdfrwt>
<pdfrwt beam="2">  1       -1 0.10672694E+00 0.23752248E+04</pdfrwt>
<totfact> 0.53802610E+00</totfact>
</mgrwt>
</event>
<event>
12    7  0.1625631E-007  0.1680304E+04  0.7818608E-02  0.8772678E-01
         -1   -1    0    0    0  501 -0.00000000000E+00  0.00000000000E+00  0.19473128167E+03  0.19473128167E+03  0.00000000000E+00 0.  1.
          2   -1    0    0  501    0  0.00000000000E+00 -0.00000000000E+00 -0.36247654275E+04  0.36247654275E+04  0.00000000000E+00 0. -1.
         24    2    1    2    0    0  0.20446607210E+03 -0.27522736825E+03 -0.12175542615E+03  0.37248208534E+03  0.79762404856E+02 0.  0.
        254    2    1    2    0    0 -0.20446607210E+03  0.27522736825E+03 -0.33082787196E+04  0.34470146238E+04  0.90534261522E+03 0.  0.
         23    2    4    4    0    0  0.45700413989E+02  0.19523549454E+02  0.11519892657E+02  0.10672461591E+03  0.93742940491E+02 0.  0.
         23    2    4    4    0    0 -0.25016648609E+03  0.25570381879E+03 -0.33197986123E+04  0.33402900079E+04  0.92232298255E+02 0.  0.
          2    1    3    3  502    0  0.18789482007E+02 -0.32119803248E+01  0.48024193005E+01  0.19657687627E+02  0.00000000000E+00 0. -1.
         -1    1    3    3    0  502  0.18567659010E+03 -0.27201538792E+03 -0.12655784545E+03  0.35282439771E+03  0.00000000000E+00 0.  1.
         13    1    5    5    0    0 -0.98374557099E+01  0.34225119184E+02 -0.20361086964E+02  0.41020826179E+02  0.00000000000E+00 0. -1.
        -13    1    5    5    0    0  0.55537869699E+02 -0.14701569730E+02  0.31880979621E+02  0.65703789730E+02  0.00000000000E+00 0.  1.
          1    1    6    6  503    0 -0.29273731087E+02  0.23846712817E+02 -0.16426273556E+03  0.16854632401E+03  0.00000000000E+00 0. -1.
         -1    1    6    6    0  503 -0.22089275500E+03  0.23185710597E+03 -0.31555358767E+04  0.31717436839E+04  0.00000000000E+00 0.  1.
<mgrwt>
<rscale>  0 0.16803038E+04</rscale>
<asrwt>0</asrwt>
<pdfrwt beam="1">  1        2 0.55765620E+00 0.16803038E+04</pdfrwt>
<pdfrwt beam="2">  1       -1 0.29958660E-01 0.16803038E+04</pdfrwt>
<totfact> 0.74420608E+00</totfact>
</mgrwt>
</event>
<event>
12    7  0.1625631E-007  0.1266207E+04  0.7818608E-02  0.9056801E-01
         -1   -1    0    0    0  501 -0.00000000000E+00  0.00000000000E+00  0.21040194674E+03  0.21040194674E+03  0.00000000000E+00 0.  1.
          2   -1    0    0  501    0  0.00000000000E+00 -0.00000000000E+00 -0.19050194072E+04  0.19050194072E+04  0.00000000000E+00 0. -1.
         24    2    1    2    0    0  0.67887342278E+02  0.25194364434E+03 -0.59436282318E+03  0.65401038274E+03  0.79863157911E+02 0.  0.
        254    2    1    2    0    0 -0.67887342278E+02 -0.25194364434E+03 -0.11002546373E+04  0.14614109712E+04  0.92578478532E+03 0.  0.
         23    2    4    4    0    0  0.10057917568E+03 -0.46939207873E+03 -0.22195580344E+03  0.53642478527E+03  0.89677630491E+02 0.  0.
         23    2    4    4    0    0 -0.16846651796E+03  0.21744843440E+03 -0.87829883382E+03  0.92498618592E+03  0.92335331053E+02 0.  0.
          2    1    3    3  502    0  0.36196136248E+02  0.23328716401E+03 -0.51721320943E+03  0.56854425086E+03  0.00000000000E+00 0. -1.
         -1    1    3    3    0  502  0.31691206030E+02  0.18656480326E+02 -0.77149613750E+02  0.85466131886E+02  0.00000000000E+00 0.  1.
         13    1    5    5    0    0  0.73345699466E+02 -0.40311923864E+03 -0.21928137712E+03  0.46472468682E+03  0.00000000000E+00 0. -1.
        -13    1    5    5    0    0  0.27233476213E+02 -0.66272840097E+02 -0.26744263214E+01  0.71700098447E+02  0.00000000000E+00 0.  1.
          2    1    6    6  503    0 -0.14442461288E+03  0.21524612407E+03 -0.72820427677E+03  0.77296237388E+03  0.00000000000E+00 0. -1.
         -2    1    6    6    0  503 -0.24041905074E+02  0.22023103275E+01 -0.15009455705E+03  0.15202381204E+03  0.00000000000E+00 0.  1.
<mgrwt>
<rscale>  0 0.12662066E+04</rscale>
<asrwt>0</asrwt>
<pdfrwt beam="1">  1        2 0.29307989E+00 0.12662066E+04</pdfrwt>
<pdfrwt beam="2">  1       -1 0.32369533E-01 0.12662066E+04</pdfrwt>
<totfact> 0.75372245E+01</totfact>
</mgrwt>
</event>
<event>
12    7  0.1625631E-007  0.1286537E+04  0.7818608E-02  0.9040310E-01
          2   -1    0    0  501    0  0.00000000000E+00  0.00000000000E+00  0.65470365111E+03  0.65470365111E+03  0.00000000000E+00 0. -1.
         -1   -1    0    0    0  501 -0.00000000000E+00 -0.00000000000E+00 -0.63203302331E+03  0.63203302331E+03  0.00000000000E+00 0.  1.
         24    2    1    2    0    0  0.10027431909E+03 -0.22232484500E+03 -0.20929300944E+03  0.33135396163E+03  0.80675946324E+02 0.  0.
        254    2    1    2    0    0 -0.10027431909E+03  0.22232484500E+03  0.23196363724E+03  0.95538271278E+03  0.89412847126E+03 0.  0.
         23    2    4    4    0    0  0.14689473669E+03 -0.29507061660E+03  0.34759003895E+02  0.34233001845E+03  0.85655827177E+02 0.  0.
         23    2    4    4    0    0 -0.24716905578E+03  0.51739546160E+03  0.19720463335E+03  0.61305269434E+03  0.90295807227E+02 0.  0.
          4    1    3    3  502    0  0.44643729920E+02 -0.86493866562E+02 -0.34880904087E+02  0.10339694891E+03  0.00000000000E+00 0. -1.
         -3    1    3    3    0  502  0.55630589173E+02 -0.13583097844E+03 -0.17441210536E+03  0.22795701272E+03  0.00000000000E+00 0.  1.
         13    1    5    5    0    0  0.80504526985E+02 -0.23370181216E+03  0.45342931069E+02  0.25130359581E+03  0.00000000000E+00 0. -1.
        -13    1    5    5    0    0  0.66390209700E+02 -0.61368804448E+02 -0.10583927173E+02  0.91026422635E+02  0.00000000000E+00 0.  1.
          4    1    6    6  503    0 -0.42605442130E+02  0.45538254144E+02  0.44360471739E+02  0.76529783369E+02  0.00000000000E+00 0. -1.
         -4    1    6    6    0  503 -0.20456361365E+03  0.47185720746E+03  0.15284416161E+03  0.53652291097E+03  0.00000000000E+00 0.  1.
<mgrwt>
<rscale>  0 0.12865369E+04</rscale>
<asrwt>0</asrwt>
<pdfrwt beam="1">  1        2 0.10072364E+00 0.12865369E+04</pdfrwt>
<pdfrwt beam="2">  1       -1 0.97235849E-01 0.12865369E+04</pdfrwt>
<totfact> 0.50771783E+01</totfact>
</mgrwt>
</event>
<event>
12    7  0.1625631E-007  0.1925019E+04  0.7818608E-02  0.8642502E-01
          2   -1    0    0  501    0  0.00000000000E+00  0.00000000000E+00  0.34477535238E+04  0.34477535238E+04  0.00000000000E+00 0. -1.
         -1   -1    0    0    0  501 -0.00000000000E+00 -0.00000000000E+00 -0.26870378687E+03  0.26870378687E+03  0.00000000000E+00 0.  1.
         24    2    1    2    0    0  0.54783482225E+03 -0.18303319536E+03  0.31924023738E+03  0.66457152010E+03  0.78210185381E+02 0.  0.
        254    2    1    2    0    0 -0.54783482225E+03  0.18303319536E+03  0.28598094996E+04  0.30518857906E+04  0.89547326144E+03 0.  0.
         23    2    4    4    0    0 -0.65097669356E+03  0.42650733842E+03  0.21972721178E+04  0.23328590544E+04  0.92452381065E+02 0.  0.
         23    2    4    4    0    0  0.10314187131E+03 -0.24347414306E+03  0.66253738178E+03  0.71902673620E+03  0.90143003955E+02 0.  0.
          2    1    3    3  502    0  0.16018629499E+02 -0.14560883728E+02  0.27595828589E+02  0.35073431276E+02  0.00000000000E+00 0. -1.
         -1    1    3    3    0  502  0.53181619275E+03 -0.16847231163E+03  0.29164440879E+03  0.62949808883E+03  0.00000000000E+00 0.  1.
         13    1    5    5    0    0 -0.53939487439E+03  0.36225476593E+03  0.19244804290E+04  0.20312066038E+04  0.00000000000E+00 0. -1.
        -13    1    5    5    0    0 -0.11158181918E+03  0.64252572488E+02  0.27279168882E+03  0.30165245056E+03  0.00000000000E+00 0.  1.
          3    1    6    6  503    0  0.14427030383E+02 -0.11117958298E+03  0.19291339447E+03  0.22312466615E+03  0.00000000000E+00 0. -1.
         -3    1    6    6    0  503  0.88714840932E+02 -0.13229456008E+03  0.46962398731E+03  0.49590207006E+03  0.00000000000E+00 0.  1.
<mgrwt>
<rscale>  0 0.19250189E+04</rscale>
<asrwt>0</asrwt>
<pdfrwt beam="1">  1        2 0.53042359E+00 0.19250189E+04</pdfrwt>
<pdfrwt beam="2">  1       -1 0.41339047E-01 0.19250189E+04</pdfrwt>
<totfact> 0.54249528E+00</totfact>
</mgrwt>
</event>
<event>
12    7  0.1625631E-007  0.1128017E+04  0.7818608E-02  0.9178307E-01
          2   -1    0    0  501    0  0.00000000000E+00  0.00000000000E+00  0.78957742529E+03  0.78957742529E+03  0.00000000000E+00 0. -1.
         -1   -1    0    0    0  501 -0.00000000000E+00 -0.00000000000E+00 -0.40288094765E+03  0.40288094765E+03  0.00000000000E+00 0.  1.
         24    2    1    2    0    0 -0.11909200629E+03 -0.88574752437E+02 -0.55859884809E+02  0.17737064795E+03  0.79445750633E+02 0.  0.
        254    2    1    2    0    0  0.11909200629E+03  0.88574752437E+02  0.44255636245E+03  0.10150877250E+04  0.90139811557E+03 0.  0.
         23    2    4    4    0    0 -0.93497068759E+02 -0.25864286604E+03 -0.12067998403E+03  0.31415730783E+03  0.92159218180E+02 0.  0.
         23    2    4    4    0    0  0.21258907505E+03  0.34721761848E+03  0.56323634648E+03  0.70093041716E+03  0.91181567709E+02 0.  0.
          4    1    3    3  502    0 -0.45019584845E+02 -0.69112102758E+02  0.16106724796E+00  0.82481947782E+02  0.00000000000E+00 0. -1.
         -3    1    3    3    0  502 -0.74072421441E+02 -0.19462649679E+02 -0.56020952057E+02  0.94888700171E+02  0.00000000000E+00 0.  1.
         13    1    5    5    0    0 -0.92493773680E+02 -0.12222295148E+03 -0.71587257672E+02  0.16916939292E+03  0.00000000000E+00 0. -1.
        -13    1    5    5    0    0 -0.10032950795E+01 -0.13641991456E+03 -0.49092726358E+02  0.14498791491E+03  0.00000000000E+00 0.  1.
          3    1    6    6  503    0  0.10733137295E+03  0.98607108233E+02  0.22630840202E+03  0.26918186833E+03  0.00000000000E+00 0. -1.
         -3    1    6    6    0  503  0.10525770209E+03  0.24861051025E+03  0.33692794446E+03  0.43174854883E+03  0.00000000000E+00 0.  1.
<mgrwt>
<rscale>  0 0.11280172E+04</rscale>
<asrwt>0</asrwt>
<pdfrwt beam="1">  1        2 0.12147345E+00 0.11280172E+04</pdfrwt>
<pdfrwt beam="2">  1       -1 0.61981684E-01 0.11280172E+04</pdfrwt>
<totfact> 0.10473257E+02</totfact>
</mgrwt>
</event>
<event>
12    7  0.1625631E-007  0.2947642E+04  0.7818608E-02  0.8258842E-01
          2   -1    0    0  501    0  0.00000000000E+00  0.00000000000E+00  0.80423251157E+03  0.80423251157E+03  0.00000000000E+00 0. -1.
         -1   -1    0    0    0  501 -0.00000000000E+00 -0.00000000000E+00 -0.27008961378E+04  0.27008961378E+04  0.00000000000E+00 0.  1.
         24    2    1    2    0    0 -0.65147627076E+03  0.11468632453E+04 -0.60063471410E+03  0.14515013570E+04  0.79859218865E+02 0.  0.
        254    2    1    2    0    0  0.65147627076E+03 -0.11468632453E+04 -0.12960289121E+04  0.20536272923E+04  0.89329585242E+03 0.  0.
         23    2    4    4    0    0  0.44297220298E+03 -0.12013867846E+04 -0.82112217668E+03  0.15238848817E+04  0.91809175950E+02 0.  0.
         23    2    4    4    0    0  0.20850406778E+03  0.54523539303E+02 -0.47490673542E+03  0.52974241062E+03  0.92972316523E+02 0.  0.
          2    1    3    3  502    0 -0.26775385425E+03  0.40561963481E+03 -0.19837168108E+03  0.52494831980E+03  0.00000000000E+00 0. -1.
         -1    1    3    3    0  502 -0.38372241651E+03  0.74124361050E+03 -0.40226303302E+03  0.92655303722E+03  0.00000000000E+00 0.  1.
         13    1    5    5    0    0  0.39602311715E+03 -0.10592567615E+04 -0.75818580707E+03  0.13615083232E+04  0.00000000000E+00 0. -1.
        -13    1    5    5    0    0  0.46949085831E+02 -0.14213002315E+03 -0.62936369616E+02  0.16237655853E+03  0.00000000000E+00 0.  1.
          3    1    6    6  503    0  0.11711893082E+03  0.73289391117E+02 -0.32540766613E+03  0.35352274040E+03  0.00000000000E+00 0. -1.
         -3    1    6    6    0  503  0.91385136956E+02 -0.18765851814E+02 -0.14949906929E+03  0.17621967021E+03  0.00000000000E+00 0.  1.
<mgrwt>
<rscale>  0 0.29476421E+04</rscale>
<asrwt>0</asrwt>
<pdfrwt beam="1">  1        2 0.12372808E+00 0.29476421E+04</pdfrwt>
<pdfrwt beam="2">  1       -1 0.41552248E+00 0.29476421E+04</pdfrwt>
<totfact> 0.18750711E-01</totfact>
</mgrwt>
</event>
<event>
12    7  0.1625631E-007  0.1754052E+04  0.7818608E-02  0.8731123E-01
          2   -1    0    0  501    0  0.00000000000E+00  0.00000000000E+00  0.22669580854E+04  0.22669580854E+04  0.00000000000E+00 0. -1.
         -1   -1    0    0    0  501 -0.00000000000E+00 -0.00000000000E+00 -0.33929808127E+03  0.33929808127E+03  0.00000000000E+00 0.  1.
         24    2    1    2    0    0 -0.46137653465E+01 -0.56687871615E+03  0.27970248997E+03  0.63681179880E+03  0.76961149504E+02 0.  0.
        254    2    1    2    0    0  0.46137653465E+01  0.56687871615E+03  0.16479575142E+04  0.19694443679E+04  0.91737363380E+03 0.  0.
         23    2    4    4    0    0 -0.10641088107E+03  0.55541132556E+03  0.36629903308E+03  0.67974483552E+03  0.89850117463E+02 0.  0.
         23    2    4    4    0    0  0.11102464642E+03  0.11467390591E+02  0.12816584811E+04  0.12896995324E+04  0.90655658687E+02 0.  0.
          4    1    3    3  502    0  0.71706440513E+01 -0.18564319058E+03  0.13150786168E+03  0.22761619017E+03  0.00000000000E+00 0. -1.
         -3    1    3    3    0  502 -0.11784409398E+02 -0.38123552557E+03  0.14819462829E+03  0.40919560862E+03  0.00000000000E+00 0.  1.
         13    1    5    5    0    0 -0.11992921842E+03  0.53368933349E+03  0.35117564552E+03  0.65002435041E+03  0.00000000000E+00 0.  1.
        -13    1    5    5    0    0  0.13518337348E+02  0.21721992070E+02  0.15123387561E+02  0.29720485115E+02  0.00000000000E+00 0. -1.
          4    1    6    6  503    0 -0.11736658277E+02  0.39603081906E+01  0.37856007082E+02  0.39831023847E+02  0.00000000000E+00 0. -1.
         -4    1    6    6    0  503  0.12276130470E+03  0.75070823999E+01  0.12438024740E+04  0.12498685085E+04  0.00000000000E+00 0.  1.
<mgrwt>
<rscale>  0 0.17540519E+04</rscale>
<asrwt>0</asrwt>
<pdfrwt beam="1">  1        2 0.34876277E+00 0.17540519E+04</pdfrwt>
<pdfrwt beam="2">  1       -1 0.52199706E-01 0.17540519E+04</pdfrwt>
<totfact> 0.18888333E+01</totfact>
</mgrwt>
</event>
<event>
12    7  0.1625631E-007  0.1749530E+04  0.7818608E-02  0.8733609E-01
         -1   -1    0    0    0  501 -0.00000000000E+00  0.00000000000E+00  0.52456969664E+03  0.52456969664E+03  0.00000000000E+00 0.  1.
          2   -1    0    0  501    0  0.00000000000E+00 -0.00000000000E+00 -0.14587455451E+04  0.14587455451E+04  0.00000000000E+00 0. -1.
         24    2    1    2    0    0  0.30170580763E+03 -0.55717098929E+03 -0.23615963155E+03  0.68078406120E+03  0.78928199944E+02 0.  0.
        254    2    1    2    0    0 -0.30170580763E+03  0.55717098929E+03 -0.69801621689E+03  0.13025311805E+04  0.89882975669E+03 0.  0.
         23    2    4    4    0    0 -0.37611651695E+03 -0.10441586821E+03 -0.12730189641E+03  0.42099393882E+03  0.93079620920E+02 0.  0.
         23    2    4    4    0    0  0.74410709329E+02  0.66158685751E+03 -0.57071432048E+03  0.88153724170E+03  0.90326901964E+02 0.  0.
          2    1    3    3  502    0  0.16792657864E+03 -0.35318654800E+03 -0.17975125351E+03  0.43040746583E+03  0.00000000000E+00 0. -1.
         -1    1    3    3    0  502  0.13377922898E+03 -0.20398444129E+03 -0.56408378038E+02  0.25037659537E+03  0.00000000000E+00 0.  1.
         13    1    5    5    0    0 -0.31367489251E+03 -0.12166759546E+03 -0.10941464096E+03  0.35378878675E+03  0.00000000000E+00 0.  1.
        -13    1    5    5    0    0 -0.62441624447E+02  0.17251727248E+02 -0.17887255457E+02  0.67205152067E+02  0.00000000000E+00 0. -1.
          2    1    6    6  503    0  0.90369848020E+02  0.42946931943E+03 -0.35999004851E+03  0.56762966871E+03  0.00000000000E+00 0. -1.
         -2    1    6    6    0  503 -0.15959138691E+02  0.23211753807E+03 -0.21072427197E+03  0.31390757300E+03  0.00000000000E+00 0.  1.
<mgrwt>
<rscale>  0 0.17495299E+04</rscale>
<asrwt>0</asrwt>
<pdfrwt beam="1">  1        2 0.22442239E+00 0.17495299E+04</pdfrwt>
<pdfrwt beam="2">  1       -1 0.80703032E-01 0.17495299E+04</pdfrwt>
<totfact> 0.22153482E+01</totfact>
</mgrwt>
</event>
<event>
12    7  0.1625631E-007  0.1730933E+04  0.7818608E-02  0.8743916E-01
         -1   -1    0    0    0  501 -0.00000000000E+00  0.00000000000E+00  0.11206626007E+04  0.11206626007E+04  0.00000000000E+00 0.  1.
          2   -1    0    0  501    0  0.00000000000E+00 -0.00000000000E+00 -0.66838348758E+03  0.66838348758E+03  0.00000000000E+00 0. -1.
         24    2    1    2    0    0 -0.12881418287E+02 -0.97858377773E+02  0.79127750424E+03  0.80131004412E+03  0.78965214111E+02 0.  0.
        254    2    1    2    0    0  0.12881418287E+02  0.97858377773E+02 -0.33899839115E+03  0.98773604413E+03  0.92247514364E+03 0.  0.
         23    2    4    4    0    0  0.34631128873E+03  0.52263087829E+02 -0.48904730271E+03  0.60825959168E+03  0.90274733648E+02 0.  0.
         23    2    4    4    0    0 -0.33342987044E+03  0.45595289944E+02  0.15004891156E+03  0.37947645245E+03  0.90737495766E+02 0.  0.
          4    1    3    3  502    0  0.30631689201E+02 -0.27801520712E+02  0.19364829807E+03  0.19801739389E+03  0.00000000000E+00 0. -1.
         -3    1    3    3    0  502 -0.43513107488E+02 -0.70056857061E+02  0.59762920618E+03  0.60329265023E+03  0.00000000000E+00 0.  1.
         13    1    5    5    0    0 -0.46331039719E+01 -0.41401820077E+01 -0.92285282867E+01  0.11125308706E+02  0.00000000000E+00 0. -1.
        -13    1    5    5    0    0  0.35094439270E+03  0.56403269836E+02 -0.47981877442E+03  0.59713428297E+03  0.00000000000E+00 0.  1.
          1    1    6    6  503    0 -0.14552548840E+03  0.57083915936E+02  0.96681121582E+02  0.18380283051E+03  0.00000000000E+00 0. -1.
         -1    1    6    6    0  503 -0.18790438204E+03 -0.11488625992E+02  0.53367789976E+02  0.19567362194E+03  0.00000000000E+00 0.  1.
<mgrwt>
<rscale>  0 0.17309331E+04</rscale>
<asrwt>0</asrwt>
<pdfrwt beam="1">  1        2 0.10282823E+00 0.17309331E+04</pdfrwt>
<pdfrwt beam="2">  1       -1 0.17240963E+00 0.17309331E+04</pdfrwt>
<totfact> 0.11122038E+01</totfact>
</mgrwt>
</event>
<event>
12    7  0.1625631E-007  0.1798911E+04  0.7818608E-02  0.8706879E-01
          2   -1    0    0  501    0  0.00000000000E+00  0.00000000000E+00  0.51334258702E+03  0.51334258702E+03  0.00000000000E+00 0. -1.
         -1   -1    0    0    0  501 -0.00000000000E+00 -0.00000000000E+00 -0.15759844780E+04  0.15759844780E+04  0.00000000000E+00 0.  1.
         24    2    1    2    0    0  0.18994406252E+03 -0.56223943120E+03 -0.78401930059E+03  0.98660920691E+03  0.80743659588E+02 0.  0.
        254    2    1    2    0    0 -0.18994406252E+03  0.56223943120E+03 -0.27862259039E+03  0.11027178581E+04  0.88665901103E+03 0.  0.
         23    2    4    4    0    0 -0.21484088111E+03 -0.60646253185E+02 -0.39436979842E+03  0.46193954568E+03  0.89588133903E+02 0.  0.
         23    2    4    4    0    0  0.24896818586E+02  0.62288568439E+03  0.11574720803E+03  0.64077831244E+03  0.92698447288E+02 0.  0.
          4    1    3    3  502    0  0.17080527873E+02 -0.15873084695E+03 -0.19544414517E+03  0.25236013965E+03  0.00000000000E+00 0. -1.
         -3    1    3    3    0  502  0.17286353465E+03 -0.40350858425E+03 -0.58857515543E+03  0.73424906726E+03  0.00000000000E+00 0.  1.
         13    1    5    5    0    0 -0.14233002305E+03 -0.76711955728E+02 -0.22566020124E+03  0.27760599063E+03  0.00000000000E+00 0. -1.
        -13    1    5    5    0    0 -0.72510858058E+02  0.16065702543E+02 -0.16870959718E+03  0.18433355504E+03  0.00000000000E+00 0.  1.
          3    1    6    6  503    0 -0.14786662893E+02  0.14373023231E+03  0.61137062767E+02  0.15689093512E+03  0.00000000000E+00 0. -1.
         -3    1    6    6    0  503  0.39683481478E+02  0.47915545208E+03  0.54610145260E+02  0.48388737731E+03  0.00000000000E+00 0.  1.
<mgrwt>
<rscale>  0 0.17989107E+04</rscale>
<asrwt>0</asrwt>
<pdfrwt beam="1">  1        2 0.78975785E-01 0.17989107E+04</pdfrwt>
<pdfrwt beam="2">  1       -1 0.24245914E+00 0.17989107E+04</pdfrwt>
<totfact> 0.50325801E+00</totfact>
</mgrwt>
</event>
<event>
12    7  0.1625631E-007  0.1396149E+04  0.7818608E-02  0.8956611E-01
          2   -1    0    0  501    0  0.00000000000E+00  0.00000000000E+00  0.11686063776E+04  0.11686063776E+04  0.00000000000E+00 0. -1.
         -1   -1    0    0    0  501 -0.00000000000E+00 -0.00000000000E+00 -0.41699922573E+03  0.41699922573E+03  0.00000000000E+00 0.  1.
         24    2    1    2    0    0 -0.25819809344E+03  0.20247641183E+03 -0.14510079629E+02  0.33793509746E+03  0.79540146367E+02 0.  0.
        254    2    1    2    0    0  0.25819809344E+03 -0.20247641183E+03  0.76611723148E+03  0.12476705058E+04  0.92848431650E+03 0.  0.
         23    2    4    4    0    0 -0.29968044570E+03  0.74989835919E+02  0.11546767284E+03  0.34210140435E+03  0.90932625383E+02 0.  0.
         23    2    4    4    0    0  0.55787853914E+03 -0.27746624775E+03  0.65064955863E+03  0.90556910149E+03  0.92165971757E+02 0.  0.
          2    1    3    3  502    0 -0.16477037244E+03  0.17438020624E+03 -0.57371182127E+01  0.23998051273E+03  0.00000000000E+00 0. -1.
         -1    1    3    3    0  502 -0.93427720996E+02  0.28096205591E+02 -0.87729614168E+01  0.97954584738E+02  0.00000000000E+00 0.  1.
         13    1    5    5    0    0 -0.67909550269E+02  0.16502254742E+02 -0.12455708094E+02  0.70987154425E+02  0.00000000000E+00 0.  1.
        -13    1    5    5    0    0 -0.23177089543E+03  0.58487581178E+02  0.12792338094E+03  0.27111424993E+03  0.00000000000E+00 0. -1.
          1    1    6    6  503    0  0.36657457718E+03 -0.22058074644E+03  0.40561717359E+03  0.58954056505E+03  0.00000000000E+00 0. -1.
         -1    1    6    6    0  503  0.19130396197E+03 -0.56885501309E+02  0.24503238504E+03  0.31602853644E+03  0.00000000000E+00 0.  1.
<mgrwt>
<rscale>  0 0.13961489E+04</rscale>
<asrwt>0</asrwt>
<pdfrwt beam="1">  1        2 0.17978560E+00 0.13961489E+04</pdfrwt>
<pdfrwt beam="2">  1       -1 0.64153728E-01 0.13961489E+04</pdfrwt>
<totfact> 0.54114384E+01</totfact>
</mgrwt>
</event>
<event>
12    7  0.1625631E-007  0.2200122E+04  0.7818608E-02  0.8518377E-01
          2   -1    0    0  501    0  0.00000000000E+00  0.00000000000E+00  0.34597668166E+04  0.34597668166E+04  0.00000000000E+00 0. -1.
         -1   -1    0    0    0  501 -0.00000000000E+00 -0.00000000000E+00 -0.34977324989E+03  0.34977324989E+03  0.00000000000E+00 0.  1.
         24    2    1    2    0    0  0.68768847868E+03  0.56448273661E+03  0.92961089909E+03  0.12892554503E+04  0.80293142061E+02 0.  0.
        254    2    1    2    0    0 -0.68768847868E+03 -0.56448273661E+03  0.21803826676E+04  0.25202846162E+04  0.89789184536E+03 0.  0.
         23    2    4    4    0    0 -0.81662083266E+03 -0.20239941993E+03  0.12500802630E+04  0.15095205893E+04  0.90092375336E+02 0.  0.
         23    2    4    4    0    0  0.12893235398E+03 -0.36208331668E+03  0.93030240463E+03  0.10107640269E+04  0.91942775469E+02 0.  0.
          4    1    3    3  502    0  0.66873660005E+01 -0.24977688394E+01  0.63831297805E+01  0.95762236291E+01  0.00000000000E+00 0. -1.
         -3    1    3    3    0  502  0.68100111268E+03  0.56698050545E+03  0.92322776931E+03  0.12796792266E+04  0.00000000000E+00 0.  1.
         13    1    5    5    0    0 -0.37177598318E+03 -0.50967526893E+02  0.51924407834E+03  0.64064770612E+03  0.00000000000E+00 0. -1.
        -13    1    5    5    0    0 -0.44484484949E+03 -0.15143189304E+03  0.73083618464E+03  0.86887288318E+03  0.00000000000E+00 0.  1.
          3    1    6    6  503    0  0.50180730394E+02 -0.26271670697E+03  0.59773994993E+03  0.65485206083E+03  0.00000000000E+00 0. -1.
         -3    1    6    6    0  503  0.78751623588E+02 -0.99366609706E+02  0.33256245470E+03  0.35591196611E+03  0.00000000000E+00 0.  1.
<mgrwt>
<rscale>  0 0.22001217E+04</rscale>
<asrwt>0</asrwt>
<pdfrwt beam="1">  1        2 0.53227180E+00 0.22001217E+04</pdfrwt>
<pdfrwt beam="2">  1       -1 0.53811271E-01 0.22001217E+04</pdfrwt>
<totfact> 0.31541861E+00</totfact>
</mgrwt>
</event>
<event>
12    7  0.1625631E-007  0.2895402E+04  0.7818608E-02  0.8274247E-01
         -3   -1    0    0    0  501 -0.00000000000E+00  0.00000000000E+00  0.13489127979E+04  0.13489127979E+04  0.00000000000E+00 0.  1.
          2   -1    0    0  501    0  0.00000000000E+00 -0.00000000000E+00 -0.15537238269E+04  0.15537238269E+04  0.00000000000E+00 0. -1.
         24    2    1    2    0    0 -0.88347803572E+03  0.95301779505E+03 -0.19050721276E+03  0.13158609850E+04  0.80129747254E+02 0.  0.
        254    2    1    2    0    0  0.88347803572E+03 -0.95301779505E+03 -0.14303816240E+02  0.15867756399E+04  0.91042626005E+03 0.  0.
         23    2    4    4    0    0 -0.57458759955E+02  0.84895105160E+02 -0.11217925624E+03  0.17995202966E+03  0.96383917082E+02 0.  0.
         23    2    4    4    0    0  0.94093679567E+03 -0.10379129002E+04  0.97875439999E+02  0.14068236103E+04  0.83353624727E+02 0.  0.
          4    1    3    3  502    0 -0.66393606412E+03  0.72548376841E+03 -0.17815841907E+03  0.99943895149E+03  0.00000000000E+00 0. -1.
         -3    1    3    3    0  502 -0.21954197160E+03  0.22753402664E+03 -0.12348793689E+02  0.31642203349E+03  0.00000000000E+00 0.  1.
         13    1    5    5    0    0 -0.39771376600E+02  0.40548562022E+01  0.70617491488E+00  0.39983783444E+02  0.00000000000E+00 0.  1.
        -13    1    5    5    0    0 -0.17687383355E+02  0.80840248958E+02 -0.11288543115E+03  0.13996824621E+03  0.00000000000E+00 0. -1.
          1    1    6    6  503    0  0.36073493534E+03 -0.44936151351E+03  0.62351579668E+02  0.57960605836E+03  0.00000000000E+00 0. -1.
         -1    1    6    6    0  503  0.58020186033E+03 -0.58855138670E+03  0.35523860331E+02  0.82721755190E+03  0.00000000000E+00 0.  1.
<mgrwt>
<rscale>  0 0.28954018E+04</rscale>
<asrwt>0</asrwt>
<pdfrwt beam="1">  1        2 0.23903443E+00 0.28954018E+04</pdfrwt>
<pdfrwt beam="2">  1       -3 0.20752505E+00 0.28954018E+04</pdfrwt>
<totfact> 0.84734144E-01</totfact>
</mgrwt>
</event>
<event>
12    7  0.1625631E-007  0.1608714E+04  0.7818608E-02  0.8815212E-01
          2   -1    0    0  501    0  0.00000000000E+00  0.00000000000E+00  0.66391423264E+03  0.66391423264E+03  0.00000000000E+00 0. -1.
         -1   -1    0    0    0  501 -0.00000000000E+00 -0.00000000000E+00 -0.97450873000E+03  0.97450873000E+03  0.00000000000E+00 0.  1.
         24    2    1    2    0    0  0.42209230959E+03 -0.15066708277E+03  0.21769514551E+03  0.50439051157E+03  0.78460972030E+02 0.  0.
        254    2    1    2    0    0 -0.42209230959E+03  0.15066708277E+03 -0.52828964287E+03  0.11340324511E+04  0.89781800253E+03 0.  0.
         23    2    4    4    0    0  0.25455328774E+03  0.97020813194E+02 -0.34942938639E+02  0.28955766545E+03  0.91718145235E+02 0.  0.
         23    2    4    4    0    0 -0.67664559734E+03  0.53646269576E+02 -0.49334670424E+03  0.84447478562E+03  0.94971081571E+02 0.  0.
          4    1    3    3  502    0  0.35133888721E+03 -0.96989401890E+02  0.15721185265E+03  0.39694020250E+03  0.00000000000E+00 0. -1.
         -3    1    3    3    0  502  0.70753422378E+02 -0.53677680880E+02  0.60483292864E+02  0.10745030907E+03  0.00000000000E+00 0.  1.
         13    1    5    5    0    0  0.88257729588E+02  0.11019912402E+02 -0.49474415996E+02  0.10177712483E+03  0.00000000000E+00 0. -1.
        -13    1    5    5    0    0  0.16629555816E+03  0.86000900792E+02  0.14531477357E+02  0.18778054062E+03  0.00000000000E+00 0.  1.
          2    1    6    6  503    0 -0.27546014045E+03  0.68693475166E+02 -0.20728037928E+03  0.35151420759E+03  0.00000000000E+00 0. -1.
         -2    1    6    6    0  503 -0.40118545689E+03 -0.15047205590E+02 -0.28606632496E+03  0.49296057802E+03  0.00000000000E+00 0.  1.
<mgrwt>
<rscale>  0 0.16087140E+04</rscale>
<asrwt>0</asrwt>
<pdfrwt beam="1">  1        2 0.10214065E+00 0.16087140E+04</pdfrwt>
<pdfrwt beam="2">  1       -1 0.14992442E+00 0.16087140E+04</pdfrwt>
<totfact> 0.16749017E+01</totfact>
</mgrwt>
</event>
<event>
12    7  0.1625631E-007  0.1360062E+04  0.7818608E-02  0.8983246E-01
          2   -1    0    0  501    0  0.00000000000E+00  0.00000000000E+00  0.40676405142E+03  0.40676405142E+03  0.00000000000E+00 0. -1.
         -1   -1    0    0    0  501 -0.00000000000E+00 -0.00000000000E+00 -0.11368801698E+04  0.11368801698E+04  0.00000000000E+00 0.  1.
         24    2    1    2    0    0 -0.30566064713E+03 -0.19946484248E+03 -0.29123716173E+03  0.47357986233E+03  0.79019915468E+02 0.  0.
        254    2    1    2    0    0  0.30566064713E+03  0.19946484248E+03 -0.43887895661E+03  0.10700643589E+04  0.90510128657E+03 0.  0.
         23    2    4    4    0    0  0.28452882944E+03 -0.13567572717E+02 -0.67489896248E+03  0.73843030617E+03  0.93005234823E+02 0.  0.
         23    2    4    4    0    0  0.21131817688E+02  0.21303241520E+03  0.23602000587E+03  0.33163405269E+03  0.91903961204E+02 0.  0.
          2    1    3    3  502    0 -0.94739152095E+02 -0.98500301618E+02 -0.79421981063E+02  0.15806855296E+03  0.00000000000E+00 0. -1.
         -1    1    3    3    0  502 -0.21092149503E+03 -0.10096454087E+03 -0.21181518067E+03  0.31551130937E+03  0.00000000000E+00 0.  1.
         13    1    5    5    0    0 -0.36154234863E+01 -0.96280824656E+01 -0.13431630573E+02  0.16916854282E+02  0.00000000000E+00 0. -1.
        -13    1    5    5    0    0  0.28814425292E+03 -0.39394902516E+01 -0.66146733190E+03  0.72151345189E+03  0.00000000000E+00 0.  1.
          4    1    6    6  503    0 -0.21018597851E+02  0.51116529344E+02  0.20854286883E+02  0.59072686660E+02  0.00000000000E+00 0. -1.
         -4    1    6    6    0  503  0.42150415539E+02  0.16191588586E+03  0.21516571899E+03  0.27256136603E+03  0.00000000000E+00 0.  1.
<mgrwt>
<rscale>  0 0.13600617E+04</rscale>
<asrwt>0</asrwt>
<pdfrwt beam="1">  1        2 0.62579085E-01 0.13600617E+04</pdfrwt>
<pdfrwt beam="2">  1       -1 0.17490464E+00 0.13600617E+04</pdfrwt>
<totfact> 0.19740828E+01</totfact>
</mgrwt>
</event>
<event>
12    7  0.1625631E-007  0.1774822E+04  0.7818608E-02  0.8719805E-01
         -1   -1    0    0    0  501 -0.00000000000E+00  0.00000000000E+00  0.61875358807E+03  0.61875358807E+03  0.00000000000E+00 0.  1.
          2   -1    0    0  501    0  0.00000000000E+00 -0.00000000000E+00 -0.12727165061E+04  0.12727165061E+04  0.00000000000E+00 0. -1.
         24    2    1    2    0    0  0.43993441475E+03  0.25285753926E+03  0.20377917864E+03  0.55213277083E+03  0.76455336858E+02 0.  0.
        254    2    1    2    0    0 -0.43993441475E+03 -0.25285753926E+03 -0.85774209669E+03  0.13393373234E+04  0.89477580258E+03 0.  0.
         23    2    4    4    0    0  0.22408525599E+03 -0.17280727268E+03 -0.76849115484E+02  0.30708483283E+03  0.91207195766E+02 0.  0.
         23    2    4    4    0    0 -0.66401967075E+03 -0.80050266575E+02 -0.78089298121E+03  0.10322524905E+04  0.91767030028E+02 0.  0.
          4    1    3    3  502    0  0.14370387964E+03  0.62904555337E+02  0.30197901082E+02  0.15974886959E+03  0.00000000000E+00 0. -1.
         -3    1    3    3    0  502  0.29623053512E+03  0.18995298392E+03  0.17358127755E+03  0.39238390124E+03  0.00000000000E+00 0.  1.
         13    1    5    5    0    0  0.15263417255E+03 -0.11863945754E+03 -0.95315603165E+02  0.21554019515E+03  0.00000000000E+00 0. -1.
        -13    1    5    5    0    0  0.71451083441E+02 -0.54167815142E+02  0.18466487681E+02  0.91544637688E+02  0.00000000000E+00 0.  1.
          1    1    6    6  503    0 -0.58287992242E+02 -0.70951533515E-02 -0.34740658867E+02  0.67855754867E+02  0.00000000000E+00 0. -1.
         -1    1    6    6    0  503 -0.60573167851E+03 -0.80043171422E+02 -0.74615232234E+03  0.96439673567E+03  0.00000000000E+00 0.  1.
<mgrwt>
<rscale>  0 0.17748216E+04</rscale>
<asrwt>0</asrwt>
<pdfrwt beam="1">  1        2 0.19580254E+00 0.17748216E+04</pdfrwt>
<pdfrwt beam="2">  1       -1 0.95192860E-01 0.17748216E+04</pdfrwt>
<totfact> 0.19716705E+01</totfact>
</mgrwt>
</event>
<event>
12    7  0.1625631E-007  0.1391451E+04  0.7818608E-02  0.8960030E-01
          2   -1    0    0  501    0  0.00000000000E+00  0.00000000000E+00  0.46359863764E+03  0.46359863764E+03  0.00000000000E+00 0. -1.
         -1   -1    0    0    0  501 -0.00000000000E+00 -0.00000000000E+00 -0.10440804865E+04  0.10440804865E+04  0.00000000000E+00 0.  1.
         24    2    1    2    0    0 -0.13273765241E+03 -0.19112579721E+03  0.14160387303E+03  0.28369244778E+03  0.79255241737E+02 0.  0.
        254    2    1    2    0    0  0.13273765241E+03  0.19112579721E+03 -0.72208572185E+03  0.12239866763E+04  0.96051404956E+03 0.  0.
         23    2    4    4    0    0 -0.40924160286E+03  0.68237951892E+02 -0.34286518231E+03  0.54506619568E+03  0.86055312712E+02 0.  0.
         23    2    4    4    0    0  0.54197925527E+03  0.12288784532E+03 -0.37922053953E+03  0.67892048064E+03  0.91004756797E+02 0.  0.
          4    1    3    3  502    0 -0.14096666363E+03 -0.17568549686E+03  0.14185366123E+03  0.26619439375E+03  0.00000000000E+00 0. -1.
         -3    1    3    3    0  502  0.82290112168E+01 -0.15440300356E+02 -0.24978819944E+00  0.17498054029E+02  0.00000000000E+00 0.  1.
         13    1    5    5    0    0 -0.13977447551E+03 -0.14395658073E+02 -0.13496979111E+03  0.19483578595E+03  0.00000000000E+00 0. -1.
        -13    1    5    5    0    0 -0.26946712735E+03  0.82633609965E+02 -0.20789539121E+03  0.35023040973E+03  0.00000000000E+00 0.  1.
          2    1    6    6  503    0  0.23639332679E+03  0.87281461471E+02 -0.13341836699E+03  0.28513210819E+03  0.00000000000E+00 0. -1.
         -2    1    6    6    0  503  0.30558592848E+03  0.35606383850E+02 -0.24580217254E+03  0.39378837246E+03  0.00000000000E+00 0.  1.
<mgrwt>
<rscale>  0 0.13914515E+04</rscale>
<asrwt>0</asrwt>
<pdfrwt beam="1">  1        2 0.71322868E-01 0.13914515E+04</pdfrwt>
<pdfrwt beam="2">  1       -1 0.16062777E+00 0.13914515E+04</pdfrwt>
<totfact> 0.21639679E+01</totfact>
</mgrwt>
</event>
<event>
12    7  0.1625631E-007  0.2034150E+04  0.7818608E-02  0.8590819E-01
          2   -1    0    0  501    0  0.00000000000E+00  0.00000000000E+00  0.24785986225E+04  0.24785986225E+04  0.00000000000E+00 0. -1.
         -1   -1    0    0    0  501 -0.00000000000E+00 -0.00000000000E+00 -0.41734948762E+03  0.41734948762E+03  0.00000000000E+00 0.  1.
         24    2    1    2    0    0 -0.63299270329E+03  0.50670398933E+03  0.98273438477E+03  0.12760445277E+04  0.71372757666E+02 0.  0.
        254    2    1    2    0    0  0.63299270329E+03 -0.50670398933E+03  0.10785147501E+04  0.16199035824E+04  0.89636201103E+03 0.  0.
         23    2    4    4    0    0  0.27450944477E+03 -0.26431564239E+03  0.11094985055E+04  0.11765491845E+04  0.89793405268E+02 0.  0.
         23    2    4    4    0    0  0.35848325852E+03 -0.24238834693E+03 -0.30983755378E+02  0.44335439795E+03  0.91327825492E+02 0.  0.
          2    1    3    3  502    0 -0.63046983873E+03  0.49901455380E+03  0.96192832016E+03  0.12537199989E+04  0.00000000000E+00 0. -1.
         -1    1    3    3    0  502 -0.25228645612E+01  0.76894355277E+01  0.20806064613E+02  0.22324528865E+02  0.00000000000E+00 0.  1.
         13    1    5    5    0    0  0.21422310410E+03 -0.22280118401E+03  0.98245906513E+03  0.10299309300E+04  0.00000000000E+00 0.  1.
        -13    1    5    5    0    0  0.60286340663E+02 -0.41514458383E+02  0.12703944040E+03  0.14661825446E+03  0.00000000000E+00 0. -1.
          2    1    6    6  503    0  0.99084180518E+02 -0.90855814127E+02  0.27705248277E+02  0.13725900543E+03  0.00000000000E+00 0. -1.
         -2    1    6    6    0  503  0.25939907801E+03 -0.15153253281E+03 -0.58689003655E+02  0.30609539252E+03  0.00000000000E+00 0.  1.
<mgrwt>
<rscale>  0 0.20341503E+04</rscale>
<asrwt>0</asrwt>
<pdfrwt beam="1">  1        2 0.38132285E+00 0.20341503E+04</pdfrwt>
<pdfrwt beam="2">  1       -1 0.64207615E-01 0.20341503E+04</pdfrwt>
<totfact> 0.92958632E+00</totfact>
</mgrwt>
</event>
<event>
12    7  0.1625631E-007  0.2365902E+04  0.7818608E-02  0.8452381E-01
          2   -1    0    0  501    0  0.00000000000E+00  0.00000000000E+00  0.19008869407E+04  0.19008869407E+04  0.00000000000E+00 0. -1.
         -1   -1    0    0    0  501 -0.00000000000E+00 -0.00000000000E+00 -0.73616851337E+03  0.73616851337E+03  0.00000000000E+00 0.  1.
         24    2    1    2    0    0 -0.45185309016E+03  0.87543148664E+03  0.24974982561E+03  0.10195322458E+04  0.80743556789E+02 0.  0.
        254    2    1    2    0    0  0.45185309016E+03 -0.87543148664E+03  0.91496860176E+03  0.16175232083E+04  0.89925651750E+03 0.  0.
         23    2    4    4    0    0  0.17535848299E+03 -0.98882512169E+03  0.59882987824E+03  0.11729131910E+04  0.92749187369E+02 0.  0.
         23    2    4    4    0    0  0.27649460717E+03  0.11339363505E+03  0.31613872352E+03  0.44461001727E+03  0.91798642049E+02 0.  0.
          4    1    3    3  502    0 -0.35978700189E+03  0.67183332698E+03  0.15991873301E+03  0.77870450566E+03  0.00000000000E+00 0. -1.
         -3    1    3    3    0  502 -0.92066088274E+02  0.20359815966E+03  0.89831092605E+02  0.24082774015E+03  0.00000000000E+00 0.  1.
         13    1    5    5    0    0  0.11586638015E+03 -0.82359153042E+03  0.47216437916E+03  0.95638236494E+03  0.00000000000E+00 0. -1.
        -13    1    5    5    0    0  0.59492102845E+02 -0.16523359127E+03  0.12666549908E+03  0.21653082608E+03  0.00000000000E+00 0.  1.
          3    1    6    6  503    0  0.21558479880E+03  0.11601088962E+03  0.21158291811E+03  0.32357790904E+03  0.00000000000E+00 0. -1.
         -3    1    6    6    0  503  0.60909808374E+02 -0.26172545675E+01  0.10455580541E+03  0.12103210823E+03  0.00000000000E+00 0.  1.
<mgrwt>
<rscale>  0 0.23659020E+04</rscale>
<asrwt>0</asrwt>
<pdfrwt beam="1">  1        2 0.29244414E+00 0.23659020E+04</pdfrwt>
<pdfrwt beam="2">  1       -1 0.11325670E+00 0.23659020E+04</pdfrwt>
<totfact> 0.55425525E+00</totfact>
</mgrwt>
</event>
<event>
12    7  0.1625631E-007  0.1397196E+04  0.7818608E-02  0.8955851E-01
          2   -1    0    0  501    0  0.00000000000E+00  0.00000000000E+00  0.20136433454E+04  0.20136433454E+04  0.00000000000E+00 0. -1.
         -1   -1    0    0    0  501 -0.00000000000E+00 -0.00000000000E+00 -0.24236611286E+03  0.24236611286E+03  0.00000000000E+00 0.  1.
         24    2    1    2    0    0 -0.11561277546E+02 -0.38340405156E+03  0.67886136208E+03  0.78379788986E+03  0.79712316090E+02 0.  0.
        254    2    1    2    0    0  0.11561277546E+02  0.38340405156E+03  0.10924158704E+04  0.14722115684E+04  0.90934159597E+03 0.  0.
         23    2    4    4    0    0  0.14413265618E+03  0.35277368648E+03  0.27999263278E+02  0.39566036639E+03  0.10266289659E+03 0.  0.
         23    2    4    4    0    0 -0.13257137863E+03  0.30630365073E+02  0.10644166071E+04  0.10765512020E+04  0.86408258823E+02 0.  0.
          2    1    3    3  502    0  0.27111518754E+01 -0.34364563325E+03  0.63985013932E+03  0.72629737187E+03  0.00000000000E+00 0. -1.
         -1    1    3    3    0  502 -0.14272429421E+02 -0.39758418309E+02  0.39011222752E+02  0.57500517985E+02  0.00000000000E+00 0.  1.
         13    1    5    5    0    0  0.13085400856E+02  0.10858028172E+03  0.44412611761E+02  0.11803976184E+03  0.00000000000E+00 0. -1.
        -13    1    5    5    0    0  0.13104725532E+03  0.24419340477E+03 -0.16413348483E+02  0.27762060454E+03  0.00000000000E+00 0.  1.
          1    1    6    6  503    0 -0.13235010415E+02  0.20660472038E+02  0.57195654168E+02  0.62236351606E+02  0.00000000000E+00 0. -1.
         -1    1    6    6    0  503 -0.11933636822E+03  0.99698930356E+01  0.10072209530E+04  0.10143148504E+04  0.00000000000E+00 0.  1.
<mgrwt>
<rscale>  0 0.13971956E+04</rscale>
<asrwt>0</asrwt>
<pdfrwt beam="1">  1        2 0.30979127E+00 0.13971956E+04</pdfrwt>
<pdfrwt beam="2">  1       -1 0.37287096E-01 0.13971956E+04</pdfrwt>
<totfact> 0.50433737E+01</totfact>
</mgrwt>
</event>
<event>
12    7  0.1625631E-007  0.2227042E+04  0.7818608E-02  0.8507256E-01
          2   -1    0    0  501    0  0.00000000000E+00  0.00000000000E+00  0.93017834433E+03  0.93017834433E+03  0.00000000000E+00 0. -1.
         -1   -1    0    0    0  501 -0.00000000000E+00 -0.00000000000E+00 -0.13330009584E+04  0.13330009584E+04  0.00000000000E+00 0.  1.
         24    2    1    2    0    0 -0.79788250446E+03  0.45272611205E+03  0.11396609212E+02  0.92096249189E+03  0.80402769286E+02 0.  0.
        254    2    1    2    0    0  0.79788250446E+03 -0.45272611205E+03 -0.41421922327E+03  0.13422168108E+04  0.88791383528E+03 0.  0.
         23    2    4    4    0    0  0.63150314036E+03 -0.73916942600E+02  0.12711133103E+03  0.65495616067E+03  0.92468109294E+02 0.  0.
         23    2    4    4    0    0  0.16637936409E+03 -0.37880916945E+03 -0.54133055430E+03  0.68726065015E+03  0.90055275073E+02 0.  0.
          4    1    3    3  502    0 -0.40629217336E+03  0.27054815942E+03  0.26020086983E+02  0.48882172785E+03  0.00000000000E+00 0. -1.
         -3    1    3    3    0  502 -0.39159033110E+03  0.18217795263E+03 -0.14623477771E+02  0.43214076403E+03  0.00000000000E+00 0.  1.
         13    1    5    5    0    0  0.36818526995E+03  0.18859114130E+01  0.82788634546E+02  0.37738297216E+03  0.00000000000E+00 0. -1.
        -13    1    5    5    0    0  0.26331787041E+03 -0.75802854013E+02  0.44322696487E+02  0.27757318851E+03  0.00000000000E+00 0.  1.
          3    1    6    6  503    0  0.17189082752E+03 -0.31830760673E+03 -0.44674941510E+03  0.57484887490E+03  0.00000000000E+00 0. -1.
         -3    1    6    6    0  503 -0.55114634304E+01 -0.60501562722E+02 -0.94581139203E+02  0.11241177525E+03  0.00000000000E+00 0.  1.
<mgrwt>
<rscale>  0 0.22270416E+04</rscale>
<asrwt>0</asrwt>
<pdfrwt beam="1">  1        2 0.14310436E+00 0.22270416E+04</pdfrwt>
<pdfrwt beam="2">  1       -1 0.20507707E+00 0.22270416E+04</pdfrwt>
<totfact> 0.40426748E+00</totfact>
</mgrwt>
</event>
<event>
12    7  0.1625631E-007  0.1271736E+04  0.7818608E-02  0.9052284E-01
         -1   -1    0    0    0  501 -0.00000000000E+00  0.00000000000E+00  0.91372364569E+03  0.91372364569E+03  0.00000000000E+00 0.  1.
          2   -1    0    0  501    0  0.00000000000E+00 -0.00000000000E+00 -0.44250579591E+03  0.44250579591E+03  0.00000000000E+00 0. -1.
         24    2    1    2    0    0  0.53793778443E+02  0.14987193845E+03 -0.16137339169E+03  0.23991665079E+03  0.78506428051E+02 0.  0.
        254    2    1    2    0    0 -0.53793778443E+02 -0.14987193845E+03  0.63259124147E+03  0.11163127908E+04  0.90588476066E+03 0.  0.
         23    2    4    4    0    0  0.31316040616E+03 -0.16051672919E+03  0.64262989425E+03  0.73778221164E+03  0.86685353379E+02 0.  0.
         23    2    4    4    0    0 -0.36695418461E+03  0.10644790738E+02 -0.10038652776E+02  0.37853057917E+03  0.91738430589E+02 0.  0.
          2    1    3    3  502    0  0.68600891225E+02  0.12412581054E+03 -0.15391931883E+03  0.20929514047E+03  0.00000000000E+00 0. -1.
         -1    1    3    3    0  502 -0.14807112782E+02  0.25746127917E+02 -0.74540728624E+01  0.30621510314E+02  0.00000000000E+00 0.  1.
         13    1    5    5    0    0  0.31876994399E+03 -0.15757961883E+03  0.63569687475E+03  0.72839284046E+03  0.00000000000E+00 0. -1.
        -13    1    5    5    0    0 -0.56095378225E+01 -0.29371103643E+01  0.69330194983E+01  0.93893711844E+01  0.00000000000E+00 0.  1.
          1    1    6    6  503    0 -0.33983865383E+03 -0.15388502008E+02 -0.25193964322E+01  0.34019621395E+03  0.00000000000E+00 0. -1.
         -1    1    6    6    0  503 -0.27115530780E+02  0.26033292746E+02 -0.75192563441E+01  0.38334365218E+02  0.00000000000E+00 0.  1.
<mgrwt>
<rscale>  0 0.12717358E+04</rscale>
<asrwt>0</asrwt>
<pdfrwt beam="1">  1        2 0.68077815E-01 0.12717358E+04</pdfrwt>
<pdfrwt beam="2">  1       -1 0.14057287E+00 0.12717358E+04</pdfrwt>
<totfact> 0.33038163E+01</totfact>
</mgrwt>
</event>
<event>
12    7  0.1625631E-007  0.1394037E+04  0.7818608E-02  0.8958146E-01
          2   -1    0    0  501    0  0.00000000000E+00  0.00000000000E+00  0.19751148627E+04  0.19751148627E+04  0.00000000000E+00 0. -1.
         -1   -1    0    0    0  501 -0.00000000000E+00 -0.00000000000E+00 -0.24597811389E+03  0.24597811389E+03  0.00000000000E+00 0.  1.
         24    2    1    2    0    0  0.92115398379E+02 -0.79179872143E+02 -0.10212846042E+03  0.17652076176E+03  0.77295912795E+02 0.  0.
        254    2    1    2    0    0 -0.92115398379E+02  0.79179872143E+02  0.18312652092E+04  0.20445722148E+04  0.90110408741E+03 0.  0.
         23    2    4    4    0    0 -0.38782729446E+03  0.59116977824E+02  0.16196583035E+04  0.16690187502E+04  0.91791835733E+02 0.  0.
         23    2    4    4    0    0  0.29571189608E+03  0.20062894319E+02  0.21160690574E+03  0.37555346462E+03  0.91732638764E+02 0.  0.
          2    1    3    3  502    0 -0.41530312229E+01  0.10084987862E+02 -0.16499491467E+02  0.19778469788E+02  0.00000000000E+00 0. -1.
         -1    1    3    3    0  502  0.96268429602E+02 -0.89264860005E+02 -0.85628968950E+02  0.15674229197E+03  0.00000000000E+00 0.  1.
         13    1    5    5    0    0 -0.10962430659E+03  0.11387716422E+02  0.64346026955E+03  0.65283097903E+03  0.00000000000E+00 0. -1.
        -13    1    5    5    0    0 -0.27820298787E+03  0.47729261401E+02  0.97619803393E+03  0.10161877712E+04  0.00000000000E+00 0.  1.
          2    1    6    6  503    0  0.53731178987E+01  0.33044571551E+01  0.34447318415E+02  0.35020102498E+02  0.00000000000E+00 0. -1.
         -2    1    6    6    0  503  0.29033877818E+03  0.16758437164E+02  0.17715958733E+03  0.34053336212E+03  0.00000000000E+00 0.  1.
<mgrwt>
<rscale>  0 0.13940373E+04</rscale>
<asrwt>0</asrwt>
<pdfrwt beam="1">  1        2 0.30386381E+00 0.13940373E+04</pdfrwt>
<pdfrwt beam="2">  1       -1 0.37842788E-01 0.13940373E+04</pdfrwt>
<totfact> 0.51588828E+01</totfact>
</mgrwt>
</event>
<event>
12    7  0.1625631E-007  0.1475286E+04  0.7818608E-02  0.8901056E-01
          2   -1    0    0  501    0  0.00000000000E+00  0.00000000000E+00  0.15372117067E+04  0.15372117067E+04  0.00000000000E+00 0. -1.
         -1   -1    0    0    0  501 -0.00000000000E+00 -0.00000000000E+00 -0.35396352196E+03  0.35396352196E+03  0.00000000000E+00 0.  1.
         24    2    1    2    0    0 -0.16912427937E+03  0.33085977356E+03  0.72967998081E+03  0.82262498789E+03  0.78789495943E+02 0.  0.
        254    2    1    2    0    0  0.16912427937E+03 -0.33085977356E+03  0.45356820398E+03  0.10685502408E+04  0.89331085848E+03 0.  0.
         23    2    4    4    0    0 -0.23610417628E+03  0.66322365186E+02  0.41796044008E+03  0.49256772242E+03  0.88250742351E+02 0.  0.
         23    2    4    4    0    0  0.40522845564E+03 -0.39718213875E+03  0.35607763905E+02  0.57598251840E+03  0.92326572833E+02 0.  0.
          4    1    3    3  502    0 -0.11984569317E+03  0.29604610803E+03  0.60598557414E+03  0.68499985716E+03  0.00000000000E+00 0. -1.
         -3    1    3    3    0  502 -0.49278586196E+02  0.34813665536E+02  0.12369440667E+03  0.13762513072E+03  0.00000000000E+00 0.  1.
         13    1    5    5    0    0 -0.48732621200E+02  0.48490044882E+02  0.77922365264E+02  0.10391365565E+03  0.00000000000E+00 0.  1.
        -13    1    5    5    0    0 -0.18737155508E+03  0.17832320303E+02  0.34003807481E+03  0.38865406678E+03  0.00000000000E+00 0. -1.
          3    1    6    6  503    0  0.36393999905E+03 -0.30973724990E+03  0.22908543300E+02  0.47844988060E+03  0.00000000000E+00 0. -1.
         -3    1    6    6    0  503  0.41288456589E+02 -0.87444888850E+02  0.12699220605E+02  0.97532637806E+02  0.00000000000E+00 0.  1.
<mgrwt>
<rscale>  0 0.14752856E+04</rscale>
<asrwt>0</asrwt>
<pdfrwt beam="1">  1        2 0.23649411E+00 0.14752856E+04</pdfrwt>
<pdfrwt beam="2">  1       -1 0.54455927E-01 0.14752856E+04</pdfrwt>
<totfact> 0.45435007E+01</totfact>
</mgrwt>
</event>
<event>
12    7  0.1625631E-007  0.1058290E+04  0.7818608E-02  0.9246826E-01
          2   -1    0    0  501    0  0.00000000000E+00  0.00000000000E+00  0.40323234434E+03  0.40323234434E+03  0.00000000000E+00 0. -1.
         -1   -1    0    0    0  501 -0.00000000000E+00 -0.00000000000E+00 -0.69437547970E+03  0.69437547970E+03  0.00000000000E+00 0.  1.
         24    2    1    2    0    0  0.99235862099E+01 -0.36112945701E+02  0.96772670053E+02  0.13091522711E+03  0.79819951193E+02 0.  0.
        254    2    1    2    0    0 -0.99235862099E+01  0.36112945701E+02 -0.38791580542E+03  0.96669259693E+03  0.88465432937E+03 0.  0.
         23    2    4    4    0    0  0.85093487882E+02  0.19184120297E+03  0.22456852636E+03  0.32112953987E+03  0.93001126375E+02 0.  0.
         23    2    4    4    0    0 -0.95017074092E+02 -0.15572825727E+03 -0.61248433178E+03  0.64556305706E+03  0.91296601725E+02 0.  0.
          2    1    3    3  502    0  0.14407829862E+02  0.17432119802E+02  0.64232752128E+02  0.68097803254E+02  0.00000000000E+00 0. -1.
         -1    1    3    3    0  502 -0.44842436517E+01 -0.53545065503E+02  0.32539917925E+02  0.62817423852E+02  0.00000000000E+00 0.  1.
         13    1    5    5    0    0 -0.19992731834E+02  0.39043068489E+02  0.37332925254E+02  0.57600502005E+02  0.00000000000E+00 0. -1.
        -13    1    5    5    0    0  0.10508621972E+03  0.15279813449E+03  0.18723560111E+03  0.26352903787E+03  0.00000000000E+00 0.  1.
          3    1    6    6  503    0 -0.20795148741E+02 -0.41399902110E+02 -0.31435555042E+03  0.31775116394E+03  0.00000000000E+00 0. -1.
         -3    1    6    6    0  503 -0.74221925351E+02 -0.11432835516E+03 -0.29812878136E+03  0.32781189312E+03  0.00000000000E+00 0.  1.
<mgrwt>
<rscale>  0 0.10582904E+04</rscale>
<asrwt>0</asrwt>
<pdfrwt beam="1">  1        2 0.62035745E-01 0.10582904E+04</pdfrwt>
<pdfrwt beam="2">  1       -1 0.10682700E+00 0.10582904E+04</pdfrwt>
<totfact> 0.73439607E+01</totfact>
</mgrwt>
</event>
<event>
12    7  0.1625631E-007  0.4234978E+04  0.7818608E-02  0.7958752E-01
          2   -1    0    0  501    0  0.00000000000E+00  0.00000000000E+00  0.26177060268E+04  0.26177060268E+04  0.00000000000E+00 0. -1.
         -1   -1    0    0    0  501 -0.00000000000E+00 -0.00000000000E+00 -0.17128587646E+04  0.17128587646E+04  0.00000000000E+00 0.  1.
         24    2    1    2    0    0 -0.13319046463E+04 -0.33918345951E+03 -0.10820577280E+04  0.17510486237E+04  0.79416306185E+02 0.  0.
        254    2    1    2    0    0  0.13319046463E+04  0.33918345951E+03  0.19869049902E+04  0.25795161677E+04  0.90393407590E+03 0.  0.
         23    2    4    4    0    0  0.13835990054E+04  0.48101785168E+03  0.17441034921E+04  0.22797276688E+04  0.97656907632E+02 0.  0.
         23    2    4    4    0    0 -0.51694359088E+02 -0.14183439218E+03  0.24280149808E+03  0.29978849889E+03  0.90173582765E+02 0.  0.
          4    1    3    3  502    0 -0.56243305627E+02 -0.27423219147E+02 -0.63327548537E+02  0.89026517285E+02  0.00000000000E+00 0. -1.
         -3    1    3    3    0  502 -0.12756613407E+04 -0.31176024036E+03 -0.10187301795E+04  0.16620221064E+04  0.00000000000E+00 0.  1.
         13    1    5    5    0    0  0.87336613274E+03  0.26988104392E+03  0.10324761320E+04  0.13789891743E+04  0.00000000000E+00 0. -1.
        -13    1    5    5    0    0  0.51023287266E+03  0.21113680776E+03  0.71162736006E+03  0.90073849452E+03  0.00000000000E+00 0.  1.
          3    1    6    6  503    0 -0.67515195271E+01  0.12698574388E+02  0.14126910337E+02  0.20159523880E+02  0.00000000000E+00 0. -1.
         -3    1    6    6    0  503 -0.44942839561E+02 -0.15453296657E+03  0.22867458774E+03  0.27962897501E+03  0.00000000000E+00 0.  1.
<mgrwt>
<rscale>  0 0.42349785E+04</rscale>
<asrwt>0</asrwt>
<pdfrwt beam="1">  1        2 0.40272400E+00 0.42349785E+04</pdfrwt>
<pdfrwt beam="2">  1       -1 0.26351673E+00 0.42349785E+04</pdfrwt>
<totfact> 0.14879401E-01</totfact>
</mgrwt>
</event>
<event>
12    7  0.1625631E-007  0.1568927E+04  0.7818608E-02  0.8839868E-01
         -1   -1    0    0    0  501 -0.00000000000E+00  0.00000000000E+00  0.19144000125E+04  0.19144000125E+04  0.00000000000E+00 0.  1.
          2   -1    0    0  501    0  0.00000000000E+00 -0.00000000000E+00 -0.32144941773E+03  0.32144941773E+03  0.00000000000E+00 0. -1.
         24    2    1    2    0    0  0.45151062588E+03  0.16831836856E+03  0.26791842496E+03  0.55710705810E+03  0.79969202018E+02 0.  0.
        254    2    1    2    0    0 -0.45151062588E+03 -0.16831836856E+03  0.13250321698E+04  0.16787423721E+04  0.91119305445E+03 0.  0.
         23    2    4    4    0    0 -0.58757595515E+03 -0.18608509035E+03  0.40217147409E+03  0.74139348811E+03  0.89717588719E+02 0.  0.
         23    2    4    4    0    0  0.13606532927E+03  0.17766721786E+02  0.92286069572E+03  0.93734888402E+03  0.90120122243E+02 0.  0.
          4    1    3    3  502    0  0.46803860690E+02  0.19271118704E+02  0.59470654676E+02  0.78094405428E+02  0.00000000000E+00 0. -1.
         -3    1    3    3    0  502  0.40470676519E+03  0.14904724986E+03  0.20844777028E+03  0.47901265267E+03  0.00000000000E+00 0.  1.
         13    1    5    5    0    0 -0.20048105845E+03 -0.10129534009E+03  0.11771062949E+03  0.25359257287E+03  0.00000000000E+00 0.  1.
        -13    1    5    5    0    0 -0.38709489670E+03 -0.84789750261E+02  0.28446084460E+03  0.48780091524E+03  0.00000000000E+00 0. -1.
          1    1    6    6  503    0  0.78743366510E+02 -0.28545263968E+02  0.62100863333E+03  0.62663152852E+03  0.00000000000E+00 0. -1.
         -1    1    6    6    0  503  0.57321962756E+02  0.46311985754E+02  0.30185206239E+03  0.31071735550E+03  0.00000000000E+00 0.  1.
<mgrwt>
<rscale>  0 0.15689267E+04</rscale>
<asrwt>0</asrwt>
<pdfrwt beam="1">  1        2 0.49453758E-01 0.15689267E+04</pdfrwt>
<pdfrwt beam="2">  1       -1 0.29452307E+00 0.15689267E+04</pdfrwt>
<totfact> 0.40155004E+00</totfact>
</mgrwt>
</event>
<event>
12    7  0.1625631E-007  0.1695269E+04  0.7818608E-02  0.8764067E-01
         -1   -1    0    0    0  501 -0.00000000000E+00  0.00000000000E+00  0.13002998152E+04  0.13002998152E+04  0.00000000000E+00 0.  1.
          2   -1    0    0  501    0  0.00000000000E+00 -0.00000000000E+00 -0.55255294062E+03  0.55255294062E+03  0.00000000000E+00 0. -1.
         24    2    1    2    0    0 -0.21920292756E+03  0.10989619729E+03 -0.33317712858E+03  0.42138538404E+03  0.80196915378E+02 0.  0.
        254    2    1    2    0    0  0.21920292756E+03 -0.10989619729E+03  0.10809240032E+04  0.14314673718E+04  0.90585596993E+03 0.  0.
         23    2    4    4    0    0  0.22696405662E+03  0.24391906840E+03  0.64733956737E+02  0.35188318861E+03  0.92855254825E+02 0.  0.
         23    2    4    4    0    0 -0.77611290511E+01 -0.35381526569E+03  0.10161900464E+04  0.10795841832E+04  0.87260075351E+02 0.  0.
          2    1    3    3  502    0 -0.22411989322E+03  0.97501098225E+02 -0.31157381623E+03  0.39599802228E+03  0.00000000000E+00 0. -1.
         -1    1    3    3    0  502  0.49169656559E+01  0.12395099066E+02 -0.21603312354E+02  0.25387361753E+02  0.00000000000E+00 0.  1.
         13    1    5    5    0    0  0.21237713076E+03  0.17752781102E+03  0.63019994481E+02  0.28388675394E+03  0.00000000000E+00 0.  1.
        -13    1    5    5    0    0  0.14586925857E+02  0.66391257378E+02  0.17139622557E+01  0.67996434677E+02  0.00000000000E+00 0. -1.
          4    1    6    6  503    0  0.10952399907E+01 -0.91839479177E+02  0.16371044228E+03  0.18771467284E+03  0.00000000000E+00 0. -1.
         -4    1    6    6    0  503 -0.88563690418E+01 -0.26197578651E+03  0.85247960414E+03  0.89186951034E+03  0.00000000000E+00 0.  1.
<mgrwt>
<rscale>  0 0.16952693E+04</rscale>
<asrwt>0</asrwt>
<pdfrwt beam="1">  1        2 0.85008145E-01 0.16952693E+04</pdfrwt>
<pdfrwt beam="2">  1       -1 0.20004612E+00 0.16952693E+04</pdfrwt>
<totfact> 0.89545716E+00</totfact>
</mgrwt>
</event>
<event>
12    7  0.1625631E-007  0.1795559E+04  0.7818608E-02  0.8708665E-01
         -1   -1    0    0    0  501 -0.00000000000E+00  0.00000000000E+00  0.10585798729E+04  0.10585798729E+04  0.00000000000E+00 0.  1.
          2   -1    0    0  501    0  0.00000000000E+00 -0.00000000000E+00 -0.76140529670E+03  0.76140529670E+03  0.00000000000E+00 0. -1.
         24    2    1    2    0    0 -0.62810485136E+03 -0.13785041432E+03 -0.48927156385E+02  0.65013858472E+03  0.82267075304E+02 0.  0.
        254    2    1    2    0    0  0.62810485136E+03  0.13785041432E+03  0.34610173256E+03  0.11698465849E+04  0.91391256791E+03 0.  0.
         23    2    4    4    0    0  0.29385325719E+03  0.46391682378E+03 -0.38432450318E+02  0.55813765223E+03  0.92043627982E+02 0.  0.
         23    2    4    4    0    0  0.33425159417E+03 -0.32606640945E+03  0.38453418288E+03  0.61170893263E+03  0.90982684490E+02 0.  0.
          4    1    3    3  502    0 -0.46792607222E+03 -0.13872303964E+03 -0.40570929321E+02  0.48973961561E+03  0.00000000000E+00 0. -1.
         -3    1    3    3    0  502 -0.16017877914E+03  0.87262531365E+00 -0.83562270633E+01  0.16039896911E+03  0.00000000000E+00 0.  1.
         13    1    5    5    0    0  0.21051444108E+03  0.39809038865E+03 -0.38142296726E+02  0.45193707774E+03  0.00000000000E+00 0. -1.
        -13    1    5    5    0    0  0.83338816110E+02  0.65826435132E+02 -0.29015359217E+00  0.10620057449E+03  0.00000000000E+00 0.  1.
          2    1    6    6  503    0  0.15087297893E+03 -0.87164003514E+02  0.13015008697E+03  0.21748394060E+03  0.00000000000E+00 0. -1.
         -2    1    6    6    0  503  0.18337861525E+03 -0.23890240594E+03  0.25438409591E+03  0.39422499203E+03  0.00000000000E+00 0.  1.
<mgrwt>
<rscale>  0 0.17955593E+04</rscale>
<asrwt>0</asrwt>
<pdfrwt beam="1">  1        2 0.11713928E+00 0.17955593E+04</pdfrwt>
<pdfrwt beam="2">  1       -1 0.16285844E+00 0.17955593E+04</pdfrwt>
<totfact> 0.11023699E+01</totfact>
</mgrwt>
</event>
<event>
12    7  0.1625631E-007  0.2036393E+04  0.7818608E-02  0.8589792E-01
          2   -1    0    0  501    0  0.00000000000E+00  0.00000000000E+00  0.22820260772E+04  0.22820260772E+04  0.00000000000E+00 0. -1.
         -1   -1    0    0    0  501 -0.00000000000E+00 -0.00000000000E+00 -0.45429966907E+03  0.45429966907E+03  0.00000000000E+00 0.  1.
         24    2    1    2    0    0 -0.60183482914E+03  0.48515513235E+03  0.37310237391E+03  0.86185801115E+03  0.77544735208E+02 0.  0.
        254    2    1    2    0    0  0.60183482914E+03 -0.48515513235E+03  0.14546240342E+04  0.18744677351E+04  0.89449289824E+03 0.  0.
         23    2    4    4    0    0  0.16743178724E+03  0.25581644921E+03  0.43897956293E+03  0.54120309257E+03  0.81989460728E+02 0.  0.
         23    2    4    4    0    0  0.43440304190E+03 -0.74097158157E+03  0.10156444713E+04  0.13332646425E+04  0.91192255553E+02 0.  0.
          4    1    3    3  502    0 -0.16524586338E+03  0.16610546646E+03  0.14059560811E+03  0.27324777469E+03  0.00000000000E+00 0. -1.
         -3    1    3    3    0  502 -0.43658896576E+03  0.31904966589E+03  0.23250676580E+03  0.58861023646E+03  0.00000000000E+00 0.  1.
         13    1    5    5    0    0  0.14245470384E+03  0.20305418657E+03  0.40115078945E+03  0.47164213256E+03  0.00000000000E+00 0. -1.
        -13    1    5    5    0    0  0.24977083393E+02  0.52762262643E+02  0.37828773478E+02  0.69560960005E+02  0.00000000000E+00 0.  1.
          1    1    6    6  503    0  0.82632177864E+02 -0.18006329965E+03  0.18529229696E+03  0.27126390105E+03  0.00000000000E+00 0. -1.
         -1    1    6    6    0  503  0.35177086404E+03 -0.56090828192E+03  0.83035217431E+03  0.10620007415E+04  0.00000000000E+00 0.  1.
<mgrwt>
<rscale>  0 0.20363926E+04</rscale>
<asrwt>0</asrwt>
<pdfrwt beam="1">  1        2 0.35108093E+00 0.20363926E+04</pdfrwt>
<pdfrwt beam="2">  1       -1 0.69892258E-01 0.20363926E+04</pdfrwt>
<totfact> 0.10130764E+01</totfact>
</mgrwt>
</event>
<event>
12    7  0.1625631E-007  0.2237284E+04  0.7818608E-02  0.8503068E-01
         -1   -1    0    0    0  501 -0.00000000000E+00  0.00000000000E+00  0.84382275084E+03  0.84382275084E+03  0.00000000000E+00 0.  1.
          2   -1    0    0  501    0  0.00000000000E+00 -0.00000000000E+00 -0.14829659831E+04  0.14829659831E+04  0.00000000000E+00 0. -1.
         24    2    1    2    0    0  0.50061762347E+03  0.56190883930E+03 -0.85034556765E+03  0.11382124549E+04  0.77977300946E+02 0.  0.
        254    2    1    2    0    0 -0.50061762347E+03 -0.56190883930E+03  0.21120233538E+03  0.11885762790E+04  0.89540359394E+03 0.  0.
         23    2    4    4    0    0 -0.24740128905E+01 -0.52732247975E+03  0.37674273142E+03  0.65470553706E+03  0.92893143944E+02 0.  0.
         23    2    4    4    0    0 -0.49814361058E+03 -0.34586359546E+02 -0.16554039605E+03  0.53387074198E+03  0.90945441875E+02 0.  0.
          4    1    3    3  502    0  0.44640464445E+03  0.52142938238E+03 -0.79845647858E+03  0.10529475085E+04  0.00000000000E+00 0. -1.
         -3    1    3    3    0  502  0.54212979016E+02  0.40479456913E+02 -0.51889089071E+02  0.85264946434E+02  0.00000000000E+00 0.  1.
         13    1    5    5    0    0  0.30103128217E+02 -0.12116825938E+03  0.59477225025E+02  0.13829492292E+03  0.00000000000E+00 0.  1.
        -13    1    5    5    0    0 -0.32577141107E+02 -0.40615422037E+03  0.31726550640E+03  0.51641061414E+03  0.00000000000E+00 0. -1.
          3    1    6    6  503    0 -0.11655406296E+03  0.15313009962E+02 -0.71911805883E+02  0.13780655170E+03  0.00000000000E+00 0. -1.
         -3    1    6    6    0  503 -0.38158954761E+03 -0.49899369508E+02 -0.93628590164E+02  0.39606419028E+03  0.00000000000E+00 0.  1.
<mgrwt>
<rscale>  0 0.22372845E+04</rscale>
<asrwt>0</asrwt>
<pdfrwt beam="1">  1        2 0.22814861E+00 0.22372845E+04</pdfrwt>
<pdfrwt beam="2">  1       -1 0.12981889E+00 0.22372845E+04</pdfrwt>
<totfact> 0.68574723E+00</totfact>
</mgrwt>
</event>
<event>
12    7  0.1625631E-007  0.1691332E+04  0.7818608E-02  0.8766324E-01
          2   -1    0    0  501    0  0.00000000000E+00  0.00000000000E+00  0.22233977500E+04  0.22233977500E+04  0.00000000000E+00 0. -1.
         -1   -1    0    0    0  501 -0.00000000000E+00 -0.00000000000E+00 -0.32164763149E+03  0.32164763149E+03  0.00000000000E+00 0.  1.
         24    2    1    2    0    0 -0.39984987548E+03  0.44735304583E+03  0.70906265049E+03  0.93226670368E+03  0.79666140455E+02 0.  0.
        254    2    1    2    0    0  0.39984987548E+03 -0.44735304583E+03  0.11926874680E+04  0.16127786778E+04  0.90473587121E+03 0.  0.
         23    2    4    4    0    0  0.25867656390E+03  0.24605187467E+03  0.46980884432E+03  0.59719799829E+03  0.92032653022E+02 0.  0.
         23    2    4    4    0    0  0.14117331157E+03 -0.69340492049E+03  0.72287862367E+03  0.10155806795E+04  0.90057339061E+02 0.  0.
          4    1    3    3  502    0 -0.12631197925E+03  0.15678184189E+03  0.18387518277E+03  0.27266342785E+03  0.00000000000E+00 0. -1.
         -3    1    3    3    0  502 -0.27353789623E+03  0.29057120393E+03  0.52518746773E+03  0.65960327583E+03  0.00000000000E+00 0.  1.
         13    1    5    5    0    0  0.10109198704E+03  0.38932706309E+02  0.14440981140E+03  0.18052572973E+03  0.00000000000E+00 0.  1.
        -13    1    5    5    0    0  0.15758457686E+03  0.20711916836E+03  0.32539903292E+03  0.41667226856E+03  0.00000000000E+00 0. -1.
          4    1    6    6  503    0  0.14362834964E+03 -0.68280019342E+03  0.72288851325E+03  0.10046954810E+04  0.00000000000E+00 0. -1.
         -4    1    6    6    0  503 -0.24550380683E+01 -0.10604727071E+02 -0.98895813661E-02  0.10885198481E+02  0.00000000000E+00 0.  1.
<mgrwt>
<rscale>  0 0.16913316E+04</rscale>
<asrwt>0</asrwt>
<pdfrwt beam="1">  1        2 0.34206118E+00 0.16913316E+04</pdfrwt>
<pdfrwt beam="2">  1       -1 0.49484252E-01 0.16913316E+04</pdfrwt>
<totfact> 0.22252387E+01</totfact>
</mgrwt>
</event>
<event>
12    7  0.1625631E-007  0.2194434E+04  0.7818608E-02  0.8520749E-01
          2   -1    0    0  501    0  0.00000000000E+00  0.00000000000E+00  0.16537257574E+04  0.16537257574E+04  0.00000000000E+00 0. -1.
         -1   -1    0    0    0  501 -0.00000000000E+00 -0.00000000000E+00 -0.72798330050E+03  0.72798330050E+03  0.00000000000E+00 0.  1.
         24    2    1    2    0    0  0.19202805090E+02 -0.79914933829E+03 -0.89746518035E+02  0.80803938866E+03  0.76582005159E+02 0.  0.
        254    2    1    2    0    0 -0.19202805090E+02  0.79914933829E+03  0.10154889750E+04  0.15736696693E+04  0.89789195177E+03 0.  0.
         23    2    4    4    0    0 -0.40177490870E+03  0.60005925638E+03  0.44630743766E+03  0.85392408118E+03  0.92205309383E+02 0.  0.
         23    2    4    4    0    0  0.38257210361E+03  0.19909008191E+03  0.56918153731E+03  0.71974558809E+03  0.89821010822E+02 0.  0.
          2    1    3    3  502    0  0.46353817194E+02 -0.35736882962E+03 -0.45327558483E+02  0.36320207091E+03  0.00000000000E+00 0. -1.
         -1    1    3    3    0  502 -0.27151012104E+02 -0.44178050867E+03 -0.44418959552E+02  0.44483731775E+03  0.00000000000E+00 0.  1.
         13    1    5    5    0    0 -0.34899874541E+03  0.49451443778E+03  0.33539931924E+03  0.69198074887E+03  0.00000000000E+00 0.  1.
        -13    1    5    5    0    0 -0.52776163288E+02  0.10554481860E+03  0.11090811843E+03  0.16194333231E+03  0.00000000000E+00 0. -1.
          4    1    6    6  503    0  0.22090072030E+03  0.94447147807E+02  0.24823278313E+03  0.34545174276E+03  0.00000000000E+00 0.  1.
         -4    1    6    6    0  503  0.16167138331E+03  0.10464293411E+03  0.32094875419E+03  0.37429384533E+03  0.00000000000E+00 0. -1.
<mgrwt>
<rscale>  0 0.21944336E+04</rscale>
<asrwt>0</asrwt>
<pdfrwt beam="1">  1        2 0.25441935E+00 0.21944336E+04</pdfrwt>
<pdfrwt beam="2">  1       -1 0.11199743E+00 0.21944336E+04</pdfrwt>
<totfact> 0.79253954E+00</totfact>
</mgrwt>
</event>
<event>
12    7  0.1625631E-007  0.1591060E+04  0.7818608E-02  0.8826059E-01
          2   -1    0    0  501    0  0.00000000000E+00  0.00000000000E+00  0.94373588504E+03  0.94373588504E+03  0.00000000000E+00 0. -1.
         -1   -1    0    0    0  501 -0.00000000000E+00 -0.00000000000E+00 -0.67059834857E+03  0.67059834857E+03  0.00000000000E+00 0.  1.
         24    2    1    2    0    0 -0.33466982662E+03  0.18881584945E+03  0.47187583218E+03  0.61372746080E+03  0.79619578564E+02 0.  0.
        254    2    1    2    0    0  0.33466982662E+03 -0.18881584945E+03 -0.19873829571E+03  0.10006067728E+04  0.90225367040E+03 0.  0.
         23    2    4    4    0    0  0.26787511987E+03 -0.53764444122E+03 -0.72133789261E+02  0.61173610581E+03  0.90549183179E+02 0.  0.
         23    2    4    4    0    0  0.66794706748E+02  0.34882859177E+03 -0.12660450645E+03  0.38887066699E+03  0.95125050905E+02 0.  0.
          4    1    3    3  502    0 -0.14298839885E+03  0.37949877105E+02  0.19407757626E+03  0.24403274572E+03  0.00000000000E+00 0. -1.
         -3    1    3    3    0  502 -0.19168142777E+03  0.15086597235E+03  0.27779825592E+03  0.36969471508E+03  0.00000000000E+00 0.  1.
         13    1    5    5    0    0  0.41123448974E+02 -0.71728645907E+02 -0.41898018687E+02  0.92690779850E+02  0.00000000000E+00 0.  1.
        -13    1    5    5    0    0  0.22675167090E+03 -0.46591579532E+03 -0.30235770574E+02  0.51904532596E+03  0.00000000000E+00 0. -1.
          1    1    6    6  503    0  0.14956411325E+02  0.28248748957E+03 -0.10686340364E+03  0.30239487932E+03  0.00000000000E+00 0. -1.
         -1    1    6    6    0  503  0.51838295422E+02  0.66341102203E+02 -0.19741102812E+02  0.86475787675E+02  0.00000000000E+00 0.  1.
<mgrwt>
<rscale>  0 0.15910597E+04</rscale>
<asrwt>0</asrwt>
<pdfrwt beam="1">  1        2 0.14519014E+00 0.15910597E+04</pdfrwt>
<pdfrwt beam="2">  1       -1 0.10316898E+00 0.15910597E+04</pdfrwt>
<totfact> 0.26626796E+01</totfact>
</mgrwt>
</event>
<event>
12    7  0.1625631E-007  0.1730308E+04  0.7818608E-02  0.8744265E-01
         -1   -1    0    0    0  501 -0.00000000000E+00  0.00000000000E+00  0.16988323803E+04  0.16988323803E+04  0.00000000000E+00 0.  1.
          2   -1    0    0  501    0  0.00000000000E+00 -0.00000000000E+00 -0.44059177484E+03  0.44059177484E+03  0.00000000000E+00 0. -1.
         24    2    1    2    0    0  0.53886277620E+03  0.28579774978E+03  0.64204695855E+03  0.88914413192E+03  0.79369672969E+02 0.  0.
        254    2    1    2    0    0 -0.53886277620E+03 -0.28579774978E+03  0.61619364693E+03  0.12502800232E+04  0.90080635023E+03 0.  0.
         23    2    4    4    0    0 -0.48725217228E+02  0.21746775690E+03  0.46841977004E+03  0.52638648133E+03  0.89438664344E+02 0.  0.
         23    2    4    4    0    0 -0.49013755898E+03 -0.50326550668E+03  0.14777387690E+03  0.72389354191E+03  0.93132939349E+02 0.  0.
          4    1    3    3  502    0  0.75200734869E+01  0.17879374869E+02  0.28035776084E+02  0.34091469484E+02  0.00000000000E+00 0. -1.
         -3    1    3    3    0  502  0.53134270272E+03  0.26791837491E+03  0.61401118246E+03  0.85505266243E+03  0.00000000000E+00 0.  1.
         13    1    5    5    0    0 -0.49787281872E+02  0.58441726006E+02  0.10866862943E+03  0.13305292104E+03  0.00000000000E+00 0.  1.
        -13    1    5    5    0    0  0.10620646434E+01  0.15902603089E+03  0.35975114060E+03  0.39333356029E+03  0.00000000000E+00 0. -1.
          1    1    6    6  503    0 -0.35675040058E+03 -0.40766350730E+03  0.14040197330E+03  0.55961870734E+03  0.00000000000E+00 0. -1.
         -1    1    6    6    0  503 -0.13338715840E+03 -0.95601999378E+02  0.73719036024E+01  0.16427483457E+03  0.00000000000E+00 0.  1.
<mgrwt>
<rscale>  0 0.17303082E+04</rscale>
<asrwt>0</asrwt>
<pdfrwt beam="1">  1        2 0.67783351E-01 0.17303082E+04</pdfrwt>
<pdfrwt beam="2">  1       -1 0.26135882E+00 0.17303082E+04</pdfrwt>
<totfact> 0.45481614E+00</totfact>
</mgrwt>
</event>
<event>
12    7  0.1625631E-007  0.2113859E+04  0.7818608E-02  0.8555163E-01
          2   -1    0    0  501    0  0.00000000000E+00  0.00000000000E+00  0.93420915056E+03  0.93420915056E+03  0.00000000000E+00 0. -1.
         -1   -1    0    0    0  501 -0.00000000000E+00 -0.00000000000E+00 -0.11957709512E+04  0.11957709512E+04  0.00000000000E+00 0.  1.
         24    2    1    2    0    0 -0.24175056191E+03  0.45139038238E+03  0.59195543242E+03  0.78634337289E+03  0.75683912601E+02 0.  0.
        254    2    1    2    0    0  0.24175056191E+03 -0.45139038238E+03 -0.85351723308E+03  0.13436367289E+04  0.90259148044E+03 0.  0.
         23    2    4    4    0    0  0.26303416598E+03  0.33782988017E+02  0.75772112748E+02  0.29055299217E+03  0.91385805441E+02 0.  0.
         23    2    4    4    0    0 -0.21283604074E+02 -0.48517337040E+03 -0.92928934583E+03  0.10530837367E+04  0.97777692314E+02 0.  0.
          4    1    3    3  502    0 -0.16288975591E+03  0.36574101067E+03  0.43964885736E+03  0.59463491089E+03  0.00000000000E+00 0. -1.
         -3    1    3    3    0  502 -0.78860805995E+02  0.85649371707E+02  0.15230657506E+03  0.19170846200E+03  0.00000000000E+00 0.  1.
         13    1    5    5    0    0  0.73797041078E+02  0.11104693485E+02  0.66139824239E+02  0.99718573193E+02  0.00000000000E+00 0.  1.
        -13    1    5    5    0    0  0.18923712491E+03  0.22678294533E+02  0.96322885092E+01  0.19083441898E+03  0.00000000000E+00 0. -1.
          1    1    6    6  503    0 -0.21745148219E+02 -0.19412581820E+02 -0.66407534314E+02  0.72523516308E+02  0.00000000000E+00 0. -1.
         -1    1    6    6    0  503  0.46154414413E+00 -0.46576078858E+03 -0.86288181152E+03  0.98056022041E+03  0.00000000000E+00 0.  1.
<mgrwt>
<rscale>  0 0.21138592E+04</rscale>
<asrwt>0</asrwt>
<pdfrwt beam="1">  1        2 0.14372448E+00 0.21138592E+04</pdfrwt>
<pdfrwt beam="2">  1       -1 0.18396476E+00 0.21138592E+04</pdfrwt>
<totfact> 0.56930965E+00</totfact>
</mgrwt>
</event>
<event>
12    7  0.1625631E-007  0.1879248E+04  0.7818608E-02  0.8665255E-01
         -1   -1    0    0    0  501 -0.00000000000E+00  0.00000000000E+00  0.31402835741E+03  0.31402835741E+03  0.00000000000E+00 0.  1.
          2   -1    0    0  501    0  0.00000000000E+00 -0.00000000000E+00 -0.28115091277E+04  0.28115091277E+04  0.00000000000E+00 0. -1.
         24    2    1    2    0    0 -0.60060771953E+03  0.39921756656E+03 -0.88799195892E+03  0.11466005147E+04  0.77837799215E+02 0.  0.
        254    2    1    2    0    0  0.60060771953E+03 -0.39921756656E+03 -0.16094888113E+04  0.19789369704E+04  0.89757061044E+03 0.  0.
         23    2    4    4    0    0 -0.40314490119E+02  0.22822269885E+03 -0.38043035806E+03  0.45472360849E+03  0.91298654946E+02 0.  0.
         23    2    4    4    0    0  0.64092220965E+03 -0.62744026541E+03 -0.12290584533E+04  0.15242133619E+04  0.90438518007E+02 0.  0.
          4    1    3    3  502    0 -0.78843110435E+02  0.38685498595E+02 -0.74956428628E+02  0.11546111924E+03  0.00000000000E+00 0. -1.
         -3    1    3    3    0  502 -0.52176460910E+03  0.36053206796E+03 -0.81303553029E+03  0.10311393955E+04  0.00000000000E+00 0.  1.
         13    1    5    5    0    0  0.90208205845E+01  0.16275234529E+03 -0.28996733022E+03  0.33264208046E+03  0.00000000000E+00 0. -1.
        -13    1    5    5    0    0 -0.49335310703E+02  0.65470353561E+02 -0.90463027843E+02  0.12208152802E+03  0.00000000000E+00 0.  1.
          4    1    6    6  503    0  0.26467339258E+03 -0.31720544570E+03 -0.53413212678E+03  0.67525434347E+03  0.00000000000E+00 0. -1.
         -4    1    6    6    0  503  0.37624881707E+03 -0.31023481971E+03 -0.69492632650E+03  0.84895901842E+03  0.00000000000E+00 0.  1.
<mgrwt>
<rscale>  0 0.18792484E+04</rscale>
<asrwt>0</asrwt>
<pdfrwt beam="1">  1        2 0.43253986E+00 0.18792484E+04</pdfrwt>
<pdfrwt beam="2">  1       -1 0.48312055E-01 0.18792484E+04</pdfrwt>
<totfact> 0.10435217E+01</totfact>
</mgrwt>
</event>
<event>
12    7  0.1625631E-007  0.1855567E+04  0.7818608E-02  0.8677295E-01
          2   -1    0    0  501    0  0.00000000000E+00  0.00000000000E+00  0.77293058268E+03  0.77293058268E+03  0.00000000000E+00 0. -1.
         -1   -1    0    0    0  501 -0.00000000000E+00 -0.00000000000E+00 -0.11136602156E+04  0.11136602156E+04  0.00000000000E+00 0.  1.
         24    2    1    2    0    0  0.54848163338E+03 -0.27824588608E+03 -0.48553291764E+03  0.78761233156E+03  0.79612156397E+02 0.  0.
        254    2    1    2    0    0 -0.54848163338E+03  0.27824588608E+03  0.14480328472E+03  0.10989784667E+04  0.89918452155E+03 0.  0.
         23    2    4    4    0    0  0.19600702342E+03  0.13493846976E+03 -0.13039801563E+03  0.28736312180E+03  0.94587406344E+02 0.  0.
         23    2    4    4    0    0 -0.74448865680E+03  0.14330741632E+03  0.27520130035E+03  0.81161534493E+03  0.90461797094E+02 0.  0.
          2    1    3    3  502    0  0.21755439105E+03 -0.97733511041E+02 -0.14182143566E+03  0.27747985848E+03  0.00000000000E+00 0. -1.
         -1    1    3    3    0  502  0.33092724232E+03 -0.18051237503E+03 -0.34371148197E+03  0.51013247308E+03  0.00000000000E+00 0.  1.
         13    1    5    5    0    0  0.14244439126E+03  0.41871912688E+02 -0.81576915489E+02  0.16940618293E+03  0.00000000000E+00 0. -1.
        -13    1    5    5    0    0  0.53562632162E+02  0.93066557070E+02 -0.48821100141E+02  0.11795693887E+03  0.00000000000E+00 0.  1.
          2    1    6    6  503    0 -0.49387494528E+02  0.15418749818E+01  0.42025496600E+02  0.64866357680E+02  0.00000000000E+00 0. -1.
         -2    1    6    6    0  503 -0.69510116227E+03  0.14176554134E+03  0.23317580375E+03  0.74674898725E+03  0.00000000000E+00 0.  1.
<mgrwt>
<rscale>  0 0.18555668E+04</rscale>
<asrwt>0</asrwt>
<pdfrwt beam="1">  1        2 0.11891240E+00 0.18555668E+04</pdfrwt>
<pdfrwt beam="2">  1       -1 0.17133234E+00 0.18555668E+04</pdfrwt>
<totfact> 0.93054586E+00</totfact>
</mgrwt>
</event>
<event>
12    7  0.1625631E-007  0.2391439E+04  0.7818608E-02  0.8442716E-01
         -1   -1    0    0    0  501 -0.00000000000E+00  0.00000000000E+00  0.48554895561E+03  0.48554895561E+03  0.00000000000E+00 0.  1.
          2   -1    0    0  501    0  0.00000000000E+00 -0.00000000000E+00 -0.29445948176E+04  0.29445948176E+04  0.00000000000E+00 0. -1.
         24    2    1    2    0    0 -0.82830425757E+03 -0.85767121030E+02 -0.19893402405E+03  0.85987783481E+03  0.79819814026E+02 0.  0.
        254    2    1    2    0    0  0.82830425757E+03  0.85767121030E+02 -0.22601118379E+04  0.25702659384E+04  0.89706049511E+03 0.  0.
         23    2    4    4    0    0  0.60970709366E+03 -0.91386801742E+02 -0.54034428987E+03  0.82521513538E+03  0.94412819429E+02 0.  0.
         23    2    4    4    0    0  0.21859716391E+03  0.17715392277E+03 -0.17197675481E+04  0.17450508030E+04  0.91834923942E+02 0.  0.
          4    1    3    3  502    0 -0.17487150535E+03 -0.18856468296E+02 -0.89844187042E+01  0.17611453535E+03  0.00000000000E+00 0. -1.
         -3    1    3    3    0  502 -0.65343275222E+03 -0.66910652733E+02 -0.18994960534E+03  0.68376329946E+03  0.00000000000E+00 0.  1.
         13    1    5    5    0    0  0.38129485228E+03 -0.86191210480E+02 -0.38684919836E+03  0.54996999138E+03  0.00000000000E+00 0.  1.
        -13    1    5    5    0    0  0.22841224138E+03 -0.51955912619E+01 -0.15349509150E+03  0.27524514400E+03  0.00000000000E+00 0. -1.
          1    1    6    6  503    0  0.94421821737E+02  0.24872413552E+02 -0.48289695466E+03  0.49266985517E+03  0.00000000000E+00 0. -1.
         -1    1    6    6    0  503  0.12417534217E+03  0.15228150922E+03 -0.12368705934E+04  0.12523809478E+04  0.00000000000E+00 0.  1.
<mgrwt>
<rscale>  0 0.23914388E+04</rscale>
<asrwt>0</asrwt>
<pdfrwt beam="1">  1        2 0.45301458E+00 0.23914388E+04</pdfrwt>
<pdfrwt beam="2">  1       -1 0.74699841E-01 0.23914388E+04</pdfrwt>
<totfact> 0.34809152E+00</totfact>
</mgrwt>
</event>
<event>
12    7  0.1625631E-007  0.3079004E+04  0.7818608E-02  0.8221524E-01
         -1   -1    0    0    0  501 -0.00000000000E+00  0.00000000000E+00  0.10576043583E+04  0.10576043583E+04  0.00000000000E+00 0.  1.
          2   -1    0    0  501    0  0.00000000000E+00 -0.00000000000E+00 -0.22409768764E+04  0.22409768764E+04  0.00000000000E+00 0. -1.
         24    2    1    2    0    0 -0.43202349373E+03 -0.63240052785E+03  0.73141339706E+03  0.10621940346E+04  0.81950491082E+02 0.  0.
        254    2    1    2    0    0  0.43202349373E+03  0.63240052785E+03 -0.19147859152E+04  0.22363872001E+04  0.86512882348E+03 0.  0.
         23    2    4    4    0    0 -0.21476180868E+03  0.28963229915E+02 -0.64666755444E+03  0.68767750262E+03  0.88090399512E+02 0.  0.
         23    2    4    4    0    0  0.64678530240E+03  0.60343729794E+03 -0.12681183607E+04  0.15487096975E+04  0.88936777595E+02 0.  0.
          2    1    3    3  502    0 -0.87276170471E+02 -0.17981054588E+03  0.21934961740E+03  0.29675447258E+03  0.00000000000E+00 0. -1.
         -1    1    3    3    0  502 -0.34474732325E+03 -0.45258998197E+03  0.51206377966E+03  0.76543956202E+03  0.00000000000E+00 0.  1.
         13    1    5    5    0    0 -0.38590147998E+01 -0.24214834151E+01 -0.11154962308E+03  0.11164261725E+03  0.00000000000E+00 0.  1.
        -13    1    5    5    0    0 -0.21090279388E+03  0.31384713330E+02 -0.53511793136E+03  0.57603488536E+03  0.00000000000E+00 0. -1.
          3    1    6    6  503    0  0.41644000122E+03  0.44294819551E+03 -0.88673614986E+03  0.10751401667E+04  0.00000000000E+00 0. -1.
         -3    1    6    6    0  503  0.23034530118E+03  0.16048910243E+03 -0.38138221088E+03  0.47356953085E+03  0.00000000000E+00 0.  1.
<mgrwt>
<rscale>  0 0.30790043E+04</rscale>
<asrwt>0</asrwt>
<pdfrwt beam="1">  1        2 0.34476567E+00 0.30790043E+04</pdfrwt>
<pdfrwt beam="2">  1       -1 0.16270836E+00 0.30790043E+04</pdfrwt>
<totfact> 0.13198987E+00</totfact>
</mgrwt>
</event>
<event>
12    7  0.1625631E-007  0.1446905E+04  0.7818608E-02  0.8920549E-01
          2   -1    0    0  501    0  0.00000000000E+00  0.00000000000E+00  0.65276839357E+03  0.65276839357E+03  0.00000000000E+00 0. -1.
         -1   -1    0    0    0  501 -0.00000000000E+00 -0.00000000000E+00 -0.80179026745E+03  0.80179026745E+03  0.00000000000E+00 0.  1.
         24    2    1    2    0    0 -0.12509897706E+03  0.19398274658E+03  0.34790331487E+03  0.42526017495E+03  0.80811137013E+02 0.  0.
        254    2    1    2    0    0  0.12509897706E+03 -0.19398274658E+03 -0.49692518875E+03  0.10292984861E+04  0.87134474819E+03 0.  0.
         23    2    4    4    0    0 -0.32423234196E+01 -0.15885233250E+03 -0.72624315259E+03  0.74863925271E+03  0.88244194205E+02 0.  0.
         23    2    4    4    0    0  0.12834130048E+03 -0.35130414078E+02  0.22931796384E+03  0.28065923337E+03  0.92071935648E+02 0.  0.
          4    1    3    3  502    0 -0.51508447419E+02  0.14658355251E+03  0.19814624946E+03  0.25179712905E+03  0.00000000000E+00 0. -1.
         -3    1    3    3    0  502 -0.73590529642E+02  0.47399194067E+02  0.14975706541E+03  0.17346304590E+03  0.00000000000E+00 0.  1.
         13    1    5    5    0    0  0.36949128433E+01 -0.11536635199E+03 -0.65342473002E+03  0.66354120095E+03  0.00000000000E+00 0.  1.
        -13    1    5    5    0    0 -0.69372362629E+01 -0.43485980514E+02 -0.72818422571E+02  0.85098051764E+02  0.00000000000E+00 0. -1.
          3    1    6    6  503    0  0.10695127899E+03  0.14333663899E+02  0.15126549036E+03  0.18580979138E+03  0.00000000000E+00 0. -1.
         -3    1    6    6    0  503  0.21390021486E+02 -0.49464077977E+02  0.78052473483E+02  0.94849441992E+02  0.00000000000E+00 0.  1.
<mgrwt>
<rscale>  0 0.14469048E+04</rscale>
<asrwt>0</asrwt>
<pdfrwt beam="1">  1        2 0.10042591E+00 0.14469048E+04</pdfrwt>
<pdfrwt beam="2">  1       -1 0.12335235E+00 0.14469048E+04</pdfrwt>
<totfact> 0.28676522E+01</totfact>
</mgrwt>
</event>
<event>
12    7  0.1625631E-007  0.1802877E+04  0.7818608E-02  0.8704771E-01
         -1   -1    0    0    0  501 -0.00000000000E+00  0.00000000000E+00  0.87571441389E+03  0.87571441389E+03  0.00000000000E+00 0.  1.
          2   -1    0    0  501    0  0.00000000000E+00 -0.00000000000E+00 -0.92791869797E+03  0.92791869797E+03  0.00000000000E+00 0. -1.
         24    2    1    2    0    0  0.61671691598E+03 -0.21885648641E+03 -0.21857352866E+03  0.69466233327E+03  0.80891617204E+02 0.  0.
        254    2    1    2    0    0 -0.61671691598E+03  0.21885648641E+03  0.16636924457E+03  0.11089707786E+04  0.87971560526E+03 0.  0.
         23    2    4    4    0    0 -0.31902344790E+03 -0.20163061685E+03 -0.23060443004E+03  0.45190598931E+03  0.92788760407E+02 0.  0.
         23    2    4    4    0    0 -0.29769346808E+03  0.42048710326E+03  0.39697367461E+03  0.65706478928E+03  0.93355417825E+02 0.  0.
          4    1    3    3  502    0  0.53234729358E+03 -0.18727182378E+03 -0.15773712937E+03  0.58595680638E+03  0.00000000000E+00 0. -1.
         -3    1    3    3    0  502  0.84369622399E+02 -0.31584662631E+02 -0.60836399290E+02  0.10870552689E+03  0.00000000000E+00 0.  1.
         13    1    5    5    0    0 -0.20244463327E+03 -0.11035349685E+03 -0.89359564512E+02  0.24727890241E+03  0.00000000000E+00 0. -1.
        -13    1    5    5    0    0 -0.11657881464E+03 -0.91277120002E+02 -0.14124486552E+03  0.20462708690E+03  0.00000000000E+00 0.  1.
          4    1    6    6  503    0 -0.14602296839E+02  0.36665419654E+02  0.64756000790E+02  0.75834818585E+02  0.00000000000E+00 0. -1.
         -4    1    6    6    0  503 -0.28309117124E+03  0.38382168361E+03  0.33221767382E+03  0.58122997070E+03  0.00000000000E+00 0.  1.
<mgrwt>
<rscale>  0 0.18028775E+04</rscale>
<asrwt>0</asrwt>
<pdfrwt beam="1">  1        2 0.14275672E+00 0.18028775E+04</pdfrwt>
<pdfrwt beam="2">  1       -1 0.13472529E+00 0.18028775E+04</pdfrwt>
<totfact> 0.14006139E+01</totfact>
</mgrwt>
</event>
<event>
12    7  0.1625631E-007  0.2186590E+04  0.7818608E-02  0.8524030E-01
         -1   -1    0    0    0  501 -0.00000000000E+00  0.00000000000E+00  0.30378181731E+03  0.30378181731E+03  0.00000000000E+00 0.  1.
          2   -1    0    0  501    0  0.00000000000E+00 -0.00000000000E+00 -0.39347137288E+04  0.39347137288E+04  0.00000000000E+00 0. -1.
         24    2    1    2    0    0 -0.19373225817E+03  0.47395848134E+03 -0.64008730378E+02  0.52227225605E+03  0.80637224574E+02 0.  0.
        254    2    1    2    0    0  0.19373225817E+03 -0.47395848134E+03 -0.35669231811E+04  0.37162232900E+04  0.90840835075E+03 0.  0.
         23    2    4    4    0    0 -0.16704930145E+03  0.15798336238E+03 -0.44256656259E+03  0.50692924096E+03  0.90817845806E+02 0.  0.
         23    2    4    4    0    0  0.36078155962E+03 -0.63194184372E+03 -0.31243566185E+04  0.32092940490E+04  0.91924894581E+02 0.  0.
          4    1    3    3  502    0  0.23688760458E+01  0.25853570860E+02 -0.16666021906E+02  0.30850850655E+02  0.00000000000E+00 0. -1.
         -3    1    3    3    0  502 -0.19610113422E+03  0.44810491048E+03 -0.47342708472E+02  0.49142140540E+03  0.00000000000E+00 0.  1.
         13    1    5    5    0    0 -0.14003015509E+03  0.77363745533E+02 -0.31994329072E+03  0.35771120018E+03  0.00000000000E+00 0. -1.
        -13    1    5    5    0    0 -0.27019146353E+02  0.80619616849E+02 -0.12262327187E+03  0.14921804078E+03  0.00000000000E+00 0.  1.
          1    1    6    6  503    0  0.17389350433E+03 -0.22649774575E+03 -0.13190541281E+04  0.13496088220E+04  0.00000000000E+00 0. -1.
         -1    1    6    6    0  503  0.18688805529E+03 -0.40544409798E+03 -0.18053024904E+04  0.18596852270E+04  0.00000000000E+00 0.  1.
<mgrwt>
<rscale>  0 0.21865905E+04</rscale>
<asrwt>0</asrwt>
<pdfrwt beam="1">  1        2 0.60534053E+00 0.21865905E+04</pdfrwt>
<pdfrwt beam="2">  1       -1 0.46735667E-01 0.21865905E+04</pdfrwt>
<totfact> 0.18456854E+00</totfact>
</mgrwt>
</event>
<event>
12    7  0.1625631E-007  0.1069810E+04  0.7818608E-02  0.9235127E-01
         -1   -1    0    0    0  501 -0.00000000000E+00  0.00000000000E+00  0.14376509059E+03  0.14376509059E+03  0.00000000000E+00 0.  1.
          2   -1    0    0  501    0  0.00000000000E+00 -0.00000000000E+00 -0.19902143846E+04  0.19902143846E+04  0.00000000000E+00 0. -1.
         24    2    1    2    0    0 -0.12167095067E+03  0.18686160895E+02 -0.10934173295E+03  0.18410824086E+03  0.82384688764E+02 0.  0.
        254    2    1    2    0    0  0.12167095067E+03 -0.18686160895E+02 -0.17371075610E+04  0.19498712343E+04  0.87709871672E+03 0.  0.
         23    2    4    4    0    0 -0.24899904513E+03 -0.29994215852E+03 -0.93795226972E+03  0.10199167381E+04  0.92248954060E+02 0.  0.
         23    2    4    4    0    0  0.37066999580E+03  0.28125599763E+03 -0.79915529133E+03  0.92995449617E+03  0.98310748646E+02 0.  0.
          2    1    3    3  502    0  0.66643753229E+01  0.18574284787E+02 -0.12922070699E+02  0.23588087352E+02  0.00000000000E+00 0. -1.
         -1    1    3    3    0  502 -0.12833532599E+03  0.11187610805E+00 -0.96419662250E+02  0.16052015351E+03  0.00000000000E+00 0.  1.
         13    1    5    5    0    0 -0.13793147781E+03 -0.11537177089E+03 -0.34504686433E+03  0.38909263251E+03  0.00000000000E+00 0.  1.
        -13    1    5    5    0    0 -0.11106756732E+03 -0.18457038763E+03 -0.59290540539E+03  0.63082410563E+03  0.00000000000E+00 0. -1.
          4    1    6    6  503    0  0.27119727842E+03  0.15384642340E+03 -0.48344581896E+03  0.57527084550E+03  0.00000000000E+00 0. -1.
         -4    1    6    6    0  503  0.99472717386E+02  0.12740957423E+03 -0.31570947237E+03  0.35468365067E+03  0.00000000000E+00 0.  1.
<mgrwt>
<rscale>  0 0.10698100E+04</rscale>
<asrwt>0</asrwt>
<pdfrwt beam="1">  1        2 0.30618684E+00 0.10698100E+04</pdfrwt>
<pdfrwt beam="2">  1       -1 0.22117706E-01 0.10698100E+04</pdfrwt>
<totfact> 0.13265359E+02</totfact>
</mgrwt>
</event>
<event>
12    7  0.1625631E-007  0.1952256E+04  0.7818608E-02  0.8629274E-01
          2   -1    0    0  501    0  0.00000000000E+00  0.00000000000E+00  0.19360973556E+04  0.19360973556E+04  0.00000000000E+00 0. -1.
         -1   -1    0    0    0  501 -0.00000000000E+00 -0.00000000000E+00 -0.49213726533E+03  0.49213726533E+03  0.00000000000E+00 0.  1.
         24    2    1    2    0    0  0.16636140533E+01 -0.48478552458E+03  0.13106740032E+04  0.14001857654E+04  0.87373123622E+02 0.  0.
        254    2    1    2    0    0 -0.16636140533E+01  0.48478552458E+03  0.13328608715E+03  0.10280488555E+04  0.89671595048E+03 0.  0.
         23    2    4    4    0    0  0.28408082412E+02  0.65515041389E+03  0.33673131149E+03  0.74281546872E+03  0.91420787914E+02 0.  0.
         23    2    4    4    0    0 -0.30071696465E+02 -0.17036488931E+03 -0.20344522434E+03  0.28523338680E+03  0.10019792015E+03 0.  0.
          4    1    3    3  502    0  0.74892438599E+01 -0.45889563026E+03  0.12790626079E+04  0.13589122279E+04  0.00000000000E+00 0. -1.
         -3    1    3    3    0  502 -0.58256298066E+01 -0.25889894320E+02  0.31611395313E+02  0.41273537578E+02  0.00000000000E+00 0.  1.
         13    1    5    5    0    0  0.36763708883E+02  0.52821726065E+03  0.23221154889E+03  0.57817579349E+03  0.00000000000E+00 0.  1.
        -13    1    5    5    0    0 -0.83556264709E+01  0.12693315324E+03  0.10451976260E+03  0.16463967523E+03  0.00000000000E+00 0. -1.
          4    1    6    6  503    0  0.24693528070E+01 -0.15694886683E+03 -0.13008273580E+03  0.20386407888E+03  0.00000000000E+00 0.  1.
         -4    1    6    6    0  503 -0.32541049272E+02 -0.13416022471E+02 -0.73362488538E+02  0.81369307919E+02  0.00000000000E+00 0. -1.
<mgrwt>
<rscale>  0 0.19522558E+04</rscale>
<asrwt>0</asrwt>
<pdfrwt beam="1">  1        2 0.29786113E+00 0.19522558E+04</pdfrwt>
<pdfrwt beam="2">  1       -1 0.75713426E-01 0.19522558E+04</pdfrwt>
<totfact> 0.13495998E+01</totfact>
</mgrwt>
</event>
<event>
12    7  0.1625631E-007  0.1828197E+04  0.7818608E-02  0.8691447E-01
         -1   -1    0    0    0  501 -0.00000000000E+00  0.00000000000E+00  0.49216994500E+03  0.49216994500E+03  0.00000000000E+00 0.  1.
          2   -1    0    0  501    0  0.00000000000E+00 -0.00000000000E+00 -0.16977384152E+04  0.16977384152E+04  0.00000000000E+00 0. -1.
         24    2    1    2    0    0 -0.35563114817E+03  0.13244870144E+03 -0.11371553084E+04  0.12016865282E+04  0.83139308391E+02 0.  0.
        254    2    1    2    0    0  0.35563114817E+03 -0.13244870144E+03 -0.68413161809E+02  0.98822183199E+03  0.90988233111E+03 0.  0.
         23    2    4    4    0    0  0.19997656240E+03  0.27718378370E+03  0.25542357488E+03  0.43571191060E+03  0.88216727348E+02 0.  0.
         23    2    4    4    0    0  0.15565458577E+03 -0.40963248514E+03 -0.32383673669E+03  0.55250992139E+03  0.91486929392E+02 0.  0.
          2    1    3    3  502    0 -0.33407434989E+03  0.10222439943E+03 -0.98690665825E+03  0.10469194101E+04  0.00000000000E+00 0. -1.
         -1    1    3    3    0  502 -0.21556798271E+02  0.30224302008E+02 -0.15024865013E+03  0.15476711811E+03  0.00000000000E+00 0.  1.
         13    1    5    5    0    0  0.14643568313E+03  0.15572157309E+03  0.19697335156E+03  0.29067356062E+03  0.00000000000E+00 0. -1.
        -13    1    5    5    0    0  0.53540879271E+02  0.12146221062E+03  0.58450223312E+02  0.14503834998E+03  0.00000000000E+00 0.  1.
          2    1    6    6  503    0  0.54341243383E+02 -0.10350792835E+03 -0.41916909874E+02  0.12419295189E+03  0.00000000000E+00 0.  1.
         -2    1    6    6    0  503  0.10131334239E+03 -0.30612455679E+03 -0.28191982681E+03  0.42831696950E+03  0.00000000000E+00 0. -1.
<mgrwt>
<rscale>  0 0.18281967E+04</rscale>
<asrwt>0</asrwt>
<pdfrwt beam="1">  1        2 0.26119053E+00 0.18281967E+04</pdfrwt>
<pdfrwt beam="2">  1       -1 0.75718453E-01 0.18281967E+04</pdfrwt>
<totfact> 0.18493094E+01</totfact>
</mgrwt>
</event>
<event>
12    7  0.1625631E-007  0.1610884E+04  0.7818608E-02  0.8813889E-01
         -1   -1    0    0    0  501 -0.00000000000E+00  0.00000000000E+00  0.35016221316E+03  0.35016221316E+03  0.00000000000E+00 0.  1.
          2   -1    0    0  501    0  0.00000000000E+00 -0.00000000000E+00 -0.18526746611E+04  0.18526746611E+04  0.00000000000E+00 0. -1.
         24    2    1    2    0    0  0.41254394912E+03 -0.31497165505E+03 -0.26327163896E+03  0.58713079461E+03  0.77530385328E+02 0.  0.
        254    2    1    2    0    0 -0.41254394912E+03  0.31497165505E+03 -0.12392408089E+04  0.16157060796E+04  0.89743450997E+03 0.  0.
         23    2    4    4    0    0 -0.22568410962E+03  0.39520117649E+03 -0.13034411890E+04  0.13836378404E+04  0.91528426866E+02 0.  0.
         23    2    4    4    0    0 -0.18685983950E+03 -0.80229521435E+02  0.64200380100E+02  0.23206823919E+03  0.91545634006E+02 0.  0.
          4    1    3    3  502    0  0.26599294604E+03 -0.18624934456E+03 -0.20311281517E+03  0.38300898342E+03  0.00000000000E+00 0. -1.
         -3    1    3    3    0  502  0.14655100309E+03 -0.12872231049E+03 -0.60158823789E+02  0.20412181119E+03  0.00000000000E+00 0.  1.
         13    1    5    5    0    0 -0.45659005560E+02  0.16722844984E+03 -0.51452811587E+03  0.54294500757E+03  0.00000000000E+00 0. -1.
        -13    1    5    5    0    0 -0.18002510406E+03  0.22797272665E+03 -0.78891307317E+03  0.84069283285E+03  0.00000000000E+00 0.  1.
          3    1    6    6  503    0 -0.33801859668E+02  0.50473811229E+01 -0.17894628124E+02  0.38577966366E+02  0.00000000000E+00 0. -1.
         -3    1    6    6    0  503 -0.15305797983E+03 -0.85276902558E+02  0.82095008224E+02  0.19349027282E+03  0.00000000000E+00 0.  1.
<mgrwt>
<rscale>  0 0.16108838E+04</rscale>
<asrwt>0</asrwt>
<pdfrwt beam="1">  1        2 0.28502687E+00 0.16108838E+04</pdfrwt>
<pdfrwt beam="2">  1       -1 0.53871110E-01 0.16108838E+04</pdfrwt>
<totfact> 0.30624174E+01</totfact>
</mgrwt>
</event>
<event>
12    7  0.1625631E-007  0.4737575E+04  0.7818608E-02  0.7870315E-01
         -1   -1    0    0    0  501 -0.00000000000E+00  0.00000000000E+00  0.17053617691E+04  0.17053617691E+04  0.00000000000E+00 0.  1.
          2   -1    0    0  501    0  0.00000000000E+00 -0.00000000000E+00 -0.32903019386E+04  0.32903019386E+04  0.00000000000E+00 0. -1.
         24    2    1    2    0    0  0.92492005752E+03  0.20454056786E+04 -0.32551675162E+03  0.22697308177E+04  0.80964969534E+02 0.  0.
        254    2    1    2    0    0 -0.92492005752E+03 -0.20454056786E+04 -0.12594234179E+04  0.27259328900E+04  0.89744151456E+03 0.  0.
         23    2    4    4    0    0 -0.74425233215E+03 -0.10880939798E+04 -0.11315701081E+04  0.17396913161E+04  0.90636211923E+02 0.  0.
         23    2    4    4    0    0 -0.18066772537E+03 -0.95731169880E+03 -0.12785330978E+03  0.98624157386E+03  0.85085001847E+02 0.  0.
          2    1    3    3  502    0  0.19094160286E+03  0.35755381220E+03 -0.42541013871E+02  0.40756982491E+03  0.00000000000E+00 0. -1.
         -1    1    3    3    0  502  0.73397845466E+03  0.16878518664E+04 -0.28297573775E+03  0.18621609928E+04  0.00000000000E+00 0.  1.
         13    1    5    5    0    0 -0.24558250403E+03 -0.34597730068E+03 -0.41999307557E+03  0.59699685292E+03  0.00000000000E+00 0. -1.
        -13    1    5    5    0    0 -0.49866982812E+03 -0.74211667916E+03 -0.71157703251E+03  0.11426944632E+04  0.00000000000E+00 0.  1.
          2    1    6    6  503    0 -0.15020931769E+03 -0.75530566083E+03 -0.13493623570E+03  0.78182943671E+03  0.00000000000E+00 0. -1.
         -2    1    6    6    0  503 -0.30458407680E+02 -0.20200603797E+03  0.70829259167E+01  0.20441213715E+03  0.00000000000E+00 0.  1.
<mgrwt>
<rscale>  0 0.47375754E+04</rscale>
<asrwt>0</asrwt>
<pdfrwt beam="1">  1        2 0.50620029E+00 0.47375754E+04</pdfrwt>
<pdfrwt beam="2">  1       -1 0.26236335E+00 0.47375754E+04</pdfrwt>
<totfact> 0.55213358E-02</totfact>
</mgrwt>
</event>
<event>
12    7  0.1625631E-007  0.3485125E+04  0.7818608E-02  0.8117324E-01
          2   -1    0    0  501    0  0.00000000000E+00  0.00000000000E+00  0.29344452848E+04  0.29344452848E+04  0.00000000000E+00 0. -1.
         -1   -1    0    0    0  501 -0.00000000000E+00 -0.00000000000E+00 -0.10347864291E+04  0.10347864291E+04  0.00000000000E+00 0.  1.
         24    2    1    2    0    0  0.12140823077E+04 -0.79848156419E+03  0.63787559297E+02  0.14563377834E+04  0.72678940672E+02 0.  0.
        254    2    1    2    0    0 -0.12140823077E+04  0.79848156419E+03  0.18358712964E+04  0.25128939305E+04  0.91249319500E+03 0.  0.
         23    2    4    4    0    0 -0.63507549056E+03  0.47028562851E+03  0.16245414689E+04  0.18088636156E+04  0.91450230349E+02 0.  0.
         23    2    4    4    0    0 -0.57900681713E+03  0.32819593568E+03  0.21132982750E+03  0.70403031491E+03  0.89648880885E+02 0.  0.
          4    1    3    3  502    0  0.23471074198E+03 -0.12101658728E+03  0.14239950996E+02  0.26445589992E+03  0.00000000000E+00 0. -1.
         -3    1    3    3    0  502  0.97937156571E+03 -0.67746497691E+03  0.49547608300E+02  0.11918818835E+04  0.00000000000E+00 0.  1.
         13    1    5    5    0    0 -0.69348944669E+02  0.20764268385E+02  0.16829540109E+03  0.18320418389E+03  0.00000000000E+00 0. -1.
        -13    1    5    5    0    0 -0.56572654590E+03  0.44952136012E+03  0.14562460678E+04  0.16256594317E+04  0.00000000000E+00 0.  1.
          1    1    6    6  503    0 -0.17094148046E+03  0.86634882795E+02  0.19998917499E+02  0.19268250922E+03  0.00000000000E+00 0. -1.
         -1    1    6    6    0  503 -0.40806533667E+03  0.24156105288E+03  0.19133091000E+03  0.51134780568E+03  0.00000000000E+00 0.  1.
<mgrwt>
<rscale>  0 0.34851251E+04</rscale>
<asrwt>0</asrwt>
<pdfrwt beam="1">  1        2 0.45145312E+00 0.34851251E+04</pdfrwt>
<pdfrwt beam="2">  1       -1 0.15919791E+00 0.34851251E+04</pdfrwt>
<totfact> 0.52941016E-01</totfact>
</mgrwt>
</event>
<event>
12    7  0.1625631E-007  0.2055864E+04  0.7818608E-02  0.8580939E-01
          2   -1    0    0  501    0  0.00000000000E+00  0.00000000000E+00  0.20918422901E+04  0.20918422901E+04  0.00000000000E+00 0. -1.
         -1   -1    0    0    0  501 -0.00000000000E+00 -0.00000000000E+00 -0.50512611892E+03  0.50512611892E+03  0.00000000000E+00 0.  1.
         24    2    1    2    0    0  0.58352305803E+03 -0.58182130943E+03  0.75978363765E+03  0.11237531122E+04  0.80837402990E+02 0.  0.
        254    2    1    2    0    0 -0.58352305803E+03  0.58182130943E+03  0.82693253352E+03  0.14732152968E+04  0.89862711983E+03 0.  0.
         23    2    4    4    0    0 -0.42538570349E+02  0.62797808431E+03  0.61011678436E+03  0.88158407896E+03  0.93712290489E+02 0.  0.
         23    2    4    4    0    0 -0.54098448768E+03 -0.46156774883E+02  0.21681574916E+03  0.59163121788E+03  0.90684977263E+02 0.  0.
          2    1    3    3  502    0  0.41044015826E+03 -0.41480869298E+03  0.48689462480E+03  0.75999588876E+03  0.00000000000E+00 0. -1.
         -1    1    3    3    0  502  0.17308289977E+03 -0.16701261645E+03  0.27288901286E+03  0.36375722341E+03  0.00000000000E+00 0.  1.
         13    1    5    5    0    0  0.27455998313E+01  0.50948158090E+03  0.48634672402E+03  0.70435229506E+03  0.00000000000E+00 0.  1.
        -13    1    5    5    0    0 -0.45284170180E+02  0.11849650341E+03  0.12377006033E+03  0.17723178390E+03  0.00000000000E+00 0. -1.
          3    1    6    6  503    0 -0.25888042729E+03 -0.64822422780E+02  0.12198135124E+03  0.29342881961E+03  0.00000000000E+00 0. -1.
         -3    1    6    6    0  503 -0.28210406039E+03  0.18665647897E+02  0.94834397924E+02  0.29820239827E+03  0.00000000000E+00 0.  1.
<mgrwt>
<rscale>  0 0.20558640E+04</rscale>
<asrwt>0</asrwt>
<pdfrwt beam="1">  1        2 0.32182189E+00 0.20558640E+04</pdfrwt>
<pdfrwt beam="2">  1       -1 0.77711712E-01 0.20558640E+04</pdfrwt>
<totfact> 0.10371879E+01</totfact>
</mgrwt>
</event>
<event>
12    7  0.1625631E-007  0.1506875E+04  0.7818608E-02  0.8879894E-01
          2   -1    0    0  501    0  0.00000000000E+00  0.00000000000E+00  0.15002108988E+04  0.15002108988E+04  0.00000000000E+00 0. -1.
         -1   -1    0    0    0  501 -0.00000000000E+00 -0.00000000000E+00 -0.37839232919E+03  0.37839232919E+03  0.00000000000E+00 0.  1.
         24    2    1    2    0    0  0.37336030038E+02 -0.60493315445E+02 -0.23331588303E+03  0.25671813085E+03  0.80090430622E+02 0.  0.
        254    2    1    2    0    0 -0.37336030038E+02  0.60493315445E+02  0.13551344527E+04  0.16218850972E+04  0.88829525679E+03 0.  0.
         23    2    4    4    0    0 -0.16588796253E+03 -0.19912688705E+03  0.46823999448E+02  0.27876412116E+03  0.91359810991E+02 0.  0.
         23    2    4    4    0    0  0.12855193249E+03  0.25962020249E+03  0.13083104532E+04  0.13431209760E+04  0.91484781685E+02 0.  0.
          4    1    3    3  502    0  0.46945046127E+02 -0.38450467827E+01 -0.13324241996E+03  0.14132290762E+03  0.00000000000E+00 0. -1.
         -3    1    3    3    0  502 -0.96090160893E+01 -0.56648268662E+02 -0.10007346308E+03  0.11539522323E+03  0.00000000000E+00 0.  1.
         13    1    5    5    0    0 -0.14182480494E+03 -0.20386288171E+03  0.32764729021E+02  0.25049526403E+03  0.00000000000E+00 0. -1.
        -13    1    5    5    0    0 -0.24063157590E+02  0.47359946563E+01  0.14059270427E+02  0.28268857132E+02  0.00000000000E+00 0.  1.
          2    1    6    6  503    0  0.13746182078E+03  0.20639891704E+03  0.10122877380E+04  0.10422200966E+04  0.00000000000E+00 0. -1.
         -2    1    6    6    0  503 -0.89098882866E+01  0.53221285453E+02  0.29602271518E+03  0.30090087942E+03  0.00000000000E+00 0.  1.
<mgrwt>
<rscale>  0 0.15068753E+04</rscale>
<asrwt>0</asrwt>
<pdfrwt beam="1">  1        2 0.23080167E+00 0.15068753E+04</pdfrwt>
<pdfrwt beam="2">  1       -1 0.58214205E-01 0.15068753E+04</pdfrwt>
<totfact> 0.41748912E+01</totfact>
</mgrwt>
</event>
<event>
12    7  0.1625631E-007  0.1485944E+04  0.7818608E-02  0.8893854E-01
          2   -1    0    0  501    0  0.00000000000E+00  0.00000000000E+00  0.20515024311E+04  0.20515024311E+04  0.00000000000E+00 0. -1.
         -1   -1    0    0    0  501 -0.00000000000E+00 -0.00000000000E+00 -0.26907467364E+03  0.26907467364E+03  0.00000000000E+00 0.  1.
         24    2    1    2    0    0 -0.10115335163E+03 -0.94668607524E+02 -0.12297807844E+03  0.21275019529E+03  0.10461783797E+03 0.  0.
        254    2    1    2    0    0  0.10115335163E+03  0.94668607524E+02  0.19054058359E+04  0.21078269094E+04  0.89060021047E+03 0.  0.
         23    2    4    4    0    0  0.45588773700E+03  0.12871255196E+03  0.71866720483E+03  0.86499389413E+03  0.85623219937E+02 0.  0.
         23    2    4    4    0    0 -0.35473438537E+03 -0.34043944434E+02  0.11867386310E+04  0.12428330153E+04  0.96383874026E+02 0.  0.
          2    1    3    3  502    0  0.21624161440E+02 -0.14107537258E+02 -0.26773498233E+02  0.37194719694E+02  0.00000000000E+00 0. -1.
         -1    1    3    3    0  502 -0.12277751307E+03 -0.80561070266E+02 -0.96204580210E+02  0.17555547560E+03  0.00000000000E+00 0.  1.
         13    1    5    5    0    0  0.44440799528E+03  0.10952105074E+03  0.66975739883E+03  0.81121409019E+03  0.00000000000E+00 0. -1.
        -13    1    5    5    0    0  0.11479741722E+02  0.19191501215E+02  0.48909805997E+02  0.53779803938E+02  0.00000000000E+00 0.  1.
          1    1    6    6  503    0 -0.31971992218E+03 -0.47149019815E+02  0.11264497152E+04  0.11718928362E+04  0.00000000000E+00 0. -1.
         -1    1    6    6    0  503 -0.35014463196E+02  0.13105075381E+02  0.60288915852E+02  0.70940179083E+02  0.00000000000E+00 0.  1.
<mgrwt>
<rscale>  0 0.14859439E+04</rscale>
<asrwt>0</asrwt>
<pdfrwt beam="1">  1        2 0.31561575E+00 0.14859439E+04</pdfrwt>
<pdfrwt beam="2">  1       -1 0.41396105E-01 0.14859439E+04</pdfrwt>
<totfact> 0.39423806E+01</totfact>
</mgrwt>
</event>
<event>
12    7  0.1625631E-007  0.1469123E+04  0.7818608E-02  0.8905249E-01
         -1   -1    0    0    0  501 -0.00000000000E+00  0.00000000000E+00  0.42608702661E+03  0.42608702661E+03  0.00000000000E+00 0.  1.
          2   -1    0    0  501    0  0.00000000000E+00 -0.00000000000E+00 -0.12663631255E+04  0.12663631255E+04  0.00000000000E+00 0. -1.
         24    2    1    2    0    0 -0.39209006862E+03  0.19224245883E+03 -0.11406968603E+03  0.45570412029E+03  0.62948924430E+02 0.  0.
        254    2    1    2    0    0  0.39209006862E+03 -0.19224245883E+03 -0.72620641290E+03  0.12367460319E+04  0.90081807724E+03 0.  0.
         23    2    4    4    0    0  0.51200283555E+03  0.20754839671E+03 -0.51496464393E+03  0.76015034907E+03  0.86120427948E+02 0.  0.
         23    2    4    4    0    0 -0.11991276692E+03 -0.39979085554E+03 -0.21124176897E+03  0.47659568279E+03  0.91151303050E+02 0.  0.
          4    1    3    3  502    0 -0.27221444349E+03  0.11892670870E+03 -0.10433449100E+03  0.31484909290E+03  0.00000000000E+00 0. -1.
         -3    1    3    3    0  502 -0.11987562514E+03  0.73315750137E+02 -0.97351950262E+01  0.14085502739E+03  0.00000000000E+00 0.  1.
         13    1    5    5    0    0  0.21716719591E+03  0.10204723796E+03 -0.16885759085E+03  0.29340776360E+03  0.00000000000E+00 0. -1.
        -13    1    5    5    0    0  0.29483563964E+03  0.10550115875E+03 -0.34610705308E+03  0.46674258547E+03  0.00000000000E+00 0.  1.
          3    1    6    6  503    0 -0.40027057671E+02 -0.34214877674E+02 -0.19719668837E+02  0.56228894165E+02  0.00000000000E+00 0.  1.
         -3    1    6    6    0  503 -0.79885709254E+02 -0.36557597786E+03 -0.19152210014E+03  0.42036678862E+03  0.00000000000E+00 0. -1.
<mgrwt>
<rscale>  0 0.14691234E+04</rscale>
<asrwt>0</asrwt>
<pdfrwt beam="1">  1        2 0.19482510E+00 0.14691234E+04</pdfrwt>
<pdfrwt beam="2">  1       -1 0.65551850E-01 0.14691234E+04</pdfrwt>
<totfact> 0.45055328E+01</totfact>
</mgrwt>
</event>
<event>
12    7  0.1625631E-007  0.2470016E+04  0.7818608E-02  0.8413746E-01
          2   -1    0    0  501    0  0.00000000000E+00  0.00000000000E+00  0.14409375616E+04  0.14409375616E+04  0.00000000000E+00 0. -1.
         -1   -1    0    0    0  501 -0.00000000000E+00 -0.00000000000E+00 -0.10585085350E+04  0.10585085350E+04  0.00000000000E+00 0.  1.
         24    2    1    2    0    0  0.50034336032E+03  0.91181533691E+03  0.44249636964E+03  0.11332201250E+04  0.81450155233E+02 0.  0.
        254    2    1    2    0    0 -0.50034336032E+03 -0.91181533691E+03 -0.60067343010E+02  0.13662259716E+04  0.88386346968E+03 0.  0.
         23    2    4    4    0    0 -0.12792344762E+03 -0.17710402495E+03 -0.40423140015E+03  0.46884028205E+03  0.93155467346E+02 0.  0.
         23    2    4    4    0    0 -0.37241991270E+03 -0.73471131196E+03  0.34416405714E+03  0.89738568959E+03  0.91405001743E+02 0.  0.
          4    1    3    3  502    0  0.34980096357E+03  0.63269910266E+03  0.26637696225E+03  0.77047099533E+03  0.00000000000E+00 0. -1.
         -3    1    3    3    0  502  0.15054239675E+03  0.27911623425E+03  0.17611940739E+03  0.36274912970E+03  0.00000000000E+00 0.  1.
         13    1    5    5    0    0 -0.31450870020E+01 -0.31757750749E+02 -0.15511307825E+02  0.35483051945E+02  0.00000000000E+00 0.  1.
        -13    1    5    5    0    0 -0.12477836062E+03 -0.14534627420E+03 -0.38872009233E+03  0.43335723010E+03  0.00000000000E+00 0. -1.
          2    1    6    6  503    0 -0.18483257205E+03 -0.26983391631E+03  0.12230883149E+03  0.34918887775E+03  0.00000000000E+00 0. -1.
         -2    1    6    6    0  503 -0.18758734065E+03 -0.46487739565E+03  0.22185522566E+03  0.54819681184E+03  0.00000000000E+00 0.  1.
<mgrwt>
<rscale>  0 0.24700160E+04</rscale>
<asrwt>0</asrwt>
<pdfrwt beam="1">  1        2 0.22168270E+00 0.24700160E+04</pdfrwt>
<pdfrwt beam="2">  1       -1 0.16284747E+00 0.24700160E+04</pdfrwt>
<totfact> 0.38843872E+00</totfact>
</mgrwt>
</event>
<event>
12    7  0.1625631E-007  0.2092162E+04  0.7818608E-02  0.8564704E-01
          4   -1    0    0  501    0  0.00000000000E+00  0.00000000000E+00  0.42761061759E+03  0.42761061759E+03  0.00000000000E+00 0. -1.
         -3   -1    0    0    0  501 -0.00000000000E+00 -0.00000000000E+00 -0.25590709772E+04  0.25590709772E+04  0.00000000000E+00 0.  1.
         24    2    1    2    0    0  0.45597558439E+03  0.37837727726E+03  0.10613367742E+02  0.59809100291E+03  0.80728598903E+02 0.  0.
        254    2    1    2    0    0 -0.45597558439E+03 -0.37837727726E+03 -0.21420737273E+04  0.23885905919E+04  0.87510117397E+03 0.  0.
         23    2    4    4    0    0 -0.25857317156E+02 -0.29693482293E+03 -0.14900540922E+03  0.34594649462E+03  0.92938018327E+02 0.  0.
         23    2    4    4    0    0 -0.43011826724E+03 -0.81442454333E+02 -0.19930683181E+04  0.20426440972E+04  0.91863976188E+02 0.  0.
          2    1    3    3  502    0  0.26599593611E+03  0.21803913156E+03 -0.33655376984E+02  0.34558296445E+03  0.00000000000E+00 0. -1.
         -1    1    3    3    0  502  0.18997964828E+03  0.16033814570E+03  0.44268744727E+02  0.25250803846E+03  0.00000000000E+00 0.  1.
         13    1    5    5    0    0 -0.25985862580E+02 -0.27467837507E+03 -0.10239124341E+03  0.29429142276E+03  0.00000000000E+00 0. -1.
        -13    1    5    5    0    0  0.12854542453E+00 -0.22256447860E+02 -0.46614165810E+02  0.51655071866E+02  0.00000000000E+00 0.  1.
          2    1    6    6  503    0 -0.26587600053E+03 -0.71581351654E+02 -0.14187226586E+04  0.14451947687E+04  0.00000000000E+00 0. -1.
         -2    1    6    6    0  503 -0.16424226671E+03 -0.98611026781E+01 -0.57434565952E+03  0.59744932850E+03  0.00000000000E+00 0.  1.
<mgrwt>
<rscale>  0 0.20921624E+04</rscale>
<asrwt>0</asrwt>
<pdfrwt beam="1">  1        4 0.65786249E-01 0.20921624E+04</pdfrwt>
<pdfrwt beam="2">  1       -3 0.39370323E+00 0.20921624E+04</pdfrwt>
<totfact> 0.52101553E-02</totfact>
</mgrwt>
</event>
<event>
12    7  0.1625631E-007  0.3474982E+04  0.7818608E-02  0.8119745E-01
         -1   -1    0    0    0  501 -0.00000000000E+00  0.00000000000E+00  0.79356530464E+03  0.79356530464E+03  0.00000000000E+00 0.  1.
          2   -1    0    0  501    0  0.00000000000E+00 -0.00000000000E+00 -0.38041914987E+04  0.38041914987E+04  0.00000000000E+00 0. -1.
         24    2    1    2    0    0  0.12735404231E+04  0.20560192140E+03 -0.11366175110E+03  0.12974145212E+04  0.78664393086E+02 0.  0.
        254    2    1    2    0    0 -0.12735404231E+04 -0.20560192140E+03 -0.28969644429E+04  0.33003422821E+04  0.91415471126E+03 0.  0.
         23    2    4    4    0    0 -0.79215770760E+03 -0.29775018345E+03 -0.25613829504E+04  0.26992499912E+04  0.95388106429E+02 0.  0.
         23    2    4    4    0    0 -0.48138271552E+03  0.92148262052E+02 -0.33558149253E+03  0.60109229093E+03  0.92067274811E+02 0.  0.
          4    1    3    3  502    0  0.73777498848E+02  0.13001656979E+02  0.11772418534E+02  0.75833714524E+02  0.00000000000E+00 0. -1.
         -3    1    3    3    0  502  0.11997629243E+04  0.19260026442E+03 -0.12543416963E+03  0.12215808067E+04  0.00000000000E+00 0.  1.
         13    1    5    5    0    0 -0.59335356140E+03 -0.22709874514E+03 -0.17843412625E+04  0.18940739241E+04  0.00000000000E+00 0. -1.
        -13    1    5    5    0    0 -0.19880414620E+03 -0.70651438308E+02 -0.77704168785E+03  0.80517606704E+03  0.00000000000E+00 0.  1.
          1    1    6    6  503    0 -0.14429261834E+03 -0.14003235932E+02 -0.10742012575E+03  0.18043152092E+03  0.00000000000E+00 0.  1.
         -1    1    6    6    0  503 -0.33709009717E+03  0.10615149798E+03 -0.22816136677E+03  0.42066077001E+03  0.00000000000E+00 0. -1.
<mgrwt>
<rscale>  0 0.34749817E+04</rscale>
<asrwt>0</asrwt>
<pdfrwt beam="1">  1        2 0.58526022E+00 0.34749817E+04</pdfrwt>
<pdfrwt beam="2">  1       -1 0.12208697E+00 0.34749817E+04</pdfrwt>
<totfact> 0.26975963E-01</totfact>
</mgrwt>
</event>
<event>
12    7  0.1625631E-007  0.1303745E+04  0.7818608E-02  0.9026600E-01
         -1   -1    0    0    0  501 -0.00000000000E+00  0.00000000000E+00  0.85254844987E+03  0.85254844987E+03  0.00000000000E+00 0.  1.
          2   -1    0    0  501    0  0.00000000000E+00 -0.00000000000E+00 -0.49843262805E+03  0.49843262805E+03  0.00000000000E+00 0. -1.
         24    2    1    2    0    0  0.18349197838E+03  0.14374853124E+03  0.34487127301E+03  0.42536867122E+03  0.87574911632E+02 0.  0.
        254    2    1    2    0    0 -0.18349197838E+03 -0.14374853124E+03  0.92445488082E+01  0.92561240670E+03  0.89573429062E+03 0.  0.
         23    2    4    4    0    0  0.15586786232E+03  0.30283692106E+02 -0.34943235554E+03  0.39387367304E+03  0.88439847933E+02 0.  0.
         23    2    4    4    0    0 -0.33935984071E+03 -0.17403222334E+03  0.35867690434E+03  0.53173873366E+03  0.92976571885E+02 0.  0.
          2    1    3    3  502    0  0.67632324125E+02  0.42464535936E+02  0.19429421286E+03  0.21006572598E+03  0.00000000000E+00 0. -1.
         -1    1    3    3    0  502  0.11585965426E+03  0.10128399530E+03  0.15057706015E+03  0.21530294525E+03  0.00000000000E+00 0.  1.
         13    1    5    5    0    0  0.14215485771E+03  0.53858399987E+02 -0.31650388230E+03  0.35111741388E+03  0.00000000000E+00 0. -1.
        -13    1    5    5    0    0  0.13713004614E+02 -0.23574707881E+02 -0.32928473231E+02  0.42756259151E+02  0.00000000000E+00 0.  1.
          1    1    6    6  503    0 -0.30365980917E+03 -0.18323124409E+03  0.33542434831E+03  0.48815208896E+03  0.00000000000E+00 0. -1.
         -1    1    6    6    0  503 -0.35700031535E+02  0.91990207433E+01  0.23252556030E+02  0.43586644699E+02  0.00000000000E+00 0.  1.
<mgrwt>
<rscale>  0 0.13037453E+04</rscale>
<asrwt>0</asrwt>
<pdfrwt beam="1">  1        2 0.76681943E-01 0.13037453E+04</pdfrwt>
<pdfrwt beam="2">  1       -1 0.13116130E+00 0.13037453E+04</pdfrwt>
<totfact> 0.34350531E+01</totfact>
</mgrwt>
</event>
<event>
12    7  0.1625631E-007  0.1721456E+04  0.7818608E-02  0.8749221E-01
         -1   -1    0    0    0  501 -0.00000000000E+00  0.00000000000E+00  0.27382951126E+03  0.27382951126E+03  0.00000000000E+00 0.  1.
          2   -1    0    0  501    0  0.00000000000E+00 -0.00000000000E+00 -0.27055259652E+04  0.27055259652E+04  0.00000000000E+00 0. -1.
         24    2    1    2    0    0  0.50344395918E+03 -0.43039407765E+03 -0.10824714662E+04  0.12714736276E+04  0.78777080961E+02 0.  0.
        254    2    1    2    0    0 -0.50344395918E+03  0.43039407765E+03 -0.13492249878E+04  0.17078818489E+04  0.81102247811E+03 0.  0.
         23    2    4    4    0    0 -0.49891419024E+03  0.38935437110E+03 -0.40240111935E+03  0.75570026640E+03  0.92973309417E+02 0.  0.
         23    2    4    4    0    0 -0.45297689357E+01  0.41039706547E+02 -0.94682386842E+03  0.95218158248E+03  0.92030168323E+02 0.  0.
          2    1    3    3  502    0  0.48312003693E+03 -0.41284766386E+03 -0.10623679534E+04  0.12379312711E+04  0.00000000000E+00 0. -1.
         -1    1    3    3    0  502  0.20323922247E+02 -0.17546413784E+02 -0.20103512835E+02  0.33542356513E+02  0.00000000000E+00 0.  1.
         13    1    5    5    0    0 -0.20427385682E+03  0.11369132609E+03 -0.17944045891E+03  0.29470732007E+03  0.00000000000E+00 0. -1.
        -13    1    5    5    0    0 -0.29464033342E+03  0.27566304501E+03 -0.22296066044E+03  0.46099294633E+03  0.00000000000E+00 0.  1.
          3    1    6    6  503    0 -0.28629848775E+02  0.23049165046E+02 -0.13836608909E+03  0.14316461455E+03  0.00000000000E+00 0. -1.
         -3    1    6    6    0  503  0.24100079839E+02  0.17990541502E+02 -0.80845777933E+03  0.80901696792E+03  0.00000000000E+00 0.  1.
<mgrwt>
<rscale>  0 0.17214562E+04</rscale>
<asrwt>0</asrwt>
<pdfrwt beam="1">  1        2 0.41623475E+00 0.17214562E+04</pdfrwt>
<pdfrwt beam="2">  1       -1 0.42127619E-01 0.17214562E+04</pdfrwt>
<totfact> 0.15823576E+01</totfact>
</mgrwt>
</event>
<event>
12    7  0.1625631E-007  0.1404549E+04  0.7818608E-02  0.8950533E-01
         -1   -1    0    0    0  501 -0.00000000000E+00  0.00000000000E+00  0.11245338729E+03  0.11245338729E+03  0.00000000000E+00 0.  1.
          2   -1    0    0  501    0  0.00000000000E+00 -0.00000000000E+00 -0.43857212589E+04  0.43857212589E+04  0.00000000000E+00 0. -1.
         24    2    1    2    0    0 -0.55612190902E+02  0.40607795714E+03 -0.12634821331E+04  0.13307751869E+04  0.81138611709E+02 0.  0.
        254    2    1    2    0    0  0.55612190902E+02 -0.40607795714E+03 -0.30097857385E+04  0.31673994593E+04  0.89756176392E+03 0.  0.
         23    2    4    4    0    0  0.46333301730E+03 -0.28839850559E+03 -0.16300640361E+04  0.17212496152E+04  0.87978936737E+02 0.  0.
         23    2    4    4    0    0 -0.40772082640E+03 -0.11767945156E+03 -0.13797217025E+04  0.14461498441E+04  0.87365151744E+02 0.  0.
          4    1    3    3  502    0 -0.45814663581E+02  0.35399752837E+03 -0.11708919806E+04  0.12240920160E+04  0.00000000000E+00 0. -1.
         -3    1    3    3    0  502 -0.97975273208E+01  0.52080428773E+02 -0.92590152530E+02  0.10668317088E+03  0.00000000000E+00 0.  1.
         13    1    5    5    0    0  0.53179913156E+02 -0.66743871904E+02 -0.21284991602E+03  0.22932059294E+03  0.00000000000E+00 0. -1.
        -13    1    5    5    0    0  0.41015310414E+03 -0.22165463368E+03 -0.14172141200E+04  0.14919290223E+04  0.00000000000E+00 0.  1.
          1    1    6    6  503    0 -0.30037156221E+02 -0.28144359919E+02 -0.84071377382E+02  0.93607330077E+02  0.00000000000E+00 0. -1.
         -1    1    6    6    0  503 -0.37768367018E+03 -0.89535091636E+02 -0.12956503251E+04  0.13525425140E+04  0.00000000000E+00 0.  1.
<mgrwt>
<rscale>  0 0.14045486E+04</rscale>
<asrwt>0</asrwt>
<pdfrwt beam="1">  1        2 0.67472651E+00 0.14045486E+04</pdfrwt>
<pdfrwt beam="2">  1       -1 0.17300517E-01 0.14045486E+04</pdfrwt>
<totfact> 0.47435745E+00</totfact>
</mgrwt>
</event>
<event>
12    7  0.1625631E-007  0.1395248E+04  0.7818608E-02  0.8957265E-01
         -1   -1    0    0    0  501 -0.00000000000E+00  0.00000000000E+00  0.43109108561E+03  0.43109108561E+03  0.00000000000E+00 0.  1.
          2   -1    0    0  501    0  0.00000000000E+00 -0.00000000000E+00 -0.11289483634E+04  0.11289483634E+04  0.00000000000E+00 0. -1.
         24    2    1    2    0    0  0.32813892685E+03  0.18401489505E+03  0.15554348386E+02  0.38480131482E+03  0.79331439053E+02 0.  0.
        254    2    1    2    0    0 -0.32813892685E+03 -0.18401489505E+03 -0.71341162614E+03  0.11752381341E+04  0.85480517472E+03 0.  0.
         23    2    4    4    0    0 -0.36147022267E+03 -0.33548506447E+03 -0.69607510062E+02  0.50654876868E+03  0.92387765624E+02 0.  0.
         23    2    4    4    0    0  0.33331295821E+02  0.15147016942E+03 -0.64380411607E+03  0.66868936546E+03  0.92776829535E+02 0.  0.
          2    1    3    3  502    0  0.50003763454E+02  0.47828900414E+02  0.28522616551E+02  0.74843301166E+02  0.00000000000E+00 0. -1.
         -1    1    3    3    0  502  0.27813516339E+03  0.13618599463E+03 -0.12968268165E+02  0.30995801366E+03  0.00000000000E+00 0.  1.
         13    1    5    5    0    0  0.14873144197E+01  0.43056639502E+01 -0.60242552017E+00  0.45949714627E+01  0.00000000000E+00 0. -1.
        -13    1    5    5    0    0 -0.36295753709E+03 -0.33979072842E+03 -0.69005084542E+02  0.50195379722E+03  0.00000000000E+00 0.  1.
          2    1    6    6  503    0  0.40024552110E+01  0.14979684731E+03 -0.50267682857E+03  0.52453704263E+03  0.00000000000E+00 0.  1.
         -2    1    6    6    0  503  0.29328840610E+02  0.16733221140E+01 -0.14112728751E+03  0.14415232283E+03  0.00000000000E+00 0. -1.
<mgrwt>
<rscale>  0 0.13952485E+04</rscale>
<asrwt>0</asrwt>
<pdfrwt beam="1">  1        2 0.17368436E+00 0.13952485E+04</pdfrwt>
<pdfrwt beam="2">  1       -1 0.66321705E-01 0.13952485E+04</pdfrwt>
<totfact> 0.53497290E+01</totfact>
</mgrwt>
</event>
<event>
12    7  0.1625631E-007  0.2013666E+04  0.7818608E-02  0.8600258E-01
         -1   -1    0    0    0  501 -0.00000000000E+00  0.00000000000E+00  0.11196114743E+04  0.11196114743E+04  0.00000000000E+00 0.  1.
          2   -1    0    0  501    0  0.00000000000E+00 -0.00000000000E+00 -0.90541479103E+03  0.90541479103E+03  0.00000000000E+00 0. -1.
         24    2    1    2    0    0  0.66539263447E+03 -0.87802313346E+02  0.52561791420E+03  0.85621494155E+03  0.79832513168E+02 0.  0.
        254    2    1    2    0    0 -0.66539263447E+03  0.87802313346E+02 -0.31142123092E+03  0.11688113238E+04  0.90480944035E+03 0.  0.
         23    2    4    4    0    0 -0.37453686818E+03 -0.39709976621E+03 -0.15681786251E+03  0.57548104657E+03  0.92846663984E+02 0.  0.
         23    2    4    4    0    0 -0.29085576630E+03  0.48490207955E+03 -0.15460336841E+03  0.59333027724E+03  0.91714299950E+02 0.  0.
          4    1    3    3  502    0  0.33242041062E+02 -0.20311153874E+02  0.43101432814E+02  0.58097416262E+02  0.00000000000E+00 0. -1.
         -3    1    3    3    0  502  0.63215059341E+03 -0.67491159472E+02  0.48251648139E+03  0.79811752529E+03  0.00000000000E+00 0.  1.
         13    1    5    5    0    0 -0.14405598272E+03 -0.11337987978E+03 -0.16977665193E+02  0.18410693743E+03  0.00000000000E+00 0. -1.
        -13    1    5    5    0    0 -0.23048088546E+03 -0.28371988643E+03 -0.13984019731E+03  0.39137410914E+03  0.00000000000E+00 0.  1.
          2    1    6    6  503    0 -0.92561257682E+02  0.12548692101E+03 -0.82997499579E+02  0.17664410181E+03  0.00000000000E+00 0. -1.
         -2    1    6    6    0  503 -0.19829450862E+03  0.35941515854E+03 -0.71605868831E+02  0.41668617542E+03  0.00000000000E+00 0.  1.
<mgrwt>
<rscale>  0 0.20136661E+04</rscale>
<asrwt>0</asrwt>
<pdfrwt beam="1">  1        2 0.13929458E+00 0.20136661E+04</pdfrwt>
<pdfrwt beam="2">  1       -1 0.17224792E+00 0.20136661E+04</pdfrwt>
<totfact> 0.72929002E+00</totfact>
</mgrwt>
</event>
<event>
12    7  0.1625631E-007  0.1829464E+04  0.7818608E-02  0.8690786E-01
         -1   -1    0    0    0  501 -0.00000000000E+00  0.00000000000E+00  0.30374395134E+04  0.30374395134E+04  0.00000000000E+00 0.  1.
          2   -1    0    0  501    0  0.00000000000E+00 -0.00000000000E+00 -0.27547353224E+03  0.27547353224E+03  0.00000000000E+00 0. -1.
         24    2    1    2    0    0  0.61582470079E+03  0.29122720628E+03  0.12220336361E+04  0.14013571107E+04  0.79888647922E+02 0.  0.
        254    2    1    2    0    0 -0.61582470079E+03 -0.29122720628E+03  0.15399323450E+04  0.19115559350E+04  0.90476578041E+03 0.  0.
         23    2    4    4    0    0 -0.66582390601E+02 -0.48003917972E+03  0.42411201055E+03  0.65027209333E+03  0.90066470249E+02 0.  0.
         23    2    4    4    0    0 -0.54924231019E+03  0.18881197344E+03  0.11158203345E+04  0.12612838416E+04  0.92004530807E+02 0.  0.
          2    1    3    3  502    0  0.23275930782E+03  0.11784619740E+03  0.39172577819E+03  0.47065242687E+03  0.00000000000E+00 0. -1.
         -1    1    3    3    0  502  0.38306539297E+03  0.17338100888E+03  0.83030785790E+03  0.93070468379E+03  0.00000000000E+00 0.  1.
         13    1    5    5    0    0 -0.24415926686E+02 -0.16259673207E+03  0.89844800320E+02  0.18736574634E+03  0.00000000000E+00 0.  1.
        -13    1    5    5    0    0 -0.42166463915E+02 -0.31744244765E+03  0.33426721023E+03  0.46290634699E+03  0.00000000000E+00 0. -1.
          3    1    6    6  503    0 -0.40515848351E+03  0.17459784613E+03  0.88380651811E+03  0.98780148111E+03  0.00000000000E+00 0. -1.
         -3    1    6    6    0  503 -0.14408382667E+03  0.14214127308E+02  0.23201381638E+03  0.27348236052E+03  0.00000000000E+00 0.  1.
<mgrwt>
<rscale>  0 0.18294635E+04</rscale>
<asrwt>0</asrwt>
<pdfrwt beam="1">  1        2 0.42380545E-01 0.18294635E+04</pdfrwt>
<pdfrwt beam="2">  1       -1 0.46729836E+00 0.18294635E+04</pdfrwt>
<totfact> 0.32060747E-01</totfact>
</mgrwt>
</event>
<event>
12    7  0.1625631E-007  0.1869535E+04  0.7818608E-02  0.8670171E-01
          2   -1    0    0  501    0  0.00000000000E+00  0.00000000000E+00  0.18382668712E+04  0.18382668712E+04  0.00000000000E+00 0. -1.
         -1   -1    0    0    0  501 -0.00000000000E+00 -0.00000000000E+00 -0.47533356714E+03  0.47533356714E+03  0.00000000000E+00 0.  1.
         24    2    1    2    0    0 -0.39071431512E+03 -0.59601067130E+03  0.52244099821E+03  0.88720174547E+03  0.79346986124E+02 0.  0.
        254    2    1    2    0    0  0.39071431512E+03  0.59601067130E+03  0.84049230587E+03  0.14263986929E+04  0.90570388015E+03 0.  0.
         23    2    4    4    0    0  0.36007834990E+03  0.29668848489E+03  0.97451705971E+03  0.10843097974E+04  0.91453605010E+02 0.  0.
         23    2    4    4    0    0  0.30635965211E+02  0.29932218641E+03 -0.13402475384E+03  0.34208889552E+03  0.92357155397E+02 0.  0.
          2    1    3    3  502    0 -0.25048684049E+03 -0.39506692356E+03  0.38770625400E+03  0.60756700926E+03  0.00000000000E+00 0. -1.
         -1    1    3    3    0  502 -0.14022747463E+03 -0.20094374774E+03  0.13473474421E+03  0.27963473621E+03  0.00000000000E+00 0.  1.
         13    1    5    5    0    0  0.14072352590E+03  0.12951128148E+03  0.50194354220E+03  0.53714393074E+03  0.00000000000E+00 0.  1.
        -13    1    5    5    0    0  0.21935482401E+03  0.16717720341E+03  0.47257351751E+03  0.54716586663E+03  0.00000000000E+00 0. -1.
          1    1    6    6  503    0  0.97818257005E+01  0.27004617075E+03 -0.14201330131E+03  0.30526774510E+03  0.00000000000E+00 0. -1.
         -1    1    6    6    0  503  0.20854139511E+02  0.29276015664E+02  0.79885474621E+01  0.36821150423E+02  0.00000000000E+00 0.  1.
<mgrwt>
<rscale>  0 0.18695346E+04</rscale>
<asrwt>0</asrwt>
<pdfrwt beam="1">  1        2 0.28281029E+00 0.18695346E+04</pdfrwt>
<pdfrwt beam="2">  1       -1 0.73128242E-01 0.18695346E+04</pdfrwt>
<totfact> 0.16558171E+01</totfact>
</mgrwt>
</event>
<event>
12    7  0.1625631E-007  0.1833403E+04  0.7818608E-02  0.8688735E-01
         -1   -1    0    0    0  501 -0.00000000000E+00  0.00000000000E+00  0.34618023510E+03  0.34618023510E+03  0.00000000000E+00 0.  1.
          2   -1    0    0  501    0  0.00000000000E+00 -0.00000000000E+00 -0.24274679377E+04  0.24274679377E+04  0.00000000000E+00 0. -1.
         24    2    1    2    0    0 -0.24069729345E+03  0.12924758033E+02 -0.17595978806E+04  0.17778689819E+04  0.80815709824E+02 0.  0.
        254    2    1    2    0    0  0.24069729345E+03 -0.12924758033E+02 -0.32168982193E+03  0.99577919082E+03  0.91103766053E+03 0.  0.
         23    2    4    4    0    0 -0.36167456777E+02  0.43159503965E+02  0.29318102982E+03  0.31251824339E+03  0.92421363844E+02 0.  0.
         23    2    4    4    0    0  0.27686475023E+03 -0.56084261998E+02 -0.61487085175E+03  0.68326094743E+03  0.94761931156E+02 0.  0.
          4    1    3    3  502    0 -0.24481331922E+03  0.10938534948E+02 -0.16423499725E+04  0.16605320367E+04  0.00000000000E+00 0. -1.
         -3    1    3    3    0  502  0.41160257631E+01  0.19862230856E+01 -0.11724790814E+03  0.11733694522E+03  0.00000000000E+00 0.  1.
         13    1    5    5    0    0  0.29210786453E+02  0.11038919338E+02  0.52802071245E+02  0.61344816513E+02  0.00000000000E+00 0. -1.
        -13    1    5    5    0    0 -0.65378243230E+02  0.32120584627E+02  0.24037895857E+03  0.25117342688E+03  0.00000000000E+00 0.  1.
          3    1    6    6  503    0  0.38629168292E+02 -0.14327143624E+02 -0.18956988134E+03  0.19399541128E+03  0.00000000000E+00 0. -1.
         -3    1    6    6    0  503  0.23823558194E+03 -0.41757118374E+02 -0.42530097040E+03  0.48926553615E+03  0.00000000000E+00 0.  1.
<mgrwt>
<rscale>  0 0.18334028E+04</rscale>
<asrwt>0</asrwt>
<pdfrwt beam="1">  1        2 0.37345660E+00 0.18334028E+04</pdfrwt>
<pdfrwt beam="2">  1       -1 0.53258498E-01 0.18334028E+04</pdfrwt>
<totfact> 0.14626040E+01</totfact>
</mgrwt>
</event>
<event>
12    7  0.1625631E-007  0.1750777E+04  0.7818608E-02  0.8732923E-01
          2   -1    0    0  501    0  0.00000000000E+00  0.00000000000E+00  0.44240431362E+04  0.44240431362E+04  0.00000000000E+00 0. -1.
         -1   -1    0    0    0  501 -0.00000000000E+00 -0.00000000000E+00 -0.17321370910E+03  0.17321370910E+03  0.00000000000E+00 0.  1.
         24    2    1    2    0    0 -0.16435414920E+03 -0.55409598951E+03  0.75499113254E+03  0.95495136696E+03  0.88802314612E+02 0.  0.
        254    2    1    2    0    0  0.16435414920E+03  0.55409598951E+03  0.34958382946E+04  0.36423054784E+04  0.84348631523E+03 0.  0.
         23    2    4    4    0    0  0.35183292999E+03  0.24218781710E+03  0.29376510154E+04  0.29699576461E+04  0.91725581910E+02 0.  0.
         23    2    4    4    0    0 -0.18747878080E+03  0.31190817242E+03  0.55818727920E+03  0.67234783222E+03  0.89685938516E+02 0.  0.
          4    1    3    3  502    0 -0.19409537910E+02 -0.20998780475E+03  0.25432754726E+03  0.33038479021E+03  0.00000000000E+00 0. -1.
         -1    1    3    3    0  502 -0.14494461129E+03 -0.34410818476E+03  0.50066358528E+03  0.62456657674E+03  0.00000000000E+00 0.  1.
         13    1    5    5    0    0  0.15891319567E+03  0.16311052577E+03  0.16141082122E+04  0.16300931777E+04  0.00000000000E+00 0. -1.
        -13    1    5    5    0    0  0.19291973432E+03  0.79077291328E+02  0.13235428032E+04  0.13398644684E+04  0.00000000000E+00 0.  1.
          3    1    6    6  503    0 -0.92279137703E+02  0.21927393663E+03  0.30903506940E+03  0.38999893930E+03  0.00000000000E+00 0. -1.
         -3    1    6    6    0  503 -0.95199643092E+02  0.92634235789E+02  0.24915220980E+03  0.28234889292E+03  0.00000000000E+00 0.  1.
<mgrwt>
<rscale>  0 0.17507769E+04</rscale>
<asrwt>0</asrwt>
<pdfrwt beam="1">  1        2 0.68062194E+00 0.17507769E+04</pdfrwt>
<pdfrwt beam="2">  1       -1 0.26648266E-01 0.17507769E+04</pdfrwt>
<totfact> 0.20179514E+00</totfact>
</mgrwt>
</event>
<event>
12    7  0.1625631E-007  0.1558110E+04  0.7818608E-02  0.8846704E-01
          2   -1    0    0  501    0  0.00000000000E+00  0.00000000000E+00  0.14114292160E+04  0.14114292160E+04  0.00000000000E+00 0. -1.
         -1   -1    0    0    0  501 -0.00000000000E+00 -0.00000000000E+00 -0.43000857122E+03  0.43000857122E+03  0.00000000000E+00 0.  1.
         24    2    1    2    0    0 -0.18305191669E+03  0.48471465271E+03  0.39940183574E+03  0.65890250785E+03  0.78577284866E+02 0.  0.
        254    2    1    2    0    0  0.18305191669E+03 -0.48471465271E+03  0.58201880904E+03  0.11825352794E+04  0.88948720852E+03 0.  0.
         23    2    4    4    0    0  0.11376948102E+03 -0.28464714024E+03  0.80267753849E+03  0.86399117735E+03  0.90675434873E+02 0.  0.
         23    2    4    4    0    0  0.69282435667E+02 -0.20006751248E+03 -0.22065872945E+03  0.31854410201E+03  0.89179619888E+02 0.  0.
          4    1    3    3  502    0 -0.16794133528E+03  0.47011315418E+03  0.36433342213E+03  0.61802064068E+03  0.00000000000E+00 0. -1.
         -3    1    3    3    0  502 -0.15110581410E+02  0.14601498534E+02  0.35068413604E+02  0.40881867163E+02  0.00000000000E+00 0.  1.
         13    1    5    5    0    0  0.11895662161E+03 -0.24575183985E+03  0.75109533627E+03  0.79918011035E+03  0.00000000000E+00 0. -1.
        -13    1    5    5    0    0 -0.51871405897E+01 -0.38895300393E+02  0.51582202219E+02  0.64811067002E+02  0.00000000000E+00 0.  1.
          2    1    6    6  503    0  0.34928069172E+02 -0.11324859948E+03 -0.18266209902E+03  0.21773988546E+03  0.00000000000E+00 0. -1.
         -2    1    6    6    0  503  0.34354366495E+02 -0.86818912993E+02 -0.37996630428E+02  0.10080421655E+03  0.00000000000E+00 0.  1.
<mgrwt>
<rscale>  0 0.15581100E+04</rscale>
<asrwt>0</asrwt>
<pdfrwt beam="1">  1        2 0.21714295E+00 0.15581100E+04</pdfrwt>
<pdfrwt beam="2">  1       -1 0.66155166E-01 0.15581100E+04</pdfrwt>
<totfact> 0.36187972E+01</totfact>
</mgrwt>
</event>
<event>
12    7  0.1625631E-007  0.1601185E+04  0.7818608E-02  0.8819821E-01
          2   -1    0    0  501    0  0.00000000000E+00  0.00000000000E+00  0.21503753561E+04  0.21503753561E+04  0.00000000000E+00 0. -1.
         -1   -1    0    0    0  501 -0.00000000000E+00 -0.00000000000E+00 -0.29806330871E+03  0.29806330871E+03  0.00000000000E+00 0.  1.
         24    2    1    2    0    0 -0.25366187752E+03 -0.42289306352E+03  0.78454252906E+03  0.93025648858E+03  0.81775689242E+02 0.  0.
        254    2    1    2    0    0  0.25366187752E+03  0.42289306352E+03  0.10677695184E+04  0.15181821763E+04  0.95998046059E+03 0.  0.
         23    2    4    4    0    0  0.44763306141E+03  0.31338572734E+03  0.11393181374E+04  0.12664222914E+04  0.84815270851E+02 0.  0.
         23    2    4    4    0    0 -0.19397118389E+03  0.10950733617E+03 -0.71548619074E+02  0.25175988483E+03  0.92990095522E+02 0.  0.
          4    1    3    3  502    0 -0.25525443346E+03 -0.40482270777E+03  0.73101509554E+03  0.87373870261E+03  0.00000000000E+00 0. -1.
         -3    1    3    3    0  502  0.15925559347E+01 -0.18070355741E+02  0.53527433525E+02  0.56517785969E+02  0.00000000000E+00 0.  1.
         13    1    5    5    0    0  0.14954664588E+03  0.97386293593E+02  0.46672859296E+03  0.49968376896E+03  0.00000000000E+00 0.  1.
        -13    1    5    5    0    0  0.29808641553E+03  0.21599943375E+03  0.67258954447E+03  0.76673852247E+03  0.00000000000E+00 0. -1.
          4    1    6    6  503    0 -0.18660161339E+03  0.12467299527E+03 -0.64678998649E+02  0.23355275793E+03  0.00000000000E+00 0. -1.
         -4    1    6    6    0  503 -0.73695704954E+01 -0.15165659100E+02 -0.68696204249E+01  0.18207126902E+02  0.00000000000E+00 0.  1.
<mgrwt>
<rscale>  0 0.16011846E+04</rscale>
<asrwt>0</asrwt>
<pdfrwt beam="1">  1        2 0.33082697E+00 0.16011846E+04</pdfrwt>
<pdfrwt beam="2">  1       -1 0.45855895E-01 0.16011846E+04</pdfrwt>
<totfact> 0.28445207E+01</totfact>
</mgrwt>
</event>
<event>
12    7  0.1625631E-007  0.1439621E+04  0.7818608E-02  0.8925628E-01
          2   -1    0    0  501    0  0.00000000000E+00  0.00000000000E+00  0.10648911878E+04  0.10648911878E+04  0.00000000000E+00 0. -1.
         -1   -1    0    0    0  501 -0.00000000000E+00 -0.00000000000E+00 -0.48655400160E+03  0.48655400160E+03  0.00000000000E+00 0.  1.
         24    2    1    2    0    0  0.11399035183E+03 -0.19962210101E+03 -0.21887233779E+03  0.32728312751E+03  0.79789484142E+02 0.  0.
        254    2    1    2    0    0 -0.11399035183E+03  0.19962210101E+03  0.79720952398E+03  0.12241620619E+04  0.90010385240E+03 0.  0.
         23    2    4    4    0    0 -0.47828923641E+03  0.31703927880E+02  0.58420873425E+03  0.76086393617E+03  0.88590922150E+02 0.  0.
         23    2    4    4    0    0  0.36429888459E+03  0.16791817313E+03  0.21300078973E+03  0.46329812570E+03  0.91463799808E+02 0.  0.
          2    1    3    3  502    0  0.82888454345E+02 -0.67439103889E+02 -0.84329087686E+02  0.13612466208E+03  0.00000000000E+00 0. -1.
         -1    1    3    3    0  502  0.31101897481E+02 -0.13218299712E+03 -0.13454325011E+03  0.19115846542E+03  0.00000000000E+00 0.  1.
         13    1    5    5    0    0 -0.37061567888E+03 -0.12357683590E+02  0.43322123987E+03  0.57025374742E+03  0.00000000000E+00 0. -1.
        -13    1    5    5    0    0 -0.10767355753E+03  0.44061611470E+02  0.15098749438E+03  0.19061018875E+03  0.00000000000E+00 0.  1.
          4    1    6    6  503    0  0.23313546622E+03  0.11297281101E+03  0.86950926377E+02  0.27326811968E+03  0.00000000000E+00 0. -1.
         -4    1    6    6    0  503  0.13116341837E+03  0.54945362112E+02  0.12604986336E+03  0.19003000602E+03  0.00000000000E+00 0.  1.
<mgrwt>
<rscale>  0 0.14396209E+04</rscale>
<asrwt>0</asrwt>
<pdfrwt beam="1">  1        2 0.16382941E+00 0.14396209E+04</pdfrwt>
<pdfrwt beam="2">  1       -1 0.74854462E-01 0.14396209E+04</pdfrwt>
<totfact> 0.45537368E+01</totfact>
</mgrwt>
</event>
<event>
12    7  0.1625631E-007  0.1068177E+04  0.7818608E-02  0.9236776E-01
          2   -1    0    0  501    0  0.00000000000E+00  0.00000000000E+00  0.53431518549E+03  0.53431518549E+03  0.00000000000E+00 0. -1.
         -1   -1    0    0    0  501 -0.00000000000E+00 -0.00000000000E+00 -0.53386225515E+03  0.53386225515E+03  0.00000000000E+00 0.  1.
         24    2    1    2    0    0 -0.69081156813E+02  0.22424522788E+01  0.10931467500E+03  0.15136790757E+03  0.78646744699E+02 0.  0.
        254    2    1    2    0    0  0.69081156813E+02 -0.22424522788E+01 -0.10886174466E+03  0.91680953307E+03  0.90769576713E+03 0.  0.
         23    2    4    4    0    0 -0.23753078332E+03 -0.34559550134E+03  0.21428869694E+02  0.42984165787E+03  0.91910449980E+02 0.  0.
         23    2    4    4    0    0  0.30661194013E+03  0.34335304906E+03 -0.13029061436E+03  0.48696787521E+03  0.90883822362E+02 0.  0.
          4    1    3    3  502    0 -0.29647594340E+02  0.37515834388E+02  0.72739999721E+02  0.87048981840E+02  0.00000000000E+00 0. -1.
         -3    1    3    3    0  502 -0.39433562473E+02 -0.35273382110E+02  0.36574675279E+02  0.64318925726E+02  0.00000000000E+00 0.  1.
         13    1    5    5    0    0 -0.10334686255E+03 -0.22140154992E+03  0.33431810191E+02  0.24661083966E+03  0.00000000000E+00 0. -1.
        -13    1    5    5    0    0 -0.13418392076E+03 -0.12419395142E+03 -0.12002940497E+02  0.18323081821E+03  0.00000000000E+00 0.  1.
          1    1    6    6  503    0  0.15422374937E+03  0.10595128380E+03 -0.52343092275E+02  0.19429472128E+03  0.00000000000E+00 0. -1.
         -1    1    6    6    0  503  0.15238819076E+03  0.23740176526E+03 -0.77947522080E+02  0.29267315393E+03  0.00000000000E+00 0.  1.
<mgrwt>
<rscale>  0 0.10681773E+04</rscale>
<asrwt>0</asrwt>
<pdfrwt beam="1">  1        2 0.82202336E-01 0.10681773E+04</pdfrwt>
<pdfrwt beam="2">  1       -1 0.82132655E-01 0.10681773E+04</pdfrwt>
<totfact> 0.95582237E+01</totfact>
</mgrwt>
</event>
<event>
12    7  0.1625631E-007  0.2108717E+04  0.7818608E-02  0.8557413E-01
          2   -1    0    0  501    0  0.00000000000E+00  0.00000000000E+00  0.59910935344E+03  0.59910935344E+03  0.00000000000E+00 0. -1.
         -1   -1    0    0    0  501 -0.00000000000E+00 -0.00000000000E+00 -0.18555403159E+04  0.18555403159E+04  0.00000000000E+00 0.  1.
         24    2    1    2    0    0 -0.60822550431E+03 -0.61099201819E+03 -0.33806217294E+03  0.93011202762E+03  0.87022070593E+02 0.  0.
        254    2    1    2    0    0  0.60822550431E+03  0.61099201819E+03 -0.91836878953E+03  0.15245376417E+04  0.85881562461E+03 0.  0.
         23    2    4    4    0    0  0.70804822491E+03  0.64976546374E+03 -0.50773034369E+03  0.10907667113E+04  0.91948191925E+02 0.  0.
         23    2    4    4    0    0 -0.99822720600E+02 -0.38773445552E+02 -0.41063844583E+03  0.43377093038E+03  0.89807189119E+02 0.  0.
          2    1    3    3  502    0 -0.73737133555E+01 -0.19722558561E+02 -0.20236295303E+02  0.29203743123E+02  0.00000000000E+00 0. -1.
         -1    1    3    3    0  502 -0.60085179096E+03 -0.59126945962E+03 -0.31782587764E+03  0.90090828450E+03  0.00000000000E+00 0.  1.
         13    1    5    5    0    0  0.61110023824E+03  0.51454850291E+03 -0.42705454314E+03  0.90585829236E+03  0.00000000000E+00 0. -1.
        -13    1    5    5    0    0  0.96947986671E+02  0.13521696082E+03 -0.80675800557E+02  0.18490841898E+03  0.00000000000E+00 0.  1.
          3    1    6    6  503    0 -0.11701086680E+03 -0.35253580275E+02 -0.36082202466E+03  0.38095523537E+03  0.00000000000E+00 0. -1.
         -3    1    6    6    0  503  0.17188146201E+02 -0.35198652762E+01 -0.49816421168E+02  0.52815695010E+02  0.00000000000E+00 0.  1.
<mgrwt>
<rscale>  0 0.21087167E+04</rscale>
<asrwt>0</asrwt>
<pdfrwt beam="1">  1        2 0.92170671E-01 0.21087167E+04</pdfrwt>
<pdfrwt beam="2">  1       -1 0.28546774E+00 0.21087167E+04</pdfrwt>
<totfact> 0.21437251E+00</totfact>
</mgrwt>
</event>
<event>
12    7  0.1625631E-007  0.1550051E+04  0.7818608E-02  0.8851835E-01
          2   -1    0    0  501    0  0.00000000000E+00  0.00000000000E+00  0.14691871258E+04  0.14691871258E+04  0.00000000000E+00 0. -1.
         -1   -1    0    0    0  501 -0.00000000000E+00 -0.00000000000E+00 -0.40884132381E+03  0.40884132381E+03  0.00000000000E+00 0.  1.
         24    2    1    2    0    0 -0.12244952088E+03  0.24406340460E+03  0.87007995079E+03  0.91556160504E+03  0.81566544686E+02 0.  0.
        254    2    1    2    0    0  0.12244952088E+03 -0.24406340460E+03  0.19026585124E+03  0.96246684462E+03  0.90309495747E+03 0.  0.
         23    2    4    4    0    0 -0.39585843055E+02  0.25479226591E+02 -0.33173869710E+03  0.34632542780E+03  0.87604274030E+02 0.  0.
         23    2    4    4    0    0  0.16203536394E+03 -0.26954263119E+03  0.52200454834E+03  0.61614141682E+03  0.90734821540E+02 0.  0.
          2    1    3    3  502    0 -0.84949286209E+02  0.19892020543E+03  0.76732352971E+03  0.79722708722E+03  0.00000000000E+00 0. -1.
         -1    1    3    3    0  502 -0.37500234674E+02  0.45143199172E+02  0.10275642109E+03  0.11833451782E+03  0.00000000000E+00 0.  1.
         13    1    5    5    0    0 -0.36918514128E+02 -0.20064247552E+02 -0.78774723378E+02  0.89280500439E+02  0.00000000000E+00 0.  1.
        -13    1    5    5    0    0 -0.26673289269E+01  0.45543474142E+02 -0.25296397372E+03  0.25704492736E+03  0.00000000000E+00 0. -1.
          2    1    6    6  503    0  0.14131961613E+03 -0.20175303649E+03  0.33240994721E+03  0.41372925282E+03  0.00000000000E+00 0. -1.
         -2    1    6    6    0  503  0.20715747804E+02 -0.67789594699E+02  0.18959460114E+03  0.20241216400E+03  0.00000000000E+00 0.  1.
<mgrwt>
<rscale>  0 0.15500509E+04</rscale>
<asrwt>0</asrwt>
<pdfrwt beam="1">  1        2 0.22602879E+00 0.15500509E+04</pdfrwt>
<pdfrwt beam="2">  1       -1 0.62898666E-01 0.15500509E+04</pdfrwt>
<totfact> 0.37159505E+01</totfact>
</mgrwt>
</event>
<event>
12    7  0.1625631E-007  0.3845071E+04  0.7818608E-02  0.8036551E-01
         -1   -1    0    0    0  501 -0.00000000000E+00  0.00000000000E+00  0.15059118498E+04  0.15059118498E+04  0.00000000000E+00 0.  1.
          2   -1    0    0  501    0  0.00000000000E+00 -0.00000000000E+00 -0.24544220472E+04  0.24544220472E+04  0.00000000000E+00 0. -1.
         24    2    1    2    0    0  0.14624217939E+04 -0.13966941780E+03 -0.15408057698E+04  0.21303214263E+04  0.77471992457E+02 0.  0.
        254    2    1    2    0    0 -0.14624217939E+04  0.13966941780E+03  0.59229557241E+03  0.18300124707E+04  0.91648597826E+03 0.  0.
         23    2    4    4    0    0 -0.11808826539E+04 -0.21129199430E+03  0.64878020191E+03  0.13668684280E+04  0.91024172900E+02 0.  0.
         23    2    4    4    0    0 -0.28153914002E+03  0.35096141210E+03 -0.56484629503E+02  0.46314404269E+03  0.94200269440E+02 0.  0.
          2    1    3    3  502    0  0.13634469604E+04 -0.12554675963E+03 -0.14066709913E+04  0.19630264594E+04  0.00000000000E+00 0. -1.
         -1    1    3    3    0  502  0.98974833530E+02 -0.14122658169E+02 -0.13413477850E+03  0.16729496690E+03  0.00000000000E+00 0.  1.
         13    1    5    5    0    0 -0.52028428329E+03 -0.13006575206E+03  0.32011211402E+03  0.62456753105E+03  0.00000000000E+00 0. -1.
        -13    1    5    5    0    0 -0.66059837061E+03 -0.81226242236E+02  0.32866808790E+03  0.74230089700E+03  0.00000000000E+00 0.  1.
          2    1    6    6  503    0 -0.16659533440E+03  0.16444807431E+03 -0.67968615145E+02  0.24375583528E+03  0.00000000000E+00 0. -1.
         -2    1    6    6    0  503 -0.11494380562E+03  0.18651333779E+03  0.11483985642E+02  0.21938820741E+03  0.00000000000E+00 0.  1.
<mgrwt>
<rscale>  0 0.38450713E+04</rscale>
<asrwt>0</asrwt>
<pdfrwt beam="1">  1        2 0.37760339E+00 0.38450713E+04</pdfrwt>
<pdfrwt beam="2">  1       -1 0.23167875E+00 0.38450713E+04</pdfrwt>
<totfact> 0.30900853E-01</totfact>
</mgrwt>
</event>
<event>
12    7  0.1625631E-007  0.1998851E+04  0.7818608E-02  0.8607158E-01
          2   -1    0    0  501    0  0.00000000000E+00  0.00000000000E+00  0.17841363715E+04  0.17841363715E+04  0.00000000000E+00 0. -1.
         -1   -1    0    0    0  501 -0.00000000000E+00 -0.00000000000E+00 -0.55985121611E+03  0.55985121611E+03  0.00000000000E+00 0.  1.
         24    2    1    2    0    0  0.59416685474E+02 -0.41537106412E+03 -0.30177000187E+03  0.52296272658E+03  0.79758485086E+02 0.  0.
        254    2    1    2    0    0 -0.59416685474E+02  0.41537106412E+03  0.15260551573E+04  0.18210248611E+04  0.90067959792E+03 0.  0.
         23    2    4    4    0    0  0.21378080619E+03  0.60574985695E+03  0.95073105221E+03  0.11509944560E+04  0.90904245630E+02 0.  0.
         23    2    4    4    0    0 -0.27319749166E+03 -0.19037879283E+03  0.57532410509E+03  0.67003040505E+03  0.84035490078E+02 0.  0.
          4    1    3    3  502    0  0.18849493747E+02 -0.18552591412E+03 -0.86961900039E+02  0.20576088132E+03  0.00000000000E+00 0. -1.
         -3    1    3    3    0  502  0.40567191727E+02 -0.22984515001E+03 -0.21480810183E+03  0.31720184526E+03  0.00000000000E+00 0.  1.
         13    1    5    5    0    0  0.18616916079E+03  0.43513655134E+03  0.74062626532E+03  0.87893688034E+03  0.00000000000E+00 0. -1.
        -13    1    5    5    0    0  0.27611645391E+02  0.17061330561E+03  0.21010478689E+03  0.27205757568E+03  0.00000000000E+00 0.  1.
          2    1    6    6  503    0 -0.24349107030E+03 -0.16254094207E+03  0.43825820356E+03  0.52704621444E+03  0.00000000000E+00 0. -1.
         -2    1    6    6    0  503 -0.29706421364E+02 -0.27837850756E+02  0.13706590153E+03  0.14298419062E+03  0.00000000000E+00 0.  1.
<mgrwt>
<rscale>  0 0.19988506E+04</rscale>
<asrwt>0</asrwt>
<pdfrwt beam="1">  1        2 0.27448252E+00 0.19988506E+04</pdfrwt>
<pdfrwt beam="2">  1       -1 0.86130957E-01 0.19988506E+04</pdfrwt>
<totfact> 0.12394095E+01</totfact>
</mgrwt>
</event>
<event>
12    7  0.1625631E-007  0.1245058E+04  0.7818608E-02  0.9074306E-01
          2   -1    0    0  501    0  0.00000000000E+00  0.00000000000E+00  0.28482117900E+03  0.28482117900E+03  0.00000000000E+00 0. -1.
         -1   -1    0    0    0  501 -0.00000000000E+00 -0.00000000000E+00 -0.13606519745E+04  0.13606519745E+04  0.00000000000E+00 0.  1.
         24    2    1    2    0    0 -0.21085582678E+03 -0.18012380863E+03 -0.41281057778E+03  0.50419160884E+03  0.83017101711E+02 0.  0.
        254    2    1    2    0    0  0.21085582678E+03  0.18012380863E+03 -0.66302021767E+03  0.11412815446E+04  0.88657937540E+03 0.  0.
         23    2    4    4    0    0 -0.24620458424E+03  0.33913065303E+03 -0.39026866973E+03  0.57979297994E+03  0.90686095346E+02 0.  0.
         23    2    4    4    0    0  0.45706041102E+03 -0.15900684440E+03 -0.27275154794E+03  0.56148856466E+03  0.81783894829E+02 0.  0.
          2    1    3    3  502    0 -0.19567132881E+03 -0.13824639024E+03 -0.37854981350E+03  0.44799474844E+03  0.00000000000E+00 0. -1.
         -3    1    3    3    0  502 -0.15184497972E+02 -0.41877418389E+02 -0.34260764283E+02  0.56196860400E+02  0.00000000000E+00 0.  1.
         13    1    5    5    0    0 -0.13475844434E+03  0.17147130484E+03 -0.14237240342E+03  0.26044605576E+03  0.00000000000E+00 0. -1.
        -13    1    5    5    0    0 -0.11144613990E+03  0.16765934820E+03 -0.24789626631E+03  0.31934692418E+03  0.00000000000E+00 0.  1.
          1    1    6    6  503    0  0.72058720851E+02 -0.32984476830E+02 -0.13122433550E+02  0.80328284089E+02  0.00000000000E+00 0.  1.
         -1    1    6    6    0  503  0.38500169017E+03 -0.12602236757E+03 -0.25962911439E+03  0.48116028057E+03  0.00000000000E+00 0. -1.
<mgrwt>
<rscale>  0 0.12450582E+04</rscale>
<asrwt>0</asrwt>
<pdfrwt beam="1">  1        2 0.43818642E-01 0.12450582E+04</pdfrwt>
<pdfrwt beam="2">  1       -1 0.20933108E+00 0.12450582E+04</pdfrwt>
<totfact> 0.17045531E+01</totfact>
</mgrwt>
</event>
<event>
12    7  0.1625631E-007  0.1852409E+04  0.7818608E-02  0.8678915E-01
         -1   -1    0    0    0  501 -0.00000000000E+00  0.00000000000E+00  0.59051563477E+03  0.59051563477E+03  0.00000000000E+00 0.  1.
          2   -1    0    0  501    0  0.00000000000E+00 -0.00000000000E+00 -0.14527209624E+04  0.14527209624E+04  0.00000000000E+00 0. -1.
         24    2    1    2    0    0 -0.42923098717E+03 -0.12868816148E+03  0.25616196346E+03  0.52211324274E+03  0.78634620065E+02 0.  0.
        254    2    1    2    0    0  0.42923098717E+03  0.12868816148E+03 -0.11183672911E+04  0.15211233544E+04  0.92858547177E+03 0.  0.
         23    2    4    4    0    0  0.52259756558E+03  0.22169519842E+03 -0.23171995787E+03  0.61992120808E+03  0.91384839023E+02 0.  0.
         23    2    4    4    0    0 -0.93366578414E+02 -0.93007036941E+02 -0.88664733324E+03  0.90120214637E+03  0.93027889279E+02 0.  0.
          2    1    3    3  502    0 -0.12375431583E+03 -0.53925510114E+02  0.11523679512E+03  0.17748974696E+03  0.00000000000E+00 0. -1.
         -1    1    3    3    0  502 -0.30547667134E+03 -0.74762651361E+02  0.14092516834E+03  0.34462349578E+03  0.00000000000E+00 0.  1.
         13    1    5    5    0    0  0.48085778863E+03  0.20643556230E+03 -0.18397885701E+03  0.55469638010E+03  0.00000000000E+00 0. -1.
        -13    1    5    5    0    0  0.41739776957E+02  0.15259636112E+02 -0.47741100859E+02  0.65224827987E+02  0.00000000000E+00 0.  1.
          4    1    6    6  503    0  0.42424139320E+01 -0.13660529057E+02 -0.33867952482E+03  0.33898145770E+03  0.00000000000E+00 0.  1.
         -4    1    6    6    0  503 -0.97608992346E+02 -0.79346507884E+02 -0.54796780842E+03  0.56222068867E+03  0.00000000000E+00 0. -1.
<mgrwt>
<rscale>  0 0.18524086E+04</rscale>
<asrwt>0</asrwt>
<pdfrwt beam="1">  1        2 0.22349553E+00 0.18524086E+04</pdfrwt>
<pdfrwt beam="2">  1       -1 0.90848559E-01 0.18524086E+04</pdfrwt>
<totfact> 0.17113908E+01</totfact>
</mgrwt>
</event>
<event>
12    7  0.1625631E-007  0.1640592E+04  0.7818608E-02  0.8795992E-01
          2   -1    0    0  501    0  0.00000000000E+00  0.00000000000E+00  0.74302889452E+03  0.74302889452E+03  0.00000000000E+00 0. -1.
         -1   -1    0    0    0  501 -0.00000000000E+00 -0.00000000000E+00 -0.90559803038E+03  0.90559803038E+03  0.00000000000E+00 0.  1.
         24    2    1    2    0    0  0.39901039923E+03 -0.83074259974E+02 -0.44897522545E+03  0.61157888838E+03  0.79620049504E+02 0.  0.
        254    2    1    2    0    0 -0.39901039923E+03  0.83074259974E+02  0.28640608959E+03  0.10370480365E+04  0.90957657760E+03 0.  0.
         23    2    4    4    0    0  0.53432738265E+02 -0.28011159584E+03 -0.11975782377E+03  0.32290968260E+03  0.92796352935E+02 0.  0.
         23    2    4    4    0    0 -0.45244313750E+03  0.36318585582E+03  0.40616391335E+03  0.71413835392E+03  0.91737154397E+02 0.  0.
          4    1    3    3  502    0  0.69257311705E+02 -0.12844099006E+02 -0.38097081862E+02  0.80080795140E+02  0.00000000000E+00 0. -1.
         -3    1    3    3    0  502  0.32975308753E+03 -0.70230160968E+02 -0.41087814358E+03  0.53149809324E+03  0.00000000000E+00 0.  1.
         13    1    5    5    0    0  0.51228189055E+02 -0.13947004058E+03 -0.10401907284E+03  0.18137306053E+03  0.00000000000E+00 0. -1.
        -13    1    5    5    0    0  0.22045492100E+01 -0.14064155527E+03 -0.15738750926E+02  0.14153662206E+03  0.00000000000E+00 0.  1.
          2    1    6    6  503    0 -0.30445313557E+03  0.27562495270E+03  0.32636353719E+03  0.52457028577E+03  0.00000000000E+00 0. -1.
         -2    1    6    6    0  503 -0.14799000193E+03  0.87560903119E+02  0.79800376162E+02  0.18956806815E+03  0.00000000000E+00 0.  1.
<mgrwt>
<rscale>  0 0.16405920E+04</rscale>
<asrwt>0</asrwt>
<pdfrwt beam="1">  1        2 0.11431214E+00 0.16405920E+04</pdfrwt>
<pdfrwt beam="2">  1       -1 0.13932277E+00 0.16405920E+04</pdfrwt>
<totfact> 0.17591093E+01</totfact>
</mgrwt>
</event>
<event>
12    7  0.1625631E-007  0.1537050E+04  0.7818608E-02  0.8860182E-01
          2   -1    0    0  501    0  0.00000000000E+00  0.00000000000E+00  0.34858059875E+03  0.34858059875E+03  0.00000000000E+00 0. -1.
         -1   -1    0    0    0  501 -0.00000000000E+00 -0.00000000000E+00 -0.16943880086E+04  0.16943880086E+04  0.00000000000E+00 0.  1.
         24    2    1    2    0    0 -0.45500939852E+03 -0.19078062102E+03 -0.57951989989E+03  0.76547790504E+03  0.81745401397E+02 0.  0.
        254    2    1    2    0    0  0.45500939852E+03  0.19078062102E+03 -0.76628750998E+03  0.12774907023E+04  0.89518442149E+03 0.  0.
         23    2    4    4    0    0  0.17954161625E+03  0.47635241016E+03 -0.14898252133E+03  0.53800916872E+03  0.90062552342E+02 0.  0.
         23    2    4    4    0    0  0.27546778227E+03 -0.28557178913E+03 -0.61730498864E+03  0.73948153361E+03  0.91289340727E+02 0.  0.
          2    1    3    3  502    0 -0.34719504268E+03 -0.15525235506E+03 -0.49350752157E+03  0.62305486536E+03  0.00000000000E+00 0. -1.
         -3    1    3    3    0  502 -0.10781435584E+03 -0.35528265963E+02 -0.86012378321E+02  0.14242303968E+03  0.00000000000E+00 0.  1.
         13    1    5    5    0    0  0.16253252105E+03  0.31857173172E+03 -0.90795451452E+02  0.36898317394E+03  0.00000000000E+00 0. -1.
        -13    1    5    5    0    0  0.17009095198E+02  0.15778067844E+03 -0.58187069882E+02  0.16902599477E+03  0.00000000000E+00 0.  1.
          1    1    6    6  503    0  0.37549998736E+02 -0.18797410321E+02 -0.11926908198E+03  0.12644547820E+03  0.00000000000E+00 0. -1.
         -1    1    6    6    0  503  0.23791778353E+03 -0.26677437881E+03 -0.49803590666E+03  0.61303605541E+03  0.00000000000E+00 0.  1.
<mgrwt>
<rscale>  0 0.15370501E+04</rscale>
<asrwt>0</asrwt>
<pdfrwt beam="1">  1        2 0.53627784E-01 0.15370501E+04</pdfrwt>
<pdfrwt beam="2">  1       -1 0.26067508E+00 0.15370501E+04</pdfrwt>
<totfact> 0.60852736E+00</totfact>
</mgrwt>
</event>
<event>
12    7  0.1625631E-007  0.1564162E+04  0.7818608E-02  0.8842872E-01
          2   -1    0    0  501    0  0.00000000000E+00  0.00000000000E+00  0.14048172373E+04  0.14048172373E+04  0.00000000000E+00 0. -1.
         -1   -1    0    0    0  501 -0.00000000000E+00 -0.00000000000E+00 -0.43539526654E+03  0.43539526654E+03  0.00000000000E+00 0.  1.
         24    2    1    2    0    0  0.17236225405E+03 -0.13236908068E+03  0.90155848270E+03  0.93081808101E+03  0.79901702519E+02 0.  0.
        254    2    1    2    0    0 -0.17236225405E+03  0.13236908068E+03  0.67863488011E+02  0.90939442278E+03  0.88043309969E+03 0.  0.
         23    2    4    4    0    0  0.29311431595E+03  0.84620311649E+02  0.24390513608E+03  0.40091661484E+03  0.90375977411E+02 0.  0.
         23    2    4    4    0    0 -0.46547657000E+03  0.47748769033E+02 -0.17604164807E+03  0.50847780794E+03  0.92793518907E+02 0.  0.
          2    1    3    3  502    0  0.16244360139E+03 -0.85432005479E+02  0.70803411139E+03  0.73143615859E+03  0.00000000000E+00 0. -1.
         -1    1    3    3    0  502  0.99186526578E+01 -0.46937075203E+02  0.19352437131E+03  0.19938192243E+03  0.00000000000E+00 0.  1.
         13    1    5    5    0    0 -0.41688625382E+01 -0.58919241958E+01  0.34841092810E+01  0.80145619389E+01  0.00000000000E+00 0.  1.
        -13    1    5    5    0    0  0.29728317849E+03  0.90512235845E+02  0.24042102680E+03  0.39290205290E+03  0.00000000000E+00 0. -1.
          1    1    6    6  503    0 -0.41508691420E+03  0.22733615364E+02 -0.17793453720E+03  0.45218874725E+03  0.00000000000E+00 0. -1.
         -1    1    6    6    0  503 -0.50389655791E+02  0.25015153669E+02  0.18928891301E+01  0.56289060688E+02  0.00000000000E+00 0.  1.
<mgrwt>
<rscale>  0 0.15641621E+04</rscale>
<asrwt>0</asrwt>
<pdfrwt beam="1">  1        2 0.21612573E+00 0.15641621E+04</pdfrwt>
<pdfrwt beam="2">  1       -1 0.66983888E-01 0.15641621E+04</pdfrwt>
<totfact> 0.35577389E+01</totfact>
</mgrwt>
</event>
<event>
12    7  0.1625631E-007  0.1481359E+04  0.7818608E-02  0.8896944E-01
          2   -1    0    0  501    0  0.00000000000E+00  0.00000000000E+00  0.18483301401E+04  0.18483301401E+04  0.00000000000E+00 0. -1.
         -1   -1    0    0    0  501 -0.00000000000E+00 -0.00000000000E+00 -0.29681174771E+03  0.29681174771E+03  0.00000000000E+00 0.  1.
         24    2    1    2    0    0  0.16591520146E+03  0.19947418068E+03  0.10424267947E+04  0.10773405529E+04  0.81800011632E+02 0.  0.
        254    2    1    2    0    0 -0.16591520146E+03 -0.19947418068E+03  0.50909159767E+03  0.10678013348E+04  0.90205744441E+03 0.  0.
         23    2    4    4    0    0 -0.27179459942E+02 -0.53005002627E+03  0.16382568666E+03  0.56210966089E+03  0.86236082139E+02 0.  0.
         23    2    4    4    0    0 -0.13873574152E+03  0.33057584559E+03  0.34526591101E+03  0.50569167394E+03  0.89372949606E+02 0.  0.
          4    1    3    3  502    0  0.83849154169E+02  0.53506748366E+02  0.29265580402E+03  0.30909718925E+03  0.00000000000E+00 0. -1.
         -3    1    3    3    0  502  0.82066047289E+02  0.14596743232E+03  0.74977099067E+03  0.76824336369E+03  0.00000000000E+00 0.  1.
         13    1    5    5    0    0 -0.17170555484E+02 -0.46539322040E+03  0.17139176042E+03  0.49624672604E+03  0.00000000000E+00 0.  1.
        -13    1    5    5    0    0 -0.10008904458E+02 -0.64656805876E+02 -0.75660737656E+01  0.65862934848E+02  0.00000000000E+00 0. -1.
          1    1    6    6  503    0 -0.17483144490E+02  0.14446318640E+03  0.11238554061E+03  0.18386348823E+03  0.00000000000E+00 0. -1.
         -1    1    6    6    0  503 -0.12125259703E+03  0.18611265919E+03  0.23288037040E+03  0.32182818571E+03  0.00000000000E+00 0.  1.
<mgrwt>
<rscale>  0 0.14813590E+04</rscale>
<asrwt>0</asrwt>
<pdfrwt beam="1">  1        2 0.28435848E+00 0.14813590E+04</pdfrwt>
<pdfrwt beam="2">  1       -1 0.45663347E-01 0.14813590E+04</pdfrwt>
<totfact> 0.42607348E+01</totfact>
</mgrwt>
</event>
<event>
12    7  0.1625631E-007  0.1865449E+04  0.7818608E-02  0.8672248E-01
          2   -1    0    0  501    0  0.00000000000E+00  0.00000000000E+00  0.14315747588E+04  0.14315747588E+04  0.00000000000E+00 0. -1.
         -1   -1    0    0    0  501 -0.00000000000E+00 -0.00000000000E+00 -0.60770478829E+03  0.60770478829E+03  0.00000000000E+00 0.  1.
         24    2    1    2    0    0  0.58443909382E+03  0.32661821004E+03  0.58357773342E+03  0.89179946694E+03  0.80590376337E+02 0.  0.
        254    2    1    2    0    0 -0.58443909382E+03 -0.32661821004E+03  0.24029223709E+03  0.11474800802E+04  0.90040083610E+03 0.  0.
         23    2    4    4    0    0 -0.28908115831E+03 -0.60288874557E+03  0.28079487989E+03  0.73069385603E+03  0.89582314389E+02 0.  0.
         23    2    4    4    0    0 -0.29535793551E+03  0.27627053552E+03 -0.40502642800E+02  0.41678622413E+03  0.92241930178E+02 0.  0.
          4    1    3    3  502    0  0.48791669919E+03  0.26412914499E+03  0.51998088310E+03  0.76039925656E+03  0.00000000000E+00 0. -1.
         -3    1    3    3    0  502  0.96522394630E+02  0.62489065049E+02  0.63596850324E+02  0.13140021038E+03  0.00000000000E+00 0.  1.
         13    1    5    5    0    0 -0.24977331976E+02 -0.13511910705E+03  0.57850970192E+02  0.14908982177E+03  0.00000000000E+00 0.  1.
        -13    1    5    5    0    0 -0.26410382634E+03 -0.46776963852E+03  0.22294390970E+03  0.58160403427E+03  0.00000000000E+00 0. -1.
          4    1    6    6  503    0 -0.21675116034E+03  0.24910653673E+03 -0.46211316702E+02  0.33342258163E+03  0.00000000000E+00 0. -1.
         -4    1    6    6    0  503 -0.78606775169E+02  0.27163998796E+02  0.57086739022E+01  0.83363642499E+02  0.00000000000E+00 0.  1.
<mgrwt>
<rscale>  0 0.18654488E+04</rscale>
<asrwt>0</asrwt>
<pdfrwt beam="1">  1        2 0.22024227E+00 0.18654488E+04</pdfrwt>
<pdfrwt beam="2">  1       -1 0.93493045E-01 0.18654488E+04</pdfrwt>
<totfact> 0.16489551E+01</totfact>
</mgrwt>
</event>
<event>
12    7  0.1625631E-007  0.2030646E+04  0.7818608E-02  0.8592425E-01
         -1   -1    0    0    0  501 -0.00000000000E+00  0.00000000000E+00  0.35416103708E+03  0.35416103708E+03  0.00000000000E+00 0.  1.
          2   -1    0    0  501    0  0.00000000000E+00 -0.00000000000E+00 -0.29107683639E+04  0.29107683639E+04  0.00000000000E+00 0. -1.
         24    2    1    2    0    0  0.69889401333E+02  0.19447203619E+03  0.23668153133E+03  0.32455254447E+03  0.81316084299E+02 0.  0.
        254    2    1    2    0    0 -0.69889401333E+02 -0.19447203619E+03 -0.27932888581E+04  0.29403768565E+04  0.89479020555E+03 0.  0.
         23    2    4    4    0    0  0.31910951245E+03  0.12804812262E+03 -0.16386719564E+04  0.16767452098E+04  0.89451189424E+02 0.  0.
         23    2    4    4    0    0 -0.38899891378E+03 -0.32252015881E+03 -0.11546169018E+04  0.12636316467E+04  0.91023848391E+02 0.  0.
          4    1    3    3  502    0  0.58699986163E+01 -0.68957301282E+01  0.30805795447E+01  0.95654559790E+01  0.00000000000E+00 0. -1.
         -3    1    3    3    0  502  0.64019402717E+02  0.20136776632E+03  0.23360095179E+03  0.31498708849E+03  0.00000000000E+00 0.  1.
         13    1    5    5    0    0  0.28043785889E+03  0.81229252914E+02 -0.12718901063E+04  0.13049705080E+04  0.00000000000E+00 0. -1.
        -13    1    5    5    0    0  0.38671653561E+02  0.46818869701E+02 -0.36678185005E+03  0.37177470177E+03  0.00000000000E+00 0.  1.
          3    1    6    6  503    0 -0.28720216187E+03 -0.22265312685E+03 -0.91872179736E+03  0.98798240755E+03  0.00000000000E+00 0. -1.
         -3    1    6    6    0  503 -0.10179675191E+03 -0.99867031952E+02 -0.23589510442E+03  0.27564923918E+03  0.00000000000E+00 0.  1.
<mgrwt>
<rscale>  0 0.20306459E+04</rscale>
<asrwt>0</asrwt>
<pdfrwt beam="1">  1        2 0.44781051E+00 0.20306459E+04</pdfrwt>
<pdfrwt beam="2">  1       -1 0.54486315E-01 0.20306459E+04</pdfrwt>
<totfact> 0.71140193E+00</totfact>
</mgrwt>
</event>
<event>
12    7  0.1625631E-007  0.1837709E+04  0.7818608E-02  0.8686499E-01
         -1   -1    0    0    0  501 -0.00000000000E+00  0.00000000000E+00  0.20338891128E+03  0.20338891128E+03  0.00000000000E+00 0.  1.
          2   -1    0    0  501    0  0.00000000000E+00 -0.00000000000E+00 -0.41511279099E+04  0.41511279099E+04  0.00000000000E+00 0. -1.
         24    2    1    2    0    0  0.52459803610E+03 -0.45340509843E+03 -0.14909543286E+04  0.16468139579E+04  0.90951191435E+02 0.  0.
        254    2    1    2    0    0 -0.52459803610E+03  0.45340509843E+03 -0.24567846700E+04  0.27077028633E+04  0.90282035762E+03 0.  0.
         23    2    4    4    0    0  0.27684215923E+02  0.22110332022E+03 -0.78120836524E+02  0.25280168736E+03  0.90292491435E+02 0.  0.
         23    2    4    4    0    0 -0.55228225203E+03  0.23230177821E+03 -0.23786638335E+04  0.24549011759E+04  0.97562024484E+02 0.  0.
          2    1    3    3  502    0  0.12865660425E+03 -0.84549002235E+02 -0.25986803473E+03  0.30204710075E+03  0.00000000000E+00 0. -1.
         -1    1    3    3    0  502  0.39594143185E+03 -0.36885609620E+03 -0.12310862939E+04  0.13447668572E+04  0.00000000000E+00 0.  1.
         13    1    5    5    0    0  0.13452847796E+02  0.77122698891E+02  0.16392029175E+02  0.79984926196E+02  0.00000000000E+00 0.  1.
        -13    1    5    5    0    0  0.14231368127E+02  0.14398062133E+03 -0.94512865698E+02  0.17281676117E+03  0.00000000000E+00 0. -1.
          4    1    6    6  503    0 -0.24217815382E+03  0.50669390627E+02 -0.10037887808E+04  0.10338324631E+04  0.00000000000E+00 0. -1.
         -4    1    6    6    0  503 -0.31010409821E+03  0.18163238758E+03 -0.13748750527E+04  0.14210687128E+04  0.00000000000E+00 0.  1.
<mgrwt>
<rscale>  0 0.18377088E+04</rscale>
<asrwt>0</asrwt>
<pdfrwt beam="1">  1        2 0.63863508E+00 0.18377088E+04</pdfrwt>
<pdfrwt beam="2">  1       -1 0.31290601E-01 0.18377088E+04</pdfrwt>
<totfact> 0.26420530E+00</totfact>
</mgrwt>
</event>
<event>
12    7  0.1625631E-007  0.2811405E+04  0.7818608E-02  0.8299736E-01
         -1   -1    0    0    0  501 -0.00000000000E+00  0.00000000000E+00  0.31816554280E+04  0.31816554280E+04  0.00000000000E+00 0.  1.
          2   -1    0    0  501    0  0.00000000000E+00 -0.00000000000E+00 -0.62106019959E+03  0.62106019959E+03  0.00000000000E+00 0. -1.
         24    2    1    2    0    0 -0.79494547960E+03  0.68446703604E+03  0.20999671324E+03  0.10741917534E+04  0.96725718247E+02 0.  0.
        254    2    1    2    0    0  0.79494547960E+03 -0.68446703604E+03  0.23505985152E+04  0.27285238742E+04  0.90503906740E+03 0.  0.
         23    2    4    4    0    0  0.25983852677E+03 -0.78564394531E+03  0.13873648993E+04  0.16180384672E+04  0.92274853636E+02 0.  0.
         23    2    4    4    0    0  0.53510695283E+03  0.10117690927E+03  0.96323361592E+03  0.11104854071E+04  0.93715647213E+02 0.  0.
          4    1    3    3  502    0 -0.75544881897E+03  0.64913674950E+03  0.22054967174E+03  0.10201586128E+04  0.00000000000E+00 0. -1.
         -3    1    3    3    0  502 -0.39496660629E+02  0.35330286535E+02 -0.10552958500E+02  0.54033140577E+02  0.00000000000E+00 0.  1.
         13    1    5    5    0    0  0.19059653924E+03 -0.64553586140E+03  0.10665041495E+04  0.12611402341E+04  0.00000000000E+00 0. -1.
        -13    1    5    5    0    0  0.69241987533E+02 -0.14010808391E+03  0.32086074976E+03  0.35689823304E+03  0.00000000000E+00 0.  1.
          1    1    6    6  503    0  0.51406492946E+03  0.85946435565E+02  0.87459252878E+03  0.10181167089E+04  0.00000000000E+00 0. -1.
         -1    1    6    6    0  503  0.21042023368E+02  0.15230473705E+02  0.88641087131E+02  0.92368698186E+02  0.00000000000E+00 0.  1.
<mgrwt>
<rscale>  0 0.28114050E+04</rscale>
<asrwt>0</asrwt>
<pdfrwt beam="1">  1        2 0.95547725E-01 0.28114050E+04</pdfrwt>
<pdfrwt beam="2">  1       -1 0.48948544E+00 0.28114050E+04</pdfrwt>
<totfact> 0.82102339E-02</totfact>
</mgrwt>
</event>
<event>
12    7  0.1625631E-007  0.2734386E+04  0.7818608E-02  0.8323933E-01
         -1   -1    0    0    0  501 -0.00000000000E+00  0.00000000000E+00  0.12246022287E+04  0.12246022287E+04  0.00000000000E+00 0.  1.
          2   -1    0    0  501    0  0.00000000000E+00 -0.00000000000E+00 -0.15263866845E+04  0.15263866845E+04  0.00000000000E+00 0. -1.
         24    2    1    2    0    0  0.86854002387E+03 -0.45314517184E+03 -0.86337148994E+03  0.13084520042E+04  0.83270629654E+02 0.  0.
        254    2    1    2    0    0 -0.86854002387E+03  0.45314517184E+03  0.56158703410E+03  0.14425369090E+04  0.89768057631E+03 0.  0.
         23    2    4    4    0    0 -0.69631844938E+03 -0.86647443560E+02  0.11769812007E+03  0.71767025455E+03  0.93971189049E+02 0.  0.
         23    2    4    4    0    0 -0.17222157448E+03  0.53979261540E+03  0.44388891403E+03  0.72486665443E+03  0.85778554153E+02 0.  0.
          2    1    3    3  502    0  0.42639704681E+03 -0.19590897006E+03 -0.36753011301E+03  0.59604794274E+03  0.00000000000E+00 0. -1.
         -1    1    3    3    0  502  0.44214297706E+03 -0.25723620178E+03 -0.49584137693E+03  0.71240406143E+03  0.00000000000E+00 0.  1.
         13    1    5    5    0    0 -0.55645236833E+03 -0.88997663849E+02  0.61320807775E+02  0.56685100675E+03  0.00000000000E+00 0.  1.
        -13    1    5    5    0    0 -0.13986608105E+03  0.23502202885E+01  0.56377312294E+02  0.15081924780E+03  0.00000000000E+00 0. -1.
          3    1    6    6  503    0  0.51294523822E+01  0.81243372663E+02  0.63465090757E+02  0.10322119273E+03  0.00000000000E+00 0. -1.
         -3    1    6    6    0  503 -0.17735102687E+03  0.45854924274E+03  0.38042382327E+03  0.62164546170E+03  0.00000000000E+00 0.  1.
<mgrwt>
<rscale>  0 0.27343859E+04</rscale>
<asrwt>0</asrwt>
<pdfrwt beam="1">  1        2 0.23482872E+00 0.27343859E+04</pdfrwt>
<pdfrwt beam="2">  1       -1 0.18840034E+00 0.27343859E+04</pdfrwt>
<totfact> 0.22159847E+00</totfact>
</mgrwt>
</event>
<event>
12    7  0.1625631E-007  0.1144988E+04  0.7818608E-02  0.9162420E-01
         -1   -1    0    0    0  501 -0.00000000000E+00  0.00000000000E+00  0.10575384846E+03  0.10575384846E+03  0.00000000000E+00 0.  1.
          2   -1    0    0  501    0  0.00000000000E+00 -0.00000000000E+00 -0.30991715075E+04  0.30991715075E+04  0.00000000000E+00 0. -1.
         24    2    1    2    0    0 -0.15764698715E+03  0.18136700687E+03 -0.85784073753E+03  0.89476184021E+03  0.83435340210E+02 0.  0.
        254    2    1    2    0    0  0.15764698715E+03 -0.18136700687E+03 -0.21355769215E+04  0.23101635158E+04  0.84759667184E+03 0.  0.
         23    2    4    4    0    0 -0.11528597302E+03 -0.44794218445E+03 -0.13887817634E+04  0.14666302899E+04  0.91359536080E+02 0.  0.
         23    2    4    4    0    0  0.27293296017E+03  0.26657517758E+03 -0.74679515815E+03  0.84353322585E+03  0.91052560816E+02 0.  0.
          4    1    3    3  502    0 -0.12173354722E+03  0.84711099743E+02 -0.57118793933E+03  0.59012768870E+03  0.00000000000E+00 0. -1.
         -3    1    3    3    0  502 -0.35913439929E+02  0.96655907123E+02 -0.28665279821E+03  0.30463415151E+03  0.00000000000E+00 0.  1.
         13    1    5    5    0    0  0.95877624699E+01 -0.11487312444E+03 -0.36954826099E+03  0.38710938649E+03  0.00000000000E+00 0.  1.
        -13    1    5    5    0    0 -0.12487373549E+03 -0.33306906001E+03 -0.10192335024E+04  0.10795209034E+04  0.00000000000E+00 0. -1.
          2    1    6    6  503    0  0.11482271258E+03  0.69369710866E+02 -0.32798873198E+03  0.35436283723E+03  0.00000000000E+00 0. -1.
         -2    1    6    6    0  503  0.15811024759E+03  0.19720546672E+03 -0.41880642617E+03  0.48917038862E+03  0.00000000000E+00 0.  1.
<mgrwt>
<rscale>  0 0.11449879E+04</rscale>
<asrwt>0</asrwt>
<pdfrwt beam="1">  1        2 0.47679565E+00 0.11449879E+04</pdfrwt>
<pdfrwt beam="2">  1       -1 0.16269822E-01 0.11449879E+04</pdfrwt>
<totfact> 0.49884934E+01</totfact>
</mgrwt>
</event>
<event>
12    7  0.1625631E-007  0.1697673E+04  0.7818608E-02  0.8762692E-01
          2   -1    0    0  501    0  0.00000000000E+00  0.00000000000E+00  0.42590909860E+04  0.42590909860E+04  0.00000000000E+00 0. -1.
         -1   -1    0    0    0  501 -0.00000000000E+00 -0.00000000000E+00 -0.16917313985E+03  0.16917313985E+03  0.00000000000E+00 0.  1.
         24    2    1    2    0    0  0.48635797526E+01 -0.41722232124E+03  0.31335904775E+03  0.52831354919E+03  0.82602625281E+02 0.  0.
        254    2    1    2    0    0 -0.48635797526E+01  0.41722232124E+03  0.37765587984E+04  0.38999505767E+04  0.87927243948E+03 0.  0.
         23    2    4    4    0    0  0.33614005148E+03 -0.53098381687E+02  0.95922367748E+03  0.10219075257E+04  0.91516967253E+02 0.  0.
         23    2    4    4    0    0 -0.34100363123E+03  0.47032070293E+03  0.28173351209E+04  0.28780430510E+04  0.90937228197E+02 0.  0.
          4    1    3    3  502    0  0.51658538001E+01 -0.21494168461E+02 -0.21409993628E+01  0.22209664599E+02  0.00000000000E+00 0. -1.
         -3    1    3    3    0  502 -0.30227404749E+00 -0.39572815278E+03  0.31550004711E+03  0.50610388460E+03  0.00000000000E+00 0.  1.
         13    1    5    5    0    0  0.10893453850E+03 -0.59630100495E+02  0.37477181791E+03  0.39481185147E+03  0.00000000000E+00 0.  1.
        -13    1    5    5    0    0  0.22720551298E+03  0.65317188077E+01  0.58445185957E+03  0.62709567423E+03  0.00000000000E+00 0. -1.
          4    1    6    6  503    0 -0.33985041194E+03  0.46457582240E+03  0.27055137401E+04  0.27660682557E+04  0.00000000000E+00 0. -1.
         -4    1    6    6    0  503 -0.11532192898E+01  0.57448805294E+01  0.11182138079E+03  0.11197479524E+03  0.00000000000E+00 0.  1.
<mgrwt>
<rscale>  0 0.16976735E+04</rscale>
<asrwt>0</asrwt>
<pdfrwt beam="1">  1        2 0.65524469E+00 0.16976735E+04</pdfrwt>
<pdfrwt beam="2">  1       -1 0.26026640E-01 0.16976735E+04</pdfrwt>
<totfact> 0.29867571E+00</totfact>
</mgrwt>
</event>
<event>
12    7  0.1625631E-007  0.2848921E+04  0.7818608E-02  0.8288239E-01
         -1   -1    0    0    0  501 -0.00000000000E+00  0.00000000000E+00  0.13537864802E+04  0.13537864802E+04  0.00000000000E+00 0.  1.
          2   -1    0    0  501    0  0.00000000000E+00 -0.00000000000E+00 -0.14988239665E+04  0.14988239665E+04  0.00000000000E+00 0. -1.
         24    2    1    2    0    0  0.28781298100E+03 -0.21523399043E+02 -0.13139588260E+04  0.13475853852E+04  0.78733762113E+02 0.  0.
        254    2    1    2    0    0 -0.28781298100E+03  0.21523399043E+02  0.11689213396E+04  0.15050250614E+04  0.90300817747E+03 0.  0.
         23    2    4    4    0    0  0.21875502469E+03  0.11413489003E+03  0.47178381288E+02  0.26740332955E+03  0.91641731996E+02 0.  0.
         23    2    4    4    0    0 -0.50656800570E+03 -0.92611490984E+02  0.11217429584E+04  0.12376217319E+04  0.90621487489E+02 0.  0.
          2    1    3    3  502    0  0.27876435070E+03 -0.21835275258E+02 -0.11548514450E+04  0.11882206034E+04  0.00000000000E+00 0. -1.
         -1    1    3    3    0  502  0.90486303028E+01  0.31187621457E+00 -0.15910738099E+03  0.15936478175E+03  0.00000000000E+00 0.  1.
         13    1    5    5    0    0  0.37949740620E+02  0.59458081020E+02 -0.70319759664E+01  0.70886493055E+02  0.00000000000E+00 0. -1.
        -13    1    5    5    0    0  0.18080528407E+03  0.54676809007E+02  0.54210357255E+02  0.19651683649E+03  0.00000000000E+00 0.  1.
          2    1    6    6  503    0 -0.79421351479E+02  0.87361096623E+01  0.12326764343E+03  0.14689786452E+03  0.00000000000E+00 0.  1.
         -2    1    6    6    0  503 -0.42714665422E+03 -0.10134760065E+03  0.99847531492E+03  0.10907238674E+04  0.00000000000E+00 0. -1.
<mgrwt>
<rscale>  0 0.28489209E+04</rscale>
<asrwt>0</asrwt>
<pdfrwt beam="1">  1        2 0.23058830E+00 0.28489209E+04</pdfrwt>
<pdfrwt beam="2">  1       -1 0.20827484E+00 0.28489209E+04</pdfrwt>
<totfact> 0.16572384E+00</totfact>
</mgrwt>
</event>
<event>
12    7  0.1625631E-007  0.1695871E+04  0.7818608E-02  0.8763723E-01
          2   -1    0    0  501    0  0.00000000000E+00  0.00000000000E+00  0.24998884268E+04  0.24998884268E+04  0.00000000000E+00 0. -1.
         -1   -1    0    0    0  501 -0.00000000000E+00 -0.00000000000E+00 -0.28761082805E+03  0.28761082805E+03  0.00000000000E+00 0.  1.
         24    2    1    2    0    0 -0.12269944762E+03  0.43072795904E+03  0.13561495486E+03  0.47478394351E+03  0.80291019961E+02 0.  0.
        254    2    1    2    0    0  0.12269944762E+03 -0.43072795904E+03  0.20766626439E+04  0.23127153114E+04  0.91408021840E+03 0.  0.
         23    2    4    4    0    0 -0.32017926055E+02 -0.11996539643E+03 -0.45789463238E+02  0.16019782440E+03  0.90276376032E+02 0.  0.
         23    2    4    4    0    0  0.15471737368E+03 -0.31076256261E+03  0.21224521072E+04  0.21525174870E+04  0.89541881313E+02 0.  0.
          2    1    3    3  502    0 -0.18078899749E+02  0.18130342200E+03  0.78225178671E+02  0.19828503732E+03  0.00000000000E+00 0. -1.
         -1    1    3    3    0  502 -0.10462054787E+03  0.24942453703E+03  0.57389776188E+02  0.27649890619E+03  0.00000000000E+00 0.  1.
         13    1    5    5    0    0 -0.30865625023E+02 -0.10505350586E+03 -0.71274434772E+02  0.13064827191E+03  0.00000000000E+00 0. -1.
        -13    1    5    5    0    0 -0.11523010318E+01 -0.14911890568E+02  0.25484971535E+02  0.29549552486E+02  0.00000000000E+00 0.  1.
          1    1    6    6  503    0  0.91734758048E+02 -0.22415616507E+03  0.16755441242E+04  0.16929587603E+04  0.00000000000E+00 0. -1.
         -1    1    6    6    0  503  0.62982615630E+02 -0.86606397539E+02  0.44690798302E+03  0.45955872666E+03  0.00000000000E+00 0.  1.
<mgrwt>
<rscale>  0 0.16958714E+04</rscale>
<asrwt>0</asrwt>
<pdfrwt beam="1">  1        2 0.38459820E+00 0.16958714E+04</pdfrwt>
<pdfrwt beam="2">  1       -1 0.44247821E-01 0.16958714E+04</pdfrwt>
<totfact> 0.19104153E+01</totfact>
</mgrwt>
</event>
<event>
12    7  0.1625631E-007  0.1568209E+04  0.7818608E-02  0.8840320E-01
          2   -1    0    0  501    0  0.00000000000E+00  0.00000000000E+00  0.20062221076E+04  0.20062221076E+04  0.00000000000E+00 0. -1.
         -1   -1    0    0    0  501 -0.00000000000E+00 -0.00000000000E+00 -0.30645655540E+03  0.30645655540E+03  0.00000000000E+00 0.  1.
         24    2    1    2    0    0  0.53890808799E+03 -0.41577925084E+02  0.50455492844E+03  0.74366930195E+03  0.79483983837E+02 0.  0.
        254    2    1    2    0    0 -0.53890808799E+03  0.41577925084E+02  0.11952106237E+04  0.15690093610E+04  0.86087820783E+03 0.  0.
         23    2    4    4    0    0 -0.39568242858E+03  0.36615949988E+03  0.10316749516E+04  0.11675607615E+04  0.90595598575E+02 0.  0.
         23    2    4    4    0    0 -0.14322565941E+03 -0.32458157479E+03  0.16353567215E+03  0.40144859950E+03  0.92467690381E+02 0.  0.
          2    1    3    3  502    0  0.13357310457E+02 -0.71621625998E+01  0.13039879690E+01  0.15212320677E+02  0.00000000000E+00 0. -1.
         -1    1    3    3    0  502  0.52555077754E+03 -0.34415762484E+02  0.50325094047E+03  0.72845698127E+03  0.00000000000E+00 0.  1.
         13    1    5    5    0    0 -0.29722837732E+03  0.22663024958E+03  0.65888260648E+03  0.75751717303E+03  0.00000000000E+00 0.  1.
        -13    1    5    5    0    0 -0.98454051266E+02  0.13952925030E+03  0.37279234510E+03  0.41004358849E+03  0.00000000000E+00 0. -1.
          4    1    6    6  503    0 -0.13510668197E+03 -0.28338363112E+03  0.10837124662E+03  0.33212109989E+03  0.00000000000E+00 0. -1.
         -4    1    6    6    0  503 -0.81189774422E+01 -0.41197943672E+02  0.55164425528E+02  0.69327499604E+02  0.00000000000E+00 0.  1.
<mgrwt>
<rscale>  0 0.15682091E+04</rscale>
<asrwt>0</asrwt>
<pdfrwt beam="1">  1        2 0.30864955E+00 0.15682091E+04</pdfrwt>
<pdfrwt beam="2">  1       -1 0.47147164E-01 0.15682091E+04</pdfrwt>
<totfact> 0.32571878E+01</totfact>
</mgrwt>
</event>
<event>
12    7  0.2025276E-007  0.2162888E+04  0.7818608E-02  0.8534035E-01
         -1   -1    0    0    0  501 -0.00000000000E+00  0.00000000000E+00  0.10163012017E+04  0.10163012017E+04  0.00000000000E+00 0.  1.
          2   -1    0    0  501    0  0.00000000000E+00 -0.00000000000E+00 -0.11507628209E+04  0.11507628209E+04  0.00000000000E+00 0. -1.
         24    2    1    2    0    0  0.17730138245E+02  0.46073246197E+03  0.70519399781E+03  0.84631636999E+03  0.79775085392E+02 0.  0.
        254    2    1    2    0    0 -0.17730138245E+02 -0.46073246197E+03 -0.83965561703E+03  0.13207476526E+04  0.90926566375E+03 0.  0.
         23    2    4    4    0    0  0.41087981489E+03 -0.24756048377E+03 -0.61232997044E+03  0.78323761806E+03  0.91677468598E+02 0.  0.
         23    2    4    4    0    0 -0.42860995314E+03 -0.21317197820E+03 -0.22732564659E+03  0.53751003451E+03  0.89951672508E+02 0.  0.
          4    1    3    3  502    0 -0.93282967797E+01  0.41489901238E+01  0.20551941807E+02  0.22948062051E+02  0.00000000000E+00 0. -1.
         -3    1    3    3    0  502  0.27058435025E+02  0.45658347184E+03  0.68464205600E+03  0.82336830794E+03  0.00000000000E+00 0.  1.
         13    1    5    5    0    0  0.49155749370E+02 -0.30313961992E+02 -0.32937562087E+02  0.66483885145E+02  0.00000000000E+00 0.  1.
        -13    1    5    5    0    0  0.36172406552E+03 -0.21724652178E+03 -0.57939240835E+03  0.71675373292E+03  0.00000000000E+00 0. -1.
          4    1    6    6  503    0 -0.60611862691E+02 -0.17208297920E+02 -0.63791703610E+02  0.89662170761E+02  0.00000000000E+00 0.  1.
         -4    1    6    6    0  503 -0.36799809045E+03 -0.19596368028E+03 -0.16353394298E+03  0.44784786375E+03  0.00000000000E+00 0. -1.
<mgrwt>
<rscale>  0 0.21628885E+04</rscale>
<asrwt>0</asrwt>
<pdfrwt beam="1">  1        2 0.17704043E+00 0.21628885E+04</pdfrwt>
<pdfrwt beam="2">  1       -1 0.15635403E+00 0.21628885E+04</pdfrwt>
<totfact> 0.66055295E+00</totfact>
</mgrwt>
</event>
<event>
12    7  0.1625631E-007  0.1344738E+04  0.7818608E-02  0.8994821E-01
         -1   -1    0    0    0  501 -0.00000000000E+00  0.00000000000E+00  0.48845220698E+03  0.48845220698E+03  0.00000000000E+00 0.  1.
          2   -1    0    0  501    0  0.00000000000E+00 -0.00000000000E+00 -0.92553568886E+03  0.92553568886E+03  0.00000000000E+00 0. -1.
         24    2    1    2    0    0 -0.34224512024E+03  0.74084254994E+02 -0.22886583605E+03  0.42550631024E+03  0.77819341923E+02 0.  0.
        254    2    1    2    0    0  0.34224512024E+03 -0.74084254994E+02 -0.20821764584E+03  0.98848158560E+03  0.90062259458E+03 0.  0.
         23    2    4    4    0    0  0.23737849200E+01  0.37717091942E+03 -0.13940576854E+03  0.41209868060E+03  0.90154406063E+02 0.  0.
         23    2    4    4    0    0  0.33987133532E+03 -0.45125517442E+03 -0.68811877290E+02  0.57638290500E+03  0.91314958840E+02 0.  0.
          2    1    3    3  502    0 -0.17336680872E+03  0.50255007202E+02 -0.16125372853E+03  0.24204210601E+03  0.00000000000E+00 0. -1.
         -1    1    3    3    0  502 -0.16887831152E+03  0.23829247791E+02 -0.67612107515E+02  0.18346420423E+03  0.00000000000E+00 0.  1.
         13    1    5    5    0    0  0.16334555095E+02  0.36987435164E+03 -0.12504157858E+03  0.39078030921E+03  0.00000000000E+00 0.  1.
        -13    1    5    5    0    0 -0.13960770175E+02  0.72965677819E+01 -0.14364189963E+02  0.21318371386E+02  0.00000000000E+00 0. -1.
          3    1    6    6  503    0  0.90442526197E+02 -0.64236089813E+02 -0.67051851144E+00  0.11093500518E+03  0.00000000000E+00 0. -1.
         -3    1    6    6    0  503  0.24942880912E+03 -0.38701908461E+03 -0.68141358779E+02  0.46544789982E+03  0.00000000000E+00 0.  1.
<mgrwt>
<rscale>  0 0.13447378E+04</rscale>
<asrwt>0</asrwt>
<pdfrwt beam="1">  1        2 0.14239010E+00 0.13447378E+04</pdfrwt>
<pdfrwt beam="2">  1       -1 0.75146494E-01 0.13447378E+04</pdfrwt>
<totfact> 0.55974795E+01</totfact>
</mgrwt>
</event>
<event>
12    7  0.1625631E-007  0.1810798E+04  0.7818608E-02  0.8700578E-01
          2   -1    0    0  501    0  0.00000000000E+00  0.00000000000E+00  0.14468437495E+04  0.14468437495E+04  0.00000000000E+00 0. -1.
         -1   -1    0    0    0  501 -0.00000000000E+00 -0.00000000000E+00 -0.56657636879E+03  0.56657636879E+03  0.00000000000E+00 0.  1.
         24    2    1    2    0    0  0.93297074703E+02 -0.50916161757E+03 -0.16520490451E+03  0.54784764982E+03  0.69960631652E+02 0.  0.
        254    2    1    2    0    0 -0.93297074703E+02  0.50916161757E+03  0.10454722852E+04  0.14655724685E+04  0.88709664873E+03 0.  0.
         23    2    4    4    0    0 -0.29477170960E+03  0.20926447225E+03  0.18501759123E+02  0.37317892313E+03  0.90764604627E+02 0.  0.
         23    2    4    4    0    0  0.20147463489E+03  0.29989714532E+03  0.10269705261E+04  0.10923935453E+04  0.90138061462E+02 0.  0.
          2    1    3    3  502    0  0.74631694865E+01 -0.20037265056E+03 -0.44615153481E+02  0.20541521344E+03  0.00000000000E+00 0. -1.
         -1    1    3    3    0  502  0.85833905216E+02 -0.30878896701E+03 -0.12058975103E+03  0.34243243638E+03  0.00000000000E+00 0.  1.
         13    1    5    5    0    0 -0.14938704066E+03  0.53246237986E+02 -0.47109777423E+01  0.15866267074E+03  0.00000000000E+00 0. -1.
        -13    1    5    5    0    0 -0.14538466894E+03  0.15601823427E+03  0.23212736865E+02  0.21451625239E+03  0.00000000000E+00 0.  1.
          4    1    6    6  503    0  0.99986799312E+02  0.15130612125E+03  0.38322608891E+03  0.42397303875E+03  0.00000000000E+00 0. -1.
         -4    1    6    6    0  503  0.10148783558E+03  0.14859102407E+03  0.64374443719E+03  0.66842050658E+03  0.00000000000E+00 0.  1.
<mgrwt>
<rscale>  0 0.18107981E+04</rscale>
<asrwt>0</asrwt>
<pdfrwt beam="1">  1        2 0.22259135E+00 0.18107981E+04</pdfrwt>
<pdfrwt beam="2">  1       -1 0.87165596E-01 0.18107981E+04</pdfrwt>
<totfact> 0.18955480E+01</totfact>
</mgrwt>
</event>
<event>
12    7  0.1625631E-007  0.1696431E+04  0.7818608E-02  0.8763402E-01
          2   -1    0    0  501    0  0.00000000000E+00  0.00000000000E+00  0.43210411569E+03  0.43210411569E+03  0.00000000000E+00 0. -1.
         -1   -1    0    0    0  501 -0.00000000000E+00 -0.00000000000E+00 -0.16650383738E+04  0.16650383738E+04  0.00000000000E+00 0.  1.
         24    2    1    2    0    0  0.22714961510E+03 -0.25772443915E+03 -0.10331360357E+04  0.10916181964E+04  0.79002431758E+02 0.  0.
        254    2    1    2    0    0 -0.22714961510E+03  0.25772443915E+03 -0.19979822235E+03  0.10055242931E+04  0.92365628894E+03 0.  0.
         23    2    4    4    0    0 -0.44321276597E+03  0.45373723677E+03 -0.26464258336E+03  0.69296134043E+03  0.88570234516E+02 0.  0.
         23    2    4    4    0    0  0.21606315086E+03 -0.19601279762E+03  0.64844361014E+02  0.31256295263E+03  0.91577869646E+02 0.  0.
          2    1    3    3  502    0  0.52304084149E+01 -0.12935072702E+02 -0.11492948649E+03  0.11577331360E+03  0.00000000000E+00 0. -1.
         -1    1    3    3    0  502  0.22191920669E+03 -0.24478936645E+03 -0.91820654923E+03  0.97584488280E+03  0.00000000000E+00 0.  1.
         13    1    5    5    0    0 -0.26046765635E+03  0.32689010880E+03 -0.17080293286E+03  0.45152429072E+03  0.00000000000E+00 0. -1.
        -13    1    5    5    0    0 -0.18274510961E+03  0.12684712797E+03 -0.93839650505E+02  0.24143704970E+03  0.00000000000E+00 0.  1.
          4    1    6    6  503    0  0.17496271971E+03 -0.11049675654E+03  0.67444895644E+02  0.21764719259E+03  0.00000000000E+00 0. -1.
         -4    1    6    6    0  503  0.41100431156E+02 -0.85516041086E+02 -0.26005346300E+01  0.94915760043E+02  0.00000000000E+00 0.  1.
<mgrwt>
<rscale>  0 0.16964315E+04</rscale>
<asrwt>0</asrwt>
<pdfrwt beam="1">  1        2 0.66477558E-01 0.16964315E+04</pdfrwt>
<pdfrwt beam="2">  1       -1 0.25615974E+00 0.16964315E+04</pdfrwt>
<totfact> 0.50406113E+00</totfact>
</mgrwt>
</event>
<event>
12    7  0.1625631E-007  0.1208217E+04  0.7818608E-02  0.9105694E-01
         -1   -1    0    0    0  501 -0.00000000000E+00  0.00000000000E+00  0.63922044793E+03  0.63922044793E+03  0.00000000000E+00 0.  1.
          2   -1    0    0  501    0  0.00000000000E+00 -0.00000000000E+00 -0.57092545427E+03  0.57092545427E+03  0.00000000000E+00 0. -1.
         24    2    1    2    0    0 -0.16388662549E+03  0.98895891994E+02  0.18693622010E+03  0.27870016383E+03  0.78034655541E+02 0.  0.
        254    2    1    2    0    0  0.16388662549E+03 -0.98895891994E+02 -0.11864122644E+03  0.93144573837E+03  0.90381203767E+03 0.  0.
         23    2    4    4    0    0  0.10725455924E+03  0.39406582282E+03 -0.76150471420E+02  0.42508847229E+03  0.90054993087E+02 0.  0.
         23    2    4    4    0    0  0.56632066249E+02 -0.49296171482E+03 -0.42490755019E+02  0.50635726608E+03  0.91508324471E+02 0.  0.
          2    1    3    3  502    0 -0.60847784544E+02 -0.15647900793E+01  0.73685331100E+02  0.95574209237E+02  0.00000000000E+00 0. -1.
         -1    1    3    3    0  502 -0.10303884094E+03  0.10046068207E+03  0.11325088900E+03  0.18312595459E+03  0.00000000000E+00 0.  1.
         13    1    5    5    0    0  0.94440716214E+02  0.25110361963E+03 -0.84615238963E+02  0.28130377767E+03  0.00000000000E+00 0. -1.
        -13    1    5    5    0    0  0.12813843024E+02  0.14296220320E+03  0.84647675421E+01  0.14378469461E+03  0.00000000000E+00 0.  1.
          1    1    6    6  503    0  0.41610665327E+02 -0.47307932531E+03 -0.24340795941E+02  0.47552914722E+03  0.00000000000E+00 0. -1.
         -1    1    6    6    0  503  0.15021400922E+02 -0.19882389506E+02 -0.18149959078E+02  0.30828118863E+02  0.00000000000E+00 0.  1.
<mgrwt>
<rscale>  0 0.12082172E+04</rscale>
<asrwt>0</asrwt>
<pdfrwt beam="1">  1        2 0.87834685E-01 0.12082172E+04</pdfrwt>
<pdfrwt beam="2">  1       -1 0.98341607E-01 0.12082172E+04</pdfrwt>
<totfact> 0.58808408E+01</totfact>
</mgrwt>
</event>
<event>
12    7  0.1625631E-007  0.1396739E+04  0.7818608E-02  0.8956182E-01
         -1   -1    0    0    0  501 -0.00000000000E+00  0.00000000000E+00  0.22619238790E+04  0.22619238790E+04  0.00000000000E+00 0.  1.
          2   -1    0    0  501    0  0.00000000000E+00 -0.00000000000E+00 -0.21562182756E+03  0.21562182756E+03  0.00000000000E+00 0. -1.
         24    2    1    2    0    0  0.83888205469E+02  0.38181755677E+02 -0.10012218416E+03  0.15774403142E+03  0.79772490273E+02 0.  0.
        254    2    1    2    0    0 -0.83888205469E+02 -0.38181755677E+02  0.21464242356E+04  0.23198016751E+04  0.87512726805E+03 0.  0.
         23    2    4    4    0    0 -0.91072988429E-01  0.14560542331E+03  0.20852783906E+04  0.20924044508E+04  0.92571442322E+02 0.  0.
         23    2    4    4    0    0 -0.83797132481E+02 -0.18378717899E+03  0.61145844985E+02  0.22739722430E+03  0.84681737616E+02 0.  0.
          4    1    3    3  502    0  0.72915179720E+02 -0.81546226821E+01 -0.51162526186E+02  0.89446774064E+02  0.00000000000E+00 0. -1.
         -3    1    3    3    0  502  0.10973025749E+02  0.46336378359E+02 -0.48959657972E+02  0.68297257355E+02  0.00000000000E+00 0.  1.
         13    1    5    5    0    0  0.33364913437E+02  0.27513162504E+02  0.32700037203E+03  0.32984759340E+03  0.00000000000E+00 0.  1.
        -13    1    5    5    0    0 -0.33455986425E+02  0.11809226081E+03  0.17582780185E+04  0.17625568574E+04  0.00000000000E+00 0. -1.
          2    1    6    6  503    0 -0.78281455233E+02 -0.18715936086E+03  0.71574955245E+02  0.21512690862E+03  0.00000000000E+00 0. -1.
         -2    1    6    6    0  503 -0.55156772476E+01  0.33721818742E+01 -0.10429110259E+02  0.12270315680E+02  0.00000000000E+00 0.  1.
<mgrwt>
<rscale>  0 0.13967393E+04</rscale>
<asrwt>0</asrwt>
<pdfrwt beam="1">  1        2 0.33172590E-01 0.13967393E+04</pdfrwt>
<pdfrwt beam="2">  1       -1 0.34798827E+00 0.13967393E+04</pdfrwt>
<totfact> 0.28610272E+00</totfact>
</mgrwt>
</event>
<event>
12    7  0.1625631E-007  0.1234850E+04  0.7818608E-02  0.9082887E-01
         -1   -1    0    0    0  501 -0.00000000000E+00  0.00000000000E+00  0.58199042345E+03  0.58199042345E+03  0.00000000000E+00 0.  1.
          2   -1    0    0  501    0  0.00000000000E+00 -0.00000000000E+00 -0.65501742823E+03  0.65501742823E+03  0.00000000000E+00 0. -1.
         24    2    1    2    0    0  0.22305690596E+02  0.20270029361E+02 -0.29572487970E+03  0.30695251370E+03  0.76539031029E+02 0.  0.
        254    2    1    2    0    0 -0.22305690596E+02 -0.20270029361E+02  0.22269787492E+03  0.93005533799E+03  0.90249663174E+03 0.  0.
         23    2    4    4    0    0 -0.21948788839E+03 -0.33445092217E+03 -0.10801995914E+03  0.42425004934E+03  0.91035379379E+02 0.  0.
         23    2    4    4    0    0  0.19718219780E+03  0.31418089281E+03  0.33071783406E+03  0.50580528865E+03  0.94203246879E+02 0.  0.
          2    1    3    3  502    0  0.31187056283E+02  0.45633940334E+02 -0.20638164943E+03  0.21365503554E+03  0.00000000000E+00 0. -1.
         -1    1    3    3    0  502 -0.88813656865E+01 -0.25363910973E+02 -0.89343230265E+02  0.93297478157E+02  0.00000000000E+00 0.  1.
         13    1    5    5    0    0 -0.25507992317E+02 -0.10501667749E+03 -0.11500919760E+02  0.10868040936E+03  0.00000000000E+00 0. -1.
        -13    1    5    5    0    0 -0.19397989608E+03 -0.22943424468E+03 -0.96519039380E+02  0.31556963998E+03  0.00000000000E+00 0.  1.
          4    1    6    6  503    0  0.18749268182E+03  0.29198287614E+03  0.33368019942E+03  0.48140417653E+03  0.00000000000E+00 0.  1.
         -4    1    6    6    0  503  0.96895159739E+01  0.22198016675E+02 -0.29623653604E+01  0.24401112119E+02  0.00000000000E+00 0. -1.
<mgrwt>
<rscale>  0 0.12348504E+04</rscale>
<asrwt>0</asrwt>
<pdfrwt beam="1">  1        2 0.10077191E+00 0.12348504E+04</pdfrwt>
<pdfrwt beam="2">  1       -1 0.89536988E-01 0.12348504E+04</pdfrwt>
<totfact> 0.61234300E+01</totfact>
</mgrwt>
</event>
<event>
12    7  0.1625631E-007  0.1554919E+04  0.7818608E-02  0.8848732E-01
         -1   -1    0    0    0  501 -0.00000000000E+00  0.00000000000E+00  0.17445503241E+03  0.17445503241E+03  0.00000000000E+00 0.  1.
          2   -1    0    0  501    0  0.00000000000E+00 -0.00000000000E+00 -0.34647510317E+04  0.34647510317E+04  0.00000000000E+00 0. -1.
         24    2    1    2    0    0  0.19137307381E+03  0.20564938040E+03 -0.91375471488E+02  0.30570928941E+03  0.78697978381E+02 0.  0.
        254    2    1    2    0    0 -0.19137307381E+03 -0.20564938040E+03 -0.31989205278E+04  0.33334967747E+04  0.89453500924E+03 0.  0.
         23    2    4    4    0    0 -0.38437961196E+03 -0.42914840396E+03 -0.25300830309E+04  0.25965376887E+04  0.93657820537E+02 0.  0.
         23    2    4    4    0    0  0.19300653815E+03  0.22349902356E+03 -0.66883749692E+03  0.73695908594E+03  0.92529777680E+02 0.  0.
          4    1    3    3  502    0  0.61335818354E+02  0.41518167678E+02 -0.57100802072E+02  0.93521882240E+02  0.00000000000E+00 0. -1.
         -3    1    3    3    0  502  0.13003725546E+03  0.16413121272E+03 -0.34274669416E+02  0.21218740717E+03  0.00000000000E+00 0.  1.
         13    1    5    5    0    0 -0.18773054146E+03 -0.15754083514E+03 -0.93462433430E+03  0.96622177434E+03  0.00000000000E+00 0.  1.
        -13    1    5    5    0    0 -0.19664907049E+03 -0.27160756882E+03 -0.15954586966E+04  0.16303159144E+04  0.00000000000E+00 0. -1.
          3    1    6    6  503    0  0.14359171680E+03  0.19137270256E+03 -0.44211301873E+03  0.50269873060E+03  0.00000000000E+00 0. -1.
         -3    1    6    6    0  503  0.49414821346E+02  0.32126320997E+02 -0.22672447820E+03  0.23426035534E+03  0.00000000000E+00 0.  1.
<mgrwt>
<rscale>  0 0.15549190E+04</rscale>
<asrwt>0</asrwt>
<pdfrwt beam="1">  1        2 0.53303853E+00 0.15549190E+04</pdfrwt>
<pdfrwt beam="2">  1       -1 0.26839240E-01 0.15549190E+04</pdfrwt>
<totfact> 0.11826503E+01</totfact>
</mgrwt>
</event>
<event>
12    7  0.1625631E-007  0.1801868E+04  0.7818608E-02  0.8705307E-01
         -1   -1    0    0    0  501 -0.00000000000E+00  0.00000000000E+00  0.30829656305E+03  0.30829656305E+03  0.00000000000E+00 0.  1.
          2   -1    0    0  501    0  0.00000000000E+00 -0.00000000000E+00 -0.26327961617E+04  0.26327961617E+04  0.00000000000E+00 0. -1.
         24    2    1    2    0    0 -0.12757466796E+03 -0.20496337953E+03  0.15332022366E+03  0.29770346486E+03  0.82673932715E+02 0.  0.
        254    2    1    2    0    0  0.12757466796E+03  0.20496337953E+03 -0.24778198223E+04  0.26433892599E+04  0.88861151499E+03 0.  0.
         23    2    4    4    0    0  0.31277362301E+03  0.46861519618E+03 -0.13259226797E+04  0.14435851353E+04  0.91867018426E+02 0.  0.
         23    2    4    4    0    0 -0.18519895505E+03 -0.26365181665E+03 -0.11518971427E+04  0.11998041246E+04  0.94084944371E+02 0.  0.
          4    1    3    3  502    0 -0.40111643862E+02 -0.85969362936E+02  0.16315194125E+02  0.96259341865E+02  0.00000000000E+00 0. -1.
         -3    1    3    3    0  502 -0.87463024096E+02 -0.11899401660E+03  0.13700502954E+03  0.20144412299E+03  0.00000000000E+00 0.  1.
         13    1    5    5    0    0  0.31288708184E+03  0.45912888923E+03 -0.12610447770E+04  0.13780172686E+04  0.00000000000E+00 0. -1.
        -13    1    5    5    0    0 -0.11345883197E+00  0.94863069520E+01 -0.64877902641E+02  0.65567866700E+02  0.00000000000E+00 0.  1.
          1    1    6    6  503    0 -0.60550288506E+02 -0.11558763327E+03 -0.62518071487E+03  0.63865308631E+03  0.00000000000E+00 0. -1.
         -1    1    6    6    0  503 -0.12464866654E+03 -0.14806418338E+03 -0.52671642779E+03  0.56115103829E+03  0.00000000000E+00 0.  1.
<mgrwt>
<rscale>  0 0.18018679E+04</rscale>
<asrwt>0</asrwt>
<pdfrwt beam="1">  1        2 0.40504556E+00 0.18018679E+04</pdfrwt>
<pdfrwt beam="2">  1       -1 0.47430241E-01 0.18018679E+04</pdfrwt>
<totfact> 0.13902935E+01</totfact>
</mgrwt>
</event>
<event>
12    7  0.1625631E-007  0.2439099E+04  0.7818608E-02  0.8425009E-01
          2   -1    0    0  501    0  0.00000000000E+00  0.00000000000E+00  0.12033970115E+04  0.12033970115E+04  0.00000000000E+00 0. -1.
         -1   -1    0    0    0  501 -0.00000000000E+00 -0.00000000000E+00 -0.12359187193E+04  0.12359187193E+04  0.00000000000E+00 0.  1.
         24    2    1    2    0    0  0.71631959339E+03 -0.29598720455E+03  0.69965780505E+03  0.10473730687E+04  0.82140828538E+02 0.  0.
        254    2    1    2    0    0 -0.71631959339E+03  0.29598720455E+03 -0.73217951285E+03  0.13919426621E+04  0.89481581932E+03 0.  0.
         23    2    4    4    0    0 -0.82874653491E+03 -0.18168551235E+02 -0.46219834161E+03  0.95347724915E+03  0.91327116867E+02 0.  0.
         23    2    4    4    0    0  0.11242694152E+03  0.31415575578E+03 -0.26998117124E+03  0.43846541299E+03  0.89601503844E+02 0.  0.
          4    1    3    3  502    0  0.32740428822E+03 -0.10264748810E+03  0.27210430846E+03  0.43791646400E+03  0.00000000000E+00 0. -1.
         -3    1    3    3    0  502  0.38891530517E+03 -0.19333971645E+03  0.42755349659E+03  0.60945660469E+03  0.00000000000E+00 0.  1.
         13    1    5    5    0    0 -0.67263295303E+03  0.38607901116E+01 -0.33810166535E+03  0.75283645722E+03  0.00000000000E+00 0.  1.
        -13    1    5    5    0    0 -0.15611358188E+03 -0.22029341346E+02 -0.12409667626E+03  0.20064079193E+03  0.00000000000E+00 0. -1.
          4    1    6    6  503    0  0.59298037028E+02  0.23703372795E+03 -0.15170965405E+03  0.28760574492E+03  0.00000000000E+00 0. -1.
         -4    1    6    6    0  503  0.53128904492E+02  0.77122027832E+02 -0.11827151719E+03  0.15085966807E+03  0.00000000000E+00 0.  1.
<mgrwt>
<rscale>  0 0.24390989E+04</rscale>
<asrwt>0</asrwt>
<pdfrwt beam="1">  1        2 0.18513800E+00 0.24390989E+04</pdfrwt>
<pdfrwt beam="2">  1       -1 0.19014134E+00 0.24390989E+04</pdfrwt>
<totfact> 0.33954777E+00</totfact>
</mgrwt>
</event>
<event>
12    7  0.1625631E-007  0.2750385E+04  0.7818608E-02  0.8318840E-01
          2   -1    0    0  501    0  0.00000000000E+00  0.00000000000E+00  0.10517446597E+04  0.10517446597E+04  0.00000000000E+00 0. -1.
         -1   -1    0    0    0  501 -0.00000000000E+00 -0.00000000000E+00 -0.17981115754E+04  0.17981115754E+04  0.00000000000E+00 0.  1.
         24    2    1    2    0    0 -0.84732053422E+03 -0.76289358056E+03  0.11916032393E+03  0.11492655780E+04  0.81568884469E+02 0.  0.
        254    2    1    2    0    0  0.84732053422E+03  0.76289358056E+03 -0.86552723964E+03  0.17005906572E+04  0.91810265106E+03 0.  0.
         23    2    4    4    0    0  0.56030133382E+02  0.21327040525E+03  0.16321931805E+03  0.28815475933E+03  0.88141805864E+02 0.  0.
         23    2    4    4    0    0  0.79129040084E+03  0.54962317532E+03 -0.10287465577E+04  0.14124358979E+04  0.91812593759E+02 0.  0.
          4    1    3    3  502    0 -0.30301059960E+03 -0.26392887196E+03  0.80701233327E+02  0.40986163761E+03  0.00000000000E+00 0. -1.
         -3    1    3    3    0  502 -0.54430993462E+03 -0.49896470860E+03  0.38459090601E+02  0.73940394035E+03  0.00000000000E+00 0.  1.
         13    1    5    5    0    0 -0.12432453481E+02  0.91036016885E+02  0.95577973160E+02  0.13257930164E+03  0.00000000000E+00 0. -1.
        -13    1    5    5    0    0  0.68462586863E+02  0.12223438836E+03  0.67641344889E+02  0.15557545769E+03  0.00000000000E+00 0.  1.
          2    1    6    6  503    0  0.73557861215E+03  0.52403842605E+03 -0.98920466337E+03  0.13394842413E+04  0.00000000000E+00 0. -1.
         -2    1    6    6    0  503  0.55711788684E+02  0.25584749273E+02 -0.39541894320E+02  0.72951656596E+02  0.00000000000E+00 0.  1.
<mgrwt>
<rscale>  0 0.27503849E+04</rscale>
<asrwt>0</asrwt>
<pdfrwt beam="1">  1        2 0.16180687E+00 0.27503849E+04</pdfrwt>
<pdfrwt beam="2">  1       -1 0.27663255E+00 0.27503849E+04</pdfrwt>
<totfact> 0.10880562E+00</totfact>
</mgrwt>
</event>
<event>
12    7  0.1625631E-007  0.2002653E+04  0.7818608E-02  0.8605381E-01
         -1   -1    0    0    0  501 -0.00000000000E+00  0.00000000000E+00  0.60235875633E+03  0.60235875633E+03  0.00000000000E+00 0.  1.
          2   -1    0    0  501    0  0.00000000000E+00 -0.00000000000E+00 -0.16645468129E+04  0.16645468129E+04  0.00000000000E+00 0. -1.
         24    2    1    2    0    0 -0.50142738741E+03  0.58903225967E+03 -0.62333127756E+03  0.99663515433E+03  0.79695178629E+02 0.  0.
        254    2    1    2    0    0  0.50142738741E+03 -0.58903225967E+03 -0.43885677898E+03  0.12702704149E+04  0.90697476627E+03 0.  0.
         23    2    4    4    0    0  0.48563637047E+02 -0.70816061915E+03 -0.24920427116E+03  0.75792950180E+03  0.92219691914E+02 0.  0.
         23    2    4    4    0    0  0.45286375036E+03  0.11912835948E+03 -0.18965250782E+03  0.51234091306E+03  0.85135157561E+02 0.  0.
          2    1    3    3  502    0 -0.49196701515E+03  0.57492469698E+03 -0.59106391404E+03  0.96017003790E+03  0.00000000000E+00 0. -1.
         -1    1    3    3    0  502 -0.94603722600E+01  0.14107562683E+02 -0.32267363519E+02  0.36465116435E+02  0.00000000000E+00 0.  1.
         13    1    5    5    0    0  0.19881361263E+02 -0.24035667976E+03 -0.39173959882E+02  0.24433829246E+03  0.00000000000E+00 0.  1.
        -13    1    5    5    0    0  0.28682275784E+02 -0.46780393939E+03 -0.21003031128E+03  0.51359120934E+03  0.00000000000E+00 0. -1.
          3    1    6    6  503    0  0.35009769402E+03  0.12735176682E+03 -0.15610652941E+03  0.40392587983E+03  0.00000000000E+00 0. -1.
         -3    1    6    6    0  503  0.10276605634E+03 -0.82234073363E+01 -0.33545978403E+02  0.10841503323E+03  0.00000000000E+00 0.  1.
<mgrwt>
<rscale>  0 0.20026526E+04</rscale>
<asrwt>0</asrwt>
<pdfrwt beam="1">  1        2 0.25608412E+00 0.20026526E+04</pdfrwt>
<pdfrwt beam="2">  1       -1 0.92670578E-01 0.20026526E+04</pdfrwt>
<totfact> 0.12291359E+01</totfact>
</mgrwt>
</event>
<event>
12    7  0.1625631E-007  0.2334934E+04  0.7818608E-02  0.8464273E-01
         -1   -1    0    0    0  501 -0.00000000000E+00  0.00000000000E+00  0.54927665949E+03  0.54927665949E+03  0.00000000000E+00 0.  1.
          2   -1    0    0  501    0  0.00000000000E+00 -0.00000000000E+00 -0.24814072271E+04  0.24814072271E+04  0.00000000000E+00 0. -1.
         24    2    1    2    0    0  0.34319407240E+03  0.75939549175E+03 -0.15261264713E+04  0.17406594398E+04  0.79809740851E+02 0.  0.
        254    2    1    2    0    0 -0.34319407240E+03 -0.75939549175E+03 -0.40600409622E+03  0.12900244467E+04  0.89713993487E+03 0.  0.
         23    2    4    4    0    0 -0.53079683830E+03 -0.66275580502E+03 -0.35649830122E+02  0.85426726174E+03  0.86666622476E+02 0.  0.
         23    2    4    4    0    0  0.18760276590E+03 -0.96639686725E+02 -0.37035426609E+03  0.43575718497E+03  0.90487651186E+02 0.  0.
          4    1    3    3  502    0  0.32250281156E+03  0.74291724455E+03 -0.14629960886E+04  0.16722116047E+04  0.00000000000E+00 0. -1.
         -3    1    3    3    0  502  0.20691260845E+02  0.16478247193E+02 -0.63130382748E+02  0.68447835114E+02  0.00000000000E+00 0.  1.
         13    1    5    5    0    0 -0.19238485035E+03 -0.25486908157E+03  0.27568989178E+02  0.32051556678E+03  0.00000000000E+00 0.  1.
        -13    1    5    5    0    0 -0.33841198795E+03 -0.40788672345E+03 -0.63218819299E+02  0.53375169495E+03  0.00000000000E+00 0. -1.
          4    1    6    6  503    0  0.10455984355E+03 -0.61277340891E+02 -0.12399892327E+03  0.17338802254E+03  0.00000000000E+00 0. -1.
         -4    1    6    6    0  503  0.83042922349E+02 -0.35362345834E+02 -0.24635534282E+03  0.26236916243E+03  0.00000000000E+00 0.  1.
<mgrwt>
<rscale>  0 0.23349339E+04</rscale>
<asrwt>0</asrwt>
<pdfrwt beam="1">  1        2 0.38175497E+00 0.23349339E+04</pdfrwt>
<pdfrwt beam="2">  1       -1 0.84504100E-01 0.23349339E+04</pdfrwt>
<totfact> 0.50888920E+00</totfact>
</mgrwt>
</event>
<event>
12    7  0.1625631E-007  0.1328684E+04  0.7818608E-02  0.9007123E-01
          2   -1    0    0  501    0  0.00000000000E+00  0.00000000000E+00  0.10721700141E+04  0.10721700141E+04  0.00000000000E+00 0. -1.
         -1   -1    0    0    0  501 -0.00000000000E+00 -0.00000000000E+00 -0.41164213665E+03  0.41164213665E+03  0.00000000000E+00 0.  1.
         24    2    1    2    0    0  0.20174753337E+03 -0.30036405570E+03  0.25070475766E+03  0.44728922079E+03  0.79335605750E+02 0.  0.
        254    2    1    2    0    0 -0.20174753337E+03  0.30036405570E+03  0.40982311975E+03  0.10365229299E+04  0.88062714108E+03 0.  0.
         23    2    4    4    0    0 -0.45723197608E+03  0.37327023589E+03  0.45661271484E+03  0.75174559172E+03  0.90744225001E+02 0.  0.
         23    2    4    4    0    0  0.25548444271E+03 -0.72906180198E+02 -0.46789595092E+02  0.28477733820E+03  0.91220910789E+02 0.  0.
          2    1    3    3  502    0  0.65024984055E+02 -0.40692234862E+02  0.58723515145E+02  0.96605164253E+02  0.00000000000E+00 0. -1.
         -1    1    3    3    0  502  0.13672254932E+03 -0.25967182083E+03  0.19198124252E+03  0.35068405653E+03  0.00000000000E+00 0.  1.
         13    1    5    5    0    0 -0.43643391165E+03  0.37174842206E+03  0.42407847525E+03  0.71310167698E+03  0.00000000000E+00 0.  1.
        -13    1    5    5    0    0 -0.20798064436E+02  0.15218138370E+01  0.32534239584E+02  0.38643914746E+02  0.00000000000E+00 0. -1.
          2    1    6    6  503    0 -0.26345511163E+01 -0.16477519306E+02 -0.31951174039E+01  0.16989946359E+02  0.00000000000E+00 0. -1.
         -2    1    6    6    0  503  0.25811899382E+03 -0.56428660892E+02 -0.43594477688E+02  0.26778739184E+03  0.00000000000E+00 0.  1.
<mgrwt>
<rscale>  0 0.13286841E+04</rscale>
<asrwt>0</asrwt>
<pdfrwt beam="1">  1        2 0.16494923E+00 0.13286841E+04</pdfrwt>
<pdfrwt beam="2">  1       -1 0.63329560E-01 0.13286841E+04</pdfrwt>
<totfact> 0.63970371E+01</totfact>
</mgrwt>
</event>
<event>
12    7  0.1625631E-007  0.2305829E+04  0.7818608E-02  0.8475627E-01
          2   -1    0    0  501    0  0.00000000000E+00  0.00000000000E+00  0.16149930768E+04  0.16149930768E+04  0.00000000000E+00 0. -1.
         -1   -1    0    0    0  501 -0.00000000000E+00 -0.00000000000E+00 -0.82304461176E+03  0.82304461176E+03  0.00000000000E+00 0.  1.
         24    2    1    2    0    0 -0.33562070718E+03  0.65620049150E+02 -0.60848257946E+03  0.70242711753E+03  0.78775351477E+02 0.  0.
        254    2    1    2    0    0  0.33562070718E+03 -0.65620049150E+02  0.14004310445E+04  0.17356105710E+04  0.96653489018E+03 0.  0.
         23    2    4    4    0    0  0.47132532341E+03 -0.41045268422E+03  0.99598300051E+03  0.11796196950E+04  0.94347873068E+02 0.  0.
         23    2    4    4    0    0 -0.13570461623E+03  0.34483263507E+03  0.40444804401E+03  0.55599087601E+03  0.90677146099E+02 0.  0.
          2    1    3    3  502    0 -0.16359824656E+01 -0.86216828352E+01 -0.16388542102E+02  0.18590163145E+02  0.00000000000E+00 0. -1.
         -1    1    3    3    0  502 -0.33398472472E+03  0.74241731985E+02 -0.59209403736E+03  0.68383695439E+03  0.00000000000E+00 0.  1.
         13    1    5    5    0    0 -0.31424014977E+01 -0.97327626781E+01  0.97115951134E+01  0.14103773827E+02  0.00000000000E+00 0.  1.
        -13    1    5    5    0    0  0.47446772491E+03 -0.40071992154E+03  0.98627140539E+03  0.11655159212E+04  0.00000000000E+00 0. -1.
          3    1    6    6  503    0 -0.10330634283E+03  0.32015074450E+03  0.38367717860E+03  0.51027137589E+03  0.00000000000E+00 0. -1.
         -3    1    6    6    0  503 -0.32398273397E+02  0.24681890568E+02  0.20770865412E+02  0.45719500119E+02  0.00000000000E+00 0.  1.
<mgrwt>
<rscale>  0 0.23058286E+04</rscale>
<asrwt>0</asrwt>
<pdfrwt beam="1">  1        2 0.24846047E+00 0.23058286E+04</pdfrwt>
<pdfrwt beam="2">  1       -1 0.12662225E+00 0.23058286E+04</pdfrwt>
<totfact> 0.61173297E+00</totfact>
</mgrwt>
</event>
<event>
12    7  0.1625631E-007  0.1973254E+04  0.7818608E-02  0.8619228E-01
          2   -1    0    0  501    0  0.00000000000E+00  0.00000000000E+00  0.13507179050E+04  0.13507179050E+04  0.00000000000E+00 0. -1.
         -1   -1    0    0    0  501 -0.00000000000E+00 -0.00000000000E+00 -0.72067803974E+03  0.72067803974E+03  0.00000000000E+00 0.  1.
         24    2    1    2    0    0  0.39336112144E+03 -0.27098813171E+02  0.95252712868E+03  0.10344328582E+04  0.85299998414E+02 0.  0.
        254    2    1    2    0    0 -0.39336112144E+03  0.27098813171E+02 -0.32248726340E+03  0.10369630866E+04  0.90323147105E+03 0.  0.
         23    2    4    4    0    0 -0.52124417935E+03 -0.29457309067E+03 -0.30587343518E+03  0.67866883341E+03  0.92542027405E+02 0.  0.
         23    2    4    4    0    0  0.12788305791E+03  0.32167190384E+03 -0.16613828221E+02  0.35829425315E+03  0.90949779193E+02 0.  0.
          4    1    3    3  502    0  0.37324726606E+03 -0.16240622177E+02  0.93045313835E+03  0.10026566322E+04  0.00000000000E+00 0. -1.
         -3    1    3    3    0  502  0.20113855386E+02 -0.10858190993E+02  0.22073990324E+02  0.31776226003E+02  0.00000000000E+00 0.  1.
         13    1    5    5    0    0 -0.43916603736E+03 -0.28402579076E+03 -0.26048795364E+03  0.58428711451E+03  0.00000000000E+00 0.  1.
        -13    1    5    5    0    0 -0.82078141985E+02 -0.10547299909E+02 -0.45385481540E+02  0.94381718896E+02  0.00000000000E+00 0. -1.
          3    1    6    6  503    0  0.29881321932E+02  0.21156294060E+02 -0.20930486013E+02  0.42173065142E+02  0.00000000000E+00 0. -1.
         -3    1    6    6    0  503  0.98001735974E+02  0.30051560978E+03  0.43166577916E+01  0.31612118801E+03  0.00000000000E+00 0.  1.
<mgrwt>
<rscale>  0 0.19732539E+04</rscale>
<asrwt>0</asrwt>
<pdfrwt beam="1">  1        2 0.20780275E+00 0.19732539E+04</pdfrwt>
<pdfrwt beam="2">  1       -1 0.11087354E+00 0.19732539E+04</pdfrwt>
<totfact> 0.12278718E+01</totfact>
</mgrwt>
</event>
<event>
12    7  0.1625631E-007  0.1667721E+04  0.7818608E-02  0.8779991E-01
          2   -1    0    0  501    0  0.00000000000E+00  0.00000000000E+00  0.96359251105E+03  0.96359251105E+03  0.00000000000E+00 0. -1.
         -1   -1    0    0    0  501 -0.00000000000E+00 -0.00000000000E+00 -0.72159493133E+03  0.72159493133E+03  0.00000000000E+00 0.  1.
         24    2    1    2    0    0  0.28284897132E+03 -0.15947093508E+03  0.57689594922E+03  0.66671938454E+03  0.79191424938E+02 0.  0.
        254    2    1    2    0    0 -0.28284897132E+03  0.15947093508E+03 -0.33489836949E+03  0.10184680578E+04  0.90536498013E+03 0.  0.
         23    2    4    4    0    0 -0.37066656163E+03  0.17214918565E+03  0.20316518999E+03  0.46549962622E+03  0.91568365489E+02 0.  0.
         23    2    4    4    0    0  0.87817590308E+02 -0.12678250574E+02 -0.53806355948E+03  0.55296843162E+03  0.91591621488E+02 0.  0.
          2    1    3    3  502    0  0.14461562199E+03 -0.12226718938E+03  0.29491191643E+03  0.35047964588E+03  0.00000000000E+00 0. -1.
         -1    1    3    3    0  502  0.13823334933E+03 -0.37203745700E+02  0.28198403278E+03  0.31623973866E+03  0.00000000000E+00 0.  1.
         13    1    5    5    0    0 -0.24499326957E+03  0.77535973073E+02  0.92269593539E+02  0.27303334438E+03  0.00000000000E+00 0.  1.
        -13    1    5    5    0    0 -0.12567329206E+03  0.94613212578E+02  0.11089559645E+03  0.19246628184E+03  0.00000000000E+00 0. -1.
          4    1    6    6  503    0 -0.13255074276E+02  0.16448257860E+02 -0.12195882563E+03  0.12377478471E+03  0.00000000000E+00 0. -1.
         -4    1    6    6    0  503  0.10107266458E+03 -0.29126508433E+02 -0.41610473385E+03  0.42919364692E+03  0.00000000000E+00 0.  1.
<mgrwt>
<rscale>  0 0.16677212E+04</rscale>
<asrwt>0</asrwt>
<pdfrwt beam="1">  1        2 0.14824500E+00 0.16677212E+04</pdfrwt>
<pdfrwt beam="2">  1       -1 0.11101460E+00 0.16677212E+04</pdfrwt>
<totfact> 0.21623217E+01</totfact>
</mgrwt>
</event>
<event>
12    7  0.1625631E-007  0.1888906E+04  0.7818608E-02  0.8660398E-01
          2   -1    0    0  501    0  0.00000000000E+00  0.00000000000E+00  0.31663752210E+04  0.31663752210E+04  0.00000000000E+00 0. -1.
         -1   -1    0    0    0  501 -0.00000000000E+00 -0.00000000000E+00 -0.28170743872E+03  0.28170743872E+03  0.00000000000E+00 0.  1.
         24    2    1    2    0    0 -0.66358997033E+03  0.30795895520E+03  0.11639741036E+04  0.13780730191E+04  0.95179647911E+02 0.  0.
        254    2    1    2    0    0  0.66358997033E+03 -0.30795895520E+03  0.17206936787E+04  0.20700096406E+04  0.88823578485E+03 0.  0.
         23    2    4    4    0    0  0.73983750831E+03 -0.15525297763E+03  0.17144422139E+04  0.18758409654E+04  0.89466177935E+02 0.  0.
         23    2    4    4    0    0 -0.76247537980E+02 -0.15270597757E+03  0.62514648702E+01  0.19416867525E+03  0.92355784880E+02 0.  0.
          2    1    3    3  502    0 -0.61788126019E+03  0.30886657241E+03  0.11093591472E+04  0.13068487015E+04  0.00000000000E+00 0. -1.
         -1    1    3    3    0  502 -0.45708710146E+02 -0.90761721697E+00  0.54614956363E+02  0.71224317552E+02  0.00000000000E+00 0.  1.
         13    1    5    5    0    0  0.31416775940E+03 -0.99197579200E+02  0.81927241432E+03  0.88303387796E+03  0.00000000000E+00 0. -1.
        -13    1    5    5    0    0  0.42566974892E+03 -0.56055398428E+02  0.89516979956E+03  0.99280708744E+03  0.00000000000E+00 0.  1.
          1    1    6    6  503    0 -0.41808497855E+02 -0.46868490989E+02  0.43951555597E+02  0.76657323067E+02  0.00000000000E+00 0. -1.
         -1    1    6    6    0  503 -0.34439040125E+02 -0.10583748658E+03 -0.37700090727E+02  0.11751135218E+03  0.00000000000E+00 0.  1.
<mgrwt>
<rscale>  0 0.18889060E+04</rscale>
<asrwt>0</asrwt>
<pdfrwt beam="1">  1        2 0.48713462E+00 0.18889060E+04</pdfrwt>
<pdfrwt beam="2">  1       -1 0.43339608E-01 0.18889060E+04</pdfrwt>
<totfact> 0.76769838E+00</totfact>
</mgrwt>
</event>
<event>
12    7  0.1625631E-007  0.1325249E+04  0.7818608E-02  0.9009779E-01
         -1   -1    0    0    0  501 -0.00000000000E+00  0.00000000000E+00  0.31659350710E+03  0.31659350710E+03  0.00000000000E+00 0.  1.
          2   -1    0    0  501    0  0.00000000000E+00 -0.00000000000E+00 -0.13868605566E+04  0.13868605566E+04  0.00000000000E+00 0. -1.
         24    2    1    2    0    0 -0.59228688694E+02 -0.32787300928E+03 -0.17167805900E+03  0.38471425220E+03  0.86734953335E+02 0.  0.
        254    2    1    2    0    0  0.59228688694E+02  0.32787300928E+03 -0.89858899050E+03  0.13187398115E+04  0.90587182802E+03 0.  0.
         23    2    4    4    0    0 -0.34182708970E+03  0.19664533856E+03 -0.76754752573E+03  0.86766888252E+03  0.90581107351E+02 0.  0.
         23    2    4    4    0    0  0.40105577839E+03  0.13122767072E+03 -0.13104146477E+03  0.45107092898E+03  0.90701039325E+02 0.  0.
          2    1    3    3  502    0 -0.39076658890E+02 -0.14795190211E+03 -0.32709911844E+02  0.15648223203E+03  0.00000000000E+00 0. -1.
         -1    1    3    3    0  502 -0.20152029805E+02 -0.17992110717E+03 -0.13896814715E+03  0.22823202017E+03  0.00000000000E+00 0.  1.
         13    1    5    5    0    0 -0.15508399597E+03  0.10884070062E+03 -0.45802087660E+03  0.49566164600E+03  0.00000000000E+00 0. -1.
        -13    1    5    5    0    0 -0.18674309373E+03  0.87804637944E+02 -0.30952664914E+03  0.37200723652E+03  0.00000000000E+00 0.  1.
          4    1    6    6  503    0  0.18771945658E+03  0.10743562487E+03 -0.53217643004E+02  0.22274003995E+03  0.00000000000E+00 0. -1.
         -4    1    6    6    0  503  0.21333632181E+03  0.23792045850E+02 -0.77823821764E+02  0.22833088903E+03  0.00000000000E+00 0.  1.
<mgrwt>
<rscale>  0 0.13252487E+04</rscale>
<asrwt>0</asrwt>
<pdfrwt beam="1">  1        2 0.21336316E+00 0.13252487E+04</pdfrwt>
<pdfrwt beam="2">  1       -1 0.48706693E-01 0.13252487E+04</pdfrwt>
<totfact> 0.69257256E+01</totfact>
</mgrwt>
</event>
<event>
12    7  0.1625631E-007  0.2722841E+04  0.7818608E-02  0.8327632E-01
         -1   -1    0    0    0  501 -0.00000000000E+00  0.00000000000E+00  0.16583216340E+04  0.16583216340E+04  0.00000000000E+00 0.  1.
          2   -1    0    0  501    0  0.00000000000E+00 -0.00000000000E+00 -0.11176760994E+04  0.11176760994E+04  0.00000000000E+00 0. -1.
         24    2    1    2    0    0  0.47278758048E+03 -0.35650158103E+03  0.13181131975E+04  0.14469550245E+04  0.75066424051E+02 0.  0.
        254    2    1    2    0    0 -0.47278758048E+03  0.35650158103E+03 -0.77746766289E+03  0.13290427088E+04  0.90070921033E+03 0.  0.
         23    2    4    4    0    0  0.13873502573E+03  0.37450374415E+03 -0.12246566183E+03  0.42812081233E+03  0.93750359336E+02 0.  0.
         23    2    4    4    0    0 -0.61152260620E+03 -0.18002163125E+02 -0.65500200106E+03  0.90092189651E+03  0.91371037253E+02 0.  0.
          4    1    3    3  502    0  0.12275180839E+03 -0.13491347225E+03  0.38608925766E+03  0.42700651791E+03  0.00000000000E+00 0. -1.
         -3    1    3    3    0  502  0.35003577209E+03 -0.22158810878E+03  0.93202393982E+03  0.10199485066E+04  0.00000000000E+00 0.  1.
         13    1    5    5    0    0  0.69709083462E+02  0.10924237335E+03 -0.43577989657E+01  0.12966203324E+03  0.00000000000E+00 0.  1.
        -13    1    5    5    0    0  0.69025942267E+02  0.26526137081E+03 -0.11810786286E+03  0.29845877909E+03  0.00000000000E+00 0. -1.
          3    1    6    6  503    0 -0.13751151273E+03  0.39190948673E+01 -0.96405130005E+02  0.16798429846E+03  0.00000000000E+00 0. -1.
         -3    1    6    6    0  503 -0.47401109348E+03 -0.21921257992E+02 -0.55859687106E+03  0.73293759806E+03  0.00000000000E+00 0.  1.
<mgrwt>
<rscale>  0 0.27228415E+04</rscale>
<asrwt>0</asrwt>
<pdfrwt beam="1">  1        2 0.17195017E+00 0.27228415E+04</pdfrwt>
<pdfrwt beam="2">  1       -1 0.25512641E+00 0.27228415E+04</pdfrwt>
<totfact> 0.13685613E+00</totfact>
</mgrwt>
</event>
<event>
12    7  0.1625631E-007  0.2709642E+04  0.7818608E-02  0.8331883E-01
         -1   -1    0    0    0  501 -0.00000000000E+00  0.00000000000E+00  0.82748143556E+03  0.82748143556E+03  0.00000000000E+00 0.  1.
          2   -1    0    0  501    0  0.00000000000E+00 -0.00000000000E+00 -0.22182244467E+04  0.22182244467E+04  0.00000000000E+00 0. -1.
         24    2    1    2    0    0 -0.13554767152E+03  0.86829803673E+03 -0.15450983301E+04  0.17793443027E+04  0.80141413302E+02 0.  0.
        254    2    1    2    0    0  0.13554767152E+03 -0.86829803673E+03  0.15435531891E+03  0.12663615796E+04  0.89862752792E+03 0.  0.
         23    2    4    4    0    0 -0.60361610802E+02 -0.10071488484E+03 -0.31037582282E+03  0.34347298386E+03  0.88620128412E+02 0.  0.
         23    2    4    4    0    0  0.19590928233E+03 -0.76758315189E+03  0.46473114173E+03  0.92288859574E+03  0.90465375038E+02 0.  0.
          4    1    3    3  502    0 -0.15284202815E+02  0.66476989217E+02 -0.16752934906E+03  0.18088360829E+03  0.00000000000E+00 0. -1.
         -3    1    3    3    0  502 -0.12026346871E+03  0.80182104752E+03 -0.13775689810E+04  0.15984606944E+04  0.00000000000E+00 0.  1.
         13    1    5    5    0    0 -0.25529627798E+02 -0.10548556131E+03 -0.26269845422E+03  0.28423483846E+03  0.00000000000E+00 0.  1.
        -13    1    5    5    0    0 -0.34831983005E+02  0.47706764695E+01 -0.47677368597E+02  0.59238145399E+02  0.00000000000E+00 0. -1.
          2    1    6    6  503    0 -0.17796425965E+01 -0.87461004955E+02  0.33539883901E+02  0.93688410850E+02  0.00000000000E+00 0. -1.
         -2    1    6    6    0  503  0.19768892492E+03 -0.68012214693E+03  0.43119125783E+03  0.82920018489E+03  0.00000000000E+00 0.  1.
<mgrwt>
<rscale>  0 0.27096417E+04</rscale>
<asrwt>0</asrwt>
<pdfrwt beam="1">  1        2 0.34126530E+00 0.27096417E+04</pdfrwt>
<pdfrwt beam="2">  1       -1 0.12730484E+00 0.27096417E+04</pdfrwt>
<totfact> 0.26877441E+00</totfact>
</mgrwt>
</event>
<event>
12    7  0.1625631E-007  0.2050114E+04  0.7818608E-02  0.8583543E-01
         -1   -1    0    0    0  501 -0.00000000000E+00  0.00000000000E+00  0.56535148870E+03  0.56535148870E+03  0.00000000000E+00 0.  1.
          2   -1    0    0  501    0  0.00000000000E+00 -0.00000000000E+00 -0.18585631310E+04  0.18585631310E+04  0.00000000000E+00 0. -1.
         24    2    1    2    0    0  0.77743420728E+03  0.16559752231E+03 -0.81591161402E+03  0.11419785938E+04  0.81097846286E+02 0.  0.
        254    2    1    2    0    0 -0.77743420728E+03 -0.16559752231E+03 -0.47730002832E+03  0.12819360260E+04  0.88527858418E+03 0.  0.
         23    2    4    4    0    0 -0.86462683658E+03 -0.37373070174E+03 -0.36477187462E+03  0.10140847851E+04  0.89750915521E+02 0.  0.
         23    2    4    4    0    0  0.87192629296E+02  0.20813317943E+03 -0.11252815371E+03  0.26785124091E+03  0.90331206681E+02 0.  0.
          4    1    3    3  502    0  0.29672505304E+03  0.40796787197E+02 -0.35427348295E+03  0.46391791911E+03  0.00000000000E+00 0. -1.
         -3    1    3    3    0  502  0.48070915424E+03  0.12480073511E+03 -0.46163813107E+03  0.67806067466E+03  0.00000000000E+00 0.  1.
         13    1    5    5    0    0 -0.57513580801E+03 -0.22137382687E+03 -0.20081686743E+03  0.64816277517E+03  0.00000000000E+00 0. -1.
        -13    1    5    5    0    0 -0.28949102857E+03 -0.15235687487E+03 -0.16395500718E+03  0.36592200989E+03  0.00000000000E+00 0.  1.
          4    1    6    6  503    0  0.95636906492E+02  0.13994824143E+03 -0.54891166870E+02  0.17817117714E+03  0.00000000000E+00 0. -1.
         -4    1    6    6    0  503 -0.84442771960E+01  0.68184937996E+02 -0.57636986838E+02  0.89680063774E+02  0.00000000000E+00 0.  1.
<mgrwt>
<rscale>  0 0.20501136E+04</rscale>
<asrwt>0</asrwt>
<pdfrwt beam="1">  1        2 0.28593280E+00 0.20501136E+04</pdfrwt>
<pdfrwt beam="2">  1       -1 0.86977150E-01 0.20501136E+04</pdfrwt>
<totfact> 0.10983880E+01</totfact>
</mgrwt>
</event>
<event>
12    7  0.1625631E-007  0.1395914E+04  0.7818608E-02  0.8956781E-01
          2   -1    0    0  501    0  0.00000000000E+00  0.00000000000E+00  0.74952328906E+03  0.74952328906E+03  0.00000000000E+00 0. -1.
         -1   -1    0    0    0  501 -0.00000000000E+00 -0.00000000000E+00 -0.64993851472E+03  0.64993851472E+03  0.00000000000E+00 0.  1.
         24    2    1    2    0    0 -0.83438934937E+02  0.30706575403E+03 -0.23848260737E+03  0.40530296258E+03  0.78390715624E+02 0.  0.
        254    2    1    2    0    0  0.83438934937E+02 -0.30706575403E+03  0.33806738171E+03  0.99415884120E+03  0.87909658958E+03 0.  0.
         23    2    4    4    0    0  0.29557322095E+03 -0.50930921856E+03  0.34006496237E+03  0.68729659150E+03  0.99864993864E+02 0.  0.
         23    2    4    4    0    0 -0.21213428601E+03  0.20224346453E+03 -0.19975806524E+01  0.30686224971E+03  0.90868452817E+02 0.  0.
          2    1    3    3  502    0 -0.37579416362E+02  0.35628784513E+02 -0.28778202410E+02  0.59243630492E+02  0.00000000000E+00 0. -1.
         -1    1    3    3    0  502 -0.45859518575E+02  0.27143696952E+03 -0.20970440497E+03  0.34605933209E+03  0.00000000000E+00 0.  1.
         13    1    5    5    0    0  0.13723845653E+03 -0.20963139936E+03  0.19986917442E+03  0.32051116117E+03  0.00000000000E+00 0. -1.
        -13    1    5    5    0    0  0.15833476442E+03 -0.29967781920E+03  0.14019578795E+03  0.36678543033E+03  0.00000000000E+00 0.  1.
          3    1    6    6  503    0 -0.44077212204E+02  0.66472341665E+02 -0.37127433250E+02  0.87976241917E+02  0.00000000000E+00 0. -1.
         -3    1    6    6    0  503 -0.16805707381E+03  0.13577112287E+03  0.35129852598E+02  0.21888600779E+03  0.00000000000E+00 0.  1.
<mgrwt>
<rscale>  0 0.13959141E+04</rscale>
<asrwt>0</asrwt>
<pdfrwt beam="1">  1        2 0.11531128E+00 0.13959141E+04</pdfrwt>
<pdfrwt beam="2">  1       -1 0.99990541E-01 0.13959141E+04</pdfrwt>
<totfact> 0.39797263E+01</totfact>
</mgrwt>
</event>
<event>
12    7  0.1625631E-007  0.2445060E+04  0.7818608E-02  0.8422824E-01
         -1   -1    0    0    0  501 -0.00000000000E+00  0.00000000000E+00  0.47481202343E+03  0.47481202343E+03  0.00000000000E+00 0.  1.
          2   -1    0    0  501    0  0.00000000000E+00 -0.00000000000E+00 -0.31477290014E+04  0.31477290014E+04  0.00000000000E+00 0. -1.
         24    2    1    2    0    0  0.60122977719E+03  0.79770767001E+03 -0.66323707128E+03  0.12019497450E+04  0.83576342873E+02 0.  0.
        254    2    1    2    0    0 -0.60122977719E+03 -0.79770767001E+03 -0.20096799067E+04  0.24205912798E+04  0.90699175560E+03 0.  0.
         23    2    4    4    0    0 -0.12257526511E+03 -0.38388560739E+03 -0.12429167799E+03  0.42969368769E+03  0.82434148540E+02 0.  0.
         23    2    4    4    0    0 -0.47865451207E+03 -0.41382206262E+03 -0.18853882287E+04  0.19908975921E+04  0.92874150996E+02 0.  0.
          4    1    3    3  502    0  0.17834927661E+03  0.21672833067E+03 -0.14448188882E+03  0.31568124743E+03  0.00000000000E+00 0. -1.
         -3    1    3    3    0  502  0.42288050057E+03  0.58097933934E+03 -0.51875518245E+03  0.88626849760E+03  0.00000000000E+00 0.  1.
         13    1    5    5    0    0 -0.76287929285E+02 -0.11799452411E+03 -0.28958934793E+02  0.14346140868E+03  0.00000000000E+00 0. -1.
        -13    1    5    5    0    0 -0.46287335826E+02 -0.26589108327E+03 -0.95332743199E+02  0.28623227901E+03  0.00000000000E+00 0.  1.
          4    1    6    6  503    0 -0.29821259642E+03 -0.25987989795E+03 -0.10336995273E+04  0.11067985485E+04  0.00000000000E+00 0.  1.
         -4    1    6    6    0  503 -0.18044191565E+03 -0.15394216468E+03 -0.85168870135E+03  0.88409904366E+03  0.00000000000E+00 0. -1.
<mgrwt>
<rscale>  0 0.24450600E+04</rscale>
<asrwt>0</asrwt>
<pdfrwt beam="1">  1        2 0.48426601E+00 0.24450600E+04</pdfrwt>
<pdfrwt beam="2">  1       -1 0.73048002E-01 0.24450600E+04</pdfrwt>
<totfact> 0.27008180E+00</totfact>
</mgrwt>
</event>
<event>
12    7  0.1625631E-007  0.1606216E+04  0.7818608E-02  0.8816739E-01
          2   -1    0    0  501    0  0.00000000000E+00  0.00000000000E+00  0.20435472683E+04  0.20435472683E+04  0.00000000000E+00 0. -1.
         -1   -1    0    0    0  501 -0.00000000000E+00 -0.00000000000E+00 -0.31561896176E+03  0.31561896176E+03  0.00000000000E+00 0.  1.
         24    2    1    2    0    0 -0.11697543535E+03 -0.34263454607E+03 -0.12305207318E+02  0.37125805362E+03  0.81236935027E+02 0.  0.
        254    2    1    2    0    0  0.11697543535E+03  0.34263454607E+03  0.17402335139E+04  0.19879081764E+04  0.89010367406E+03 0.  0.
         23    2    4    4    0    0  0.38609513957E+03  0.49086716293E+03  0.12746411634E+04  0.14224111457E+04  0.92321957124E+02 0.  0.
         23    2    4    4    0    0 -0.26911970422E+03 -0.14823261686E+03  0.46559235049E+03  0.56549703069E+03  0.92802645349E+02 0.  0.
          4    1    3    3  502    0 -0.55413299683E+02 -0.19505257619E+03  0.32108261797E+02  0.20529754440E+03  0.00000000000E+00 0. -1.
         -3    1    3    3    0  502 -0.61562135662E+02 -0.14758196988E+03 -0.44413469116E+02  0.16596050922E+03  0.00000000000E+00 0.  1.
         13    1    5    5    0    0  0.30059269814E+03  0.42763985350E+03  0.10111116439E+04  0.11382348488E+04  0.00000000000E+00 0.  1.
        -13    1    5    5    0    0  0.85502441422E+02  0.63227309426E+02  0.26352951944E+03  0.28417629697E+03  0.00000000000E+00 0. -1.
          4    1    6    6  503    0 -0.44497280835E+02 -0.47082746816E+02  0.47889439583E+02  0.80561724615E+02  0.00000000000E+00 0. -1.
         -4    1    6    6    0  503 -0.22462242339E+03 -0.10114987004E+03  0.41770291091E+03  0.48493530608E+03  0.00000000000E+00 0.  1.
<mgrwt>
<rscale>  0 0.16062158E+04</rscale>
<asrwt>0</asrwt>
<pdfrwt beam="1">  1        2 0.31439188E+00 0.16062158E+04</pdfrwt>
<pdfrwt beam="2">  1       -1 0.48556765E-01 0.16062158E+04</pdfrwt>
<totfact> 0.29281240E+01</totfact>
</mgrwt>
</event>
<event>
12    7  0.1625631E-007  0.1253975E+04  0.7818608E-02  0.9066881E-01
          2   -1    0    0  501    0  0.00000000000E+00  0.00000000000E+00  0.13537468925E+04  0.13537468925E+04  0.00000000000E+00 0. -1.
         -1   -1    0    0    0  501 -0.00000000000E+00 -0.00000000000E+00 -0.29038908753E+03  0.29038908753E+03  0.00000000000E+00 0.  1.
         24    2    1    2    0    0 -0.13743245023E+03 -0.12406494146E+03 -0.40028273125E+02  0.20576006813E+03  0.80343978689E+02 0.  0.
        254    2    1    2    0    0  0.13743245023E+03  0.12406494146E+03  0.11033860781E+04  0.14383759119E+04  0.90398265387E+03 0.  0.
         23    2    4    4    0    0 -0.13405179428E+03 -0.34047516302E+03  0.42686256723E+03  0.56951382101E+03  0.90780619277E+02 0.  0.
         23    2    4    4    0    0  0.27148424451E+03  0.46454010448E+03  0.67652351084E+03  0.86886209086E+03  0.87954923281E+02 0.  0.
          4    1    3    3  502    0 -0.51361733029E+01  0.90541449186E+01 -0.12188350699E+02  0.16028527979E+02  0.00000000000E+00 0. -1.
         -3    1    3    3    0  502 -0.13229627693E+03 -0.13311908638E+03 -0.27839922426E+02  0.18973154015E+03  0.00000000000E+00 0.  1.
         13    1    5    5    0    0 -0.11693082160E+03 -0.17392131295E+03  0.23798531011E+03  0.31710952046E+03  0.00000000000E+00 0.  1.
        -13    1    5    5    0    0 -0.17120972677E+02 -0.16655385006E+03  0.18887725712E+03  0.25240430054E+03  0.00000000000E+00 0. -1.
          1    1    6    6  503    0  0.18964960199E+02  0.73150941999E+02  0.13383434249E+03  0.15369567743E+03  0.00000000000E+00 0. -1.
         -1    1    6    6    0  503  0.25251928431E+03  0.39138916248E+03  0.54268916834E+03  0.71516641343E+03  0.00000000000E+00 0.  1.
<mgrwt>
<rscale>  0 0.12539750E+04</rscale>
<asrwt>0</asrwt>
<pdfrwt beam="1">  1        2 0.20826875E+00 0.12539750E+04</pdfrwt>
<pdfrwt beam="2">  1       -1 0.44675245E-01 0.12539750E+04</pdfrwt>
<totfact> 0.85550590E+01</totfact>
</mgrwt>
</event>
<event>
12    7  0.1625631E-007  0.1291430E+04  0.7818608E-02  0.9036389E-01
         -1   -1    0    0    0  501 -0.00000000000E+00  0.00000000000E+00  0.13166059065E+03  0.13166059065E+03  0.00000000000E+00 0.  1.
          2   -1    0    0  501    0  0.00000000000E+00 -0.00000000000E+00 -0.31668376784E+04  0.31668376784E+04  0.00000000000E+00 0. -1.
         24    2    1    2    0    0 -0.17890291311E+03  0.24573305912E+03 -0.10840936039E+04  0.11288782716E+04  0.81952556489E+02 0.  0.
        254    2    1    2    0    0  0.17890291311E+03 -0.24573305912E+03 -0.19510834839E+04  0.21696199975E+04  0.89896228148E+03 0.  0.
         23    2    4    4    0    0  0.43918393620E+03 -0.34405385700E+03 -0.78627694263E+03  0.96849922241E+03  0.92215654619E+02 0.  0.
         23    2    4    4    0    0 -0.26028102310E+03  0.98320797882E+02 -0.11648065413E+04  0.12011207751E+04  0.92215223098E+02 0.  0.
          4    1    3    3  502    0 -0.63320316471E+02  0.58383648281E+02 -0.19935490691E+03  0.21716466511E+03  0.00000000000E+00 0. -1.
         -3    1    3    3    0  502 -0.11558259664E+03  0.18734941084E+03 -0.88473869694E+03  0.91171360649E+03  0.00000000000E+00 0.  1.
         13    1    5    5    0    0  0.27786478711E+03 -0.27045110862E+03 -0.55629491781E+03  0.67809783781E+03  0.00000000000E+00 0. -1.
        -13    1    5    5    0    0  0.16131914909E+03 -0.73602748385E+02 -0.22998202482E+03  0.29040138459E+03  0.00000000000E+00 0.  1.
          4    1    6    6  503    0 -0.19222077582E+03  0.11295763053E+03 -0.85528358283E+03  0.88386552145E+03  0.00000000000E+00 0. -1.
         -4    1    6    6    0  503 -0.68060247272E+02 -0.14636832647E+02 -0.30952295846E+03  0.31725525361E+03  0.00000000000E+00 0.  1.
<mgrwt>
<rscale>  0 0.12914298E+04</rscale>
<asrwt>0</asrwt>
<pdfrwt beam="1">  1        2 0.48720574E+00 0.12914298E+04</pdfrwt>
<pdfrwt beam="2">  1       -1 0.20255478E-01 0.12914298E+04</pdfrwt>
<totfact> 0.30927385E+01</totfact>
</mgrwt>
</event>
<event>
12    7  0.1625631E-007  0.1837783E+04  0.7818608E-02  0.8686461E-01
         -1   -1    0    0    0  501 -0.00000000000E+00  0.00000000000E+00  0.45418148533E+03  0.45418148533E+03  0.00000000000E+00 0.  1.
          2   -1    0    0  501    0  0.00000000000E+00 -0.00000000000E+00 -0.18590844650E+04  0.18590844650E+04  0.00000000000E+00 0. -1.
         24    2    1    2    0    0 -0.23725717035E+03  0.81452018483E+02  0.27906738548E+03  0.38316241457E+03  0.77520539887E+02 0.  0.
        254    2    1    2    0    0  0.23725717035E+03 -0.81452018483E+02 -0.16839703651E+04  0.19301035357E+04  0.90918538913E+03 0.  0.
         23    2    4    4    0    0 -0.10926403768E+03  0.19343469968E+03 -0.62937539701E+02  0.24731056329E+03  0.88576339043E+02 0.  0.
         23    2    4    4    0    0  0.34652120803E+03 -0.27488671817E+03 -0.16210328254E+04  0.16827929725E+04  0.91679395331E+02 0.  0.
          2    1    3    3  502    0 -0.13626532550E+03  0.54960346632E+02  0.10650531130E+03  0.18147247717E+03  0.00000000000E+00 0. -1.
         -1    1    3    3    0  502 -0.10099184485E+03  0.26491671851E+02  0.17256207418E+03  0.20168993740E+03  0.00000000000E+00 0.  1.
         13    1    5    5    0    0 -0.27647058792E+02  0.13737354795E+03 -0.35150474678E+02  0.14446939955E+03  0.00000000000E+00 0.  1.
        -13    1    5    5    0    0 -0.81616978892E+02  0.56061151739E+02 -0.27787065024E+02  0.10284116375E+03  0.00000000000E+00 0. -1.
          4    1    6    6  503    0 -0.34620329084E+01 -0.13887184928E+02 -0.36266471130E+02  0.38988415014E+02  0.00000000000E+00 0. -1.
         -4    1    6    6    0  503  0.34998324094E+03 -0.26099953324E+03 -0.15847663543E+04  0.16438045574E+04  0.00000000000E+00 0.  1.
<mgrwt>
<rscale>  0 0.18377832E+04</rscale>
<asrwt>0</asrwt>
<pdfrwt beam="1">  1        2 0.28601300E+00 0.18377832E+04</pdfrwt>
<pdfrwt beam="2">  1       -1 0.69874074E-01 0.18377832E+04</pdfrwt>
<totfact> 0.17760514E+01</totfact>
</mgrwt>
</event>
<event>
12    7  0.1625631E-007  0.1373291E+04  0.7818608E-02  0.8973382E-01
         -1   -1    0    0    0  501 -0.00000000000E+00  0.00000000000E+00  0.23913030494E+03  0.23913030494E+03  0.00000000000E+00 0.  1.
          2   -1    0    0  501    0  0.00000000000E+00 -0.00000000000E+00 -0.19716536489E+04  0.19716536489E+04  0.00000000000E+00 0. -1.
         24    2    1    2    0    0 -0.90799621102E+02  0.98555043197E+02  0.83091942993E+02  0.17669271223E+03  0.79739424583E+02 0.  0.
        254    2    1    2    0    0  0.90799621102E+02 -0.98555043197E+02 -0.18156152869E+04  0.20340912416E+04  0.90725445231E+03 0.  0.
         23    2    4    4    0    0  0.28329884699E-01 -0.55093366343E+02 -0.18804386225E+04  0.18833246717E+04  0.88471047666E+02 0.  0.
         23    2    4    4    0    0  0.90771291218E+02 -0.43461676853E+02  0.64823335578E+02  0.15076656987E+03  0.91652327244E+02 0.  0.
          2    1    3    3  502    0 -0.52335430475E+02  0.65541395442E+02  0.55545993736E+01  0.84056679531E+02  0.00000000000E+00 0. -1.
         -1    1    3    3    0  502 -0.38464190627E+02  0.33013647754E+02  0.77537343619E+02  0.92636032699E+02  0.00000000000E+00 0.  1.
         13    1    5    5    0    0 -0.13139493988E+02 -0.72821491301E+02 -0.10555728402E+04  0.10581633319E+04  0.00000000000E+00 0. -1.
        -13    1    5    5    0    0  0.13167823873E+02  0.17728124957E+02 -0.82486578228E+03  0.82516133985E+03  0.00000000000E+00 0.  1.
          3    1    6    6  503    0 -0.12738290275E+02  0.12984619896E+02  0.76027091567E+01  0.19714603205E+02  0.00000000000E+00 0. -1.
         -3    1    6    6    0  503  0.10350958149E+03 -0.56446296750E+02  0.57220626422E+02  0.13105196666E+03  0.00000000000E+00 0.  1.
<mgrwt>
<rscale>  0 0.13732911E+04</rscale>
<asrwt>0</asrwt>
<pdfrwt beam="1">  1        2 0.30333134E+00 0.13732911E+04</pdfrwt>
<pdfrwt beam="2">  1       -1 0.36789277E-01 0.13732911E+04</pdfrwt>
<totfact> 0.54621575E+01</totfact>
</mgrwt>
</event>
<event>
12    7  0.1625631E-007  0.2363288E+04  0.7818608E-02  0.8453377E-01
          2   -1    0    0  501    0  0.00000000000E+00  0.00000000000E+00  0.25832880010E+04  0.25832880010E+04  0.00000000000E+00 0. -1.
         -1   -1    0    0    0  501 -0.00000000000E+00 -0.00000000000E+00 -0.54050578223E+03  0.54050578223E+03  0.00000000000E+00 0.  1.
         24    2    1    2    0    0  0.41181894982E+03  0.35938483187E+03  0.19970314254E+04  0.20720273405E+04  0.80065477379E+02 0.  0.
        254    2    1    2    0    0 -0.41181894982E+03 -0.35938483187E+03  0.45750793360E+02  0.10517664428E+04  0.89742253721E+03 0.  0.
         23    2    4    4    0    0 -0.22243782001E+03  0.18832103418E+03  0.28588623205E+03  0.41833129089E+03  0.91250948356E+02 0.  0.
         23    2    4    4    0    0 -0.18938112981E+03 -0.54770586605E+03 -0.24013543869E+03  0.63343515190E+03  0.87909810133E+02 0.  0.
          2    1    3    3  502    0  0.36302550309E+03  0.33332473881E+03  0.17048975963E+04  0.17747024290E+04  0.00000000000E+00 0. -1.
         -1    1    3    3    0  502  0.48793446730E+02  0.26060093053E+02  0.29213382910E+03  0.29732491150E+03  0.00000000000E+00 0.  1.
         13    1    5    5    0    0 -0.17385165749E+03  0.91002967790E+02  0.19407671439E+03  0.27599222819E+03  0.00000000000E+00 0. -1.
        -13    1    5    5    0    0 -0.48586162525E+02  0.97318066395E+02  0.91809517663E+02  0.14233906270E+03  0.00000000000E+00 0.  1.
          3    1    6    6  503    0 -0.96386187064E+02 -0.33106023879E+03 -0.18504905953E+03  0.39132382141E+03  0.00000000000E+00 0. -1.
         -3    1    6    6    0  503 -0.92994942744E+02 -0.21664562726E+03 -0.55086379156E+02  0.24211133049E+03  0.00000000000E+00 0.  1.
<mgrwt>
<rscale>  0 0.23632876E+04</rscale>
<asrwt>0</asrwt>
<pdfrwt beam="1">  1        2 0.39742892E+00 0.23632876E+04</pdfrwt>
<pdfrwt beam="2">  1       -1 0.83154737E-01 0.23632876E+04</pdfrwt>
<totfact> 0.45853436E+00</totfact>
</mgrwt>
</event>
<event>
12    7  0.1625631E-007  0.1659427E+04  0.7818608E-02  0.8784849E-01
          2   -1    0    0  501    0  0.00000000000E+00  0.00000000000E+00  0.14550894140E+04  0.14550894140E+04  0.00000000000E+00 0. -1.
         -1   -1    0    0    0  501 -0.00000000000E+00 -0.00000000000E+00 -0.47311468305E+03  0.47311468305E+03  0.00000000000E+00 0.  1.
         24    2    1    2    0    0  0.40568314449E+03  0.10823937877E+03  0.81482255755E+03  0.92021624022E+03  0.81040432029E+02 0.  0.
        254    2    1    2    0    0 -0.40568314449E+03 -0.10823937877E+03  0.16715217341E+03  0.10079878569E+04  0.90100227173E+03 0.  0.
         23    2    4    4    0    0 -0.41921528240E+03 -0.46043589968E+03  0.86658604042E+02  0.63533781952E+03  0.91661117972E+02 0.  0.
         23    2    4    4    0    0  0.13532137907E+02  0.35219652091E+03  0.80493569372E+02  0.37265003734E+03  0.90351134564E+02 0.  0.
          2    1    3    3  502    0  0.29324991567E+03  0.46197273970E+02  0.61122336971E+03  0.67950254513E+03  0.00000000000E+00 0. -1.
         -1    1    3    3    0  502  0.11243322882E+03  0.62042104801E+02  0.20359918785E+03  0.24071369509E+03  0.00000000000E+00 0.  1.
         13    1    5    5    0    0 -0.11899851657E+02 -0.44826213224E+02  0.16368598360E+02  0.49182587099E+02  0.00000000000E+00 0.  1.
        -13    1    5    5    0    0 -0.40731543074E+03 -0.41560968646E+03  0.70290005682E+02  0.58615523242E+03  0.00000000000E+00 0. -1.
          1    1    6    6  503    0  0.16638158583E+02  0.21945587966E+03  0.54918693975E+01  0.22015420066E+03  0.00000000000E+00 0. -1.
         -1    1    6    6    0  503 -0.31060206765E+01  0.13274064125E+03  0.75001699975E+02  0.15249583667E+03  0.00000000000E+00 0.  1.
<mgrwt>
<rscale>  0 0.16594266E+04</rscale>
<asrwt>0</asrwt>
<pdfrwt beam="1">  1        2 0.22385991E+00 0.16594266E+04</pdfrwt>
<pdfrwt beam="2">  1       -1 0.72786875E-01 0.16594266E+04</pdfrwt>
<totfact> 0.27867200E+01</totfact>
</mgrwt>
</event>
<event>
12    7  0.1625631E-007  0.2130580E+04  0.7818608E-02  0.8547891E-01
         -1   -1    0    0    0  501 -0.00000000000E+00  0.00000000000E+00  0.16735699410E+04  0.16735699410E+04  0.00000000000E+00 0.  1.
          2   -1    0    0  501    0  0.00000000000E+00 -0.00000000000E+00 -0.67809699038E+03  0.67809699038E+03  0.00000000000E+00 0. -1.
         24    2    1    2    0    0  0.47167865030E+03  0.27884937816E+03 -0.34121692343E+03  0.65037916288E+03  0.79538304190E+02 0.  0.
        254    2    1    2    0    0 -0.47167865030E+03 -0.27884937816E+03  0.13366898740E+04  0.17012877685E+04  0.89855580072E+03 0.  0.
         23    2    4    4    0    0  0.13150810556E+03  0.13147150073E+03  0.69531169953E+03  0.72556205429E+03  0.91666775827E+02 0.  0.
         23    2    4    4    0    0 -0.60318675585E+03 -0.41032087889E+03  0.64137817450E+03  0.97572571419E+03  0.92071822628E+02 0.  0.
          2    1    3    3  502    0  0.24734295325E+03  0.12547049195E+03 -0.21404922751E+03  0.35034048106E+03  0.00000000000E+00 0. -1.
         -1    1    3    3    0  502  0.22433569705E+03  0.15337888621E+03 -0.12716769592E+03  0.30003868183E+03  0.00000000000E+00 0.  1.
         13    1    5    5    0    0  0.13420385902E+02  0.64763446293E+02  0.31284239062E+03  0.31975736442E+03  0.00000000000E+00 0.  1.
        -13    1    5    5    0    0  0.11808771966E+03  0.66708054434E+02  0.38246930891E+03  0.40580468987E+03  0.00000000000E+00 0. -1.
          3    1    6    6  503    0 -0.39057980928E+03 -0.27070733169E+03  0.47427285994E+03  0.67139391755E+03  0.00000000000E+00 0. -1.
         -3    1    6    6    0  503 -0.21260694658E+03 -0.13961354720E+03  0.16710531456E+03  0.30433179664E+03  0.00000000000E+00 0.  1.
<mgrwt>
<rscale>  0 0.21305800E+04</rscale>
<asrwt>0</asrwt>
<pdfrwt beam="1">  1        2 0.10432261E+00 0.21305800E+04</pdfrwt>
<pdfrwt beam="2">  1       -1 0.25747230E+00 0.21305800E+04</pdfrwt>
<totfact> 0.27888517E+00</totfact>
</mgrwt>
</event>
<event>
12    7  0.1625631E-007  0.1266924E+04  0.7818608E-02  0.9056214E-01
          2   -1    0    0  501    0  0.00000000000E+00  0.00000000000E+00  0.13755496167E+04  0.13755496167E+04  0.00000000000E+00 0. -1.
         -1   -1    0    0    0  501 -0.00000000000E+00 -0.00000000000E+00 -0.29171889741E+03  0.29171889741E+03  0.00000000000E+00 0.  1.
         24    2    1    2    0    0 -0.17242127176E+03  0.26086062423E+03  0.22441662922E+03  0.39272341056E+03  0.78048020492E+02 0.  0.
        254    2    1    2    0    0  0.17242127176E+03 -0.26086062423E+03  0.85941409006E+03  0.12745451035E+04  0.88774730781E+03 0.  0.
         23    2    4    4    0    0  0.14953405374E+03 -0.23580328716E+03  0.10339610646E+04  0.10749209382E+04  0.91738306954E+02 0.  0.
         23    2    4    4    0    0  0.22887218018E+02 -0.25057337063E+02 -0.17454697452E+03  0.19962416528E+03  0.90727427840E+02 0.  0.
          4    1    3    3  502    0 -0.17895321161E+03  0.25481803502E+03  0.20930542485E+03  0.37518694512E+03  0.00000000000E+00 0. -1.
         -3    1    3    3    0  502  0.65319398501E+01  0.60425892080E+01  0.15111204373E+02  0.17536465440E+02  0.00000000000E+00 0.  1.
         13    1    5    5    0    0 -0.31896195276E+01 -0.40300780049E+01  0.89626101449E+00  0.52171338168E+01  0.00000000000E+00 0. -1.
        -13    1    5    5    0    0  0.15272367327E+03 -0.23177320916E+03  0.10330648036E+04  0.10697038044E+04  0.00000000000E+00 0.  1.
          2    1    6    6  503    0  0.73411368295E+01 -0.23691238622E+02 -0.42701294107E+00  0.24806237471E+02  0.00000000000E+00 0. -1.
         -2    1    6    6    0  503  0.15546081189E+02 -0.13660984411E+01 -0.17411996158E+03  0.17481792781E+03  0.00000000000E+00 0.  1.
<mgrwt>
<rscale>  0 0.12669235E+04</rscale>
<asrwt>0</asrwt>
<pdfrwt beam="1">  1        2 0.21162301E+00 0.12669235E+04</pdfrwt>
<pdfrwt beam="2">  1       -1 0.44879831E-01 0.12669235E+04</pdfrwt>
<totfact> 0.82330982E+01</totfact>
</mgrwt>
</event>
<event>
12    7  0.1625631E-007  0.2041978E+04  0.7818608E-02  0.8587242E-01
         -1   -1    0    0    0  501 -0.00000000000E+00  0.00000000000E+00  0.67664643315E+03  0.67664643315E+03  0.00000000000E+00 0.  1.
          2   -1    0    0  501    0  0.00000000000E+00 -0.00000000000E+00 -0.15405660359E+04  0.15405660359E+04  0.00000000000E+00 0. -1.
         24    2    1    2    0    0 -0.73780745488E+02 -0.68052365373E+03  0.13691462674E+03  0.70277690697E+03  0.81201750360E+02 0.  0.
        254    2    1    2    0    0  0.73780745488E+02  0.68052365373E+03 -0.10008342295E+04  0.15144355621E+04  0.90735322512E+03 0.  0.
         23    2    4    4    0    0 -0.18968907794E+03  0.32629989172E+02  0.77569059662E+02  0.22586710606E+03  0.89175826887E+02 0.  0.
         23    2    4    4    0    0  0.26346982343E+03  0.64789366456E+03 -0.10784032892E+04  0.12885684561E+04  0.90953083477E+02 0.  0.
          4    1    3    3  502    0  0.78991284239E+01 -0.42363688585E+02 -0.66058905659E+01  0.43597203242E+02  0.00000000000E+00 0. -1.
         -3    1    3    3    0  502 -0.81679873912E+02 -0.63815996514E+03  0.14352051731E+03  0.65917970373E+03  0.00000000000E+00 0.  1.
         13    1    5    5    0    0 -0.95108914630E+02  0.57143787058E+02  0.61467565348E+02  0.12684391839E+03  0.00000000000E+00 0. -1.
        -13    1    5    5    0    0 -0.94580163308E+02 -0.24513797887E+02  0.16101494314E+02  0.99023187675E+02  0.00000000000E+00 0.  1.
          3    1    6    6  503    0  0.37866847978E+02  0.38380242342E+02 -0.62321563148E+02  0.82407028894E+02  0.00000000000E+00 0. -1.
         -3    1    6    6    0  503  0.22560297545E+03  0.60951342222E+03 -0.10160817260E+04  0.12061614272E+04  0.00000000000E+00 0.  1.
<mgrwt>
<rscale>  0 0.20419780E+04</rscale>
<asrwt>0</asrwt>
<pdfrwt beam="1">  1        2 0.23701016E+00 0.20419780E+04</pdfrwt>
<pdfrwt beam="2">  1       -1 0.10409945E+00 0.20419780E+04</pdfrwt>
<totfact> 0.11033953E+01</totfact>
</mgrwt>
</event>
<event>
12    7  0.1625631E-007  0.1509913E+04  0.7818608E-02  0.8877888E-01
         -1   -1    0    0    0  501 -0.00000000000E+00  0.00000000000E+00  0.36956551261E+03  0.36956551261E+03  0.00000000000E+00 0.  1.
          2   -1    0    0  501    0  0.00000000000E+00 -0.00000000000E+00 -0.15422411006E+04  0.15422411006E+04  0.00000000000E+00 0. -1.
         24    2    1    2    0    0  0.24986328234E+02 -0.43652534802E+03 -0.13164297258E+03  0.46367651825E+03  0.80544058043E+02 0.  0.
        254    2    1    2    0    0 -0.24986328234E+02  0.43652534802E+03 -0.10410326154E+04  0.14481300949E+04  0.90672662334E+03 0.  0.
         23    2    4    4    0    0  0.43070958321E+03  0.19405782856E+03 -0.53580168236E+03  0.72025499412E+03  0.92274741046E+02 0.  0.
         23    2    4    4    0    0 -0.45569591145E+03  0.24246751946E+03 -0.50523093300E+03  0.72787510079E+03  0.89970022740E+02 0.  0.
          2    1    3    3  502    0  0.44012899516E+02 -0.17020088617E+03 -0.72735439715E+02  0.19025225667E+03  0.00000000000E+00 0. -1.
         -1    1    3    3    0  502 -0.19026571282E+02 -0.26632446185E+03 -0.58907532867E+02  0.27342426158E+03  0.00000000000E+00 0.  1.
         13    1    5    5    0    0  0.63482074555E+02  0.67497865759E+02 -0.11254117413E+03  0.14577877605E+03  0.00000000000E+00 0. -1.
        -13    1    5    5    0    0  0.36722750866E+03  0.12655996280E+03 -0.42326050823E+03  0.57447621807E+03  0.00000000000E+00 0.  1.
          2    1    6    6  503    0 -0.95135707129E+01  0.19927640728E+02 -0.73941334413E+01  0.23287166037E+02  0.00000000000E+00 0. -1.
         -2    1    6    6    0  503 -0.44618234073E+03  0.22253987873E+03 -0.49783679956E+03  0.70458793476E+03  0.00000000000E+00 0.  1.
<mgrwt>
<rscale>  0 0.15099127E+04</rscale>
<asrwt>0</asrwt>
<pdfrwt beam="1">  1        2 0.23726786E+00 0.15099127E+04</pdfrwt>
<pdfrwt beam="2">  1       -1 0.56856232E-01 0.15099127E+04</pdfrwt>
<totfact> 0.41394514E+01</totfact>
</mgrwt>
</event>
<event>
12    7  0.1625631E-007  0.1240712E+04  0.7818608E-02  0.9077949E-01
          2   -1    0    0  501    0  0.00000000000E+00  0.00000000000E+00  0.38499149641E+03  0.38499149641E+03  0.00000000000E+00 0. -1.
         -1   -1    0    0    0  501 -0.00000000000E+00 -0.00000000000E+00 -0.99961099463E+03  0.99961099463E+03  0.00000000000E+00 0.  1.
         24    2    1    2    0    0  0.81969654340E+02  0.12934568166E+03 -0.41709643956E+03  0.45227732295E+03  0.84474891899E+02 0.  0.
        254    2    1    2    0    0 -0.81969654340E+02 -0.12934568166E+03 -0.19752305866E+03  0.93232516810E+03  0.89820127520E+03 0.  0.
         23    2    4    4    0    0 -0.35873760377E+03 -0.11322187743E+03 -0.41577271032E+03  0.56818716654E+03  0.91966557407E+02 0.  0.
         23    2    4    4    0    0  0.27676794943E+03 -0.16123804229E+02  0.21824965166E+03  0.36413800156E+03  0.90017214121E+02 0.  0.
          2    1    3    3  502    0  0.17562304968E+02 -0.35250775762E+01 -0.11090015264E+03  0.11233745850E+03  0.00000000000E+00 0. -1.
         -1    1    3    3    0  502  0.64407349373E+02  0.13287075924E+03 -0.30619628692E+03  0.33993986444E+03  0.00000000000E+00 0.  1.
         13    1    5    5    0    0 -0.27114253322E+03 -0.56115987794E+02 -0.34289131498E+03  0.44072863680E+03  0.00000000000E+00 0.  1.
        -13    1    5    5    0    0 -0.87595070546E+02 -0.57105889638E+02 -0.72881395346E+02  0.12745852974E+03  0.00000000000E+00 0. -1.
          1    1    6    6  503    0  0.20450381785E+02  0.65372540629E+01 -0.65589552028E+01  0.22449358547E+02  0.00000000000E+00 0. -1.
         -1    1    6    6    0  503  0.25631756764E+03 -0.22661058292E+02  0.22480860686E+03  0.34168864301E+03  0.00000000000E+00 0.  1.
<mgrwt>
<rscale>  0 0.12407123E+04</rscale>
<asrwt>0</asrwt>
<pdfrwt beam="1">  1        2 0.59229461E-01 0.12407123E+04</pdfrwt>
<pdfrwt beam="2">  1       -1 0.15378631E+00 0.12407123E+04</pdfrwt>
<totfact> 0.30496583E+01</totfact>
</mgrwt>
</event>
<event>
12    7  0.1625631E-007  0.1176499E+04  0.7818608E-02  0.9133679E-01
         -1   -1    0    0    0  501 -0.00000000000E+00  0.00000000000E+00  0.36765138534E+03  0.36765138534E+03  0.00000000000E+00 0.  1.
          2   -1    0    0  501    0  0.00000000000E+00 -0.00000000000E+00 -0.94121136324E+03  0.94121136324E+03  0.00000000000E+00 0. -1.
         24    2    1    2    0    0  0.87638999658E+02  0.18626634727E+03 -0.24597699704E+03  0.33016212021E+03  0.78272576052E+02 0.  0.
        254    2    1    2    0    0 -0.87638999658E+02 -0.18626634727E+03 -0.32758298087E+03  0.97870062837E+03  0.89898195991E+03 0.  0.
         23    2    4    4    0    0 -0.30840490176E+03 -0.26983423060E+03  0.14346914164E+03  0.44429159216E+03  0.94273691057E+02 0.  0.
         23    2    4    4    0    0  0.22076590210E+03  0.83567883333E+02 -0.47105212251E+03  0.53440903622E+03  0.89340591070E+02 0.  0.
          4    1    3    3  502    0  0.83113581094E+02  0.13265305371E+03 -0.22104869227E+03  0.27086384841E+03  0.00000000000E+00 0. -1.
         -3    1    3    3    0  502  0.45254185637E+01  0.53613293557E+02 -0.24928304762E+02  0.59298271792E+02  0.00000000000E+00 0.  1.
         13    1    5    5    0    0 -0.59773995747E+02 -0.10063184502E+02  0.14928680055E+02  0.62426466647E+02  0.00000000000E+00 0. -1.
        -13    1    5    5    0    0 -0.24863090601E+03 -0.25977104610E+03  0.12854046159E+03  0.38186512551E+03  0.00000000000E+00 0.  1.
          2    1    6    6  503    0  0.21796925111E+03  0.89335829005E+02 -0.40869676246E+03  0.47172505595E+03  0.00000000000E+00 0.  1.
         -2    1    6    6    0  503  0.27966509929E+01 -0.57679456716E+01 -0.62355360054E+02  0.62683980262E+02  0.00000000000E+00 0. -1.
<mgrwt>
<rscale>  0 0.11764993E+04</rscale>
<asrwt>0</asrwt>
<pdfrwt beam="1">  1        2 0.14480175E+00 0.11764993E+04</pdfrwt>
<pdfrwt beam="2">  1       -1 0.56561752E-01 0.11764993E+04</pdfrwt>
<totfact> 0.98137658E+01</totfact>
</mgrwt>
</event>
<event>
12    7  0.1625631E-007  0.2629126E+04  0.7818608E-02  0.8358375E-01
          2   -1    0    0  501    0  0.00000000000E+00  0.00000000000E+00  0.12340015729E+04  0.12340015729E+04  0.00000000000E+00 0. -1.
         -1   -1    0    0    0  501 -0.00000000000E+00 -0.00000000000E+00 -0.14003835768E+04  0.14003835768E+04  0.00000000000E+00 0.  1.
         24    2    1    2    0    0 -0.35751022235E+03 -0.27044081515E+03  0.99503346168E+03  0.10942657200E+04  0.79837850940E+02 0.  0.
        254    2    1    2    0    0  0.35751022235E+03  0.27044081515E+03 -0.11614154656E+04  0.15401194297E+04  0.90671394638E+03 0.  0.
         23    2    4    4    0    0  0.34107012876E+03  0.31109320626E+03 -0.10910345743E+03  0.48291366009E+03  0.90521947416E+02 0.  0.
         23    2    4    4    0    0  0.16440093588E+02 -0.40652391109E+02 -0.10523120082E+04  0.10572057697E+04  0.91654695916E+02 0.  0.
          4    1    3    3  502    0 -0.23683963029E+03 -0.13848832016E+03  0.65350779067E+03  0.70876262441E+03  0.00000000000E+00 0. -1.
         -3    1    3    3    0  502 -0.12067059206E+03 -0.13195249499E+03  0.34152567101E+03  0.38550309555E+03  0.00000000000E+00 0.  1.
         13    1    5    5    0    0  0.19656495348E+03  0.13034195465E+03 -0.82999004437E+02  0.25003127967E+03  0.00000000000E+00 0.  1.
        -13    1    5    5    0    0  0.14450517528E+03  0.18075125161E+03 -0.26104452989E+02  0.23288238041E+03  0.00000000000E+00 0. -1.
          4    1    6    6  503    0 -0.31099640139E+02 -0.26674916983E+02 -0.24738839348E+03  0.25075836186E+03  0.00000000000E+00 0.  1.
         -4    1    6    6    0  503  0.47539733727E+02 -0.13977474126E+02 -0.80492361468E+03  0.80644740779E+03  0.00000000000E+00 0. -1.
<mgrwt>
<rscale>  0 0.26291257E+04</rscale>
<asrwt>0</asrwt>
<pdfrwt beam="1">  1        2 0.18984640E+00 0.26291257E+04</pdfrwt>
<pdfrwt beam="2">  1       -1 0.21544363E+00 0.26291257E+04</pdfrwt>
<totfact> 0.21466966E+00</totfact>
</mgrwt>
</event>
<event>
12    7  0.1625631E-007  0.1381700E+04  0.7818608E-02  0.8967173E-01
         -1   -1    0    0    0  501 -0.00000000000E+00  0.00000000000E+00  0.72886269361E+03  0.72886269361E+03  0.00000000000E+00 0.  1.
          2   -1    0    0  501    0  0.00000000000E+00 -0.00000000000E+00 -0.65481973004E+03  0.65481973004E+03  0.00000000000E+00 0. -1.
         24    2    1    2    0    0 -0.28598067894E+03  0.21443871036E+03  0.17345936483E+03  0.40573230493E+03  0.82229208860E+02 0.  0.
        254    2    1    2    0    0  0.28598067894E+03 -0.21443871036E+03 -0.99416401258E+02  0.97795011873E+03  0.90483915955E+03 0.  0.
         23    2    4    4    0    0  0.42987978413E+03  0.14106866239E+03 -0.28416358467E+03  0.54240074507E+03  0.93555486693E+02 0.  0.
         23    2    4    4    0    0 -0.14389910520E+03 -0.35550737275E+03  0.18474718341E+03  0.43554937365E+03  0.92083063355E+02 0.  0.
          4    1    3    3  502    0 -0.58832446181E+02  0.49108435847E+02  0.77135991061E+02  0.10873295872E+03  0.00000000000E+00 0. -1.
         -3    1    3    3    0  502 -0.22714823275E+03  0.16533027451E+03  0.96323373768E+02  0.29699934621E+03  0.00000000000E+00 0.  1.
         13    1    5    5    0    0  0.15399869317E+03  0.27278061323E+02 -0.14441181277E+03  0.21287193754E+03  0.00000000000E+00 0. -1.
        -13    1    5    5    0    0  0.27588109096E+03  0.11379060107E+03 -0.13975177191E+03  0.32952880753E+03  0.00000000000E+00 0.  1.
          1    1    6    6  503    0 -0.63093434266E+02 -0.80125725979E+02  0.81502031655E+02  0.13055073564E+03  0.00000000000E+00 0. -1.
         -1    1    6    6    0  503 -0.80805670930E+02 -0.27538164677E+03  0.10324515176E+03  0.30499863802E+03  0.00000000000E+00 0.  1.
<mgrwt>
<rscale>  0 0.13816999E+04</rscale>
<asrwt>0</asrwt>
<pdfrwt beam="1">  1        2 0.10074150E+00 0.13816999E+04</pdfrwt>
<pdfrwt beam="2">  1       -1 0.11213272E+00 0.13816999E+04</pdfrwt>
<totfact> 0.36185168E+01</totfact>
</mgrwt>
</event>
<event>
12    7  0.1625631E-007  0.1380145E+04  0.7818608E-02  0.8968317E-01
         -1   -1    0    0    0  501 -0.00000000000E+00  0.00000000000E+00  0.16667179485E+03  0.16667179485E+03  0.00000000000E+00 0.  1.
          2   -1    0    0  501    0  0.00000000000E+00 -0.00000000000E+00 -0.28571133430E+04  0.28571133430E+04  0.00000000000E+00 0. -1.
         24    2    1    2    0    0  0.51952715176E+02 -0.29251616774E+03 -0.24416684603E+03  0.39293361263E+03  0.80712961974E+02 0.  0.
        254    2    1    2    0    0 -0.51952715176E+02  0.29251616774E+03 -0.24462747021E+04  0.26308515252E+04  0.92133329287E+03 0.  0.
         23    2    4    4    0    0  0.34402142280E+03  0.53864767765E+02 -0.17709429242E+04  0.18072195625E+04  0.92474612428E+02 0.  0.
         23    2    4    4    0    0 -0.39597413797E+03  0.23865139997E+03 -0.67533177791E+03  0.82363196266E+03  0.92447774543E+02 0.  0.
          2    1    3    3  502    0 -0.27993238404E+01  0.41390173923E+01 -0.26644882225E+00  0.50038658967E+01  0.00000000000E+00 0. -1.
         -1    1    3    3    0  502  0.54752039017E+02 -0.29665518513E+03 -0.24390039721E+03  0.38792974674E+03  0.00000000000E+00 0.  1.
         13    1    5    5    0    0  0.28849550189E+03  0.14374352567E+02 -0.15193074190E+04  0.15465223277E+04  0.00000000000E+00 0.  1.
        -13    1    5    5    0    0  0.55525920909E+02  0.39490415198E+02 -0.25163550512E+03  0.26069723478E+03  0.00000000000E+00 0. -1.
          3    1    6    6  503    0 -0.18261098995E+02  0.38882447452E+02 -0.80419462835E+02  0.91173474537E+02  0.00000000000E+00 0. -1.
         -3    1    6    6    0  503 -0.37771303898E+03  0.19976895252E+03 -0.59491231507E+03  0.73245848813E+03  0.00000000000E+00 0.  1.
<mgrwt>
<rscale>  0 0.13801452E+04</rscale>
<asrwt>0</asrwt>
<pdfrwt beam="1">  1        2 0.43955591E+00 0.13801452E+04</pdfrwt>
<pdfrwt beam="2">  1       -1 0.25641814E-01 0.13801452E+04</pdfrwt>
<totfact> 0.32018098E+01</totfact>
</mgrwt>
</event>
<event>
12    7  0.1625631E-007  0.1966810E+04  0.7818608E-02  0.8622297E-01
          2   -1    0    0  501    0  0.00000000000E+00  0.00000000000E+00  0.68344858628E+03  0.68344858628E+03  0.00000000000E+00 0. -1.
         -1   -1    0    0    0  501 -0.00000000000E+00 -0.00000000000E+00 -0.14150078431E+04  0.14150078431E+04  0.00000000000E+00 0.  1.
         24    2    1    2    0    0 -0.35114556330E+03  0.51392514189E+02  0.46183737339E+03  0.58765007234E+03  0.78066964329E+02 0.  0.
        254    2    1    2    0    0  0.35114556330E+03 -0.51392514189E+02 -0.11933966303E+04  0.15108063571E+04  0.85580134046E+03 0.  0.
         23    2    4    4    0    0  0.26954415549E+03  0.16577149591E+02  0.23553661460E+02  0.28602900864E+03  0.91263164358E+02 0.  0.
         23    2    4    4    0    0  0.81601407814E+02 -0.67969663779E+02 -0.12169502917E+04  0.12247773484E+04  0.88503535460E+02 0.  0.
          2    1    3    3  502    0 -0.21268225196E+03  0.55816722012E+02  0.32903173438E+03  0.39574123993E+03  0.00000000000E+00 0. -1.
         -1    1    3    3    0  502 -0.13846331134E+03 -0.44242078235E+01  0.13280563901E+03  0.19190883241E+03  0.00000000000E+00 0.  1.
         13    1    5    5    0    0  0.99871965325E+01  0.38859680647E+01  0.23866161658E+02  0.26161775831E+02  0.00000000000E+00 0.  1.
        -13    1    5    5    0    0  0.25955695896E+03  0.12691181526E+02 -0.31250019737E+00  0.25986723281E+03  0.00000000000E+00 0. -1.
          3    1    6    6  503    0  0.87903732743E+02 -0.82827530423E+02 -0.11199298708E+04  0.11264237131E+04  0.00000000000E+00 0. -1.
         -3    1    6    6    0  503 -0.63023249286E+01  0.14857866644E+02 -0.97020420951E+02  0.98353635328E+02  0.00000000000E+00 0.  1.
<mgrwt>
<rscale>  0 0.19668097E+04</rscale>
<asrwt>0</asrwt>
<pdfrwt beam="1">  1        2 0.10514594E+00 0.19668097E+04</pdfrwt>
<pdfrwt beam="2">  1       -1 0.21769351E+00 0.19668097E+04</pdfrwt>
<totfact> 0.51215856E+00</totfact>
</mgrwt>
</event>
<event>
12    7  0.1625631E-007  0.1737852E+04  0.7818608E-02  0.8740066E-01
          2   -1    0    0  501    0  0.00000000000E+00  0.00000000000E+00  0.54326173700E+03  0.54326173700E+03  0.00000000000E+00 0. -1.
         -1   -1    0    0    0  501 -0.00000000000E+00 -0.00000000000E+00 -0.13898127182E+04  0.13898127182E+04  0.00000000000E+00 0.  1.
         24    2    1    2    0    0 -0.15442142807E+01 -0.59459885475E+03 -0.54243175104E+03  0.80879005614E+03  0.79743135861E+02 0.  0.
        254    2    1    2    0    0  0.15442142807E+01  0.59459885475E+03 -0.30411923014E+03  0.11242843990E+04  0.90442065496E+03 0.  0.
         23    2    4    4    0    0 -0.16111353660E+03 -0.16005600411E+03 -0.24264508675E+03  0.34452632099E+03  0.90808874025E+02 0.  0.
         23    2    4    4    0    0  0.16265775088E+03  0.75465485885E+03 -0.61474143389E+02  0.77975807805E+03  0.91005989145E+02 0.  0.
          2    1    3    3  502    0 -0.36406949668E+02 -0.40095763914E+03 -0.34774377937E+03  0.53199457747E+03  0.00000000000E+00 0. -1.
         -1    1    3    3    0  502  0.34862735387E+02 -0.19364121561E+03 -0.19468797167E+03  0.27679547867E+03  0.00000000000E+00 0.  1.
         13    1    5    5    0    0 -0.91891540256E+02 -0.29489382311E+02 -0.87634213503E+02  0.13035886704E+03  0.00000000000E+00 0. -1.
        -13    1    5    5    0    0 -0.69221996348E+02 -0.13056662180E+03 -0.15501087324E+03  0.21416745395E+03  0.00000000000E+00 0.  1.
          2    1    6    6  503    0  0.70108928762E+02  0.15530593465E+03 -0.21459706728E+01  0.17041068165E+03  0.00000000000E+00 0. -1.
         -2    1    6    6    0  503  0.92548822123E+02  0.59934892421E+03 -0.59328172716E+02  0.60934739640E+03  0.00000000000E+00 0.  1.
<mgrwt>
<rscale>  0 0.17378516E+04</rscale>
<asrwt>0</asrwt>
<pdfrwt beam="1">  1        2 0.83578730E-01 0.17378516E+04</pdfrwt>
<pdfrwt beam="2">  1       -1 0.21381734E+00 0.17378516E+04</pdfrwt>
<totfact> 0.73336958E+00</totfact>
</mgrwt>
</event>
<event>
12    7  0.1625631E-007  0.3185827E+04  0.7818608E-02  0.8192570E-01
          2   -1    0    0  501    0  0.00000000000E+00  0.00000000000E+00  0.24326055251E+04  0.24326055251E+04  0.00000000000E+00 0. -1.
         -1   -1    0    0    0  501 -0.00000000000E+00 -0.00000000000E+00 -0.10430679778E+04  0.10430679778E+04  0.00000000000E+00 0.  1.
         24    2    1    2    0    0  0.66727596171E+03  0.73088152215E+03 -0.53960370081E+03  0.11300851363E+04  0.80468955948E+02 0.  0.
        254    2    1    2    0    0 -0.66727596171E+03 -0.73088152215E+03  0.19291412481E+04  0.23455883666E+04  0.89484849107E+03 0.  0.
         23    2    4    4    0    0  0.16779227854E+03 -0.17839391629E+03  0.76134106826E+03  0.80494231654E+03  0.91177149730E+02 0.  0.
         23    2    4    4    0    0 -0.83506824025E+03 -0.55248760586E+03  0.11678001799E+04  0.15406460501E+04  0.85155569840E+02 0.  0.
          4    1    3    3  502    0  0.27983068781E+03  0.33048381796E+03 -0.27770673993E+03  0.51443736370E+03  0.00000000000E+00 0. -1.
         -3    1    3    3    0  502  0.38744527390E+03  0.40039770419E+03 -0.26189696089E+03  0.61564777260E+03  0.00000000000E+00 0.  1.
         13    1    5    5    0    0  0.17034860315E+03 -0.17149021772E+03  0.75992984116E+03  0.79744649028E+03  0.00000000000E+00 0.  1.
        -13    1    5    5    0    0 -0.25563246105E+01 -0.69036985694E+01  0.14112270989E+01  0.74958262637E+01  0.00000000000E+00 0. -1.
          1    1    6    6  503    0 -0.12903919573E+03 -0.86210105841E+02  0.13649804365E+03  0.20667610482E+03  0.00000000000E+00 0. -1.
         -1    1    6    6    0  503 -0.70602904452E+03 -0.46627750002E+03  0.10313021362E+04  0.13339699453E+04  0.00000000000E+00 0.  1.
<mgrwt>
<rscale>  0 0.31858267E+04</rscale>
<asrwt>0</asrwt>
<pdfrwt beam="1">  1        2 0.37424700E+00 0.31858267E+04</pdfrwt>
<pdfrwt beam="2">  1       -1 0.16047200E+00 0.31858267E+04</pdfrwt>
<totfact> 0.10573159E+00</totfact>
</mgrwt>
</event>
<event>
12    7  0.1625631E-007  0.1058973E+04  0.7818608E-02  0.9246128E-01
         -1   -1    0    0    0  501 -0.00000000000E+00  0.00000000000E+00  0.92802234973E+03  0.92802234973E+03  0.00000000000E+00 0.  1.
          2   -1    0    0  501    0  0.00000000000E+00 -0.00000000000E+00 -0.30210060842E+03  0.30210060842E+03  0.00000000000E+00 0. -1.
         24    2    1    2    0    0  0.11306151026E+03 -0.39333072084E+02  0.57409035809E+02  0.15381845913E+03  0.77680919890E+02 0.  0.
        254    2    1    2    0    0 -0.11306151026E+03  0.39333072084E+02  0.56851270550E+03  0.10763044990E+04  0.90603238498E+03 0.  0.
         23    2    4    4    0    0  0.21346337396E+03  0.10757097161E+03 -0.13732123882E+03  0.29019220187E+03  0.90643617736E+02 0.  0.
         23    2    4    4    0    0 -0.32652488422E+03 -0.68237899530E+02  0.70583394432E+03  0.78611229715E+03  0.92174160324E+02 0.  0.
          4    1    3    3  502    0  0.11326522031E+03 -0.35608101513E+02  0.25176196662E+02  0.12137045730E+03  0.00000000000E+00 0. -1.
         -3    1    3    3    0  502 -0.20371005330E+00 -0.37249705705E+01  0.32232839147E+02  0.32448001834E+02  0.00000000000E+00 0.  1.
         13    1    5    5    0    0  0.17868802145E+03  0.95276645159E+02 -0.71524514123E+02  0.21476220395E+03  0.00000000000E+00 0. -1.
        -13    1    5    5    0    0  0.34775352506E+02  0.12294326455E+02 -0.65796724700E+02  0.75429997919E+02  0.00000000000E+00 0.  1.
          1    1    6    6  503    0 -0.25337574280E+03 -0.73961522816E+02  0.46900388408E+03  0.53817675273E+03  0.00000000000E+00 0. -1.
         -1    1    6    6    0  503 -0.73149141417E+02  0.57236232862E+01  0.23683006024E+03  0.24793554442E+03  0.00000000000E+00 0.  1.
<mgrwt>
<rscale>  0 0.10589733E+04</rscale>
<asrwt>0</asrwt>
<pdfrwt beam="1">  1        2 0.46477017E-01 0.10589733E+04</pdfrwt>
<pdfrwt beam="2">  1       -1 0.14277267E+00 0.10589733E+04</pdfrwt>
<totfact> 0.49469890E+01</totfact>
</mgrwt>
</event>
<event>
12    7  0.1625631E-007  0.1757400E+04  0.7818608E-02  0.8729288E-01
         -1   -1    0    0    0  501 -0.00000000000E+00  0.00000000000E+00  0.11946472170E+04  0.11946472170E+04  0.00000000000E+00 0.  1.
          2   -1    0    0  501    0  0.00000000000E+00 -0.00000000000E+00 -0.64631093053E+03  0.64631093053E+03  0.00000000000E+00 0. -1.
         24    2    1    2    0    0  0.18754983017E+03 -0.23619464390E+03 -0.40045254199E+03  0.50839460421E+03  0.84498441406E+02 0.  0.
        254    2    1    2    0    0 -0.18754983017E+03  0.23619464390E+03  0.94878882844E+03  0.13325635433E+04  0.88575533156E+03 0.  0.
         23    2    4    4    0    0 -0.30335836541E+03  0.48817614095E+03  0.38513470107E+03  0.69807810577E+03  0.92962687873E+02 0.  0.
         23    2    4    4    0    0  0.11580853524E+03 -0.25198149704E+03  0.56365412738E+03  0.63448543755E+03  0.89216049346E+02 0.  0.
          4    1    3    3  502    0  0.14272026955E+03 -0.19947549145E+03 -0.36720218067E+03  0.44158463347E+03  0.00000000000E+00 0. -1.
         -3    1    3    3    0  502  0.44829560620E+02 -0.36719152452E+02 -0.33250361317E+02  0.66809970737E+02  0.00000000000E+00 0.  1.
         13    1    5    5    0    0 -0.28385920276E+03  0.42665565043E+03  0.30955966031E+03  0.59869714742E+03  0.00000000000E+00 0.  1.
        -13    1    5    5    0    0 -0.19499162651E+02  0.61520490513E+02  0.75575040760E+02  0.99380958352E+02  0.00000000000E+00 0. -1.
          1    1    6    6  503    0  0.40668555766E+02 -0.80953229487E+02  0.10175129908E+03  0.13623760001E+03  0.00000000000E+00 0. -1.
         -1    1    6    6    0  503  0.75139979477E+02 -0.17102826755E+03  0.46190282829E+03  0.49824783753E+03  0.00000000000E+00 0.  1.
<mgrwt>
<rscale>  0 0.17573998E+04</rscale>
<asrwt>0</asrwt>
<pdfrwt beam="1">  1        2 0.99432451E-01 0.17573998E+04</pdfrwt>
<pdfrwt beam="2">  1       -1 0.18379188E+00 0.17573998E+04</pdfrwt>
<totfact> 0.95762715E+00</totfact>
</mgrwt>
</event>
<event>
12    7  0.1625631E-007  0.1444440E+04  0.7818608E-02  0.8922264E-01
          2   -1    0    0  501    0  0.00000000000E+00  0.00000000000E+00  0.10251338656E+04  0.10251338656E+04  0.00000000000E+00 0. -1.
         -1   -1    0    0    0  501 -0.00000000000E+00 -0.00000000000E+00 -0.50881304367E+03  0.50881304367E+03  0.00000000000E+00 0.  1.
         24    2    1    2    0    0 -0.38501505567E+03  0.15612387953E+03  0.29716164533E+03  0.51704120697E+03  0.80095614092E+02 0.  0.
        254    2    1    2    0    0  0.38501505567E+03 -0.15612387953E+03  0.21915917656E+03  0.10169057023E+04  0.90191751496E+03 0.  0.
         23    2    4    4    0    0  0.11144628440E+03 -0.21238210283E+02 -0.34199818062E+03  0.37158917732E+03  0.90798817533E+02 0.  0.
         23    2    4    4    0    0  0.27356877127E+03 -0.13488566925E+03  0.56115735719E+03  0.64531652495E+03  0.92205322356E+02 0.  0.
          4    1    3    3  502    0 -0.21576063212E+03  0.66578029061E+02  0.11782539054E+03  0.25469218084E+03  0.00000000000E+00 0. -1.
         -3    1    3    3    0  502 -0.16925442355E+03  0.89545850470E+02  0.17933625479E+03  0.26234902613E+03  0.00000000000E+00 0.  1.
         13    1    5    5    0    0  0.11305920421E+03 -0.35518658000E+02 -0.33550419653E+03  0.35581880869E+03  0.00000000000E+00 0. -1.
        -13    1    5    5    0    0 -0.16129198142E+01  0.14280447717E+02 -0.64939840901E+01  0.15770368628E+02  0.00000000000E+00 0.  1.
          2    1    6    6  503    0  0.15732602722E+03 -0.33707477980E+02  0.23785453336E+03  0.28716276213E+03  0.00000000000E+00 0.  1.
         -2    1    6    6    0  503  0.11624274405E+03 -0.10117819127E+03  0.32330282382E+03  0.35815376282E+03  0.00000000000E+00 0. -1.
<mgrwt>
<rscale>  0 0.14444397E+04</rscale>
<asrwt>0</asrwt>
<pdfrwt beam="1">  1        2 0.15771290E+00 0.14444397E+04</pdfrwt>
<pdfrwt beam="2">  1       -1 0.78278930E-01 0.14444397E+04</pdfrwt>
<totfact> 0.43898918E+01</totfact>
</mgrwt>
</event>
<event>
12    7  0.1625631E-007  0.3369175E+04  0.7818608E-02  0.8145513E-01
         -1   -1    0    0    0  501 -0.00000000000E+00  0.00000000000E+00  0.77829555523E+03  0.77829555523E+03  0.00000000000E+00 0.  1.
          2   -1    0    0  501    0  0.00000000000E+00 -0.00000000000E+00 -0.36462187592E+04  0.36462187592E+04  0.00000000000E+00 0. -1.
         24    2    1    2    0    0 -0.42538271431E+03  0.62665387221E+03 -0.31243942459E+04  0.32158880894E+04  0.80319799484E+02 0.  0.
        254    2    1    2    0    0  0.42538271431E+03 -0.62665387221E+03  0.25647104199E+03  0.12086262250E+04  0.90628606261E+03 0.  0.
         23    2    4    4    0    0 -0.12544834319E+03 -0.37355403161E+03 -0.19178358558E+03  0.44909837328E+03  0.98124939943E+02 0.  0.
         23    2    4    4    0    0  0.55083105750E+03 -0.25309984060E+03  0.44825462758E+03  0.75952785176E+03  0.92064994639E+02 0.  0.
          2    1    3    3  502    0 -0.36767512520E+03  0.48473121709E+03 -0.24833604596E+04  0.25568004464E+04  0.00000000000E+00 0. -1.
         -1    1    3    3    0  502 -0.57707589107E+02  0.14192265512E+03 -0.64103378637E+03  0.65908764299E+03  0.00000000000E+00 0.  1.
         13    1    5    5    0    0 -0.12991077818E+03 -0.37756808196E+03 -0.19207667632E+03  0.44308906146E+03  0.00000000000E+00 0. -1.
        -13    1    5    5    0    0  0.44624349906E+01  0.40140503510E+01  0.29309073737E+00  0.60093118113E+01  0.00000000000E+00 0.  1.
          1    1    6    6  503    0  0.53313482076E+03 -0.22601048042E+03  0.43630407132E+03  0.72503428679E+03  0.00000000000E+00 0. -1.
         -1    1    6    6    0  503  0.17696236740E+02 -0.27089360180E+02  0.11950556255E+02  0.34493564972E+02  0.00000000000E+00 0.  1.
<mgrwt>
<rscale>  0 0.33691755E+04</rscale>
<asrwt>0</asrwt>
<pdfrwt beam="1">  1        2 0.56095674E+00 0.33691755E+04</pdfrwt>
<pdfrwt beam="2">  1       -1 0.11973778E+00 0.33691755E+04</pdfrwt>
<totfact> 0.37448106E-01</totfact>
</mgrwt>
</event>
<event>
12    7  0.1625631E-007  0.1863239E+04  0.7818608E-02  0.8673374E-01
         -1   -1    0    0    0  501 -0.00000000000E+00  0.00000000000E+00  0.34703567823E+03  0.34703567823E+03  0.00000000000E+00 0.  1.
          2   -1    0    0  501    0  0.00000000000E+00 -0.00000000000E+00 -0.25009375319E+04  0.25009375319E+04  0.00000000000E+00 0. -1.
         24    2    1    2    0    0  0.33483783251E+02  0.69420091981E+03 -0.10430927286E+04  0.12559714846E+04  0.79911506930E+02 0.  0.
        254    2    1    2    0    0 -0.33483783251E+02 -0.69420091981E+03 -0.11108091250E+04  0.15920017255E+04  0.90417725078E+03 0.  0.
         23    2    4    4    0    0 -0.79754753316E+02  0.19021322952E+03 -0.10976754700E+03  0.25239130015E+03  0.95449256978E+02 0.  0.
         23    2    4    4    0    0  0.46270970065E+02 -0.88441414932E+03 -0.10010415780E+04  0.13396104253E+04  0.90235583124E+02 0.  0.
          4    1    3    3  502    0  0.18198969944E+02  0.66466725845E+03 -0.10086671038E+04  0.12081072358E+04  0.00000000000E+00 0. -1.
         -1    1    3    3    0  502  0.15284813307E+02  0.29533661355E+02 -0.34425624824E+02  0.47864248824E+02  0.00000000000E+00 0.  1.
         13    1    5    5    0    0  0.10589434218E+02 -0.55934492140E+00  0.54362299579E+01  0.11916441581E+02  0.00000000000E+00 0.  1.
        -13    1    5    5    0    0 -0.90344187533E+02  0.19077257444E+03 -0.11520377696E+03  0.24047485857E+03  0.00000000000E+00 0. -1.
          1    1    6    6  503    0  0.57429586741E+02 -0.75614609313E+03 -0.89294388074E+03  0.11714964130E+04  0.00000000000E+00 0. -1.
         -1    1    6    6    0  503 -0.11158616677E+02 -0.12826805619E+03 -0.10809769729E+03  0.16811401228E+03  0.00000000000E+00 0.  1.
<mgrwt>
<rscale>  0 0.18632386E+04</rscale>
<asrwt>0</asrwt>
<pdfrwt beam="1">  1        2 0.38475963E+00 0.18632386E+04</pdfrwt>
<pdfrwt beam="2">  1       -1 0.53390103E-01 0.18632386E+04</pdfrwt>
<totfact> 0.13171133E+01</totfact>
</mgrwt>
</event>
<event>
12    7  0.1625631E-007  0.2326341E+04  0.7818608E-02  0.8467607E-01
          2   -1    0    0  501    0  0.00000000000E+00  0.00000000000E+00  0.17034080016E+04  0.17034080016E+04  0.00000000000E+00 0. -1.
         -1   -1    0    0    0  501 -0.00000000000E+00 -0.00000000000E+00 -0.79427004154E+03  0.79427004154E+03  0.00000000000E+00 0.  1.
         24    2    1    2    0    0  0.65908133475E+03 -0.67277044505E+03  0.41780871681E+02  0.94620356768E+03  0.80915219223E+02 0.  0.
        254    2    1    2    0    0 -0.65908133475E+03  0.67277044505E+03  0.86735708834E+03  0.15514744754E+04  0.87621712584E+03 0.  0.
         23    2    4    4    0    0 -0.31799291914E+03 -0.16371188352E+03  0.16603143952E+03  0.40411758878E+03  0.88450603317E+02 0.  0.
         23    2    4    4    0    0 -0.34108841561E+03  0.83648232857E+03  0.70132564882E+03  0.11473568866E+04  0.92337242368E+02 0.  0.
          2    1    3    3  502    0  0.35267872666E+02 -0.65221954134E+02 -0.36743496020E+01  0.74237638624E+02  0.00000000000E+00 0. -1.
         -1    1    3    3    0  502  0.62381346208E+03 -0.60754849092E+03  0.45455221283E+02  0.87196592906E+03  0.00000000000E+00 0.  1.
         13    1    5    5    0    0 -0.16119711602E+03 -0.88124124750E+02  0.36894268608E+02  0.18738078512E+03  0.00000000000E+00 0. -1.
        -13    1    5    5    0    0 -0.15679580312E+03 -0.75587758770E+02  0.12913717091E+03  0.21673680366E+03  0.00000000000E+00 0.  1.
          2    1    6    6  503    0 -0.21231200878E+03  0.46688791026E+03  0.44919293463E+03  0.68178809196E+03  0.00000000000E+00 0. -1.
         -2    1    6    6    0  503 -0.12877640683E+03  0.36959441832E+03  0.25213271419E+03  0.46556879467E+03  0.00000000000E+00 0.  1.
<mgrwt>
<rscale>  0 0.23263413E+04</rscale>
<asrwt>0</asrwt>
<pdfrwt beam="1">  1        2 0.26206277E+00 0.23263413E+04</pdfrwt>
<pdfrwt beam="2">  1       -1 0.12219539E+00 0.23263413E+04</pdfrwt>
<totfact> 0.59548368E+00</totfact>
</mgrwt>
</event>
<event>
12    7  0.1625631E-007  0.1543326E+04  0.7818608E-02  0.8856142E-01
         -1   -1    0    0    0  501 -0.00000000000E+00  0.00000000000E+00  0.21842210607E+03  0.21842210607E+03  0.00000000000E+00 0.  1.
          2   -1    0    0  501    0  0.00000000000E+00 -0.00000000000E+00 -0.27262077910E+04  0.27262077910E+04  0.00000000000E+00 0. -1.
         24    2    1    2    0    0  0.24052985602E+03  0.30173718268E+03 -0.17979621178E+03  0.43299566886E+03  0.79111518981E+02 0.  0.
        254    2    1    2    0    0 -0.24052985602E+03 -0.30173718268E+03 -0.23279894732E+04  0.25116342282E+04  0.86015787512E+03 0.  0.
         23    2    4    4    0    0 -0.35720192897E+03  0.20001371676E+03 -0.10661174752E+04  0.11456100017E+04  0.90648222049E+02 0.  0.
         23    2    4    4    0    0  0.11667207295E+03 -0.50175089944E+03 -0.12618719980E+04  0.13660242265E+04  0.91295730605E+02 0.  0.
          4    1    3    3  502    0 -0.22663520436E+01  0.27413440074E+02 -0.10704972194E+02  0.29516596653E+02  0.00000000000E+00 0. -1.
         -3    1    3    3    0  502  0.24279620806E+03  0.27432374260E+03 -0.16909123959E+03  0.40347907221E+03  0.00000000000E+00 0.  1.
         13    1    5    5    0    0 -0.26791010827E+03  0.16949555219E+03 -0.90465246910E+03  0.95859306183E+03  0.00000000000E+00 0. -1.
        -13    1    5    5    0    0 -0.89291820706E+02  0.30518164572E+02 -0.16146500608E+03  0.18701693988E+03  0.00000000000E+00 0.  1.
          2    1    6    6  503    0  0.11698267921E+03 -0.38001918329E+03 -0.10311842544E+04  0.11051879901E+04  0.00000000000E+00 0. -1.
         -2    1    6    6    0  503 -0.31060625448E+00 -0.12173171615E+03 -0.23068774354E+03  0.26083623639E+03  0.00000000000E+00 0.  1.
<mgrwt>
<rscale>  0 0.15433263E+04</rscale>
<asrwt>0</asrwt>
<pdfrwt beam="1">  1        2 0.41941661E+00 0.15433263E+04</pdfrwt>
<pdfrwt beam="2">  1       -1 0.33603399E-01 0.15433263E+04</pdfrwt>
<totfact> 0.23544175E+01</totfact>
</mgrwt>
</event>
<event>
12    7  0.1625631E-007  0.4357761E+04  0.7818608E-02  0.7936023E-01
         -1   -1    0    0    0  501 -0.00000000000E+00  0.00000000000E+00  0.17961360671E+04  0.17961360671E+04  0.00000000000E+00 0.  1.
          2   -1    0    0  501    0  0.00000000000E+00 -0.00000000000E+00 -0.26431857813E+04  0.26431857813E+04  0.00000000000E+00 0. -1.
         24    2    1    2    0    0 -0.17966825003E+04  0.28188075074E+03 -0.14439557028E+04  0.23234549932E+04  0.76878275174E+02 0.  0.
        254    2    1    2    0    0  0.17966825003E+04 -0.28188075074E+03  0.59690598859E+03  0.21158668552E+04  0.90170451101E+03 0.  0.
         23    2    4    4    0    0  0.43866063729E+03 -0.70535224095E+02  0.58329477954E+03  0.73836448040E+03  0.86896107696E+02 0.  0.
         23    2    4    4    0    0  0.13580218630E+04 -0.21134552664E+03  0.13611209058E+02  0.13775023748E+04  0.91854316863E+02 0.  0.
          4    1    3    3  502    0 -0.11395365101E+04  0.15946609994E+03 -0.95366264418E+03  0.14944715901E+04  0.00000000000E+00 0. -1.
         -3    1    3    3    0  502 -0.65714599021E+03  0.12241465080E+03 -0.49029305860E+03  0.82898340302E+03  0.00000000000E+00 0.  1.
         13    1    5    5    0    0  0.19961611906E+03 -0.34821616570E+02  0.33740766097E+03  0.39357727278E+03  0.00000000000E+00 0.  1.
        -13    1    5    5    0    0  0.23904451823E+03 -0.35713607524E+02  0.24588711856E+03  0.34478720761E+03  0.00000000000E+00 0. -1.
          3    1    6    6  503    0  0.56223991438E+03 -0.73622150718E+02  0.48713219962E+02  0.56912821069E+03  0.00000000000E+00 0. -1.
         -3    1    6    6    0  503  0.79578194861E+03 -0.13772337592E+03 -0.35102010904E+02  0.80837416409E+03  0.00000000000E+00 0.  1.
<mgrwt>
<rscale>  0 0.43577615E+04</rscale>
<asrwt>0</asrwt>
<pdfrwt beam="1">  1        2 0.40664397E+00 0.43577615E+04</pdfrwt>
<pdfrwt beam="2">  1       -1 0.27632863E+00 0.43577615E+04</pdfrwt>
<totfact> 0.11753220E-01</totfact>
</mgrwt>
</event>
<event>
12    7  0.1625631E-007  0.2394348E+04  0.7818608E-02  0.8441623E-01
         -1   -1    0    0    0  501 -0.00000000000E+00  0.00000000000E+00  0.11356921641E+04  0.11356921641E+04  0.00000000000E+00 0.  1.
          2   -1    0    0  501    0  0.00000000000E+00 -0.00000000000E+00 -0.12619838781E+04  0.12619838781E+04  0.00000000000E+00 0. -1.
         24    2    1    2    0    0 -0.62205858459E+03 -0.14725241969E+03  0.74677489392E+03  0.98627645715E+03  0.80176991610E+02 0.  0.
        254    2    1    2    0    0  0.62205858459E+03  0.14725241969E+03 -0.87306660784E+03  0.14113995850E+04  0.90618062722E+03 0.  0.
         23    2    4    4    0    0 -0.61528349146E+02 -0.17773291015E+03 -0.53908007841E+03  0.57911770495E+03  0.96929150154E+02 0.  0.
         23    2    4    4    0    0  0.68358693373E+03  0.32498532984E+03 -0.33398652943E+03  0.83228188009E+03  0.90772052425E+02 0.  0.
          4    1    3    3  502    0 -0.67715527625E+02 -0.14189539267E+02  0.12382393581E+03  0.14184182312E+03  0.00000000000E+00 0. -1.
         -3    1    3    3    0  502 -0.55434305696E+03 -0.13306288043E+03  0.62295095811E+03  0.84443463404E+03  0.00000000000E+00 0.  1.
         13    1    5    5    0    0 -0.62532892223E+01 -0.10539521999E+03 -0.18002945930E+03  0.20870520415E+03  0.00000000000E+00 0.  1.
        -13    1    5    5    0    0 -0.55275059924E+02 -0.72337690159E+02 -0.35905061911E+03  0.37041250080E+03  0.00000000000E+00 0. -1.
          4    1    6    6  503    0  0.34105926275E+03  0.21201795343E+03 -0.17049734002E+03  0.43628245007E+03  0.00000000000E+00 0.  1.
         -4    1    6    6    0  503  0.34252767098E+03  0.11296737641E+03 -0.16348918942E+03  0.39599943002E+03  0.00000000000E+00 0. -1.
<mgrwt>
<rscale>  0 0.23943477E+04</rscale>
<asrwt>0</asrwt>
<pdfrwt beam="1">  1        2 0.19415137E+00 0.23943477E+04</pdfrwt>
<pdfrwt beam="2">  1       -1 0.17472187E+00 0.23943477E+04</pdfrwt>
<totfact> 0.40547106E+00</totfact>
</mgrwt>
</event>
<event>
12    7  0.1625631E-007  0.1366380E+04  0.7818608E-02  0.8978520E-01
         -1   -1    0    0    0  501 -0.00000000000E+00  0.00000000000E+00  0.32345415123E+03  0.32345415123E+03  0.00000000000E+00 0.  1.
          2   -1    0    0  501    0  0.00000000000E+00 -0.00000000000E+00 -0.14430141494E+04  0.14430141494E+04  0.00000000000E+00 0. -1.
         24    2    1    2    0    0 -0.68567679192E+02  0.25344992416E+03  0.18768541203E+02  0.27572914754E+03  0.82072614042E+02 0.  0.
        254    2    1    2    0    0  0.68567679192E+02 -0.25344992416E+03 -0.11383285394E+04  0.14907391531E+04  0.92605235723E+03 0.  0.
         23    2    4    4    0    0  0.15045367471E+03 -0.15776356122E+03  0.90858691124E+02  0.25175320868E+03  0.87170676505E+02 0.  0.
         23    2    4    4    0    0 -0.81885995520E+02 -0.95686362941E+02 -0.12291872305E+04  0.12389859444E+04  0.91234459142E+02 0.  0.
          4    1    3    3  502    0 -0.12056172962E+02 -0.29130628347E+01 -0.11534511666E+01  0.12456632417E+02  0.00000000000E+00 0. -1.
         -1    1    3    3    0  502 -0.56511506229E+02  0.25636298700E+03  0.19921992369E+02  0.26327251512E+03  0.00000000000E+00 0.  1.
         13    1    5    5    0    0  0.41189231013E+01 -0.11869599121E+02 -0.15009930707E+02  0.19574241509E+02  0.00000000000E+00 0.  1.
        -13    1    5    5    0    0  0.14633475161E+03 -0.14589396210E+03  0.10586862183E+03  0.23217896717E+03  0.00000000000E+00 0. -1.
          4    1    6    6  503    0 -0.90189483387E+02 -0.43813335150E+02 -0.69029827474E+03  0.69754244270E+03  0.00000000000E+00 0.  1.
         -4    1    6    6    0  503  0.83034878669E+01 -0.51873027791E+02 -0.53888895576E+03  0.54144350173E+03  0.00000000000E+00 0. -1.
<mgrwt>
<rscale>  0 0.13663805E+04</rscale>
<asrwt>0</asrwt>
<pdfrwt beam="1">  1        2 0.22200218E+00 0.13663805E+04</pdfrwt>
<pdfrwt beam="2">  1       -1 0.49762177E-01 0.13663805E+04</pdfrwt>
<totfact> 0.61573322E+01</totfact>
</mgrwt>
</event>
<event>
12    7  0.1625631E-007  0.2977301E+04  0.7818608E-02  0.8250243E-01
         -1   -1    0    0    0  501 -0.00000000000E+00  0.00000000000E+00  0.95238783208E+03  0.95238783208E+03  0.00000000000E+00 0.  1.
          2   -1    0    0  501    0  0.00000000000E+00 -0.00000000000E+00 -0.23268677845E+04  0.23268677845E+04  0.00000000000E+00 0. -1.
         24    2    1    2    0    0 -0.75036483795E+03 -0.16285072934E+03 -0.18513312878E+04  0.20058087005E+04  0.79203887718E+02 0.  0.
        254    2    1    2    0    0  0.75036483795E+03  0.16285072934E+03  0.47685133538E+03  0.12734469161E+04  0.89705746855E+03 0.  0.
         23    2    4    4    0    0 -0.14335975424E+03  0.57652579947E+02 -0.94154650796E+02  0.20277069428E+03  0.91515119418E+02 0.  0.
         23    2    4    4    0    0  0.89372459219E+03  0.10519814940E+03  0.57100598618E+03  0.10706762218E+04  0.10241795888E+03 0.  0.
          4    1    3    3  502    0 -0.48991349664E+03 -0.68132677895E+02 -0.12047062993E+04  0.13022958817E+04  0.00000000000E+00 0. -1.
         -3    1    3    3    0  502 -0.26045134131E+03 -0.94718051449E+02 -0.64662498853E+03  0.70351281883E+03  0.00000000000E+00 0.  1.
         13    1    5    5    0    0 -0.11210913130E+03  0.60519109736E+02 -0.10935866350E+03  0.16789978335E+03  0.00000000000E+00 0. -1.
        -13    1    5    5    0    0 -0.31250622940E+02 -0.28665297888E+01  0.15204012706E+02  0.34870910936E+02  0.00000000000E+00 0.  1.
          3    1    6    6  503    0  0.75453571262E+03  0.10589510068E+03  0.51986966076E+03  0.92238949373E+03  0.00000000000E+00 0. -1.
         -3    1    6    6    0  503  0.13918887957E+03 -0.69695128504E+00  0.51136325422E+02  0.14828672804E+03  0.00000000000E+00 0.  1.
<mgrwt>
<rscale>  0 0.29773012E+04</rscale>
<asrwt>0</asrwt>
<pdfrwt beam="1">  1        2 0.35797965E+00 0.29773012E+04</pdfrwt>
<pdfrwt beam="2">  1       -1 0.14652121E+00 0.29773012E+04</pdfrwt>
<totfact> 0.15856157E+00</totfact>
</mgrwt>
</event>
<event>
12    7  0.1625631E-007  0.1345177E+04  0.7818608E-02  0.8994487E-01
         -1   -1    0    0    0  501 -0.00000000000E+00  0.00000000000E+00  0.25439187424E+03  0.25439187424E+03  0.00000000000E+00 0.  1.
          2   -1    0    0  501    0  0.00000000000E+00 -0.00000000000E+00 -0.17782611461E+04  0.17782611461E+04  0.00000000000E+00 0. -1.
         24    2    1    2    0    0 -0.44444256125E+02 -0.26189891373E+03 -0.39373057449E+02  0.28055751225E+03  0.81215436391E+02 0.  0.
        254    2    1    2    0    0  0.44444256125E+02  0.26189891373E+03 -0.14844962145E+04  0.17520955081E+04  0.89193235504E+03 0.  0.
         23    2    4    4    0    0 -0.24551903404E+03 -0.14364668449E+02 -0.58001008126E+02  0.26752098785E+03  0.87848860105E+02 0.  0.
         23    2    4    4    0    0  0.28996329016E+03  0.27626358218E+03 -0.14264952063E+04  0.14845745203E+04  0.93127096514E+02 0.  0.
          2    1    3    3  502    0 -0.40630561370E+02 -0.53058401905E+02 -0.24409984338E+02  0.71146917470E+02  0.00000000000E+00 0. -1.
         -1    1    3    3    0  502 -0.38136947548E+01 -0.20884051183E+03 -0.14963073111E+02  0.20941059478E+03  0.00000000000E+00 0.  1.
         13    1    5    5    0    0 -0.23066125077E+03  0.11732141222E+02 -0.48230810438E+02  0.23594165978E+03  0.00000000000E+00 0. -1.
        -13    1    5    5    0    0 -0.14857783273E+02 -0.26096809670E+02 -0.97701976873E+01  0.31579328074E+02  0.00000000000E+00 0.  1.
          4    1    6    6  503    0  0.23174310945E+03  0.21665974229E+03 -0.12463704543E+04  0.12861126008E+04  0.00000000000E+00 0. -1.
         -4    1    6    6    0  503  0.58220180717E+02  0.59603839891E+02 -0.18012475205E+03  0.19846191946E+03  0.00000000000E+00 0.  1.
<mgrwt>
<rscale>  0 0.13451768E+04</rscale>
<asrwt>0</asrwt>
<pdfrwt beam="1">  1        2 0.27357863E+00 0.13451768E+04</pdfrwt>
<pdfrwt beam="2">  1       -1 0.39137212E-01 0.13451768E+04</pdfrwt>
<totfact> 0.62605637E+01</totfact>
</mgrwt>
</event>
<event>
12    7  0.1625631E-007  0.2775603E+04  0.7818608E-02  0.8310883E-01
          2   -1    0    0  501    0  0.00000000000E+00  0.00000000000E+00  0.15217526344E+04  0.15217526344E+04  0.00000000000E+00 0. -1.
         -1   -1    0    0    0  501 -0.00000000000E+00 -0.00000000000E+00 -0.12656409328E+04  0.12656409328E+04  0.00000000000E+00 0.  1.
         24    2    1    2    0    0  0.46346904126E+03  0.49690499034E+03 -0.92714446162E+03  0.11522264731E+04  0.79440990400E+02 0.  0.
        254    2    1    2    0    0 -0.46346904126E+03 -0.49690499034E+03  0.11832561633E+04  0.16351670941E+04  0.90108720783E+03 0.  0.
         23    2    4    4    0    0  0.14672818297E+03 -0.35072237088E+03  0.80969468670E+03  0.89920673699E+03  0.91825536020E+02 0.  0.
         23    2    4    4    0    0 -0.61019722422E+03 -0.14618261946E+03  0.37356147657E+03  0.73596035712E+03  0.91539389289E+02 0.  0.
          4    1    3    3  502    0  0.95101477077E+01  0.22084022661E+01 -0.30727806118E+02  0.32241557326E+02  0.00000000000E+00 0. -1.
         -3    1    3    3    0  502  0.45395889355E+03  0.49469658807E+03 -0.89641665550E+03  0.11199849158E+04  0.00000000000E+00 0.  1.
         13    1    5    5    0    0  0.13198040147E+03 -0.35047623087E+03  0.79263868097E+03  0.87665756904E+03  0.00000000000E+00 0. -1.
        -13    1    5    5    0    0  0.14747781494E+02 -0.24614000447E+00  0.17056005734E+02  0.22549167955E+02  0.00000000000E+00 0.  1.
          1    1    6    6  503    0 -0.62748515182E+02 -0.65364512176E+01  0.93893046551E+01  0.63782916160E+02  0.00000000000E+00 0. -1.
         -1    1    6    6    0  503 -0.54744870904E+03 -0.13964616824E+03  0.36417217192E+03  0.67217744096E+03  0.00000000000E+00 0.  1.
<mgrwt>
<rscale>  0 0.27756026E+04</rscale>
<asrwt>0</asrwt>
<pdfrwt beam="1">  1        2 0.23411579E+00 0.27756026E+04</pdfrwt>
<pdfrwt beam="2">  1       -1 0.19471399E+00 0.27756026E+04</pdfrwt>
<totfact> 0.20065269E+00</totfact>
</mgrwt>
</event>
<event>
12    7  0.1625631E-007  0.2459003E+04  0.7818608E-02  0.8417738E-01
          2   -1    0    0  501    0  0.00000000000E+00  0.00000000000E+00  0.17334613985E+04  0.17334613985E+04  0.00000000000E+00 0. -1.
         -1   -1    0    0    0  501 -0.00000000000E+00 -0.00000000000E+00 -0.87205521327E+03  0.87205521327E+03  0.00000000000E+00 0.  1.
         24    2    1    2    0    0  0.31359399356E+03 -0.46108481731E+03 -0.59954944891E+03  0.82267110216E+03  0.79923707922E+02 0.  0.
        254    2    1    2    0    0 -0.31359399356E+03  0.46108481731E+03  0.14609556342E+04  0.17828455097E+04  0.85627469000E+03 0.  0.
         23    2    4    4    0    0 -0.10709809746E+03 -0.70247914252E+02  0.10787251708E+04  0.10904301080E+04  0.94789526268E+02 0.  0.
         23    2    4    4    0    0 -0.20649589610E+03  0.53133273156E+03  0.38223046336E+03  0.69241540168E+03  0.91563828214E+02 0.  0.
          2    1    3    3  502    0  0.23819202731E+03 -0.32979551880E+03 -0.38524358264E+03  0.56027952315E+03  0.00000000000E+00 0. -1.
         -3    1    3    3    0  502  0.75401966250E+02 -0.13128929851E+03 -0.21430586627E+03  0.26239157900E+03  0.00000000000E+00 0.  1.
         13    1    5    5    0    0 -0.11261977951E+03 -0.85490460051E+02  0.90878993152E+03  0.91972331336E+03  0.00000000000E+00 0.  1.
        -13    1    5    5    0    0  0.55216820450E+01  0.15242545800E+02  0.16993523929E+03  0.17070679461E+03  0.00000000000E+00 0. -1.
          2    1    6    6  503    0 -0.80134858555E+02  0.14103379273E+03  0.15035568028E+03  0.22117630261E+03  0.00000000000E+00 0. -1.
         -2    1    6    6    0  503 -0.12636103754E+03  0.39029893883E+03  0.23187478308E+03  0.47123909907E+03  0.00000000000E+00 0.  1.
<mgrwt>
<rscale>  0 0.24590031E+04</rscale>
<asrwt>0</asrwt>
<pdfrwt beam="1">  1        2 0.26668637E+00 0.24590031E+04</pdfrwt>
<pdfrwt beam="2">  1       -1 0.13416234E+00 0.24590031E+04</pdfrwt>
<totfact> 0.44802801E+00</totfact>
</mgrwt>
</event>
<event>
12    7  0.1625631E-007  0.1211780E+04  0.7818608E-02  0.9102608E-01
          2   -1    0    0  501    0  0.00000000000E+00  0.00000000000E+00  0.11284137033E+04  0.11284137033E+04  0.00000000000E+00 0. -1.
         -1   -1    0    0    0  501 -0.00000000000E+00 -0.00000000000E+00 -0.32532620541E+03  0.32532620541E+03  0.00000000000E+00 0.  1.
         24    2    1    2    0    0  0.86660393205E+02  0.23526130439E+03  0.34129312667E+03  0.43109730328E+03  0.80659664584E+02 0.  0.
        254    2    1    2    0    0 -0.86660393205E+02 -0.23526130439E+03  0.46179437118E+03  0.10226426054E+04  0.87731747503E+03 0.  0.
         23    2    4    4    0    0  0.24762529556E+03  0.62364867797E+02 -0.10829552426E+03  0.29215290798E+03  0.91748227933E+02 0.  0.
         23    2    4    4    0    0 -0.33428568877E+03 -0.29762617219E+03  0.57008989545E+03  0.73048969740E+03  0.91018948743E+02 0.  0.
          4    1    3    3  502    0  0.49415029406E+02  0.13335762200E+03  0.12597712127E+03  0.18999035649E+03  0.00000000000E+00 0. -1.
         -3    1    3    3    0  502  0.37245363799E+02  0.10190368239E+03  0.21531600540E+03  0.24110694679E+03  0.00000000000E+00 0.  1.
         13    1    5    5    0    0  0.24470075409E+03  0.42560796344E+02 -0.87626573255E+02  0.26337861868E+03  0.00000000000E+00 0. -1.
        -13    1    5    5    0    0  0.29245414716E+01  0.19804071453E+02 -0.20668951008E+02  0.28774289300E+02  0.00000000000E+00 0.  1.
          1    1    6    6  503    0 -0.32393750454E+03 -0.25562376231E+03  0.52813225932E+03  0.67022585599E+03  0.00000000000E+00 0. -1.
         -1    1    6    6    0  503 -0.10348184234E+02 -0.42002409872E+02  0.41957636130E+02  0.60263841411E+02  0.00000000000E+00 0.  1.
<mgrwt>
<rscale>  0 0.12117798E+04</rscale>
<asrwt>0</asrwt>
<pdfrwt beam="1">  1        2 0.17360211E+00 0.12117798E+04</pdfrwt>
<pdfrwt beam="2">  1       -1 0.50050186E-01 0.12117798E+04</pdfrwt>
<totfact> 0.94228093E+01</totfact>
</mgrwt>
</event>
<event>
12    7  0.1625631E-007  0.2588390E+04  0.7818608E-02  0.8372156E-01
          2   -1    0    0  501    0  0.00000000000E+00  0.00000000000E+00  0.10401856842E+04  0.10401856842E+04  0.00000000000E+00 0. -1.
         -1   -1    0    0    0  501 -0.00000000000E+00 -0.00000000000E+00 -0.16102318738E+04  0.16102318738E+04  0.00000000000E+00 0.  1.
         24    2    1    2    0    0 -0.57870576934E+03  0.32326276767E+03 -0.12113742320E+04  0.13831782784E+04  0.79720984728E+02 0.  0.
        254    2    1    2    0    0  0.57870576934E+03 -0.32326276767E+03  0.64132804239E+03  0.12672392796E+04  0.86901930319E+03 0.  0.
         23    2    4    4    0    0  0.57910588373E+03 -0.56389651317E+03  0.59092340315E+03  0.10053104941E+04  0.90087841038E+02 0.  0.
         23    2    4    4    0    0 -0.40011438887E+00  0.24063374549E+03  0.50404639236E+02  0.26192878544E+03  0.90339921529E+02 0.  0.
          4    1    3    3  502    0 -0.29886958173E+03  0.21236553553E+03 -0.66735374562E+03  0.76143494098E+03  0.00000000000E+00 0. -1.
         -3    1    3    3    0  502 -0.27983618762E+03  0.11089723214E+03 -0.54402048636E+03  0.62174333738E+03  0.00000000000E+00 0.  1.
         13    1    5    5    0    0  0.52470509941E+03 -0.48497744490E+03  0.49166402869E+03  0.86732466846E+03  0.00000000000E+00 0.  1.
        -13    1    5    5    0    0  0.54400784324E+02 -0.78919068266E+02  0.99259374461E+02  0.13798582568E+03  0.00000000000E+00 0. -1.
          3    1    6    6  503    0  0.17227624916E+02  0.37011789216E+01  0.11846900884E+02  0.21232966025E+02  0.00000000000E+00 0. -1.
         -3    1    6    6    0  503 -0.17627739305E+02  0.23693256657E+03  0.38557738353E+02  0.24069581941E+03  0.00000000000E+00 0.  1.
<mgrwt>
<rscale>  0 0.25883896E+04</rscale>
<asrwt>0</asrwt>
<pdfrwt beam="1">  1        2 0.16002857E+00 0.25883896E+04</pdfrwt>
<pdfrwt beam="2">  1       -1 0.24772798E+00 0.25883896E+04</pdfrwt>
<totfact> 0.17289480E+00</totfact>
</mgrwt>
</event>
<event>
12    7  0.1625631E-007  0.1221784E+04  0.7818608E-02  0.9094000E-01
         -1   -1    0    0    0  501 -0.00000000000E+00  0.00000000000E+00  0.30555460954E+03  0.30555460954E+03  0.00000000000E+00 0.  1.
          2   -1    0    0  501    0  0.00000000000E+00 -0.00000000000E+00 -0.12213490098E+04  0.12213490098E+04  0.00000000000E+00 0. -1.
         24    2    1    2    0    0  0.26697230250E+03  0.52477092191E+02 -0.27167542566E+03  0.39282591386E+03  0.80477364463E+02 0.  0.
        254    2    1    2    0    0 -0.26697230250E+03 -0.52477092191E+02 -0.64411897465E+03  0.11340777055E+04  0.89286893392E+03 0.  0.
         23    2    4    4    0    0 -0.40020742325E+03 -0.35368716858E+02  0.56270341218E+02  0.41497806827E+03  0.87312760168E+02 0.  0.
         23    2    4    4    0    0  0.13323512075E+03 -0.17108375333E+02 -0.70038931587E+03  0.71909963726E+03  0.92275677249E+02 0.  0.
          4    1    3    3  502    0  0.17514969640E+03  0.33090954810E+02 -0.22774439447E+03  0.28920569955E+03  0.00000000000E+00 0. -1.
         -3    1    3    3    0  502  0.91822606102E+02  0.19386137381E+02 -0.43931031187E+02  0.10362021432E+03  0.00000000000E+00 0.  1.
         13    1    5    5    0    0 -0.13794584740E+03 -0.20466716639E+02  0.61089234348E+02  0.15224926226E+03  0.00000000000E+00 0.  1.
        -13    1    5    5    0    0 -0.26226157585E+03 -0.14902000219E+02 -0.48188931297E+01  0.26272880601E+03  0.00000000000E+00 0. -1.
          1    1    6    6  503    0  0.13590229148E+03 -0.10728589421E+02 -0.49037975946E+03  0.50897627052E+03  0.00000000000E+00 0. -1.
         -1    1    6    6    0  503 -0.26671707248E+01 -0.63797859115E+01 -0.21000955640E+03  0.21012336674E+03  0.00000000000E+00 0.  1.
<mgrwt>
<rscale>  0 0.12217836E+04</rscale>
<asrwt>0</asrwt>
<pdfrwt beam="1">  1        2 0.18789985E+00 0.12217836E+04</pdfrwt>
<pdfrwt beam="2">  1       -1 0.47008401E-01 0.12217836E+04</pdfrwt>
<totfact> 0.93183097E+01</totfact>
</mgrwt>
</event>
<event>
12    7  0.1625631E-007  0.1975465E+04  0.7818608E-02  0.8618178E-01
         -1   -1    0    0    0  501 -0.00000000000E+00  0.00000000000E+00  0.25596927972E+04  0.25596927972E+04  0.00000000000E+00 0.  1.
          2   -1    0    0  501    0  0.00000000000E+00 -0.00000000000E+00 -0.38114572778E+03  0.38114572778E+03  0.00000000000E+00 0. -1.
         24    2    1    2    0    0 -0.71986470717E+03 -0.22730650364E+03  0.60679579640E+03  0.97153854778E+03  0.76240199796E+02 0.  0.
        254    2    1    2    0    0  0.71986470717E+03  0.22730650364E+03  0.15717512730E+04  0.19692999772E+04  0.91535069383E+03 0.  0.
         23    2    4    4    0    0  0.38683898143E+03  0.41887739266E+02  0.15234262011E+04  0.15749955897E+04  0.91568210164E+02 0.  0.
         23    2    4    4    0    0  0.33302572574E+03  0.18541876437E+03  0.48325071904E+02  0.39430438748E+03  0.88624969542E+02 0.  0.
          4    1    3    3  502    0 -0.41572359539E+03 -0.14082836444E+03  0.30550841263E+03  0.53478418655E+03  0.00000000000E+00 0. -1.
         -3    1    3    3    0  502 -0.30414111178E+03 -0.86478139196E+02  0.30128738377E+03  0.43675436123E+03  0.00000000000E+00 0.  1.
         13    1    5    5    0    0  0.50022231837E+02  0.20545501146E+02  0.12103333382E+03  0.13256473585E+03  0.00000000000E+00 0. -1.
        -13    1    5    5    0    0  0.33681674960E+03  0.21342238121E+02  0.14023928673E+04  0.14424308538E+04  0.00000000000E+00 0.  1.
          3    1    6    6  503    0  0.22330144766E+02 -0.66485891714E+01  0.14568340107E+02  0.27478639645E+02  0.00000000000E+00 0. -1.
         -3    1    6    6    0  503  0.31069558098E+03  0.19206735354E+03  0.33756731797E+02  0.36682574784E+03  0.00000000000E+00 0.  1.
<mgrwt>
<rscale>  0 0.19754655E+04</rscale>
<asrwt>0</asrwt>
<pdfrwt beam="1">  1        2 0.58637806E-01 0.19754655E+04</pdfrwt>
<pdfrwt beam="2">  1       -1 0.39379888E+00 0.19754655E+04</pdfrwt>
<totfact> 0.70607275E-01</totfact>
</mgrwt>
</event>
<event>
12    7  0.1625631E-007  0.1871909E+04  0.7818608E-02  0.8668967E-01
          2   -1    0    0  501    0  0.00000000000E+00  0.00000000000E+00  0.19624460155E+04  0.19624460155E+04  0.00000000000E+00 0. -1.
         -1   -1    0    0    0  501 -0.00000000000E+00 -0.00000000000E+00 -0.44638742994E+03  0.44638742994E+03  0.00000000000E+00 0.  1.
         24    2    1    2    0    0  0.15709019639E+03 -0.68746635636E+03  0.42351273474E+03  0.82652830418E+03  0.80614391980E+02 0.  0.
        254    2    1    2    0    0 -0.15709019639E+03  0.68746635636E+03  0.10925458509E+04  0.15823051413E+04  0.90152415551E+03 0.  0.
         23    2    4    4    0    0 -0.39264554913E+03  0.10751214499E+03  0.14304947645E+03  0.44131354182E+03  0.92547830414E+02 0.  0.
         23    2    4    4    0    0  0.23555535274E+03  0.57995421138E+03  0.94949637441E+03  0.11409915995E+04  0.92115435890E+02 0.  0.
          4    1    3    3  502    0  0.76939541619E+02 -0.23375269153E+03  0.18386437701E+03  0.30719069484E+03  0.00000000000E+00 0. -1.
         -3    1    3    3    0  502  0.80150654772E+02 -0.45371366483E+03  0.23964835773E+03  0.51933760934E+03  0.00000000000E+00 0.  1.
         13    1    5    5    0    0 -0.10291929176E+03  0.12348022094E+02 -0.18737042232E+01  0.10367432196E+03  0.00000000000E+00 0. -1.
        -13    1    5    5    0    0 -0.28972625737E+03  0.95164122893E+02  0.14492318067E+03  0.33763921986E+03  0.00000000000E+00 0.  1.
          2    1    6    6  503    0  0.11901462990E+02  0.50534989071E+02  0.41833842888E+02  0.66674585507E+02  0.00000000000E+00 0. -1.
         -2    1    6    6    0  503  0.22365388975E+03  0.52941922230E+03  0.90766253152E+03  0.10743170140E+04  0.00000000000E+00 0.  1.
<mgrwt>
<rscale>  0 0.18719094E+04</rscale>
<asrwt>0</asrwt>
<pdfrwt beam="1">  1        2 0.30191477E+00 0.18719094E+04</pdfrwt>
<pdfrwt beam="2">  1       -1 0.68674990E-01 0.18719094E+04</pdfrwt>
<totfact> 0.16078912E+01</totfact>
</mgrwt>
</event>
<event>
12    7  0.1625631E-007  0.1265632E+04  0.7818608E-02  0.9057273E-01
          2   -1    0    0  501    0  0.00000000000E+00  0.00000000000E+00  0.27642835159E+04  0.27642835159E+04  0.00000000000E+00 0. -1.
         -1   -1    0    0    0  501 -0.00000000000E+00 -0.00000000000E+00 -0.14486786171E+03  0.14486786171E+03  0.00000000000E+00 0.  1.
         24    2    1    2    0    0 -0.30504673113E+03  0.19493157961E+02  0.70368907950E+03  0.77151450419E+03  0.81380699140E+02 0.  0.
        254    2    1    2    0    0  0.30504673113E+03 -0.19493157961E+02  0.19157265747E+04  0.21376368734E+04  0.89780265216E+03 0.  0.
         23    2    4    4    0    0 -0.24838654899E+03 -0.19843000954E+03  0.45310451598E+03  0.56133080365E+03  0.93371421343E+02 0.  0.
         23    2    4    4    0    0  0.55343328012E+03  0.17893685158E+03  0.14626220587E+04  0.15763060698E+04  0.84680260603E+02 0.  0.
          2    1    3    3  502    0 -0.27086689551E+03  0.38460003105E+02  0.57049020949E+03  0.63269828990E+03  0.00000000000E+00 0. -1.
         -1    1    3    3    0  502 -0.34179835616E+02 -0.18966845144E+02  0.13319887001E+03  0.13881621429E+03  0.00000000000E+00 0.  1.
         13    1    5    5    0    0 -0.22660262122E+03 -0.17872503109E+03  0.34749541080E+03  0.45171279062E+03  0.00000000000E+00 0.  1.
        -13    1    5    5    0    0 -0.21783927773E+02 -0.19704978443E+02  0.10560910517E+03  0.10961801303E+03  0.00000000000E+00 0. -1.
          2    1    6    6  503    0  0.27413580978E+03  0.78488758353E+02  0.82748176915E+03  0.87523540015E+03  0.00000000000E+00 0. -1.
         -2    1    6    6    0  503  0.27929747034E+03  0.10044809322E+03  0.63514028958E+03  0.70107066963E+03  0.00000000000E+00 0.  1.
<mgrwt>
<rscale>  0 0.12656316E+04</rscale>
<asrwt>0</asrwt>
<pdfrwt beam="1">  1        2 0.42527435E+00 0.12656316E+04</pdfrwt>
<pdfrwt beam="2">  1       -1 0.22287365E-01 0.12656316E+04</pdfrwt>
<totfact> 0.46741439E+01</totfact>
</mgrwt>
</event>
<event>
12    7  0.1625631E-007  0.1538583E+04  0.7818608E-02  0.8859193E-01
         -1   -1    0    0    0  501 -0.00000000000E+00  0.00000000000E+00  0.37392699644E+03  0.37392699644E+03  0.00000000000E+00 0.  1.
          2   -1    0    0  501    0  0.00000000000E+00 -0.00000000000E+00 -0.15826874008E+04  0.15826874008E+04  0.00000000000E+00 0. -1.
         24    2    1    2    0    0 -0.20234026938E+03 -0.82954907603E+02 -0.97807005266E+03  0.10054640559E+04  0.80708354549E+02 0.  0.
        254    2    1    2    0    0  0.20234026938E+03  0.82954907603E+02 -0.23069035167E+03  0.95115034132E+03  0.89646295636E+03 0.  0.
         23    2    4    4    0    0  0.37693169322E+03 -0.28215430274E+03 -0.23541775800E+03  0.53426355069E+03  0.91254966489E+02 0.  0.
         23    2    4    4    0    0 -0.17459142385E+03  0.36510921034E+03  0.47274063228E+01  0.41688679062E+03  0.99926708487E+02 0.  0.
          4    1    3    3  502    0 -0.18309506501E+03 -0.98909199636E+02 -0.87431556934E+03  0.89874053397E+03  0.00000000000E+00 0. -1.
         -3    1    3    3    0  502 -0.19245204366E+02  0.15954292033E+02 -0.10375448332E+03  0.10672352194E+03  0.00000000000E+00 0.  1.
         13    1    5    5    0    0  0.49035928816E+02 -0.70622475267E+02 -0.68176502195E+02  0.10972735201E+03  0.00000000000E+00 0.  1.
        -13    1    5    5    0    0  0.32789576441E+03 -0.21153182747E+03 -0.16724125580E+03  0.42453619868E+03  0.00000000000E+00 0. -1.
          2    1    6    6  503    0 -0.18123232017E+03  0.33314231732E+03 -0.13511270903E+02  0.37948848719E+03  0.00000000000E+00 0. -1.
         -2    1    6    6    0  503  0.66408963195E+01  0.31966893018E+02  0.18238677226E+02  0.37398303439E+02  0.00000000000E+00 0.  1.
<mgrwt>
<rscale>  0 0.15385832E+04</rscale>
<asrwt>0</asrwt>
<pdfrwt beam="1">  1        2 0.24349037E+00 0.15385832E+04</pdfrwt>
<pdfrwt beam="2">  1       -1 0.57527231E-01 0.15385832E+04</pdfrwt>
<totfact> 0.38306964E+01</totfact>
</mgrwt>
</event>
<event>
12    7  0.1625631E-007  0.1225306E+04  0.7818608E-02  0.9090991E-01
         -1   -1    0    0    0  501 -0.00000000000E+00  0.00000000000E+00  0.12745760752E+04  0.12745760752E+04  0.00000000000E+00 0.  1.
          2   -1    0    0  501    0  0.00000000000E+00 -0.00000000000E+00 -0.29448489223E+03  0.29448489223E+03  0.00000000000E+00 0. -1.
         24    2    1    2    0    0  0.21188245681E+03 -0.14981227307E+03  0.15818517164E+03  0.31373397116E+03  0.77900985011E+02 0.  0.
        254    2    1    2    0    0 -0.21188245681E+03  0.14981227307E+03  0.82190601133E+03  0.12553269963E+04  0.91267654920E+03 0.  0.
         23    2    4    4    0    0  0.23483527419E+03  0.86765991862E+02  0.74126602827E+03  0.78788259588E+03  0.92777782301E+02 0.  0.
         23    2    4    4    0    0 -0.44671773100E+03  0.63046281208E+02  0.80639983065E+02  0.46744440039E+03  0.92032036976E+02 0.  0.
          2    1    3    3  502    0  0.93026396880E+02 -0.56276752148E+02  0.23554085933E+02  0.11124647551E+03  0.00000000000E+00 0. -1.
         -1    1    3    3    0  502  0.11885605993E+03 -0.93535520921E+02  0.13463108571E+03  0.20248749565E+03  0.00000000000E+00 0.  1.
         13    1    5    5    0    0  0.19302577878E+02  0.13325697056E+02  0.17843869760E+02  0.29471467605E+02  0.00000000000E+00 0. -1.
        -13    1    5    5    0    0  0.21553269631E+03  0.73440294805E+02  0.72342215851E+03  0.75841112828E+03  0.00000000000E+00 0.  1.
          3    1    6    6  503    0 -0.35755801675E+03  0.32626211137E+02  0.96796729906E+02  0.37186262506E+03  0.00000000000E+00 0. -1.
         -3    1    6    6    0  503 -0.89159714245E+02  0.30420070071E+02 -0.16156746841E+02  0.95581775333E+02  0.00000000000E+00 0.  1.
<mgrwt>
<rscale>  0 0.12253055E+04</rscale>
<asrwt>0</asrwt>
<pdfrwt beam="1">  1        2 0.45305369E-01 0.12253055E+04</pdfrwt>
<pdfrwt beam="2">  1       -1 0.19608862E+00 0.12253055E+04</pdfrwt>
<totfact> 0.20271742E+01</totfact>
</mgrwt>
</event>
<event>
12    7  0.1625631E-007  0.1586890E+04  0.7818608E-02  0.8828642E-01
          2   -1    0    0  501    0  0.00000000000E+00  0.00000000000E+00  0.12367508621E+04  0.12367508621E+04  0.00000000000E+00 0. -1.
         -1   -1    0    0    0  501 -0.00000000000E+00 -0.00000000000E+00 -0.50903966018E+03  0.50903966018E+03  0.00000000000E+00 0.  1.
         24    2    1    2    0    0 -0.22839190921E+03 -0.35752772211E+03 -0.10203069604E+03  0.44357040152E+03  0.79721401762E+02 0.  0.
        254    2    1    2    0    0  0.22839190921E+03  0.35752772211E+03  0.82974189793E+03  0.13022201207E+04  0.90956950773E+03 0.  0.
         23    2    4    4    0    0 -0.22375007665E+03  0.45188145107E+03  0.56210497783E+03  0.76062178625E+03  0.91228027509E+02 0.  0.
         23    2    4    4    0    0  0.45214198586E+03 -0.94353728952E+02  0.26763692010E+03  0.54159833448E+03  0.91456182783E+02 0.  0.
          4    1    3    3  502    0 -0.15972951365E+02 -0.48473319366E+02  0.10355069292E+02  0.52077109422E+02  0.00000000000E+00 0. -1.
         -3    1    3    3    0  502 -0.21241895784E+03 -0.30905440275E+03 -0.11238576533E+03  0.39149329210E+03  0.00000000000E+00 0.  1.
         13    1    5    5    0    0 -0.16555282168E+03  0.37473524729E+03  0.49708279518E+03  0.64414714747E+03  0.00000000000E+00 0.  1.
        -13    1    5    5    0    0 -0.58197254973E+02  0.77146203773E+02  0.65022182644E+02  0.11647463878E+03  0.00000000000E+00 0. -1.
          3    1    6    6  503    0  0.13122507287E+01  0.55740324494E+01 -0.28939769151E+01  0.64161469829E+01  0.00000000000E+00 0. -1.
         -3    1    6    6    0  503  0.45082973513E+03 -0.99927761401E+02  0.27053089701E+03  0.53518218750E+03  0.00000000000E+00 0.  1.
<mgrwt>
<rscale>  0 0.15868903E+04</rscale>
<asrwt>0</asrwt>
<pdfrwt beam="1">  1        2 0.19026936E+00 0.15868903E+04</pdfrwt>
<pdfrwt beam="2">  1       -1 0.78313794E-01 0.15868903E+04</pdfrwt>
<totfact> 0.32174380E+01</totfact>
</mgrwt>
</event>
<event>
12    7  0.1625631E-007  0.3449391E+04  0.7818608E-02  0.8125889E-01
          2   -1    0    0  501    0  0.00000000000E+00  0.00000000000E+00  0.24940787086E+04  0.24940787086E+04  0.00000000000E+00 0. -1.
         -1   -1    0    0    0  501 -0.00000000000E+00 -0.00000000000E+00 -0.11926547962E+04  0.11926547962E+04  0.00000000000E+00 0.  1.
         24    2    1    2    0    0  0.24527641746E+03  0.81484770611E+03 -0.85007780760E+03  0.12055287596E+04  0.80808453169E+02 0.  0.
        254    2    1    2    0    0 -0.24527641746E+03 -0.81484770611E+03  0.21515017200E+04  0.24812047452E+04  0.89625890874E+03 0.  0.
         23    2    4    4    0    0  0.24049572252E+03  0.72950774624E+01  0.29681816678E+03  0.39314880568E+03  0.92593458578E+02 0.  0.
         23    2    4    4    0    0 -0.48577213998E+03 -0.82214278357E+03  0.18546835532E+04  0.20880559395E+04  0.90736958002E+02 0.  0.
          2    1    3    3  502    0  0.82491237554E+01  0.11046577310E+03 -0.93069534886E+02  0.14468128211E+03  0.00000000000E+00 0. -1.
         -1    1    3    3    0  502  0.23702729370E+03  0.70438193301E+03 -0.75700827271E+03  0.10608474775E+04  0.00000000000E+00 0.  1.
         13    1    5    5    0    0  0.15009747576E+03 -0.19773006859E+02  0.12178093721E+03  0.19429570427E+03  0.00000000000E+00 0.  1.
        -13    1    5    5    0    0  0.90398246767E+02  0.27068084322E+02  0.17503722957E+03  0.19885310141E+03  0.00000000000E+00 0. -1.
          1    1    6    6  503    0 -0.38733906839E+03 -0.71790872889E+03  0.15895613333E+04  0.17866532202E+04  0.00000000000E+00 0. -1.
         -1    1    6    6    0  503 -0.98433071589E+02 -0.10423405468E+03  0.26512221986E+03  0.30140271930E+03  0.00000000000E+00 0.  1.
<mgrwt>
<rscale>  0 0.34493912E+04</rscale>
<asrwt>0</asrwt>
<pdfrwt beam="1">  1        2 0.38370441E+00 0.34493912E+04</pdfrwt>
<pdfrwt beam="2">  1       -1 0.18348535E+00 0.34493912E+04</pdfrwt>
<totfact> 0.64637276E-01</totfact>
</mgrwt>
</event>
<event>
12    7  0.1625631E-007  0.2532523E+04  0.7818608E-02  0.8391490E-01
         -1   -1    0    0    0  501 -0.00000000000E+00  0.00000000000E+00  0.31271933888E+03  0.31271933888E+03  0.00000000000E+00 0.  1.
          2   -1    0    0  501    0  0.00000000000E+00 -0.00000000000E+00 -0.51273408581E+04  0.51273408581E+04  0.00000000000E+00 0. -1.
         24    2    1    2    0    0 -0.28260304596E+03  0.13957970236E+03 -0.43427730202E+04  0.43548368183E+04  0.74694269068E+02 0.  0.
        254    2    1    2    0    0  0.28260304596E+03 -0.13957970236E+03 -0.47184849903E+03  0.10852233787E+04  0.92505232327E+03 0.  0.
         23    2    4    4    0    0  0.26911596330E+03 -0.49406007031E+03 -0.13094262336E+03  0.58490708745E+03  0.91932451098E+02 0.  0.
         23    2    4    4    0    0  0.13487082660E+02  0.35448036795E+03 -0.34090587567E+03  0.50031629127E+03  0.90891928053E+02 0.  0.
          2    1    3    3  502    0 -0.26286978382E+03  0.14346936357E+03 -0.41987340424E+04  0.42094003778E+04  0.00000000000E+00 0. -1.
         -1    1    3    3    0  502 -0.19733262139E+02 -0.38896612040E+01 -0.14403897777E+03  0.14543644047E+03  0.00000000000E+00 0.  1.
         13    1    5    5    0    0  0.11632974611E+03 -0.29498451093E+03 -0.97474902072E+02  0.33173758915E+03  0.00000000000E+00 0. -1.
        -13    1    5    5    0    0  0.15278621719E+03 -0.19907555938E+03 -0.33467721289E+02  0.25316949831E+03  0.00000000000E+00 0.  1.
          2    1    6    6  503    0  0.51977286331E+02  0.23239299795E+03 -0.21774893155E+03  0.32268055563E+03  0.00000000000E+00 0. -1.
         -2    1    6    6    0  503 -0.38490203671E+02  0.12208737000E+03 -0.12315694412E+03  0.17763573564E+03  0.00000000000E+00 0.  1.
<mgrwt>
<rscale>  0 0.25325234E+04</rscale>
<asrwt>0</asrwt>
<pdfrwt beam="1">  1        2 0.78882170E+00 0.25325234E+04</pdfrwt>
<pdfrwt beam="2">  1       -1 0.48110666E-01 0.25325234E+04</pdfrwt>
<totfact> 0.10298784E-01</totfact>
</mgrwt>
</event>
<event>
12    7  0.1625631E-007  0.1545395E+04  0.7818608E-02  0.8854815E-01
         -1   -1    0    0    0  501 -0.00000000000E+00  0.00000000000E+00  0.26387694668E+03  0.26387694668E+03  0.00000000000E+00 0.  1.
          2   -1    0    0  501    0  0.00000000000E+00 -0.00000000000E+00 -0.22626502265E+04  0.22626502265E+04  0.00000000000E+00 0. -1.
         24    2    1    2    0    0 -0.42844921796E+02 -0.36371092967E+03 -0.12465620969E+04  0.13016555310E+04  0.79175325090E+02 0.  0.
        254    2    1    2    0    0  0.42844921796E+02  0.36371092967E+03 -0.75221118291E+03  0.12248716422E+04  0.89463263330E+03 0.  0.
         23    2    4    4    0    0  0.30965946271E+03 -0.15070296282E+03 -0.15832023888E+03  0.38999581755E+03  0.91820879004E+02 0.  0.
         23    2    4    4    0    0 -0.26681454091E+03  0.51441389249E+03 -0.59389094403E+03  0.83487582468E+03  0.92192934688E+02 0.  0.
          4    1    3    3  502    0 -0.58048923851E+02 -0.28439051379E+03 -0.10436666888E+04  0.10832764187E+04  0.00000000000E+00 0. -1.
         -3    1    3    3    0  502  0.15204002054E+02 -0.79320415886E+02 -0.20289540808E+03  0.21837911227E+03  0.00000000000E+00 0.  1.
         13    1    5    5    0    0  0.19983059584E+03 -0.13594965665E+03 -0.81122559669E+02  0.25494204413E+03  0.00000000000E+00 0.  1.
        -13    1    5    5    0    0  0.10982886686E+03 -0.14753306170E+02 -0.77197679209E+02  0.13505377342E+03  0.00000000000E+00 0. -1.
          2    1    6    6  503    0 -0.17033262465E+02  0.79746297621E+02 -0.52310886862E+02  0.96881540547E+02  0.00000000000E+00 0. -1.
         -2    1    6    6    0  503 -0.24978127844E+03  0.43466759487E+03 -0.54158005717E+03  0.73799428413E+03  0.00000000000E+00 0.  1.
<mgrwt>
<rscale>  0 0.15453947E+04</rscale>
<asrwt>0</asrwt>
<pdfrwt beam="1">  1        2 0.34810004E+00 0.15453947E+04</pdfrwt>
<pdfrwt beam="2">  1       -1 0.40596452E-01 0.15453947E+04</pdfrwt>
<totfact> 0.30980566E+01</totfact>
</mgrwt>
</event>
<event>
12    7  0.1625631E-007  0.1239175E+04  0.7818608E-02  0.9079241E-01
          2   -1    0    0  501    0  0.00000000000E+00  0.00000000000E+00  0.22000819354E+04  0.22000819354E+04  0.00000000000E+00 0. -1.
         -1   -1    0    0    0  501 -0.00000000000E+00 -0.00000000000E+00 -0.17448836713E+03  0.17448836713E+03  0.00000000000E+00 0.  1.
         24    2    1    2    0    0  0.16352717581E+03  0.18368564787E+03  0.23373472031E+03  0.34938439362E+03  0.83402521315E+02 0.  0.
        254    2    1    2    0    0 -0.16352717581E+03 -0.18368564787E+03  0.17918588479E+04  0.20251859089E+04  0.91111924588E+03 0.  0.
         23    2    4    4    0    0  0.16991361142E+02 -0.24317141568E+03  0.17955487492E+04  0.18143812621E+04  0.92536531726E+02 0.  0.
         23    2    4    4    0    0 -0.18051853695E+03  0.59485767801E+02 -0.36899013008E+01  0.21080464677E+03  0.91101509184E+02 0.  0.
          4    1    3    3  502    0  0.16144565581E+03  0.14593608346E+03  0.21918182406E+03  0.30887329479E+03  0.00000000000E+00 0. -1.
         -3    1    3    3    0  502  0.20815200008E+01  0.37749564418E+02  0.14552896253E+02  0.40511098833E+02  0.00000000000E+00 0.  1.
         13    1    5    5    0    0  0.51101996611E+02 -0.95436160304E+02  0.82150165173E+03  0.82860390932E+03  0.00000000000E+00 0. -1.
        -13    1    5    5    0    0 -0.34110635469E+02 -0.14773525537E+03  0.97404709752E+03  0.98577735281E+03  0.00000000000E+00 0.  1.
          3    1    6    6  503    0 -0.17107172273E+03  0.31234778369E+02 -0.22837394169E+02  0.17539296529E+03  0.00000000000E+00 0. -1.
         -3    1    6    6    0  503 -0.94468142190E+01  0.28250989432E+02  0.19147492868E+02  0.35411681490E+02  0.00000000000E+00 0.  1.
<mgrwt>
<rscale>  0 0.12391751E+04</rscale>
<asrwt>0</asrwt>
<pdfrwt beam="1">  1        2 0.33847412E+00 0.12391751E+04</pdfrwt>
<pdfrwt beam="2">  1       -1 0.26844366E-01 0.12391751E+04</pdfrwt>
<totfact> 0.71895585E+01</totfact>
</mgrwt>
</event>
<event>
12    7  0.1625631E-007  0.1869820E+04  0.7818608E-02  0.8670026E-01
         -1   -1    0    0    0  501 -0.00000000000E+00  0.00000000000E+00  0.78354612372E+03  0.78354612372E+03  0.00000000000E+00 0.  1.
          2   -1    0    0  501    0  0.00000000000E+00 -0.00000000000E+00 -0.11155143751E+04  0.11155143751E+04  0.00000000000E+00 0. -1.
         24    2    1    2    0    0  0.26971127685E+03  0.38375146002E+03 -0.64217339425E+03  0.80017590237E+03  0.88800059305E+02 0.  0.
        254    2    1    2    0    0 -0.26971127685E+03 -0.38375146002E+03  0.31020514287E+03  0.10988845964E+04  0.94409256416E+03 0.  0.
         23    2    4    4    0    0 -0.43107121975E+03  0.63893532694E+02  0.40785578865E+03  0.60465204330E+03  0.96710749719E+02 0.  0.
         23    2    4    4    0    0  0.16135994290E+03 -0.44764499271E+03 -0.97650645778E+02  0.49423255314E+03  0.91143278922E+02 0.  0.
          4    1    3    3  502    0  0.25988708263E+03  0.31787976286E+03 -0.56013667255E+03  0.69450840981E+03  0.00000000000E+00 0. -1.
         -3    1    3    3    0  502  0.98241942156E+01  0.65871697156E+02 -0.82036721693E+02  0.10566749256E+03  0.00000000000E+00 0.  1.
         13    1    5    5    0    0 -0.24967542192E+03  0.84587831352E+02  0.23213883402E+03  0.35125682311E+03  0.00000000000E+00 0. -1.
        -13    1    5    5    0    0 -0.18139579783E+03 -0.20694298658E+02  0.17571695463E+03  0.25339522019E+03  0.00000000000E+00 0.  1.
          1    1    6    6  503    0  0.72290927468E+01 -0.12146561260E+03 -0.44569598742E+02  0.12958627998E+03  0.00000000000E+00 0. -1.
         -1    1    6    6    0  503  0.15413085016E+03 -0.32617938011E+03 -0.53081047035E+02  0.36464627317E+03  0.00000000000E+00 0.  1.
<mgrwt>
<rscale>  0 0.18698203E+04</rscale>
<asrwt>0</asrwt>
<pdfrwt beam="1">  1        2 0.17161759E+00 0.18698203E+04</pdfrwt>
<pdfrwt beam="2">  1       -1 0.12054556E+00 0.18698203E+04</pdfrwt>
<totfact> 0.13971622E+01</totfact>
</mgrwt>
</event>
<event>
12    7  0.1625631E-007  0.1783775E+04  0.7818608E-02  0.8714976E-01
          2   -1    0    0  501    0  0.00000000000E+00  0.00000000000E+00  0.28054916535E+04  0.28054916535E+04  0.00000000000E+00 0. -1.
         -1   -1    0    0    0  501 -0.00000000000E+00 -0.00000000000E+00 -0.28353795761E+03  0.28353795761E+03  0.00000000000E+00 0.  1.
         24    2    1    2    0    0  0.63825788634E+03  0.10758759712E+03  0.11840517012E+04  0.13521424137E+04  0.85804749873E+02 0.  0.
        254    2    1    2    0    0 -0.63825788634E+03 -0.10758759712E+03  0.13379019947E+04  0.17368871975E+04  0.89880318694E+03 0.  0.
         23    2    4    4    0    0 -0.48741560023E+03  0.32833752088E+03  0.97696841539E+03  0.11437877574E+04  0.91671447910E+02 0.  0.
         23    2    4    4    0    0 -0.15084228611E+03 -0.43592511801E+03  0.36093357927E+03  0.59309944005E+03  0.93326273643E+02 0.  0.
          2    1    3    3  502    0  0.32761678304E+03  0.47519109278E+02  0.51777810716E+03  0.61456081109E+03  0.00000000000E+00 0. -1.
         -1    1    3    3    0  502  0.31064110330E+03  0.60068487846E+02  0.66627359406E+03  0.73758160256E+03  0.00000000000E+00 0.  1.
         13    1    5    5    0    0 -0.41420467112E+03  0.23518788607E+03  0.78359524019E+03  0.91700618961E+03  0.00000000000E+00 0. -1.
        -13    1    5    5    0    0 -0.73210929108E+02  0.93149634815E+02  0.19337317520E+03  0.22678156780E+03  0.00000000000E+00 0.  1.
          1    1    6    6  503    0 -0.33234856423E+02 -0.23821656553E+03  0.18936410634E+03  0.30612163031E+03  0.00000000000E+00 0. -1.
         -1    1    6    6    0  503 -0.11760742968E+03 -0.19770855248E+03  0.17156947292E+03  0.28697780973E+03  0.00000000000E+00 0.  1.
<mgrwt>
<rscale>  0 0.17837751E+04</rscale>
<asrwt>0</asrwt>
<pdfrwt beam="1">  1        2 0.43161408E+00 0.17837751E+04</pdfrwt>
<pdfrwt beam="2">  1       -1 0.43621226E-01 0.17837751E+04</pdfrwt>
<totfact> 0.12853463E+01</totfact>
</mgrwt>
</event>
<event>
12    7  0.1625631E-007  0.1778215E+04  0.7818608E-02  0.8717971E-01
         -1   -1    0    0    0  501 -0.00000000000E+00  0.00000000000E+00  0.62557161318E+03  0.62557161318E+03  0.00000000000E+00 0.  1.
          2   -1    0    0  501    0  0.00000000000E+00 -0.00000000000E+00 -0.12636631557E+04  0.12636631557E+04  0.00000000000E+00 0. -1.
         24    2    1    2    0    0  0.13920437114E+03  0.11050830022E+03 -0.91420052962E+03  0.93463321580E+03  0.78655567835E+02 0.  0.
        254    2    1    2    0    0 -0.13920437114E+03 -0.11050830022E+03  0.27610898707E+03  0.95460155311E+03  0.89634703720E+03 0.  0.
         23    2    4    4    0    0  0.32168349471E+03  0.11424857019E+03 -0.19904052751E+02  0.35368442387E+03  0.90352054840E+02 0.  0.
         23    2    4    4    0    0 -0.46088786585E+03 -0.22475687041E+03  0.29601303982E+03  0.60091712924E+03  0.10268593272E+03 0.  0.
          2    1    3    3  502    0  0.24521922786E+02  0.63037830672E+02 -0.25310474676E+03  0.26198684247E+03  0.00000000000E+00 0. -1.
         -1    1    3    3    0  502  0.11468244836E+03  0.47470469546E+02 -0.66109578286E+03  0.67264637333E+03  0.00000000000E+00 0.  1.
         13    1    5    5    0    0  0.19837590603E+03  0.82541673593E+02 -0.54660485041E+02  0.22170678067E+03  0.00000000000E+00 0.  1.
        -13    1    5    5    0    0  0.12330758868E+03  0.31706896601E+02  0.34756432290E+02  0.13197764320E+03  0.00000000000E+00 0. -1.
          1    1    6    6  503    0 -0.94737205706E+02 -0.38196366546E+02  0.15384945674E+02  0.10329955041E+03  0.00000000000E+00 0. -1.
         -1    1    6    6    0  503 -0.36615066015E+03 -0.18656050387E+03  0.28062809415E+03  0.49761757882E+03  0.00000000000E+00 0.  1.
<mgrwt>
<rscale>  0 0.17782146E+04</rscale>
<asrwt>0</asrwt>
<pdfrwt beam="1">  1        2 0.19440972E+00 0.17782146E+04</pdfrwt>
<pdfrwt beam="2">  1       -1 0.96241787E-01 0.17782146E+04</pdfrwt>
<totfact> 0.19467980E+01</totfact>
</mgrwt>
</event>
<event>
12    7  0.1625631E-007  0.2679973E+04  0.7818608E-02  0.8341533E-01
         -1   -1    0    0    0  501 -0.00000000000E+00  0.00000000000E+00  0.46660894162E+03  0.46660894162E+03  0.00000000000E+00 0.  1.
          2   -1    0    0  501    0  0.00000000000E+00 -0.00000000000E+00 -0.38481113838E+04  0.38481113838E+04  0.00000000000E+00 0. -1.
         24    2    1    2    0    0  0.96951457925E+03  0.69030725073E+03 -0.14500011946E+04  0.18775892974E+04  0.79721300235E+02 0.  0.
        254    2    1    2    0    0 -0.96951457925E+03 -0.69030725073E+03 -0.19315012476E+04  0.24371310280E+04  0.89018422718E+03 0.  0.
         23    2    4    4    0    0  0.29226829879E+02 -0.37485261006E+03 -0.27231168159E+03  0.47297128452E+03  0.90440572732E+02 0.  0.
         23    2    4    4    0    0 -0.99874140912E+03 -0.31545464067E+03 -0.16591895660E+04  0.19641597434E+04  0.89540210486E+02 0.  0.
          2    1    3    3  502    0  0.93822536481E+03  0.66346556339E+03 -0.14194485299E+04  0.18262769554E+04  0.00000000000E+00 0. -1.
         -1    1    3    3    0  502  0.31289214438E+02  0.26841687342E+02 -0.30552664699E+02  0.51312341982E+02  0.00000000000E+00 0.  1.
         13    1    5    5    0    0  0.61946057235E+02 -0.25600992797E+03 -0.18186172564E+03  0.32008137165E+03  0.00000000000E+00 0. -1.
        -13    1    5    5    0    0 -0.32719227357E+02 -0.11884268209E+03 -0.90449955948E+02  0.15288991286E+03  0.00000000000E+00 0.  1.
          2    1    6    6  503    0 -0.12523493777E+03 -0.51280479463E+02 -0.16584734394E+03  0.21405330809E+03  0.00000000000E+00 0. -1.
         -2    1    6    6    0  503 -0.87350647136E+03 -0.26417416121E+03 -0.14933422220E+04  0.17501064354E+04  0.00000000000E+00 0.  1.
<mgrwt>
<rscale>  0 0.26799725E+04</rscale>
<asrwt>0</asrwt>
<pdfrwt beam="1">  1        2 0.59201713E+00 0.26799725E+04</pdfrwt>
<pdfrwt beam="2">  1       -1 0.71785992E-01 0.26799725E+04</pdfrwt>
<totfact> 0.88373439E-01</totfact>
</mgrwt>
</event>
<event>
12    7  0.1625631E-007  0.1499731E+04  0.7818608E-02  0.8884632E-01
         -1   -1    0    0    0  501 -0.00000000000E+00  0.00000000000E+00  0.50743428746E+03  0.50743428746E+03  0.00000000000E+00 0.  1.
          2   -1    0    0  501    0  0.00000000000E+00 -0.00000000000E+00 -0.11081201036E+04  0.11081201036E+04  0.00000000000E+00 0. -1.
         24    2    1    2    0    0  0.25919194449E+03  0.35939338817E+01 -0.58370426629E+03  0.64343552539E+03  0.78135935429E+02 0.  0.
        254    2    1    2    0    0 -0.25919194449E+03 -0.35939338817E+01 -0.16981549879E+02  0.97211886568E+03  0.93676749278E+03 0.  0.
         23    2    4    4    0    0 -0.25700828802E+03  0.43710145888E+03  0.50279117244E+02  0.51755450300E+03  0.90684775395E+02 0.  0.
         23    2    4    4    0    0 -0.21836564781E+01 -0.44069539276E+03 -0.67260667123E+02  0.45456436268E+03  0.88811963843E+02 0.  0.
          4    1    3    3  502    0  0.25601083418E+03 -0.38470989767E+01 -0.52425276057E+03  0.58343577569E+03  0.00000000000E+00 0. -1.
         -3    1    3    3    0  502  0.31811103182E+01  0.74410328584E+01 -0.59451505716E+02  0.59999749706E+02  0.00000000000E+00 0.  1.
         13    1    5    5    0    0 -0.25093592159E+03  0.43417546440E+03  0.60708684217E+02  0.50513633305E+03  0.00000000000E+00 0.  1.
        -13    1    5    5    0    0 -0.60723664274E+01  0.29259944759E+01 -0.10429566973E+02  0.12418169951E+02  0.00000000000E+00 0. -1.
          4    1    6    6  503    0  0.61321261100E+01 -0.14361706608E+02  0.13412578513E+02  0.20585403802E+02  0.00000000000E+00 0. -1.
         -4    1    6    6    0  503 -0.83157825881E+01 -0.42633368615E+03 -0.80673245635E+02  0.43397895888E+03  0.00000000000E+00 0.  1.
<mgrwt>
<rscale>  0 0.14997308E+04</rscale>
<asrwt>0</asrwt>
<pdfrwt beam="1">  1        2 0.17048002E+00 0.14997308E+04</pdfrwt>
<pdfrwt beam="2">  1       -1 0.78066812E-01 0.14997308E+04</pdfrwt>
<totfact> 0.39003306E+01</totfact>
</mgrwt>
</event>
<event>
12    7  0.1625631E-007  0.2118007E+04  0.7818608E-02  0.8553352E-01
          2   -1    0    0  501    0  0.00000000000E+00  0.00000000000E+00  0.16075113427E+04  0.16075113427E+04  0.00000000000E+00 0. -1.
         -1   -1    0    0    0  501 -0.00000000000E+00 -0.00000000000E+00 -0.69765512976E+03  0.69765512976E+03  0.00000000000E+00 0.  1.
         24    2    1    2    0    0 -0.76859945134E+02 -0.49113962350E+03 -0.39594115684E+03  0.64037788699E+03  0.78669292176E+02 0.  0.
        254    2    1    2    0    0  0.76859945134E+02  0.49113962350E+03  0.13057973697E+04  0.16647885854E+04  0.90514566918E+03 0.  0.
         23    2    4    4    0    0 -0.34821648145E+03  0.44575738607E+03  0.90949946341E+03  0.10749098026E+04  0.91035403056E+02 0.  0.
         23    2    4    4    0    0  0.42507642658E+03  0.45382237429E+02  0.39629790631E+03  0.58987878281E+03  0.90307430223E+02 0.  0.
          4    1    3    3  502    0 -0.25582639485E+01 -0.19261974576E+03 -0.18721658111E+03  0.26862419737E+03  0.00000000000E+00 0. -1.
         -3    1    3    3    0  502 -0.74301681186E+02 -0.29851987774E+03 -0.20872457573E+03  0.37175368962E+03  0.00000000000E+00 0.  1.
         13    1    5    5    0    0 -0.13852534727E+03  0.14977191397E+03  0.40574079154E+03  0.45414368648E+03  0.00000000000E+00 0.  1.
        -13    1    5    5    0    0 -0.20969113418E+03  0.29598547210E+03  0.50375867187E+03  0.62076611613E+03  0.00000000000E+00 0. -1.
          1    1    6    6  503    0  0.24942423293E+03 -0.16601102560E+02  0.24330455740E+03  0.34883398950E+03  0.00000000000E+00 0. -1.
         -1    1    6    6    0  503  0.17565219365E+03  0.61983339989E+02  0.15299334891E+03  0.24104479331E+03  0.00000000000E+00 0.  1.
<mgrwt>
<rscale>  0 0.21180071E+04</rscale>
<asrwt>0</asrwt>
<pdfrwt beam="1">  1        2 0.24730944E+00 0.21180071E+04</pdfrwt>
<pdfrwt beam="2">  1       -1 0.10733156E+00 0.21180071E+04</pdfrwt>
<totfact> 0.93614865E+00</totfact>
</mgrwt>
</event>
<event>
12    7  0.1625631E-007  0.2055839E+04  0.7818608E-02  0.8580950E-01
         -1   -1    0    0    0  501 -0.00000000000E+00  0.00000000000E+00  0.12365835829E+04  0.12365835829E+04  0.00000000000E+00 0.  1.
          2   -1    0    0  501    0  0.00000000000E+00 -0.00000000000E+00 -0.85446629318E+03  0.85446629318E+03  0.00000000000E+00 0. -1.
         24    2    1    2    0    0 -0.17382602221E+03  0.33334924526E+03  0.91368050655E+03  0.99134640451E+03  0.81353674625E+02 0.  0.
        254    2    1    2    0    0  0.17382602221E+03 -0.33334924526E+03 -0.53156321684E+03  0.10997034716E+04  0.88625677236E+03 0.  0.
         23    2    4    4    0    0 -0.20205532695E+03 -0.32883650523E+03 -0.58771649042E+03  0.70904730379E+03  0.91529249875E+02 0.  0.
         23    2    4    4    0    0  0.37588134916E+03 -0.45127400305E+01  0.56153273582E+02  0.39065616777E+03  0.90287860843E+02 0.  0.
          4    1    3    3  502    0 -0.56531628450E+02  0.19039462117E+03  0.43521853683E+03  0.47839430555E+03  0.00000000000E+00 0. -1.
         -3    1    3    3    0  502 -0.11729439376E+03  0.14295462409E+03  0.47846196972E+03  0.51295209895E+03  0.00000000000E+00 0.  1.
         13    1    5    5    0    0 -0.18870662431E+03 -0.26380794475E+03 -0.52847359826E+03  0.62007190375E+03  0.00000000000E+00 0. -1.
        -13    1    5    5    0    0 -0.13348702641E+02 -0.65028560475E+02 -0.59242892165E+02  0.88975400037E+02  0.00000000000E+00 0.  1.
          1    1    6    6  503    0  0.36101232356E+03 -0.16162820176E+02  0.68879367134E+02  0.36787973814E+03  0.00000000000E+00 0. -1.
         -1    1    6    6    0  503  0.14869025602E+02  0.11650080146E+02 -0.12726093551E+02  0.22776429633E+02  0.00000000000E+00 0.  1.
<mgrwt>
<rscale>  0 0.20558395E+04</rscale>
<asrwt>0</asrwt>
<pdfrwt beam="1">  1        2 0.13145635E+00 0.20558395E+04</pdfrwt>
<pdfrwt beam="2">  1       -1 0.19024363E+00 0.20558395E+04</pdfrwt>
<totfact> 0.58525036E+00</totfact>
</mgrwt>
</event>
<event>
12    7  0.1625631E-007  0.1237768E+04  0.7818608E-02  0.9080426E-01
          2   -1    0    0  501    0  0.00000000000E+00  0.00000000000E+00  0.11547266467E+04  0.11547266467E+04  0.00000000000E+00 0. -1.
         -1   -1    0    0    0  501 -0.00000000000E+00 -0.00000000000E+00 -0.33169522706E+03  0.33169522706E+03  0.00000000000E+00 0.  1.
         24    2    1    2    0    0 -0.20675009222E+03 -0.88424862020E+02  0.40374630245E+03  0.46883980738E+03  0.78962848132E+02 0.  0.
        254    2    1    2    0    0  0.20675009222E+03  0.88424862020E+02  0.41928511719E+03  0.10175820664E+04  0.89950469451E+03 0.  0.
         23    2    4    4    0    0  0.55568018553E+03  0.54252052359E+02  0.27044704899E+03  0.62626782051E+03  0.85708943065E+02 0.  0.
         23    2    4    4    0    0 -0.34893009331E+03  0.34172809662E+02  0.14883806820E+03  0.39131424586E+03  0.89744512534E+02 0.  0.
          2    1    3    3  502    0 -0.15400933163E+03 -0.90048070096E+02  0.35355224704E+03  0.39601353581E+03  0.00000000000E+00 0. -1.
         -1    1    3    3    0  502 -0.52740760597E+02  0.16232080758E+01  0.50194055414E+02  0.72826271577E+02  0.00000000000E+00 0.  1.
         13    1    5    5    0    0  0.17645585874E+03 -0.21342149388E+02  0.96663431271E+02  0.20232641046E+03  0.00000000000E+00 0. -1.
        -13    1    5    5    0    0  0.37922432680E+03  0.75594201747E+02  0.17378361772E+03  0.42394141006E+03  0.00000000000E+00 0.  1.
          4    1    6    6  503    0 -0.13676897815E+03  0.36634259652E+01  0.10516787973E+03  0.17256725356E+03  0.00000000000E+00 0. -1.
         -4    1    6    6    0  503 -0.21216111516E+03  0.30509383696E+02  0.43670188467E+02  0.21874699230E+03  0.00000000000E+00 0.  1.
<mgrwt>
<rscale>  0 0.12377679E+04</rscale>
<asrwt>0</asrwt>
<pdfrwt beam="1">  1        2 0.17765025E+00 0.12377679E+04</pdfrwt>
<pdfrwt beam="2">  1       -1 0.51030036E-01 0.12377679E+04</pdfrwt>
<totfact> 0.87360813E+01</totfact>
</mgrwt>
</event>
<event>
12    7  0.1625631E-007  0.1789880E+04  0.7818608E-02  0.8711700E-01
         -1   -1    0    0    0  501 -0.00000000000E+00  0.00000000000E+00  0.96376524940E+03  0.96376524940E+03  0.00000000000E+00 0.  1.
          2   -1    0    0  501    0  0.00000000000E+00 -0.00000000000E+00 -0.83102972995E+03  0.83102972995E+03  0.00000000000E+00 0. -1.
         24    2    1    2    0    0 -0.28942481615E+03 -0.19293948804E+03  0.61901807569E+03  0.71518943479E+03  0.85558046687E+02 0.  0.
        254    2    1    2    0    0  0.28942481615E+03  0.19293948804E+03 -0.48628255624E+03  0.10796055446E+04  0.89893550220E+03 0.  0.
         23    2    4    4    0    0 -0.29340424953E+02 -0.29476069857E+03  0.99420610564E+01  0.30901866296E+03  0.87458330197E+02 0.  0.
         23    2    4    4    0    0  0.31876524110E+03  0.48770018661E+03 -0.49622461729E+03  0.77058688161E+03  0.90014000846E+02 0.  0.
          4    1    3    3  502    0 -0.51929934538E+02 -0.55941399133E+01  0.59776909381E+02  0.79380673955E+02  0.00000000000E+00 0. -1.
         -3    1    3    3    0  502 -0.23749488161E+03 -0.18734534813E+03  0.55924116631E+03  0.63580876083E+03  0.00000000000E+00 0.  1.
         13    1    5    5    0    0  0.74912545766E+01 -0.22524581299E+03  0.31219746583E+02  0.22752245547E+03  0.00000000000E+00 0.  1.
        -13    1    5    5    0    0 -0.36831679530E+02 -0.69514885574E+02 -0.21277685527E+02  0.81496207487E+02  0.00000000000E+00 0. -1.
          3    1    6    6  503    0  0.17486897170E+03  0.26952893266E+03 -0.21453445225E+03  0.38632891945E+03  0.00000000000E+00 0. -1.
         -3    1    6    6    0  503  0.14389626939E+03  0.21817125395E+03 -0.28169016505E+03  0.38425796216E+03  0.00000000000E+00 0.  1.
<mgrwt>
<rscale>  0 0.17898800E+04</rscale>
<asrwt>0</asrwt>
<pdfrwt beam="1">  1        2 0.12785073E+00 0.17898800E+04</pdfrwt>
<pdfrwt beam="2">  1       -1 0.14827158E+00 0.17898800E+04</pdfrwt>
<totfact> 0.12706100E+01</totfact>
</mgrwt>
</event>
<event>
12    7  0.1625631E-007  0.1573840E+04  0.7818608E-02  0.8836782E-01
          2   -1    0    0  501    0  0.00000000000E+00  0.00000000000E+00  0.19981028044E+04  0.19981028044E+04  0.00000000000E+00 0. -1.
         -1   -1    0    0    0  501 -0.00000000000E+00 -0.00000000000E+00 -0.30991554580E+03  0.30991554580E+03  0.00000000000E+00 0.  1.
         24    2    1    2    0    0  0.41167415794E+03 -0.32247700909E+02  0.89945989268E+02  0.42999752435E+03  0.79322527885E+02 0.  0.
        254    2    1    2    0    0 -0.41167415794E+03  0.32247700909E+02  0.15982412693E+04  0.18780208258E+04  0.89558446883E+03 0.  0.
         23    2    4    4    0    0 -0.33378567477E+03  0.13175103261E+02  0.80811093062E+02  0.35572846656E+03  0.91792424157E+02 0.  0.
         23    2    4    4    0    0 -0.77888483174E+02  0.19072597649E+02  0.15174301763E+04  0.15222923593E+04  0.91374545241E+02 0.  0.
          2    1    3    3  502    0  0.37756589642E+01 -0.10565944989E+02  0.68833306604E+01  0.13163397552E+02  0.00000000000E+00 0. -1.
         -1    1    3    3    0  502  0.40789849898E+03 -0.21681755920E+02  0.83062658608E+02  0.41683412680E+03  0.00000000000E+00 0.  1.
         13    1    5    5    0    0 -0.22876449967E+03  0.48067527912E+02  0.36830568593E+02  0.23664355967E+03  0.00000000000E+00 0. -1.
        -13    1    5    5    0    0 -0.10502117510E+03 -0.34892424652E+02  0.43980524469E+02  0.11908490689E+03  0.00000000000E+00 0.  1.
          2    1    6    6  503    0 -0.72287446868E+02 -0.93712600628E+01  0.13755895415E+04  0.13775194671E+04  0.00000000000E+00 0. -1.
         -2    1    6    6    0  503 -0.56010363062E+01  0.28443857712E+02  0.14184063478E+03  0.14477289223E+03  0.00000000000E+00 0.  1.
<mgrwt>
<rscale>  0 0.15738400E+04</rscale>
<asrwt>0</asrwt>
<pdfrwt beam="1">  1        2 0.30740042E+00 0.15738400E+04</pdfrwt>
<pdfrwt beam="2">  1       -1 0.47679316E-01 0.15738400E+04</pdfrwt>
<totfact> 0.32208036E+01</totfact>
</mgrwt>
</event>
<event>
12    7  0.1625631E-007  0.1805229E+04  0.7818608E-02  0.8703524E-01
         -1   -1    0    0    0  501 -0.00000000000E+00  0.00000000000E+00  0.38144519286E+03  0.38144519286E+03  0.00000000000E+00 0.  1.
          2   -1    0    0  501    0  0.00000000000E+00 -0.00000000000E+00 -0.21358573208E+04  0.21358573208E+04  0.00000000000E+00 0. -1.
         24    2    1    2    0    0  0.20889997730E+03 -0.59316217716E+03 -0.10099081131E+04  0.11920242580E+04  0.74342894802E+02 0.  0.
        254    2    1    2    0    0 -0.20889997730E+03  0.59316217716E+03 -0.74450401492E+03  0.13252782557E+04  0.89810670733E+03 0.  0.
         23    2    4    4    0    0 -0.42484116961E+03  0.24398175944E+03 -0.75527606155E+03  0.90492539558E+03  0.91820063604E+02 0.  0.
         23    2    4    4    0    0  0.21594119231E+03  0.34918041771E+03  0.10772046631E+02  0.42035286007E+03  0.89570795099E+02 0.  0.
          2    1    3    3  502    0  0.11393366158E+03 -0.32097379905E+03 -0.61609594162E+03  0.70397391159E+03  0.00000000000E+00 0. -1.
         -1    1    3    3    0  502  0.94966315724E+02 -0.27218837810E+03 -0.39381217145E+03  0.48805034646E+03  0.00000000000E+00 0.  1.
         13    1    5    5    0    0 -0.26589369490E+03  0.10030087269E+03 -0.43004842558E+03  0.51546228804E+03  0.00000000000E+00 0. -1.
        -13    1    5    5    0    0 -0.15894747471E+03  0.14368088675E+03 -0.32522763597E+03  0.38946310754E+03  0.00000000000E+00 0.  1.
          4    1    6    6  503    0  0.21803937479E+03  0.35160846150E+03  0.16204057504E+02  0.41404377865E+03  0.00000000000E+00 0. -1.
         -4    1    6    6    0  503 -0.20981824778E+01 -0.24280437881E+01 -0.54320108728E+01  0.63090814283E+01  0.00000000000E+00 0.  1.
<mgrwt>
<rscale>  0 0.18052285E+04</rscale>
<asrwt>0</asrwt>
<pdfrwt beam="1">  1        2 0.32859344E+00 0.18052285E+04</pdfrwt>
<pdfrwt beam="2">  1       -1 0.58683875E-01 0.18052285E+04</pdfrwt>
<totfact> 0.17745519E+01</totfact>
</mgrwt>
</event>
<event>
12    7  0.1625631E-007  0.2035165E+04  0.7818608E-02  0.8590354E-01
          2   -1    0    0  501    0  0.00000000000E+00  0.00000000000E+00  0.14437085822E+04  0.14437085822E+04  0.00000000000E+00 0. -1.
         -1   -1    0    0    0  501 -0.00000000000E+00 -0.00000000000E+00 -0.71723225672E+03  0.71723225672E+03  0.00000000000E+00 0.  1.
         24    2    1    2    0    0 -0.53187923644E+03  0.28232908482E+03 -0.29015649176E+03  0.67336815198E+03  0.81416485392E+02 0.  0.
        254    2    1    2    0    0  0.53187923644E+03 -0.28232908482E+03  0.10166328172E+04  0.14875726869E+04  0.90372837707E+03 0.  0.
         23    2    4    4    0    0  0.10557708000E+02 -0.17419504243E+03  0.91779096847E+03  0.93863372188E+03  0.90761357616E+02 0.  0.
         23    2    4    4    0    0  0.52132152844E+03 -0.10813404240E+03  0.98841848726E+02  0.54893896502E+03  0.89973157776E+02 0.  0.
          4    1    3    3  502    0 -0.22212485808E+03  0.11041218150E+03 -0.76135866138E+02  0.25947441592E+03  0.00000000000E+00 0. -1.
         -3    1    3    3    0  502 -0.30975437836E+03  0.17191690332E+03 -0.21402062562E+03  0.41389373606E+03  0.00000000000E+00 0.  1.
         13    1    5    5    0    0 -0.15882783120E+02 -0.16368592180E+03  0.83635964251E+03  0.85237479750E+03  0.00000000000E+00 0. -1.
        -13    1    5    5    0    0  0.26440491120E+02 -0.10509120624E+02  0.81431325967E+02  0.86258924383E+02  0.00000000000E+00 0.  1.
          2    1    6    6  503    0  0.43519654645E+03 -0.64647246921E+02  0.56533976258E+02  0.44358921430E+03  0.00000000000E+00 0. -1.
         -2    1    6    6    0  503  0.86124981993E+02 -0.43486795475E+02  0.42307872468E+02  0.10534975072E+03  0.00000000000E+00 0.  1.
<mgrwt>
<rscale>  0 0.20351652E+04</rscale>
<asrwt>0</asrwt>
<pdfrwt beam="1">  1        2 0.22210901E+00 0.20351652E+04</pdfrwt>
<pdfrwt beam="2">  1       -1 0.11034342E+00 0.20351652E+04</pdfrwt>
<totfact> 0.10926370E+01</totfact>
</mgrwt>
</event>
<event>
12    7  0.1625631E-007  0.2950398E+04  0.7818608E-02  0.8258039E-01
         -1   -1    0    0    0  501 -0.00000000000E+00  0.00000000000E+00  0.99337101220E+03  0.99337101220E+03  0.00000000000E+00 0.  1.
          2   -1    0    0  501    0  0.00000000000E+00 -0.00000000000E+00 -0.21907338783E+04  0.21907338783E+04  0.00000000000E+00 0. -1.
         24    2    1    2    0    0  0.58584677419E+03 -0.73788109734E+03 -0.15734416828E+04  0.18356905112E+04  0.79724318580E+02 0.  0.
        254    2    1    2    0    0 -0.58584677419E+03  0.73788109734E+03  0.37607881671E+03  0.13484143793E+04  0.88831363007E+03 0.  0.
         23    2    4    4    0    0 -0.38809965721E+02 -0.18809107137E+03  0.95883644059E+02  0.23316864101E+03  0.91046567113E+02 0.  0.
         23    2    4    4    0    0 -0.54703680847E+03  0.92597216871E+03  0.28019517265E+03  0.11152457383E+04  0.92682226107E+02 0.  0.
          2    1    3    3  502    0  0.54585343449E+03 -0.65849188925E+03 -0.14519789689E+04  0.16851737199E+04  0.00000000000E+00 0. -1.
         -1    1    3    3    0  502  0.39993339693E+02 -0.79389208098E+02 -0.12146271392E+03  0.15051679127E+03  0.00000000000E+00 0.  1.
         13    1    5    5    0    0  0.15346430031E+02 -0.13565332208E+03  0.53033439938E+02  0.14645778387E+03  0.00000000000E+00 0.  1.
        -13    1    5    5    0    0 -0.54156395752E+02 -0.52437749289E+02  0.42850204121E+02  0.86710857132E+02  0.00000000000E+00 0. -1.
          4    1    6    6  503    0 -0.92231295102E+02  0.15255652583E+03  0.11469191194E+02  0.17863831536E+03  0.00000000000E+00 0. -1.
         -4    1    6    6    0  503 -0.45480551336E+03  0.77341564288E+03  0.26872598146E+03  0.93660742296E+03  0.00000000000E+00 0.  1.
<mgrwt>
<rscale>  0 0.29503976E+04</rscale>
<asrwt>0</asrwt>
<pdfrwt beam="1">  1        2 0.33703598E+00 0.29503976E+04</pdfrwt>
<pdfrwt beam="2">  1       -1 0.15282631E+00 0.29503976E+04</pdfrwt>
<totfact> 0.16941268E+00</totfact>
</mgrwt>
</event>
<event>
12    7  0.1625631E-007  0.1761249E+04  0.7818608E-02  0.8727183E-01
          2   -1    0    0  501    0  0.00000000000E+00  0.00000000000E+00  0.79341653594E+03  0.79341653594E+03  0.00000000000E+00 0. -1.
         -1   -1    0    0    0  501 -0.00000000000E+00 -0.00000000000E+00 -0.97741791143E+03  0.97741791143E+03  0.00000000000E+00 0.  1.
         24    2    1    2    0    0 -0.27761044253E+03 -0.51054054389E+02 -0.66247421123E+03  0.72464945214E+03  0.81059691993E+02 0.  0.
        254    2    1    2    0    0  0.27761044253E+03  0.51054054389E+02  0.47847283574E+03  0.10461849952E+04  0.88650590266E+03 0.  0.
         23    2    4    4    0    0  0.21596412418E+03 -0.30594248118E+03 -0.59554031835E+02  0.39017855575E+03  0.91931049900E+02 0.  0.
         23    2    4    4    0    0  0.61646318357E+02  0.35699653557E+03  0.53802686757E+03  0.65600643949E+03  0.98105776813E+02 0.  0.
          2    1    3    3  502    0 -0.52123346168E+02 -0.36351799243E+02 -0.20127621853E+03  0.21106968676E+03  0.00000000000E+00 0. -1.
         -1    1    3    3    0  502 -0.22548709636E+03 -0.14702255146E+02 -0.46119799270E+03  0.51357976538E+03  0.00000000000E+00 0.  1.
         13    1    5    5    0    0  0.17690253242E+03 -0.29504807901E+03 -0.61970179100E+02  0.34955425617E+03  0.00000000000E+00 0.  1.
        -13    1    5    5    0    0  0.39061591753E+02 -0.10894402169E+02  0.24161472642E+01  0.40624299582E+02  0.00000000000E+00 0. -1.
          1    1    6    6  503    0  0.80316551832E+02  0.23067267967E+03  0.31007286750E+03  0.39472245541E+03  0.00000000000E+00 0. -1.
         -1    1    6    6    0  503 -0.18670233475E+02  0.12632385591E+03  0.22795400007E+03  0.26128398408E+03  0.00000000000E+00 0.  1.
<mgrwt>
<rscale>  0 0.17612490E+04</rscale>
<asrwt>0</asrwt>
<pdfrwt beam="1">  1        2 0.12206408E+00 0.17612490E+04</pdfrwt>
<pdfrwt beam="2">  1       -1 0.15037199E+00 0.17612490E+04</pdfrwt>
<totfact> 0.13049044E+01</totfact>
</mgrwt>
</event>
<event>
12    7  0.1625631E-007  0.2574442E+04  0.7818608E-02  0.8376935E-01
          2   -1    0    0  501    0  0.00000000000E+00  0.00000000000E+00  0.16301845653E+04  0.16301845653E+04  0.00000000000E+00 0. -1.
         -1   -1    0    0    0  501 -0.00000000000E+00 -0.00000000000E+00 -0.10164116118E+04  0.10164116118E+04  0.00000000000E+00 0.  1.
         24    2    1    2    0    0 -0.57708371788E+03 -0.25630375870E+03 -0.69161513654E+03  0.94001103777E+03  0.81067995319E+02 0.  0.
        254    2    1    2    0    0  0.57708371788E+03  0.25630375870E+03  0.13053880900E+04  0.17065851393E+04  0.89982083660E+03 0.  0.
         23    2    4    4    0    0  0.37158727597E+03  0.11208054176E+03  0.25894599872E+02  0.39956765891E+03  0.91348958577E+02 0.  0.
         23    2    4    4    0    0  0.20549644191E+03  0.14422321694E+03  0.12794934901E+04  0.13070174804E+04  0.90343670546E+02 0.  0.
          4    1    3    3  502    0 -0.21118513346E+03 -0.51949231264E+02 -0.24161491285E+03  0.32507791272E+03  0.00000000000E+00 0. -1.
         -3    1    3    3    0  502 -0.36589858442E+03 -0.20435452744E+03 -0.45000022369E+03  0.61493312505E+03  0.00000000000E+00 0.  1.
         13    1    5    5    0    0  0.36815237181E+03  0.93887390162E+02  0.27823045694E+02  0.38095292724E+03  0.00000000000E+00 0. -1.
        -13    1    5    5    0    0  0.34349041659E+01  0.18193151600E+02 -0.19284458215E+01  0.18614731668E+02  0.00000000000E+00 0.  1.
          1    1    6    6  503    0  0.49750563719E+02  0.54548299243E+02  0.58530445872E+03  0.58994232340E+03  0.00000000000E+00 0. -1.
         -1    1    6    6    0  503  0.15574587819E+03  0.89674917700E+02  0.69418903142E+03  0.71707515700E+03  0.00000000000E+00 0.  1.
<mgrwt>
<rscale>  0 0.25744425E+04</rscale>
<asrwt>0</asrwt>
<pdfrwt beam="1">  1        2 0.25079763E+00 0.25744425E+04</pdfrwt>
<pdfrwt beam="2">  1       -1 0.15637102E+00 0.25744425E+04</pdfrwt>
<totfact> 0.33723187E+00</totfact>
</mgrwt>
</event>
<event>
12    7  0.1625631E-007  0.2171193E+04  0.7818608E-02  0.8530515E-01
         -1   -1    0    0    0  501 -0.00000000000E+00  0.00000000000E+00  0.49843182579E+03  0.49843182579E+03  0.00000000000E+00 0.  1.
          2   -1    0    0  501    0  0.00000000000E+00 -0.00000000000E+00 -0.23644558468E+04  0.23644558468E+04  0.00000000000E+00 0. -1.
         24    2    1    2    0    0  0.49901189246E+03 -0.26434748693E+03  0.14356940829E+03  0.58817895592E+03  0.80310936546E+02 0.  0.
        254    2    1    2    0    0 -0.49901189246E+03  0.26434748693E+03 -0.20095934293E+04  0.22747087167E+04  0.90384817969E+03 0.  0.
         23    2    4    4    0    0 -0.44278033556E+03 -0.69178513979E+02 -0.34246867074E+03  0.57126781943E+03  0.90675458191E+02 0.  0.
         23    2    4    4    0    0 -0.56231556899E+02  0.33352600091E+03 -0.16671247586E+04  0.17034408973E+04  0.89467024729E+02 0.  0.
          4    1    3    3  502    0  0.29348591321E+02 -0.29461584998E+02  0.29010954632E+02  0.50704637774E+02  0.00000000000E+00 0. -1.
         -3    1    3    3    0  502  0.46966330114E+03 -0.23488590193E+03  0.11455845366E+03  0.53747431815E+03  0.00000000000E+00 0.  1.
         13    1    5    5    0    0 -0.16425883738E+03 -0.34722626245E+02 -0.18355191450E+03  0.24875275224E+03  0.00000000000E+00 0. -1.
        -13    1    5    5    0    0 -0.27852149818E+03 -0.34455887734E+02 -0.15891675625E+03  0.32251506719E+03  0.00000000000E+00 0.  1.
          2    1    6    6  503    0 -0.27347834335E+02  0.31085219727E+03 -0.15289977921E+04  0.15605163379E+04  0.00000000000E+00 0. -1.
         -2    1    6    6    0  503 -0.28883722564E+02  0.22673803636E+02 -0.13812696646E+03  0.14292455934E+03  0.00000000000E+00 0.  1.
<mgrwt>
<rscale>  0 0.21711933E+04</rscale>
<asrwt>0</asrwt>
<pdfrwt beam="1">  1        2 0.36376244E+00 0.21711933E+04</pdfrwt>
<pdfrwt beam="2">  1       -1 0.76681818E-01 0.21711933E+04</pdfrwt>
<totfact> 0.74131673E+00</totfact>
</mgrwt>
</event>
<event>
12    7  0.1625631E-007  0.1501100E+04  0.7818608E-02  0.8883722E-01
          2   -1    0    0  501    0  0.00000000000E+00  0.00000000000E+00  0.73854561132E+03  0.73854561132E+03  0.00000000000E+00 0. -1.
         -1   -1    0    0    0  501 -0.00000000000E+00 -0.00000000000E+00 -0.76274915322E+03  0.76274915322E+03  0.00000000000E+00 0.  1.
         24    2    1    2    0    0  0.50816064619E+03  0.13725035756E+03 -0.27991715642E+02  0.53370010829E+03  0.83590468654E+02 0.  0.
        254    2    1    2    0    0 -0.50816064619E+03 -0.13725035756E+03  0.37881737448E+01  0.96759465626E+03  0.81188679356E+03 0.  0.
         23    2    4    4    0    0  0.34949553527E+02  0.26354066063E+03 -0.47729335807E+02  0.28538852550E+03  0.92159480764E+02 0.  0.
         23    2    4    4    0    0 -0.54311019972E+03 -0.40079101819E+03  0.51517509552E+02  0.68220613076E+03  0.84551887905E+02 0.  0.
          2    1    3    3  502    0  0.39418482669E+03  0.89355203589E+02 -0.52755847445E+02  0.40761404470E+03  0.00000000000E+00 0. -1.
         -3    1    3    3    0  502  0.11397581951E+03  0.47895153975E+02  0.24764131803E+02  0.12608606359E+03  0.00000000000E+00 0.  1.
         13    1    5    5    0    0  0.31739337522E+02  0.26646479785E+03 -0.57728108763E+02  0.27448753812E+03  0.00000000000E+00 0.  1.
        -13    1    5    5    0    0  0.32102160046E+01 -0.29241372233E+01  0.99987729563E+01  0.10900987383E+02  0.00000000000E+00 0. -1.
          2    1    6    6  503    0 -0.88816007023E+02 -0.85458715357E+02  0.38201120823E+02  0.12903798187E+03  0.00000000000E+00 0. -1.
         -2    1    6    6    0  503 -0.45429419270E+03 -0.31533230283E+03  0.13316388728E+02  0.55316814888E+03  0.00000000000E+00 0.  1.
<mgrwt>
<rscale>  0 0.15010996E+04</rscale>
<asrwt>0</asrwt>
<pdfrwt beam="1">  1        2 0.11362240E+00 0.15010996E+04</pdfrwt>
<pdfrwt beam="2">  1       -1 0.11734602E+00 0.15010996E+04</pdfrwt>
<totfact> 0.27602533E+01</totfact>
</mgrwt>
</event>
<event>
12    7  0.1625631E-007  0.1627583E+04  0.7818608E-02  0.8803780E-01
         -1   -1    0    0    0  501 -0.00000000000E+00  0.00000000000E+00  0.18200620686E+03  0.18200620686E+03  0.00000000000E+00 0.  1.
          2   -1    0    0  501    0  0.00000000000E+00 -0.00000000000E+00 -0.36386473164E+04  0.36386473164E+04  0.00000000000E+00 0. -1.
         24    2    1    2    0    0  0.63080035848E+02  0.35053364393E+03 -0.22233071827E+04  0.22531060317E+04  0.80864298492E+02 0.  0.
        254    2    1    2    0    0 -0.63080035848E+02 -0.35053364393E+03 -0.12333339268E+04  0.15675474916E+04  0.89957747689E+03 0.  0.
         23    2    4    4    0    0 -0.36248749537E+03  0.13493493772E+01 -0.18386296932E+03  0.41657620008E+03  0.91275045594E+02 0.  0.
         23    2    4    4    0    0  0.29940745952E+03 -0.35188299331E+03 -0.10494709575E+04  0.11509712915E+04  0.99393940764E+02 0.  0.
          2    1    3    3  502    0  0.16738071223E+02  0.11615043511E+03 -0.98453533198E+03  0.99150436536E+03  0.00000000000E+00 0. -1.
         -1    1    3    3    0  502  0.46341964625E+02  0.23438320882E+03 -0.12387718507E+04  0.12616016663E+04  0.00000000000E+00 0.  1.
         13    1    5    5    0    0  0.59783181944E+00 -0.17941374266E+01 -0.16768087245E+02  0.16874391303E+02  0.00000000000E+00 0.  1.
        -13    1    5    5    0    0 -0.36308532718E+03  0.31434868038E+01 -0.16709488207E+03  0.39970180878E+03  0.00000000000E+00 0. -1.
          2    1    6    6  503    0  0.27565319418E+03 -0.26594790820E+03 -0.86941843906E+03  0.95005336456E+03  0.00000000000E+00 0. -1.
         -2    1    6    6    0  503  0.23754265334E+02 -0.85935085111E+02 -0.18005251847E+03  0.20091792698E+03  0.00000000000E+00 0.  1.
<mgrwt>
<rscale>  0 0.16275827E+04</rscale>
<asrwt>0</asrwt>
<pdfrwt beam="1">  1        2 0.55979187E+00 0.16275827E+04</pdfrwt>
<pdfrwt beam="2">  1       -1 0.28000956E-01 0.16275827E+04</pdfrwt>
<totfact> 0.82292492E+00</totfact>
</mgrwt>
</event>
<event>
12    7  0.1625631E-007  0.2136522E+04  0.7818608E-02  0.8545324E-01
          2   -1    0    0  501    0  0.00000000000E+00  0.00000000000E+00  0.14109489775E+04  0.14109489775E+04  0.00000000000E+00 0. -1.
         -1   -1    0    0    0  501 -0.00000000000E+00 -0.00000000000E+00 -0.80880408080E+03  0.80880408080E+03  0.00000000000E+00 0.  1.
         24    2    1    2    0    0  0.61700164714E+03 -0.41769185936E+03 -0.23133722678E+03  0.78433974995E+03  0.80711888313E+02 0.  0.
        254    2    1    2    0    0 -0.61700164714E+03  0.41769185936E+03  0.83348212344E+03  0.14354133083E+04  0.90031183133E+03 0.  0.
         23    2    4    4    0    0 -0.46643622507E+03  0.63587109425E+03  0.83941519575E+03  0.11552722447E+04  0.90229085773E+02 0.  0.
         23    2    4    4    0    0 -0.15056542207E+03 -0.21817923489E+03 -0.59330723097E+01  0.28014106362E+03  0.90397396652E+02 0.  0.
          4    1    3    3  502    0  0.99554765111E+02 -0.75451801706E+02 -0.87192257264E+01  0.12522040782E+03  0.00000000000E+00 0. -1.
         -3    1    3    3    0  502  0.51744688203E+03 -0.34224005765E+03 -0.22261800105E+03  0.65911934213E+03  0.00000000000E+00 0.  1.
         13    1    5    5    0    0 -0.46086623742E+03  0.60787164324E+03  0.78986037615E+03  0.10980824365E+04  0.00000000000E+00 0. -1.
        -13    1    5    5    0    0 -0.55699876559E+01  0.27999451007E+02  0.49554819600E+02  0.57189808225E+02  0.00000000000E+00 0.  1.
          1    1    6    6  503    0 -0.16163455442E+03 -0.19861781122E+03 -0.13484061625E+02  0.25643046627E+03  0.00000000000E+00 0. -1.
         -1    1    6    6    0  503  0.11069132351E+02 -0.19561423672E+02  0.75509893151E+01  0.23710597350E+02  0.00000000000E+00 0.  1.
<mgrwt>
<rscale>  0 0.21365217E+04</rscale>
<asrwt>0</asrwt>
<pdfrwt beam="1">  1        2 0.21706907E+00 0.21365217E+04</pdfrwt>
<pdfrwt beam="2">  1       -1 0.12443140E+00 0.21365217E+04</pdfrwt>
<totfact> 0.84529611E+00</totfact>
</mgrwt>
</event>
<event>
12    7  0.1625631E-007  0.1689747E+04  0.7818608E-02  0.8767234E-01
          2   -1    0    0  501    0  0.00000000000E+00  0.00000000000E+00  0.24449143426E+04  0.24449143426E+04  0.00000000000E+00 0. -1.
         -1   -1    0    0    0  501 -0.00000000000E+00 -0.00000000000E+00 -0.29195760244E+03  0.29195760244E+03  0.00000000000E+00 0.  1.
         24    2    1    2    0    0  0.21712352111E+03 -0.99457809074E+02 -0.12143964076E+03  0.27943836773E+03  0.79396069203E+02 0.  0.
        254    2    1    2    0    0 -0.21712352111E+03  0.99457809074E+02  0.22743963810E+04  0.24574335773E+04  0.89948118945E+03 0.  0.
         23    2    4    4    0    0 -0.17863883449E+03  0.48722395953E+03  0.12128005820E+04  0.13223581610E+04  0.91906660662E+02 0.  0.
         23    2    4    4    0    0 -0.38484686622E+02 -0.38776615046E+03  0.10615957989E+04  0.11350754164E+04  0.97810541107E+02 0.  0.
          4    1    3    3  502    0  0.77090013907E+02 -0.55421076295E+01 -0.11469956605E+02  0.78135427980E+02  0.00000000000E+00 0. -1.
         -1    1    3    3    0  502  0.14003350720E+03 -0.93915701444E+02 -0.10996968416E+03  0.20130293975E+03  0.00000000000E+00 0.  1.
         13    1    5    5    0    0 -0.73100273084E+02  0.20453448400E+03  0.39688831015E+03  0.45243600189E+03  0.00000000000E+00 0. -1.
        -13    1    5    5    0    0 -0.10553856140E+03  0.28268947553E+03  0.81591227186E+03  0.86992215909E+03  0.00000000000E+00 0.  1.
          1    1    6    6  503    0 -0.55136746699E+02 -0.20427890603E+03  0.66331293168E+03  0.69624275768E+03  0.00000000000E+00 0. -1.
         -1    1    6    6    0  503  0.16652060077E+02 -0.18348724443E+03  0.39828286726E+03  0.43883265868E+03  0.00000000000E+00 0.  1.
<mgrwt>
<rscale>  0 0.16897471E+04</rscale>
<asrwt>0</asrwt>
<pdfrwt beam="1">  1        2 0.37614066E+00 0.16897471E+04</pdfrwt>
<pdfrwt beam="2">  1       -1 0.44916556E-01 0.16897471E+04</pdfrwt>
<totfact> 0.19992565E+01</totfact>
</mgrwt>
</event>
<event>
12    7  0.1625631E-007  0.1661942E+04  0.7818608E-02  0.8783373E-01
          2   -1    0    0  501    0  0.00000000000E+00  0.00000000000E+00  0.45256676986E+04  0.45256676986E+04  0.00000000000E+00 0. -1.
         -1   -1    0    0    0  501 -0.00000000000E+00 -0.00000000000E+00 -0.15257692423E+03  0.15257692423E+03  0.00000000000E+00 0.  1.
         24    2    1    2    0    0  0.52557187649E+03 -0.30999512773E+03  0.22357638493E+04  0.23184925973E+04  0.66672012735E+02 0.  0.
        254    2    1    2    0    0 -0.52557187649E+03  0.30999512773E+03  0.21373269251E+04  0.23597520255E+04  0.79242694352E+03 0.  0.
         23    2    4    4    0    0 -0.56743335418E+02  0.32314058431E+03  0.16189024673E+04  0.16544745169E+04  0.93814097358E+02 0.  0.
         23    2    4    4    0    0 -0.46882854107E+03 -0.13145456585E+02  0.51842445773E+03  0.70527750866E+03  0.93163522419E+02 0.  0.
          4    1    3    3  502    0  0.21575884276E+00 -0.75925277482E+01  0.24716981493E+02  0.25857730055E+02  0.00000000000E+00 0. -1.
         -3    1    3    3    0  502  0.52535611765E+03 -0.30240259998E+03  0.22110468678E+04  0.22926348673E+04  0.00000000000E+00 0.  1.
         13    1    5    5    0    0 -0.17611294291E+02  0.40986214152E+02  0.41217110864E+03  0.41457815938E+03  0.00000000000E+00 0. -1.
        -13    1    5    5    0    0 -0.39132041128E+02  0.28215437016E+03  0.12067313587E+04  0.12398963575E+04  0.00000000000E+00 0.  1.
          2    1    6    6  503    0 -0.41430021235E+03  0.13866424851E+01  0.49129233468E+03  0.64266223387E+03  0.00000000000E+00 0.  1.
         -2    1    6    6    0  503 -0.54528328720E+02 -0.14532099070E+02  0.27132123046E+02  0.62615274793E+02  0.00000000000E+00 0. -1.
<mgrwt>
<rscale>  0 0.16619416E+04</rscale>
<asrwt>0</asrwt>
<pdfrwt beam="1">  1        2 0.69625646E+00 0.16619416E+04</pdfrwt>
<pdfrwt beam="2">  1       -1 0.23473376E-01 0.16619416E+04</pdfrwt>
<totfact> 0.20256957E+00</totfact>
</mgrwt>
</event>
<event>
12    7  0.1625631E-007  0.1213057E+04  0.7818608E-02  0.9101504E-01
          2   -1    0    0  501    0  0.00000000000E+00  0.00000000000E+00  0.59723439003E+03  0.59723439003E+03  0.00000000000E+00 0. -1.
         -1   -1    0    0    0  501 -0.00000000000E+00 -0.00000000000E+00 -0.61596757160E+03  0.61596757160E+03  0.00000000000E+00 0.  1.
         24    2    1    2    0    0  0.21753636252E+03 -0.55186006814E+00  0.15142739525E+03  0.27698595991E+03  0.80427559878E+02 0.  0.
        254    2    1    2    0    0 -0.21753636252E+03  0.55186006814E+00 -0.17016057682E+03  0.93621600172E+03  0.89455207026E+03 0.  0.
         23    2    4    4    0    0  0.15379720612E+02  0.11388144529E+03  0.33260943533E+03  0.36339130668E+03  0.90656968353E+02 0.  0.
         23    2    4    4    0    0 -0.23291608313E+03 -0.11332958522E+03 -0.50277001215E+03  0.57282469504E+03  0.90867758121E+02 0.  0.
          4    1    3    3  502    0  0.82240613553E+01  0.16605827932E+02  0.27414815038E+02  0.33090191750E+02  0.00000000000E+00 0. -1.
         -3    1    3    3    0  502  0.20931230116E+03 -0.17157688000E+02  0.12401258021E+03  0.24389576816E+03  0.00000000000E+00 0.  1.
         13    1    5    5    0    0 -0.26628630355E+02  0.97753916939E+02  0.23492480342E+03  0.25584091833E+03  0.00000000000E+00 0.  1.
        -13    1    5    5    0    0  0.42008350968E+02  0.16127528351E+02  0.97684631912E+02  0.10755038835E+03  0.00000000000E+00 0. -1.
          3    1    6    6  503    0 -0.37084958157E+02 -0.93108787322E+01 -0.23858203853E+02  0.45068841513E+02  0.00000000000E+00 0. -1.
         -3    1    6    6    0  503 -0.19583112497E+03 -0.10401870649E+03 -0.47891180830E+03  0.52775585353E+03  0.00000000000E+00 0.  1.
<mgrwt>
<rscale>  0 0.12130573E+04</rscale>
<asrwt>0</asrwt>
<pdfrwt beam="1">  1        2 0.91882214E-01 0.12130573E+04</pdfrwt>
<pdfrwt beam="2">  1       -1 0.94764241E-01 0.12130573E+04</pdfrwt>
<totfact> 0.60543732E+01</totfact>
</mgrwt>
</event>
<event>
12    7  0.1625631E-007  0.2241581E+04  0.7818608E-02  0.8501318E-01
          2   -1    0    0  501    0  0.00000000000E+00  0.00000000000E+00  0.18069141130E+04  0.18069141130E+04  0.00000000000E+00 0. -1.
         -1   -1    0    0    0  501 -0.00000000000E+00 -0.00000000000E+00 -0.69520234307E+03  0.69520234307E+03  0.00000000000E+00 0.  1.
         24    2    1    2    0    0 -0.14256806714E+03 -0.14610049729E+03  0.14965166675E+04  0.15125760103E+04  0.81566179253E+02 0.  0.
        254    2    1    2    0    0  0.14256806714E+03  0.14610049729E+03 -0.38480489764E+03  0.98954044576E+03  0.88850687981E+03 0.  0.
         23    2    4    4    0    0 -0.31371782893E+03 -0.13234203866E+03 -0.59457200860E+02  0.35689316432E+03  0.88906021276E+02 0.  0.
         23    2    4    4    0    0  0.45628589607E+03  0.27844253595E+03 -0.32534769678E+03  0.63264728144E+03  0.93082727350E+02 0.  0.
          4    1    3    3  502    0 -0.99652286458E+02 -0.13081222908E+03  0.94680536865E+03  0.96098013693E+03  0.00000000000E+00 0. -1.
         -3    1    3    3    0  502 -0.42915780680E+02 -0.15288268210E+02  0.54971129888E+03  0.55159587335E+03  0.00000000000E+00 0.  1.
         13    1    5    5    0    0 -0.41368804359E+01  0.42831981276E+01 -0.14318367811E+02  0.15507263547E+02  0.00000000000E+00 0. -1.
        -13    1    5    5    0    0 -0.30958094849E+03 -0.13662523679E+03 -0.45138833049E+02  0.34138590077E+03  0.00000000000E+00 0.  1.
          2    1    6    6  503    0  0.10928936408E+03  0.32740680190E+02 -0.41378579846E+02  0.12136022458E+03  0.00000000000E+00 0. -1.
         -2    1    6    6    0  503  0.34699653199E+03  0.24570185576E+03 -0.28396911693E+03  0.51128705686E+03  0.00000000000E+00 0.  1.
<mgrwt>
<rscale>  0 0.22415806E+04</rscale>
<asrwt>0</asrwt>
<pdfrwt beam="1">  1        2 0.27798679E+00 0.22415806E+04</pdfrwt>
<pdfrwt beam="2">  1       -1 0.10695421E+00 0.22415806E+04</pdfrwt>
<totfact> 0.72325624E+00</totfact>
</mgrwt>
</event>
<event>
12    7  0.1625631E-007  0.1893609E+04  0.7818608E-02  0.8658044E-01
          2   -1    0    0  501    0  0.00000000000E+00  0.00000000000E+00  0.96205444667E+03  0.96205444667E+03  0.00000000000E+00 0. -1.
         -1   -1    0    0    0  501 -0.00000000000E+00 -0.00000000000E+00 -0.93179586138E+03  0.93179586138E+03  0.00000000000E+00 0.  1.
         24    2    1    2    0    0 -0.25751317559E+03 -0.62192705843E+03  0.28827935794E+03  0.73678047347E+03  0.81450452835E+02 0.  0.
        254    2    1    2    0    0  0.25751317559E+03  0.62192705843E+03 -0.25802077265E+03  0.11570698346E+04  0.90505777791E+03 0.  0.
         23    2    4    4    0    0  0.38231083264E+03  0.67489871408E+03  0.76351568884E+02  0.78467425951E+03  0.90742958132E+02 0.  0.
         23    2    4    4    0    0 -0.12479765705E+03 -0.52971655647E+02 -0.33437234154E+03  0.37239557507E+03  0.92158287948E+02 0.  0.
          2    1    3    3  502    0 -0.23920894222E+03 -0.60197689650E+03  0.28986082977E+03  0.70965935673E+03  0.00000000000E+00 0. -1.
         -1    1    3    3    0  502 -0.18304233367E+02 -0.19950161930E+02 -0.15814718329E+01  0.27121116742E+02  0.00000000000E+00 0.  1.
         13    1    5    5    0    0  0.18400322531E+03  0.41560731416E+03  0.43942138089E+02  0.45663720611E+03  0.00000000000E+00 0.  1.
        -13    1    5    5    0    0  0.19830760734E+03  0.25929139992E+03  0.32409430794E+02  0.32803705340E+03  0.00000000000E+00 0. -1.
          2    1    6    6  503    0 -0.11433566704E+03 -0.22144996708E+02 -0.17830192959E+03  0.21296625022E+03  0.00000000000E+00 0. -1.
         -2    1    6    6    0  503 -0.10461990009E+02 -0.30826658939E+02 -0.15607041195E+03  0.15942932485E+03  0.00000000000E+00 0.  1.
<mgrwt>
<rscale>  0 0.18936086E+04</rscale>
<asrwt>0</asrwt>
<pdfrwt beam="1">  1        2 0.14800838E+00 0.18936086E+04</pdfrwt>
<pdfrwt beam="2">  1       -1 0.14335321E+00 0.18936086E+04</pdfrwt>
<totfact> 0.11225415E+01</totfact>
</mgrwt>
</event>
<event>
12    7  0.1625631E-007  0.2135530E+04  0.7818608E-02  0.8545752E-01
          2   -1    0    0  501    0  0.00000000000E+00  0.00000000000E+00  0.36487988431E+04  0.36487988431E+04  0.00000000000E+00 0. -1.
         -1   -1    0    0    0  501 -0.00000000000E+00 -0.00000000000E+00 -0.31246513141E+03  0.31246513141E+03  0.00000000000E+00 0.  1.
         24    2    1    2    0    0 -0.55022885138E+03  0.56394198879E+03  0.67045312972E+03  0.10375986616E+04  0.79506149812E+02 0.  0.
        254    2    1    2    0    0  0.55022885138E+03 -0.56394198879E+03  0.26658805820E+04  0.29236653129E+04  0.90560324028E+03 0.  0.
         23    2    4    4    0    0  0.49792801135E+03 -0.43352123556E+03  0.75761179417E+03  0.10080937970E+04  0.80028162487E+02 0.  0.
         23    2    4    4    0    0  0.52300840030E+02 -0.13042075322E+03  0.19082687878E+04  0.19155715158E+04  0.90440671606E+02 0.  0.
          4    1    3    3  502    0 -0.15167284493E+03  0.10735150824E+03  0.15533068516E+03  0.24219128796E+03  0.00000000000E+00 0. -1.
         -3    1    3    3    0  502 -0.39855600645E+03  0.45659048054E+03  0.51512244455E+03  0.79540737367E+03  0.00000000000E+00 0.  1.
         13    1    5    5    0    0  0.10952897557E+03 -0.65876658973E+02  0.11384532105E+03  0.17116392088E+03  0.00000000000E+00 0. -1.
        -13    1    5    5    0    0  0.38839903578E+03 -0.36764457659E+03  0.64376647312E+03  0.83692987616E+03  0.00000000000E+00 0.  1.
          3    1    6    6  503    0  0.48038420518E+02 -0.22813090391E+02  0.40950594060E+03  0.41294459959E+03  0.00000000000E+00 0. -1.
         -3    1    6    6    0  503  0.42624195122E+01 -0.10760766283E+03  0.14987628472E+04  0.15026269162E+04  0.00000000000E+00 0.  1.
<mgrwt>
<rscale>  0 0.21355303E+04</rscale>
<asrwt>0</asrwt>
<pdfrwt beam="1">  1        2 0.56135364E+00 0.21355303E+04</pdfrwt>
<pdfrwt beam="2">  1       -1 0.48071561E-01 0.21355303E+04</pdfrwt>
<totfact> 0.28935984E+00</totfact>
</mgrwt>
</event>
<event>
12    7  0.1625631E-007  0.1747747E+04  0.7818608E-02  0.8734591E-01
         -1   -1    0    0    0  501 -0.00000000000E+00  0.00000000000E+00  0.16047786084E+04  0.16047786084E+04  0.00000000000E+00 0.  1.
          2   -1    0    0  501    0  0.00000000000E+00 -0.00000000000E+00 -0.47586307358E+03  0.47586307358E+03  0.00000000000E+00 0. -1.
         24    2    1    2    0    0 -0.14407149696E+03 -0.42375567354E+03 -0.12734383512E+03  0.47214663970E+03  0.79878219477E+02 0.  0.
        254    2    1    2    0    0  0.14407149696E+03  0.42375567354E+03  0.12562593699E+04  0.16084950423E+04  0.89930152308E+03 0.  0.
         23    2    4    4    0    0  0.34882815697E+02 -0.54896400717E+01 -0.12272659866E+03  0.15731132734E+03  0.91859069840E+02 0.  0.
         23    2    4    4    0    0  0.10918868126E+03  0.42924531361E+03  0.13789859686E+04  0.14511837149E+04  0.90322563920E+02 0.  0.
          2    1    3    3  502    0 -0.14442668242E+03 -0.41576682857E+03 -0.11094997830E+03  0.45390640006E+03  0.00000000000E+00 0. -1.
         -1    1    3    3    0  502  0.35518545842E+00 -0.79888449686E+01 -0.16393856821E+02  0.18240239640E+02  0.00000000000E+00 0.  1.
         13    1    5    5    0    0  0.63124713059E+02  0.56465814252E+01 -0.10354518961E+03  0.12140106907E+03  0.00000000000E+00 0. -1.
        -13    1    5    5    0    0 -0.28241897361E+02 -0.11136221497E+02 -0.19181409053E+02  0.35910258270E+02  0.00000000000E+00 0.  1.
          1    1    6    6  503    0  0.52700423778E+02  0.34023037747E+03  0.11142633606E+04  0.11662404903E+04  0.00000000000E+00 0. -1.
         -1    1    6    6    0  503  0.56488257482E+02  0.89014936144E+02  0.26472260800E+03  0.28494322465E+03  0.00000000000E+00 0.  1.
<mgrwt>
<rscale>  0 0.17477470E+04</rscale>
<asrwt>0</asrwt>
<pdfrwt beam="1">  1        2 0.73209704E-01 0.17477470E+04</pdfrwt>
<pdfrwt beam="2">  1       -1 0.24688901E+00 0.17477470E+04</pdfrwt>
<totfact> 0.51639198E+00</totfact>
</mgrwt>
</event>
<event>
12    7  0.1722403E-007  0.4073170E+04  0.7818608E-02  0.7989946E-01
          2   -1    0    0  501    0  0.00000000000E+00  0.00000000000E+00  0.20320583267E+04  0.20320583267E+04  0.00000000000E+00 0. -1.
         -1   -1    0    0    0  501 -0.00000000000E+00 -0.00000000000E+00 -0.20411221059E+04  0.20411221059E+04  0.00000000000E+00 0.  1.
         24    2    1    2    0    0  0.16298812944E+03 -0.14013984867E+04  0.13170787285E+04  0.19317776203E+04  0.81151391967E+02 0.  0.
        254    2    1    2    0    0 -0.16298812944E+03  0.14013984867E+04 -0.13261425078E+04  0.21414028122E+04  0.91458690379E+03 0.  0.
         23    2    4    4    0    0 -0.17278498083E+03  0.14670877302E+04 -0.97296404023E+03  0.17712706880E+04  0.92410869750E+02 0.  0.
         23    2    4    4    0    0  0.97968513927E+01 -0.65689243518E+02 -0.35317846754E+03  0.37013212426E+03  0.88609844064E+02 0.  0.
          2    1    3    3  502    0  0.12887327256E+03 -0.11874568803E+04  0.11515352866E+04  0.16591249740E+04  0.00000000000E+00 0. -1.
         -1    1    3    3    0  502  0.34114856882E+02 -0.21394160632E+03  0.16554344193E+03  0.27265264631E+03  0.00000000000E+00 0.  1.
         13    1    5    5    0    0 -0.67157267413E+01  0.23539543498E+03 -0.12391744904E+03  0.26610457713E+03  0.00000000000E+00 0. -1.
        -13    1    5    5    0    0 -0.16606925409E+03  0.12316922952E+04 -0.84904659119E+03  0.15051661108E+04  0.00000000000E+00 0.  1.
          1    1    6    6  503    0 -0.80928551109E+01  0.20001803416E+02 -0.98290969538E+02  0.10063141227E+03  0.00000000000E+00 0. -1.
         -1    1    6    6    0  503  0.17889706504E+02 -0.85691046934E+02 -0.25488749800E+03  0.26950071199E+03  0.00000000000E+00 0.  1.
<mgrwt>
<rscale>  0 0.40731703E+04</rscale>
<asrwt>0</asrwt>
<pdfrwt beam="1">  1        2 0.31262436E+00 0.40731703E+04</pdfrwt>
<pdfrwt beam="2">  1       -1 0.31401879E+00 0.40731703E+04</pdfrwt>
<totfact> 0.15317313E-01</totfact>
</mgrwt>
</event>
<event>
12    7  0.1625631E-007  0.2025136E+04  0.7818608E-02  0.8594958E-01
          2   -1    0    0  501    0  0.00000000000E+00  0.00000000000E+00  0.20782268939E+04  0.20782268939E+04  0.00000000000E+00 0. -1.
         -1   -1    0    0    0  501 -0.00000000000E+00 -0.00000000000E+00 -0.49335035901E+03  0.49335035901E+03  0.00000000000E+00 0.  1.
         24    2    1    2    0    0 -0.13002070766E+03  0.38407912227E+03  0.15290348833E+04  0.15838859273E+04  0.79528608216E+02 0.  0.
        254    2    1    2    0    0  0.13002070766E+03 -0.38407912227E+03  0.55841651567E+02  0.98769132567E+03  0.89888470238E+03 0.  0.
         23    2    4    4    0    0  0.48033895524E+03 -0.62298670010E+02 -0.36474323802E+02  0.49452499627E+03  0.92832965217E+02 0.  0.
         23    2    4    4    0    0 -0.35031824758E+03 -0.32178045226E+03  0.92315975370E+02  0.49316632940E+03  0.91789188352E+02 0.  0.
          2    1    3    3  502    0 -0.57857842373E+02  0.26933048431E+03  0.10985900051E+04  0.11326016241E+04  0.00000000000E+00 0. -1.
         -1    1    3    3    0  502 -0.72162865288E+02  0.11474863796E+03  0.43044487825E+03  0.45128430313E+03  0.00000000000E+00 0.  1.
         13    1    5    5    0    0  0.48673230462E+02  0.17911421788E+02  0.10657235736E+02  0.52947890115E+02  0.00000000000E+00 0. -1.
        -13    1    5    5    0    0  0.43166572478E+03 -0.80210091798E+02 -0.47131559538E+02  0.44157710615E+03  0.00000000000E+00 0.  1.
          3    1    6    6  503    0 -0.18774881294E+03 -0.21449293305E+03  0.88029190557E+02  0.29833868921E+03  0.00000000000E+00 0. -1.
         -3    1    6    6    0  503 -0.16256943464E+03 -0.10728751921E+03  0.42867848130E+01  0.19482764019E+03  0.00000000000E+00 0.  1.
<mgrwt>
<rscale>  0 0.20251360E+04</rscale>
<asrwt>0</asrwt>
<pdfrwt beam="1">  1        2 0.31972721E+00 0.20251360E+04</pdfrwt>
<pdfrwt beam="2">  1       -1 0.75900057E-01 0.20251360E+04</pdfrwt>
<totfact> 0.11121832E+01</totfact>
</mgrwt>
</event>
<event>
12    7  0.1625631E-007  0.3407684E+04  0.7818608E-02  0.8136023E-01
          2   -1    0    0  501    0  0.00000000000E+00  0.00000000000E+00  0.29215326945E+04  0.29215326945E+04  0.00000000000E+00 0. -1.
         -1   -1    0    0    0  501 -0.00000000000E+00 -0.00000000000E+00 -0.99368298276E+03  0.99368298276E+03  0.00000000000E+00 0.  1.
         24    2    1    2    0    0  0.76916253757E+03  0.11001579690E+04 -0.69050620232E+02  0.13464659835E+04  0.79019559257E+02 0.  0.
        254    2    1    2    0    0 -0.76916253757E+03 -0.11001579690E+04  0.19969003320E+04  0.25687496937E+04  0.89939173188E+03 0.  0.
         23    2    4    4    0    0 -0.86925260588E+03 -0.55532967651E+03  0.11022659912E+04  0.15124796667E+04  0.92807782530E+02 0.  0.
         23    2    4    4    0    0  0.10009006831E+03 -0.54482829246E+03  0.89463434076E+03  0.10562700270E+04  0.92086243384E+02 0.  0.
          2    1    3    3  502    0  0.11528161844E+02  0.20295604580E+02 -0.11643614673E+02  0.26084168444E+02  0.00000000000E+00 0. -1.
         -1    1    3    3    0  502  0.75763437573E+03  0.10798623644E+04 -0.57407005559E+02  0.13203818151E+04  0.00000000000E+00 0.  1.
         13    1    5    5    0    0 -0.75681765521E+03 -0.51176140166E+03  0.99854038773E+03  0.13534236592E+04  0.00000000000E+00 0. -1.
        -13    1    5    5    0    0 -0.11243495067E+03 -0.43568274849E+02  0.10372560347E+03  0.15905600750E+03  0.00000000000E+00 0.  1.
          3    1    6    6  503    0  0.11076535665E+03 -0.36586796400E+03  0.61027792240E+03  0.72011629191E+03  0.00000000000E+00 0. -1.
         -3    1    6    6    0  503 -0.10675288343E+02 -0.17896032846E+03  0.28435641836E+03  0.33615373508E+03  0.00000000000E+00 0.  1.
<mgrwt>
<rscale>  0 0.34076839E+04</rscale>
<asrwt>0</asrwt>
<pdfrwt beam="1">  1        2 0.44946657E+00 0.34076839E+04</pdfrwt>
<pdfrwt beam="2">  1       -1 0.15287431E+00 0.34076839E+04</pdfrwt>
<totfact> 0.60683116E-01</totfact>
</mgrwt>
</event>
<event>
12    7  0.1625631E-007  0.1811682E+04  0.7818608E-02  0.8700111E-01
          2   -1    0    0  501    0  0.00000000000E+00  0.00000000000E+00  0.21778138521E+04  0.21778138521E+04  0.00000000000E+00 0. -1.
         -1   -1    0    0    0  501 -0.00000000000E+00 -0.00000000000E+00 -0.37677616704E+03  0.37677616704E+03  0.00000000000E+00 0.  1.
         24    2    1    2    0    0 -0.40552035793E+03  0.16212334060E+03 -0.52863114950E+02  0.44701488267E+03  0.79354005254E+02 0.  0.
        254    2    1    2    0    0  0.40552035793E+03 -0.16212334060E+03  0.18539008000E+04  0.21075751365E+04  0.90232701463E+03 0.  0.
         23    2    4    4    0    0  0.55454019023E+03  0.91377413124E+01  0.57132203358E+03  0.80181096997E+03  0.94306121787E+02 0.  0.
         23    2    4    4    0    0 -0.14901983230E+03 -0.17126108191E+03  0.12825787664E+04  0.13057641665E+04  0.92057035745E+02 0.  0.
          4    1    3    3  502    0 -0.35191924766E+03  0.13912928975E+03 -0.17544312590E+02  0.37882967023E+03  0.00000000000E+00 0. -1.
         -3    1    3    3    0  502 -0.53601110264E+02  0.22994050841E+02 -0.35318802360E+02  0.68185212442E+02  0.00000000000E+00 0.  1.
         13    1    5    5    0    0  0.51161297648E+03  0.33906756753E+02  0.51354922355E+03  0.72569298664E+03  0.00000000000E+00 0.  1.
        -13    1    5    5    0    0  0.42927213755E+02 -0.24769015440E+02  0.57772810029E+02  0.76117983323E+02  0.00000000000E+00 0. -1.
          1    1    6    6  503    0 -0.13028654632E+03 -0.18160885823E+03  0.11618937321E+04  0.11831962670E+04  0.00000000000E+00 0. -1.
         -1    1    6    6    0  503 -0.18733285986E+02  0.10347776319E+02  0.12068503431E+03  0.12256789948E+03  0.00000000000E+00 0.  1.
<mgrwt>
<rscale>  0 0.18116825E+04</rscale>
<asrwt>0</asrwt>
<pdfrwt beam="1">  1        2 0.33504828E+00 0.18116825E+04</pdfrwt>
<pdfrwt beam="2">  1       -1 0.57965565E-01 0.18116825E+04</pdfrwt>
<totfact> 0.17213502E+01</totfact>
</mgrwt>
</event>
<event>
12    7  0.1625631E-007  0.1330932E+04  0.7818608E-02  0.9005389E-01
          2   -1    0    0  501    0  0.00000000000E+00  0.00000000000E+00  0.10204141425E+04  0.10204141425E+04  0.00000000000E+00 0. -1.
         -1   -1    0    0    0  501 -0.00000000000E+00 -0.00000000000E+00 -0.43398560565E+03  0.43398560565E+03  0.00000000000E+00 0.  1.
         24    2    1    2    0    0  0.26772746366E+03  0.34841537709E+02  0.36979018861E+03  0.46479908784E+03  0.80009255203E+02 0.  0.
        254    2    1    2    0    0 -0.26772746366E+03 -0.34841537709E+02  0.21663834826E+03  0.98960066033E+03  0.92708433567E+03 0.  0.
         23    2    4    4    0    0  0.22276095616E+03  0.98957037759E+02  0.36901857853E+03  0.45106922797E+03  0.88734425157E+02 0.  0.
         23    2    4    4    0    0 -0.49048841982E+03 -0.13379857547E+03 -0.15238023027E+03  0.53853143236E+03  0.91188926351E+02 0.  0.
          4    1    3    3  502    0  0.20744293362E+03  0.52815601943E+02  0.24713048171E+03  0.32694882399E+03  0.00000000000E+00 0. -1.
         -3    1    3    3    0  502  0.60284530040E+02 -0.17974064235E+02  0.12265970690E+03  0.13785026385E+03  0.00000000000E+00 0.  1.
         13    1    5    5    0    0  0.72515792019E+02 -0.68748071775E+01  0.13622992432E+03  0.15448105174E+03  0.00000000000E+00 0. -1.
        -13    1    5    5    0    0  0.15024516414E+03  0.10583184494E+03  0.23278865421E+03  0.29658817623E+03  0.00000000000E+00 0.  1.
          1    1    6    6  503    0 -0.32775042577E+03 -0.45231281335E+02 -0.87624523184E+02  0.34226344746E+03  0.00000000000E+00 0. -1.
         -1    1    6    6    0  503 -0.16273799406E+03 -0.88567294133E+02 -0.64755707086E+02  0.19626798491E+03  0.00000000000E+00 0.  1.
<mgrwt>
<rscale>  0 0.13309321E+04</rscale>
<asrwt>0</asrwt>
<pdfrwt beam="1">  1        2 0.15698679E+00 0.13309321E+04</pdfrwt>
<pdfrwt beam="2">  1       -1 0.66767016E-01 0.13309321E+04</pdfrwt>
<totfact> 0.61986364E+01</totfact>
</mgrwt>
</event>
<event>
12    7  0.1625631E-007  0.2252860E+04  0.7818608E-02  0.8496743E-01
         -1   -1    0    0    0  501 -0.00000000000E+00  0.00000000000E+00  0.12579886733E+04  0.12579886733E+04  0.00000000000E+00 0.  1.
          2   -1    0    0  501    0  0.00000000000E+00 -0.00000000000E+00 -0.10086292430E+04  0.10086292430E+04  0.00000000000E+00 0. -1.
         24    2    1    2    0    0 -0.48918020976E+03  0.63698507240E+03  0.59390474836E+03  0.10021086024E+04  0.80321484623E+02 0.  0.
        254    2    1    2    0    0  0.48918020976E+03 -0.63698507240E+03 -0.34454531803E+03  0.12645093138E+04  0.91390648785E+03 0.  0.
         23    2    4    4    0    0  0.65395880459E+03 -0.71760065020E+03 -0.38979013200E+03  0.10502655034E+04  0.92241364448E+02 0.  0.
         23    2    4    4    0    0 -0.16477859483E+03  0.80615577804E+02  0.45244813976E+02  0.21424381046E+03  0.10100722958E+03 0.  0.
          2    1    3    3  502    0 -0.20750698144E+03  0.25021438717E+03  0.19420969384E+03  0.37866052352E+03  0.00000000000E+00 0. -1.
         -1    1    3    3    0  502 -0.28167322831E+03  0.38677068523E+03  0.39969505452E+03  0.62344807892E+03  0.00000000000E+00 0.  1.
         13    1    5    5    0    0  0.23389787715E+03 -0.19381564119E+03 -0.11550293036E+03  0.32498253280E+03  0.00000000000E+00 0.  1.
        -13    1    5    5    0    0  0.42006092745E+03 -0.52378500901E+03 -0.27428720164E+03  0.72528297058E+03  0.00000000000E+00 0. -1.
          3    1    6    6  503    0  0.13857012492E+00  0.33537626427E+02  0.24404027794E+02  0.41477079943E+02  0.00000000000E+00 0. -1.
         -3    1    6    6    0  503 -0.16491716496E+03  0.47077951377E+02  0.20840786181E+02  0.17276673051E+03  0.00000000000E+00 0.  1.
<mgrwt>
<rscale>  0 0.22528597E+04</rscale>
<asrwt>0</asrwt>
<pdfrwt beam="1">  1        2 0.15517373E+00 0.22528597E+04</pdfrwt>
<pdfrwt beam="2">  1       -1 0.19353672E+00 0.22528597E+04</pdfrwt>
<totfact> 0.43076140E+00</totfact>
</mgrwt>
</event>
<event>
12    7  0.1625631E-007  0.1638409E+04  0.7818608E-02  0.8797293E-01
          2   -1    0    0  501    0  0.00000000000E+00  0.00000000000E+00  0.93206114246E+03  0.93206114246E+03  0.00000000000E+00 0. -1.
         -1   -1    0    0    0  501 -0.00000000000E+00 -0.00000000000E+00 -0.72001275258E+03  0.72001275258E+03  0.00000000000E+00 0.  1.
         24    2    1    2    0    0  0.20108929865E+02 -0.19986236457E+03  0.62204086085E+03  0.65830128495E+03  0.77951365405E+02 0.  0.
        254    2    1    2    0    0 -0.20108929865E+02  0.19986236457E+03 -0.40999247097E+03  0.99377261009E+03  0.88268954932E+03 0.  0.
         23    2    4    4    0    0  0.11001812019E+03  0.35980495421E+03 -0.58912004740E+03  0.70527633878E+03  0.93748023672E+02 0.  0.
         23    2    4    4    0    0 -0.13012705006E+03 -0.15994258964E+03  0.17912757643E+03  0.28849627132E+03  0.92890951063E+02 0.  0.
          4    1    3    3  502    0 -0.35742933145E+01 -0.18809328863E+03  0.56322195004E+03  0.59381042919E+03  0.00000000000E+00 0. -1.
         -3    1    3    3    0  502  0.23683223179E+02 -0.11769075939E+02  0.58818910810E+02  0.64490855767E+02  0.00000000000E+00 0.  1.
         13    1    5    5    0    0  0.75966350615E+02  0.29582914932E+03 -0.53017214307E+03  0.61185641559E+03  0.00000000000E+00 0.  1.
        -13    1    5    5    0    0  0.34051769576E+02  0.63975804894E+02 -0.58947904333E+02  0.93419923187E+02  0.00000000000E+00 0. -1.
          3    1    6    6  503    0  0.13378227397E+02 -0.27325388587E+02  0.19035726787E+02  0.35888894160E+02  0.00000000000E+00 0. -1.
         -3    1    6    6    0  503 -0.14350527745E+03 -0.13261720105E+03  0.16009184964E+03  0.25260737716E+03  0.00000000000E+00 0.  1.
<mgrwt>
<rscale>  0 0.16384089E+04</rscale>
<asrwt>0</asrwt>
<pdfrwt beam="1">  1        2 0.14339402E+00 0.16384089E+04</pdfrwt>
<pdfrwt beam="2">  1       -1 0.11077119E+00 0.16384089E+04</pdfrwt>
<totfact> 0.22858122E+01</totfact>
</mgrwt>
</event>
<event>
12    7  0.1625631E-007  0.1161888E+04  0.7818608E-02  0.9146886E-01
          2   -1    0    0  501    0  0.00000000000E+00  0.00000000000E+00  0.53287646027E+03  0.53287646027E+03  0.00000000000E+00 0. -1.
         -1   -1    0    0    0  501 -0.00000000000E+00 -0.00000000000E+00 -0.63334755662E+03  0.63334755662E+03  0.00000000000E+00 0.  1.
         24    2    1    2    0    0 -0.91861014029E+01  0.14182080656E+03  0.15548457625E+03  0.22480707881E+03  0.78519065203E+02 0.  0.
        254    2    1    2    0    0  0.91861014029E+01 -0.14182080656E+03 -0.25595567259E+03  0.94141693808E+03  0.89473740245E+03 0.  0.
         23    2    4    4    0    0 -0.22122445096E+03 -0.14434022168E+03 -0.51296822317E+03  0.58379407756E+03  0.88908771852E+02 0.  0.
         23    2    4    4    0    0  0.23041055237E+03  0.25194151243E+01  0.25701255057E+03  0.35762286052E+03  0.93505556639E+02 0.  0.
          4    1    3    3  502    0 -0.14123883151E+02  0.50048793206E+02  0.11126409809E+03  0.12281720278E+03  0.00000000000E+00 0. -1.
         -3    1    3    3    0  502  0.49377817486E+01  0.91772013353E+02  0.44220478167E+02  0.10198987603E+03  0.00000000000E+00 0.  1.
         13    1    5    5    0    0 -0.15161912114E+03 -0.14227614041E+03 -0.36018058701E+03  0.41588569738E+03  0.00000000000E+00 0.  1.
        -13    1    5    5    0    0 -0.69605329823E+02 -0.20640812689E+01 -0.15278763616E+03  0.16790838018E+03  0.00000000000E+00 0. -1.
          1    1    6    6  503    0  0.39098430439E+02  0.19092925772E+01  0.10876214002E+03  0.11559210943E+03  0.00000000000E+00 0. -1.
         -1    1    6    6    0  503  0.19131212193E+03  0.61012254713E+00  0.14825041056E+03  0.24203075109E+03  0.00000000000E+00 0.  1.
<mgrwt>
<rscale>  0 0.11618881E+04</rscale>
<asrwt>0</asrwt>
<pdfrwt beam="1">  1        2 0.81980994E-01 0.11618881E+04</pdfrwt>
<pdfrwt beam="2">  1       -1 0.97438085E-01 0.11618881E+04</pdfrwt>
<totfact> 0.65394101E+01</totfact>
</mgrwt>
</event>
<event>
12    7  0.1625631E-007  0.1750248E+04  0.7818608E-02  0.8733214E-01
         -1   -1    0    0    0  501 -0.00000000000E+00  0.00000000000E+00  0.22336013174E+03  0.22336013174E+03  0.00000000000E+00 0.  1.
          2   -1    0    0  501    0  0.00000000000E+00 -0.00000000000E+00 -0.34287311817E+04  0.34287311817E+04  0.00000000000E+00 0. -1.
         24    2    1    2    0    0 -0.64923446637E+02 -0.49408688671E+03 -0.33765295601E+03  0.60726922768E+03  0.80184104697E+02 0.  0.
        254    2    1    2    0    0  0.64923446637E+02  0.49408688671E+03 -0.28677180940E+04  0.30448220858E+04  0.89375475495E+03 0.  0.
         23    2    4    4    0    0 -0.60655717951E+02 -0.54554623462E+02 -0.20163012174E+04  0.20200409292E+04  0.91866388485E+02 0.  0.
         23    2    4    4    0    0  0.12557916459E+03  0.54864151017E+03 -0.85141687659E+03  0.10247811566E+04  0.92130819411E+02 0.  0.
          2    1    3    3  502    0 -0.19540098284E+02 -0.20734787143E+02 -0.27099778592E+02  0.39321048289E+02  0.00000000000E+00 0. -1.
         -3    1    3    3    0  502 -0.45383348353E+02 -0.47335209957E+03 -0.31055317741E+03  0.56794817939E+03  0.00000000000E+00 0.  1.
         13    1    5    5    0    0 -0.24047582252E+02  0.16765902594E+02 -0.21908191193E+03  0.22103453539E+03  0.00000000000E+00 0.  1.
        -13    1    5    5    0    0 -0.36608135700E+02 -0.71320526056E+02 -0.17972193055E+04  0.17990063938E+04  0.00000000000E+00 0. -1.
          1    1    6    6  503    0  0.13786369050E+03  0.44635367914E+03 -0.68876175943E+03  0.83224441440E+03  0.00000000000E+00 0. -1.
         -1    1    6    6    0  503 -0.12284525912E+02  0.10228783103E+03 -0.16265511716E+03  0.19253674219E+03  0.00000000000E+00 0.  1.
<mgrwt>
<rscale>  0 0.17502478E+04</rscale>
<asrwt>0</asrwt>
<pdfrwt beam="1">  1        2 0.52749709E+00 0.17502478E+04</pdfrwt>
<pdfrwt beam="2">  1       -1 0.34363098E-01 0.17502478E+04</pdfrwt>
<totfact> 0.79499350E+00</totfact>
</mgrwt>
</event>
<event>
12    7  0.1625631E-007  0.1332188E+04  0.7818608E-02  0.9004422E-01
         -1   -1    0    0    0  501 -0.00000000000E+00  0.00000000000E+00  0.59818334789E+03  0.59818334789E+03  0.00000000000E+00 0.  1.
          2   -1    0    0  501    0  0.00000000000E+00 -0.00000000000E+00 -0.74171475769E+03  0.74171475769E+03  0.00000000000E+00 0. -1.
         24    2    1    2    0    0 -0.32016579710E+03  0.83818509423E+02  0.90092378099E+02  0.35209063087E+03  0.79495255212E+02 0.  0.
        254    2    1    2    0    0  0.32016579710E+03 -0.83818509423E+02 -0.23362378789E+03  0.98780747471E+03  0.90091722853E+03 0.  0.
         23    2    4    4    0    0 -0.29246442960E+03 -0.13818331219E+03 -0.12831686999E+03  0.35779142582E+03  0.83183020584E+02 0.  0.
         23    2    4    4    0    0  0.61263022670E+03  0.54364802763E+02 -0.10530691790E+03  0.63001604889E+03  0.86944513652E+02 0.  0.
          2    1    3    3  502    0 -0.34518732019E+01  0.87590969784E+01 -0.77735532483E+01  0.12209231695E+02  0.00000000000E+00 0. -1.
         -1    1    3    3    0  502 -0.31671392390E+03  0.75059412445E+02  0.97865931347E+02  0.33988139918E+03  0.00000000000E+00 0.  1.
         13    1    5    5    0    0 -0.46202884589E+02 -0.28771966174E+02 -0.57485300031E+02  0.79164968903E+02  0.00000000000E+00 0.  1.
        -13    1    5    5    0    0 -0.24626154501E+03 -0.10941134601E+03 -0.70831569963E+02  0.27862645691E+03  0.00000000000E+00 0. -1.
          2    1    6    6  503    0  0.56786558577E+03  0.44365230741E+02 -0.11951195975E+03  0.58199888807E+03  0.00000000000E+00 0. -1.
         -2    1    6    6    0  503  0.44764640938E+02  0.99995720222E+01  0.14205041855E+02  0.48017160818E+02  0.00000000000E+00 0.  1.
<mgrwt>
<rscale>  0 0.13321883E+04</rscale>
<asrwt>0</asrwt>
<pdfrwt beam="1">  1        2 0.11410996E+00 0.13321883E+04</pdfrwt>
<pdfrwt beam="2">  1       -1 0.92028207E-01 0.13321883E+04</pdfrwt>
<totfact> 0.48873515E+01</totfact>
</mgrwt>
</event>
<event>
12    7  0.1625631E-007  0.1876287E+04  0.7818608E-02  0.8666751E-01
         -1   -1    0    0    0  501 -0.00000000000E+00  0.00000000000E+00  0.23516610237E+03  0.23516610237E+03  0.00000000000E+00 0.  1.
          2   -1    0    0  501    0  0.00000000000E+00 -0.00000000000E+00 -0.37425186691E+04  0.37425186691E+04  0.00000000000E+00 0. -1.
         24    2    1    2    0    0 -0.72535250527E+03 -0.78238328031E+02 -0.13878691989E+04  0.15701021184E+04  0.82354454055E+02 0.  0.
        254    2    1    2    0    0  0.72535250527E+03  0.78238328031E+02 -0.21194833678E+04  0.24075826531E+04  0.87862790301E+03 0.  0.
         23    2    4    4    0    0  0.68368167062E+03 -0.62034703719E+02 -0.72530378946E+03  0.10030206890E+04  0.93359436155E+02 0.  0.
         23    2    4    4    0    0  0.41670834655E+02  0.14027303175E+03 -0.13941795784E+04  0.14045619641E+04  0.87433587941E+02 0.  0.
          2    1    3    3  502    0 -0.70485582487E+03 -0.68017041186E+02 -0.13126760756E+04  0.14914980829E+04  0.00000000000E+00 0. -1.
         -1    1    3    3    0  502 -0.20496680405E+02 -0.10221286845E+02 -0.75193123282E+02  0.78604035528E+02  0.00000000000E+00 0.  1.
         13    1    5    5    0    0  0.57905856968E+03 -0.85640287401E+02 -0.60414202771E+03  0.84120786705E+03  0.00000000000E+00 0. -1.
        -13    1    5    5    0    0  0.10462310094E+03  0.23605583682E+02 -0.12116176174E+03  0.16181282193E+03  0.00000000000E+00 0.  1.
          3    1    6    6  503    0  0.14724738037E+02  0.12060440699E+03 -0.12757698200E+04  0.12815423811E+04  0.00000000000E+00 0. -1.
         -3    1    6    6    0  503  0.26946096618E+02  0.19668624759E+02 -0.11840975836E+03  0.12301958299E+03  0.00000000000E+00 0.  1.
<mgrwt>
<rscale>  0 0.18762873E+04</rscale>
<asrwt>0</asrwt>
<pdfrwt beam="1">  1        2 0.57577210E+00 0.18762873E+04</pdfrwt>
<pdfrwt beam="2">  1       -1 0.36179400E-01 0.18762873E+04</pdfrwt>
<totfact> 0.42791776E+00</totfact>
</mgrwt>
</event>
<event>
12    7  0.1625631E-007  0.1315044E+04  0.7818608E-02  0.9017719E-01
         -1   -1    0    0    0  501 -0.00000000000E+00  0.00000000000E+00  0.18749290133E+03  0.18749290133E+03  0.00000000000E+00 0.  1.
          2   -1    0    0  501    0  0.00000000000E+00 -0.00000000000E+00 -0.23058749284E+04  0.23058749284E+04  0.00000000000E+00 0. -1.
         24    2    1    2    0    0 -0.20127463878E+03  0.27608142828E+03 -0.53052687175E+03  0.63619459168E+03  0.80946658852E+02 0.  0.
        254    2    1    2    0    0  0.20127463878E+03 -0.27608142828E+03 -0.15878551553E+04  0.18571732381E+04  0.90059758306E+03 0.  0.
         23    2    4    4    0    0  0.20330256990E+03  0.29620443229E+03 -0.49114915181E+03  0.61668507416E+03  0.10001995164E+03 0.  0.
         23    2    4    4    0    0 -0.20279311204E+01 -0.57228586057E+03 -0.10967060035E+04  0.12404881639E+04  0.92366703522E+02 0.  0.
          4    1    3    3  502    0 -0.78316041698E+02  0.77202178276E+02 -0.23414710036E+03  0.25868599368E+03  0.00000000000E+00 0. -1.
         -3    1    3    3    0  502 -0.12295859708E+03  0.19887925000E+03 -0.29637977139E+03  0.37750859801E+03  0.00000000000E+00 0.  1.
         13    1    5    5    0    0 -0.79486577677E+01  0.31786417646E+02 -0.62134899591E+02  0.70244595907E+02  0.00000000000E+00 0.  1.
        -13    1    5    5    0    0  0.21125122767E+03  0.26441801465E+03 -0.42901425222E+03  0.54644047825E+03  0.00000000000E+00 0. -1.
          2    1    6    6  503    0  0.21917969927E+02 -0.52956951075E+03 -0.10198757906E+04  0.11493784809E+04  0.00000000000E+00 0. -1.
         -2    1    6    6    0  503 -0.23945901047E+02 -0.42716349824E+02 -0.76830212961E+02  0.91109683036E+02  0.00000000000E+00 0.  1.
<mgrwt>
<rscale>  0 0.13150440E+04</rscale>
<asrwt>0</asrwt>
<pdfrwt beam="1">  1        2 0.35475000E+00 0.13150440E+04</pdfrwt>
<pdfrwt beam="2">  1       -1 0.28845061E-01 0.13150440E+04</pdfrwt>
<totfact> 0.55000994E+01</totfact>
</mgrwt>
</event>
<event>
12    7  0.1625631E-007  0.1274024E+04  0.7818608E-02  0.9050422E-01
         -1   -1    0    0    0  501 -0.00000000000E+00  0.00000000000E+00  0.31675345613E+03  0.31675345613E+03  0.00000000000E+00 0.  1.
          2   -1    0    0  501    0  0.00000000000E+00 -0.00000000000E+00 -0.12810736166E+04  0.12810736166E+04  0.00000000000E+00 0. -1.
         24    2    1    2    0    0 -0.29343758802E+03 -0.11559183115E+02 -0.11111072413E+03  0.32382730665E+03  0.79242026301E+02 0.  0.
        254    2    1    2    0    0  0.29343758802E+03  0.11559183115E+02 -0.85320943629E+03  0.12739997660E+04  0.89937190801E+03 0.  0.
         23    2    4    4    0    0  0.55403851966E+03  0.61479980788E+02 -0.81367936636E+03  0.99057054685E+03  0.91746540765E+02 0.  0.
         23    2    4    4    0    0 -0.26060093164E+03 -0.49920797673E+02 -0.39530069933E+02  0.28342921919E+03  0.91457991730E+02 0.  0.
          4    1    3    3  502    0 -0.21373001634E+01 -0.22726314174E+01 -0.17409453072E+02  0.17686773641E+02  0.00000000000E+00 0. -1.
         -3    1    3    3    0  502 -0.29130028786E+03 -0.92865516975E+01 -0.93701271060E+02  0.30614053301E+03  0.00000000000E+00 0.  1.
         13    1    5    5    0    0  0.22701690215E+03  0.46995470336E+02 -0.26919030097E+03  0.35525859065E+03  0.00000000000E+00 0.  1.
        -13    1    5    5    0    0  0.32702161751E+03  0.14484510452E+02 -0.54448906539E+03  0.63531195620E+03  0.00000000000E+00 0. -1.
          4    1    6    6  503    0 -0.17252905526E+03 -0.14525887828E+02 -0.65350081740E+02  0.18506190723E+03  0.00000000000E+00 0.  1.
         -4    1    6    6    0  503 -0.88071876379E+02 -0.35394909845E+02  0.25820011807E+02  0.98367311956E+02  0.00000000000E+00 0. -1.
<mgrwt>
<rscale>  0 0.12740243E+04</rscale>
<asrwt>0</asrwt>
<pdfrwt beam="1">  1        2 0.19708825E+00 0.12740243E+04</pdfrwt>
<pdfrwt beam="2">  1       -1 0.48731301E-01 0.12740243E+04</pdfrwt>
<totfact> 0.79980542E+01</totfact>
</mgrwt>
</event>
<event>
12    7  0.1625631E-007  0.2358239E+04  0.7818608E-02  0.8455306E-01
          4   -1    0    0  501    0  0.00000000000E+00  0.00000000000E+00  0.19061958660E+04  0.19061958660E+04  0.00000000000E+00 0. -1.
         -3   -1    0    0    0  501 -0.00000000000E+00 -0.00000000000E+00 -0.72937066925E+03  0.72937066925E+03  0.00000000000E+00 0.  1.
         24    2    1    2    0    0 -0.71691800738E+03 -0.38065417191E+03 -0.16018627780E+03  0.83095659989E+03  0.77202327743E+02 0.  0.
        254    2    1    2    0    0  0.71691800738E+03  0.38065417191E+03  0.13370114746E+04  0.18046099354E+04  0.90008238945E+03 0.  0.
         23    2    4    4    0    0  0.52242777598E+03  0.11373180767E+03  0.13576297330E+04  0.14618966263E+04  0.90097441492E+02 0.  0.
         23    2    4    4    0    0  0.19449023140E+03  0.26692236424E+03 -0.20618258416E+02  0.34271330905E+03  0.89181281539E+02 0.  0.
          4    1    3    3  502    0 -0.50497895741E+03 -0.23199143837E+03 -0.92392776596E+02  0.56334731744E+03  0.00000000000E+00 0. -1.
         -3    1    3    3    0  502 -0.21193904997E+03 -0.14866273355E+03 -0.67793501208E+02  0.26760928245E+03  0.00000000000E+00 0.  1.
         13    1    5    5    0    0  0.16049997037E+03  0.10222730571E+02  0.32102090032E+03  0.35905314809E+03  0.00000000000E+00 0. -1.
        -13    1    5    5    0    0  0.36192780560E+03  0.10350907710E+03  0.10366088327E+04  0.11028434782E+04  0.00000000000E+00 0.  1.
          1    1    6    6  503    0  0.31574292354E+02  0.10041504797E+03  0.17367667234E+02  0.10668530199E+03  0.00000000000E+00 0. -1.
         -1    1    6    6    0  503  0.16291593905E+03  0.16650731628E+03 -0.37985925650E+02  0.23602800706E+03  0.00000000000E+00 0.  1.
<mgrwt>
<rscale>  0 0.23582395E+04</rscale>
<asrwt>0</asrwt>
<pdfrwt beam="1">  1        4 0.29326090E+00 0.23582395E+04</pdfrwt>
<pdfrwt beam="2">  1       -3 0.11221087E+00 0.23582395E+04</pdfrwt>
<totfact> 0.46474684E-02</totfact>
</mgrwt>
</event>
<event>
12    7  0.1625631E-007  0.4105759E+04  0.7818608E-02  0.7983545E-01
          2   -1    0    0  501    0  0.00000000000E+00  0.00000000000E+00  0.32446022597E+04  0.32446022597E+04  0.00000000000E+00 0. -1.
         -1   -1    0    0    0  501 -0.00000000000E+00 -0.00000000000E+00 -0.12988691005E+04  0.12988691005E+04  0.00000000000E+00 0.  1.
         24    2    1    2    0    0  0.17113315168E+04 -0.94203729006E+03  0.94600538594E+03  0.21719330880E+04  0.79229616641E+02 0.  0.
        254    2    1    2    0    0 -0.17113315168E+04  0.94203729006E+03  0.99972777322E+03  0.23715382722E+04  0.89924876398E+03 0.  0.
         23    2    4    4    0    0 -0.11041698058E+04  0.10426345982E+04  0.62414203474E+03  0.16445271104E+04  0.92942304349E+02 0.  0.
         23    2    4    4    0    0 -0.60716171101E+03 -0.10059730816E+03  0.37558573848E+03  0.72701116174E+03  0.93356417178E+02 0.  0.
          2    1    3    3  502    0  0.73886914271E+03 -0.39659679648E+03  0.44862008132E+03  0.95103975016E+03  0.00000000000E+00 0. -1.
         -1    1    3    3    0  502  0.97246237413E+03 -0.54544049358E+03  0.49738530461E+03  0.12208933378E+04  0.00000000000E+00 0.  1.
         13    1    5    5    0    0 -0.10692583065E+04  0.10289751723E+04  0.60672396863E+03  0.16031896973E+04  0.00000000000E+00 0. -1.
        -13    1    5    5    0    0 -0.34911499352E+02  0.13659425885E+02  0.17418066109E+02  0.41337413193E+02  0.00000000000E+00 0.  1.
          1    1    6    6  503    0 -0.31431860223E+03 -0.75214317692E+02  0.14905695884E+03  0.35590919386E+03  0.00000000000E+00 0. -1.
         -1    1    6    6    0  503 -0.29284310878E+03 -0.25382990469E+02  0.22652877964E+03  0.37110196789E+03  0.00000000000E+00 0.  1.
<mgrwt>
<rscale>  0 0.41057587E+04</rscale>
<asrwt>0</asrwt>
<pdfrwt beam="1">  1        2 0.49916958E+00 0.41057587E+04</pdfrwt>
<pdfrwt beam="2">  1       -1 0.19982602E+00 0.41057587E+04</pdfrwt>
<totfact> 0.16228362E-01</totfact>
</mgrwt>
</event>
<event>
12    7  0.1625631E-007  0.1542086E+04  0.7818608E-02  0.8856939E-01
         -1   -1    0    0    0  501 -0.00000000000E+00  0.00000000000E+00  0.72492110394E+03  0.72492110394E+03  0.00000000000E+00 0.  1.
          2   -1    0    0  501    0  0.00000000000E+00 -0.00000000000E+00 -0.82009952848E+03  0.82009952848E+03  0.00000000000E+00 0. -1.
         24    2    1    2    0    0  0.25498660787E+03  0.18267193946E+03  0.36311767430E+03  0.48655200335E+03  0.80567976937E+02 0.  0.
        254    2    1    2    0    0 -0.25498660787E+03 -0.18267193946E+03 -0.45829609884E+03  0.10584686291E+04  0.90107342480E+03 0.  0.
         23    2    4    4    0    0 -0.24787370929E+03  0.65256962363E+02 -0.66802833623E+03  0.72137630507E+03  0.91771829132E+02 0.  0.
         23    2    4    4    0    0 -0.71128985864E+01 -0.24792890183E+03  0.20973223739E+03  0.33709232401E+03  0.90134842440E+02 0.  0.
          2    1    3    3  502    0  0.41899552589E+02  0.48760280253E+02  0.12259376964E+03  0.13842821169E+03  0.00000000000E+00 0. -1.
         -1    1    3    3    0  502  0.21308705528E+03  0.13391165921E+03  0.24052390466E+03  0.34812379165E+03  0.00000000000E+00 0.  1.
         13    1    5    5    0    0 -0.23830395590E+03  0.71208559833E+02 -0.55982289873E+03  0.61258559592E+03  0.00000000000E+00 0. -1.
        -13    1    5    5    0    0 -0.95697533823E+01 -0.59515974696E+01 -0.10820543750E+03  0.10879070915E+03  0.00000000000E+00 0.  1.
          4    1    6    6  503    0 -0.25655751033E+02 -0.22535540601E+03  0.15395068533E+03  0.27412422384E+03  0.00000000000E+00 0. -1.
         -4    1    6    6    0  503  0.18542852447E+02 -0.22573495815E+02  0.55781552055E+02  0.62968100176E+02  0.00000000000E+00 0.  1.
<mgrwt>
<rscale>  0 0.15420862E+04</rscale>
<asrwt>0</asrwt>
<pdfrwt beam="1">  1        2 0.12616916E+00 0.15420862E+04</pdfrwt>
<pdfrwt beam="2">  1       -1 0.11152632E+00 0.15420862E+04</pdfrwt>
<totfact> 0.27068649E+01</totfact>
</mgrwt>
</event>
<event>
12    7  0.1625631E-007  0.1831766E+04  0.7818608E-02  0.8689587E-01
         -1   -1    0    0    0  501 -0.00000000000E+00  0.00000000000E+00  0.66644312315E+03  0.66644312315E+03  0.00000000000E+00 0.  1.
          2   -1    0    0  501    0  0.00000000000E+00 -0.00000000000E+00 -0.12586849509E+04  0.12586849509E+04  0.00000000000E+00 0. -1.
         24    2    1    2    0    0 -0.22486557533E+02 -0.47293251438E+03 -0.75846045671E+03  0.89771277545E+03  0.80343975377E+02 0.  0.
        254    2    1    2    0    0  0.22486557533E+02  0.47293251438E+03  0.16621862894E+03  0.10274152986E+04  0.89653932140E+03 0.  0.
         23    2    4    4    0    0 -0.29496695826E+03  0.45315891904E+03  0.34874845270E+03  0.64977802555E+03  0.90705495137E+02 0.  0.
         23    2    4    4    0    0  0.31745351579E+03  0.19773595339E+02 -0.18252982376E+03  0.37763727308E+03  0.90139024283E+02 0.  0.
          2    1    3    3  502    0 -0.23395785930E+02 -0.19325880716E+03 -0.24394781624E+03  0.31210073116E+03  0.00000000000E+00 0. -1.
         -1    1    3    3    0  502  0.90922839726E+00 -0.27967370722E+03 -0.51451264047E+03  0.58561204428E+03  0.00000000000E+00 0.  1.
         13    1    5    5    0    0 -0.27839684185E+03  0.37723501188E+03  0.31633303582E+03  0.56557726731E+03  0.00000000000E+00 0. -1.
        -13    1    5    5    0    0 -0.16570116403E+02  0.75923907162E+02  0.32415416883E+02  0.84200758239E+02  0.00000000000E+00 0.  1.
          2    1    6    6  503    0  0.63333558207E+02  0.40054687075E+02 -0.52203896098E+02  0.91327785036E+02  0.00000000000E+00 0. -1.
         -2    1    6    6    0  503  0.25411995758E+03 -0.20281091735E+02 -0.13032592766E+03  0.28630948805E+03  0.00000000000E+00 0.  1.
<mgrwt>
<rscale>  0 0.18317663E+04</rscale>
<asrwt>0</asrwt>
<pdfrwt beam="1">  1        2 0.19364384E+00 0.18317663E+04</pdfrwt>
<pdfrwt beam="2">  1       -1 0.10252971E+00 0.18317663E+04</pdfrwt>
<totfact> 0.16887301E+01</totfact>
</mgrwt>
</event>
<event>
12    7  0.1625631E-007  0.1130275E+04  0.7818608E-02  0.9176176E-01
          2   -1    0    0  501    0  0.00000000000E+00  0.00000000000E+00  0.12259034108E+04  0.12259034108E+04  0.00000000000E+00 0. -1.
         -1   -1    0    0    0  501 -0.00000000000E+00 -0.00000000000E+00 -0.26052641761E+03  0.26052641761E+03  0.00000000000E+00 0.  1.
         24    2    1    2    0    0 -0.72189853488E+02  0.17643138573E+03  0.11376837777E+03  0.23581637629E+03  0.79540623125E+02 0.  0.
        254    2    1    2    0    0  0.72189853488E+02 -0.17643138573E+03  0.85160861537E+03  0.12506134521E+04  0.89579984591E+03 0.  0.
         23    2    4    4    0    0 -0.26406591786E+03 -0.39658943619E+03  0.33290707455E+03  0.58801161654E+03  0.88975002264E+02 0.  0.
         23    2    4    4    0    0  0.33625577134E+03  0.22015805046E+03  0.51870154081E+03  0.66260183553E+03  0.91936897187E+02 0.  0.
          4    1    3    3  502    0 -0.57688249635E+02  0.16162709431E+03  0.12493727089E+03  0.21227475926E+03  0.00000000000E+00 0. -1.
         -3    1    3    3    0  502 -0.14501603852E+02  0.14804291418E+02 -0.11168893119E+02  0.23541617025E+02  0.00000000000E+00 0.  1.
         13    1    5    5    0    0 -0.23784377812E+03 -0.29066550769E+03  0.25833871542E+03  0.45584535979E+03  0.00000000000E+00 0.  1.
        -13    1    5    5    0    0 -0.26222139735E+02 -0.10592392850E+03  0.74568359130E+02  0.13216625676E+03  0.00000000000E+00 0. -1.
          1    1    6    6  503    0  0.60197199240E+02  0.71556060694E+02  0.16740884603E+03  0.19175425510E+03  0.00000000000E+00 0. -1.
         -1    1    6    6    0  503  0.27605857210E+03  0.14860198977E+03  0.35129269478E+03  0.47084758043E+03  0.00000000000E+00 0.  1.
<mgrwt>
<rscale>  0 0.11302747E+04</rscale>
<asrwt>0</asrwt>
<pdfrwt beam="1">  1        2 0.18860052E+00 0.11302747E+04</pdfrwt>
<pdfrwt beam="2">  1       -1 0.40080988E-01 0.11302747E+04</pdfrwt>
<totfact> 0.12521336E+02</totfact>
</mgrwt>
</event>
<event>
12    7  0.1625631E-007  0.1152304E+04  0.7818608E-02  0.9155661E-01
          2   -1    0    0  501    0  0.00000000000E+00  0.00000000000E+00  0.14060544525E+04  0.14060544525E+04  0.00000000000E+00 0. -1.
         -1   -1    0    0    0  501 -0.00000000000E+00 -0.00000000000E+00 -0.23608681090E+03  0.23608681090E+03  0.00000000000E+00 0.  1.
         24    2    1    2    0    0 -0.13138089053E+03 -0.45114361314E+02 -0.32017771293E+01  0.16136401833E+03  0.82047858235E+02 0.  0.
        254    2    1    2    0    0  0.13138089053E+03  0.45114361314E+02  0.11731694187E+04  0.14807772451E+04  0.89279254056E+03 0.  0.
         23    2    4    4    0    0  0.30632428919E+03  0.36104505983E+03  0.89371180876E+03  0.10151080561E+04  0.86807045562E+02 0.  0.
         23    2    4    4    0    0 -0.17494339866E+03 -0.31593069851E+03  0.27945760994E+03  0.46566918890E+03  0.91289861103E+02 0.  0.
          4    1    3    3  502    0 -0.52476211350E+02 -0.33392155228E+02  0.36648372910E+02  0.72193434780E+02  0.00000000000E+00 0. -1.
         -3    1    3    3    0  502 -0.78904679182E+02 -0.11722206086E+02 -0.39850150039E+02  0.89170583549E+02  0.00000000000E+00 0.  1.
         13    1    5    5    0    0  0.25426346813E+03  0.25474648667E+03  0.71931566078E+03  0.80433867465E+03  0.00000000000E+00 0.  1.
        -13    1    5    5    0    0  0.52060821065E+02  0.10629857316E+03  0.17439614798E+03  0.21076938149E+03  0.00000000000E+00 0. -1.
          1    1    6    6  503    0 -0.10717765535E+03 -0.16210556598E+03  0.20294604394E+03  0.28098462783E+03  0.00000000000E+00 0. -1.
         -1    1    6    6    0  503 -0.67765743312E+02 -0.15382513254E+03  0.76511566007E+02  0.18468456107E+03  0.00000000000E+00 0.  1.
<mgrwt>
<rscale>  0 0.11523036E+04</rscale>
<asrwt>0</asrwt>
<pdfrwt beam="1">  1        2 0.21631606E+00 0.11523036E+04</pdfrwt>
<pdfrwt beam="2">  1       -1 0.36321049E-01 0.11523036E+04</pdfrwt>
<totfact> 0.11744777E+02</totfact>
</mgrwt>
</event>
<event>
12    7  0.1625631E-007  0.1579228E+04  0.7818608E-02  0.8833411E-01
          2   -1    0    0  501    0  0.00000000000E+00  0.00000000000E+00  0.18530845877E+04  0.18530845877E+04  0.00000000000E+00 0. -1.
         -1   -1    0    0    0  501 -0.00000000000E+00 -0.00000000000E+00 -0.33646097690E+03  0.33646097690E+03  0.00000000000E+00 0.  1.
         24    2    1    2    0    0  0.29310376956E+03 -0.89115214997E+02  0.11030507830E+04  0.11476447259E+04  0.80722027984E+02 0.  0.
        254    2    1    2    0    0 -0.29310376956E+03  0.89115214997E+02  0.41357282777E+03  0.10419008386E+04  0.90590481421E+03 0.  0.
         23    2    4    4    0    0 -0.25010573917E+03 -0.13121088374E+03  0.64236247235E+03  0.70749499299E+03  0.90279800891E+02 0.  0.
         23    2    4    4    0    0 -0.42998030382E+02  0.22032609873E+03 -0.22878964458E+03  0.33440584564E+03  0.95342266238E+02 0.  0.
          2    1    3    3  502    0  0.26126860886E+03 -0.10206050058E+03  0.10173601016E+04  0.10553194816E+04  0.00000000000E+00 0. -1.
         -1    1    3    3    0  502  0.31835160697E+02  0.12945285583E+02  0.85690681350E+02  0.92325244358E+02  0.00000000000E+00 0.  1.
         13    1    5    5    0    0 -0.15270104833E+03 -0.12564752569E+03  0.39934779679E+03  0.44562716891E+03  0.00000000000E+00 0.  1.
        -13    1    5    5    0    0 -0.97404690847E+02 -0.55633580498E+01  0.24301467556E+03  0.26186782409E+03  0.00000000000E+00 0. -1.
          4    1    6    6  503    0 -0.12168516627E+02  0.19775314209E+02 -0.78610686374E+02  0.81968139305E+02  0.00000000000E+00 0. -1.
         -4    1    6    6    0  503 -0.30829513756E+02  0.20055078453E+03 -0.15017895821E+03  0.25243770634E+03  0.00000000000E+00 0.  1.
<mgrwt>
<rscale>  0 0.15792285E+04</rscale>
<asrwt>0</asrwt>
<pdfrwt beam="1">  1        2 0.28508993E+00 0.15792285E+04</pdfrwt>
<pdfrwt beam="2">  1       -1 0.51763228E-01 0.15792285E+04</pdfrwt>
<totfact> 0.33136766E+01</totfact>
</mgrwt>
</event>
<event>
12    7  0.1625631E-007  0.1368892E+04  0.7818608E-02  0.8976649E-01
          2   -1    0    0  501    0  0.00000000000E+00  0.00000000000E+00  0.71873659925E+03  0.71873659925E+03  0.00000000000E+00 0. -1.
         -1   -1    0    0    0  501 -0.00000000000E+00 -0.00000000000E+00 -0.65179183859E+03  0.65179183859E+03  0.00000000000E+00 0.  1.
         24    2    1    2    0    0 -0.29574389589E+03 -0.17272431055E+03 -0.55671139343E+02  0.35582277141E+03  0.78818966556E+02 0.  0.
        254    2    1    2    0    0  0.29574389589E+03  0.17272431055E+03  0.12261590000E+03  0.10147056664E+04  0.94725645479E+03 0.  0.
         23    2    4    4    0    0  0.20048578488E+03  0.18100770461E+03 -0.39119438080E+03  0.48394780497E+03  0.90631646236E+02 0.  0.
         23    2    4    4    0    0  0.95258111012E+02 -0.82833940617E+01  0.51381028080E+03  0.53075786146E+03  0.92521243563E+02 0.  0.
          2    1    3    3  502    0 -0.69078073703E+02 -0.69320680021E+02 -0.41450694004E+02  0.10627933467E+03  0.00000000000E+00 0. -1.
         -1    1    3    3    0  502 -0.22666582219E+03 -0.10340363053E+03 -0.14220445339E+02  0.24954343674E+03  0.00000000000E+00 0.  1.
         13    1    5    5    0    0  0.16587685265E+03  0.18618637798E+03 -0.35240865918E+03  0.43170865252E+03  0.00000000000E+00 0. -1.
        -13    1    5    5    0    0  0.34608932229E+02 -0.51786733676E+01 -0.38785721619E+02  0.52239152456E+02  0.00000000000E+00 0.  1.
          1    1    6    6  503    0  0.10735898464E+03 -0.24728781983E+02  0.46452555223E+03  0.47741119898E+03  0.00000000000E+00 0. -1.
         -1    1    6    6    0  503 -0.12100873632E+02  0.16445387921E+02  0.49284728576E+02  0.53346662476E+02  0.00000000000E+00 0.  1.
<mgrwt>
<rscale>  0 0.13688925E+04</rscale>
<asrwt>0</asrwt>
<pdfrwt beam="1">  1        2 0.11057486E+00 0.13688925E+04</pdfrwt>
<pdfrwt beam="2">  1       -1 0.10027567E+00 0.13688925E+04</pdfrwt>
<totfact> 0.41822673E+01</totfact>
</mgrwt>
</event>
<event>
12    7  0.1625631E-007  0.3227496E+04  0.7818608E-02  0.8181593E-01
         -1   -1    0    0    0  501 -0.00000000000E+00  0.00000000000E+00  0.99168499909E+03  0.99168499909E+03  0.00000000000E+00 0.  1.
          2   -1    0    0  501    0  0.00000000000E+00 -0.00000000000E+00 -0.26260179038E+04  0.26260179038E+04  0.00000000000E+00 0. -1.
         24    2    1    2    0    0  0.12409993786E+04 -0.79677998601E+03 -0.97191829199E+03  0.17680018767E+04  0.79168591946E+02 0.  0.
        254    2    1    2    0    0 -0.12409993786E+04  0.79677998601E+03 -0.66241461269E+03  0.18497010261E+04  0.89870070833E+03 0.  0.
         23    2    4    4    0    0 -0.13202608663E+04  0.54955895287E+03 -0.65286413153E+03  0.15747925628E+04  0.92931394557E+02 0.  0.
         23    2    4    4    0    0  0.79261487637E+02  0.24722103314E+03 -0.95504811573E+01  0.27490846330E+03  0.89904554132E+02 0.  0.
          2    1    3    3  502    0  0.28241457969E+03 -0.17396049824E+03 -0.25821802641E+03  0.42035318356E+03  0.00000000000E+00 0. -1.
         -1    1    3    3    0  502  0.95858479893E+03 -0.62281948776E+03 -0.71370026559E+03  0.13476486932E+04  0.00000000000E+00 0.  1.
         13    1    5    5    0    0 -0.35366169611E+03  0.13476106945E+03 -0.13008233305E+03  0.40019814405E+03  0.00000000000E+00 0.  1.
        -13    1    5    5    0    0 -0.96659917015E+03  0.41479788342E+03 -0.52278179848E+03  0.11745944188E+04  0.00000000000E+00 0. -1.
          3    1    6    6  503    0  0.64896698411E+02  0.77908719560E+02 -0.24551436591E+02  0.10432700076E+03  0.00000000000E+00 0.  1.
         -3    1    6    6    0  503  0.14364789227E+02  0.16931231358E+03  0.15000955434E+02  0.17058146254E+03  0.00000000000E+00 0. -1.
<mgrwt>
<rscale>  0 0.32274960E+04</rscale>
<asrwt>0</asrwt>
<pdfrwt beam="1">  1        2 0.40400276E+00 0.32274960E+04</pdfrwt>
<pdfrwt beam="2">  1       -1 0.15256692E+00 0.32274960E+04</pdfrwt>
<totfact> 0.93422131E-01</totfact>
</mgrwt>
</event>
<event>
12    7  0.1625631E-007  0.1642575E+04  0.7818608E-02  0.8794811E-01
          2   -1    0    0  501    0  0.00000000000E+00  0.00000000000E+00  0.13448226095E+04  0.13448226095E+04  0.00000000000E+00 0. -1.
         -1   -1    0    0    0  501 -0.00000000000E+00 -0.00000000000E+00 -0.50156266624E+03  0.50156266624E+03  0.00000000000E+00 0.  1.
         24    2    1    2    0    0 -0.29785775221E+01  0.55610757466E+03  0.41877190493E+03  0.70077915382E+03  0.80355507239E+02 0.  0.
        254    2    1    2    0    0  0.29785775221E+01 -0.55610757466E+03  0.42448803829E+03  0.11456061219E+04  0.90717075865E+03 0.  0.
         23    2    4    4    0    0 -0.26211992341E+03 -0.14961187195E+03  0.55251171258E+03  0.63607632567E+03  0.90737715768E+02 0.  0.
         23    2    4    4    0    0  0.26509850093E+03 -0.40649570271E+03 -0.12802367429E+03  0.50952979622E+03  0.87832684919E+02 0.  0.
          2    1    3    3  502    0  0.19091331576E+02  0.48416201201E+03  0.38206134919E+03  0.61704797817E+03  0.00000000000E+00 0. -1.
         -1    1    3    3    0  502 -0.22069909098E+02  0.71945562651E+02  0.36710555742E+02  0.83731175649E+02  0.00000000000E+00 0.  1.
         13    1    5    5    0    0 -0.26451380641E+03 -0.13324448966E+03  0.53768649660E+03  0.61386351613E+03  0.00000000000E+00 0. -1.
        -13    1    5    5    0    0  0.23938830023E+01 -0.16367382290E+02  0.14825215979E+02  0.22212809540E+02  0.00000000000E+00 0.  1.
          3    1    6    6  503    0  0.19618354037E+03 -0.24694877841E+03 -0.11325311925E+03  0.33510886244E+03  0.00000000000E+00 0. -1.
         -3    1    6    6    0  503  0.68914960565E+02 -0.15954692430E+03 -0.14770555043E+02  0.17442093378E+03  0.00000000000E+00 0.  1.
<mgrwt>
<rscale>  0 0.16425746E+04</rscale>
<asrwt>0</asrwt>
<pdfrwt beam="1">  1        2 0.20689578E+00 0.16425746E+04</pdfrwt>
<pdfrwt beam="2">  1       -1 0.77163488E-01 0.16425746E+04</pdfrwt>
<totfact> 0.28567278E+01</totfact>
</mgrwt>
</event>
<event>
12    7  0.1625631E-007  0.1203208E+04  0.7818608E-02  0.9110053E-01
         -3   -1    0    0    0  501 -0.00000000000E+00  0.00000000000E+00  0.10144733877E+04  0.10144733877E+04  0.00000000000E+00 0.  1.
          4   -1    0    0  501    0  0.00000000000E+00 -0.00000000000E+00 -0.35676396254E+03  0.35676396254E+03  0.00000000000E+00 0. -1.
         24    2    1    2    0    0  0.97807526925E+02 -0.14632687368E+02  0.42009153672E+03  0.43913525272E+03  0.81132256821E+02 0.  0.
        254    2    1    2    0    0 -0.97807526925E+02  0.14632687368E+02  0.23761788846E+03  0.93210209753E+03  0.89586362324E+03 0.  0.
         23    2    4    4    0    0 -0.20722639143E+03  0.29546356674E+03 -0.17638636188E+03  0.41203504124E+03  0.91756362029E+02 0.  0.
         23    2    4    4    0    0  0.10941886451E+03 -0.28083087937E+03  0.41400425034E+03  0.52006705630E+03  0.90729008727E+02 0.  0.
          4    1    3    3  502    0 -0.22213328167E+01 -0.25433297162E+02  0.58945257707E+02  0.64236518664E+02  0.00000000000E+00 0. -1.
         -3    1    3    3    0  502  0.10002885974E+03  0.10800609794E+02  0.36114627901E+03  0.37489873405E+03  0.00000000000E+00 0.  1.
         13    1    5    5    0    0 -0.19337015225E+03  0.29148557930E+03 -0.18452419220E+03  0.39548076594E+03  0.00000000000E+00 0. -1.
        -13    1    5    5    0    0 -0.13856239180E+02  0.39779874391E+01  0.81378303188E+01  0.16554275296E+02  0.00000000000E+00 0.  1.
          1    1    6    6  503    0  0.11281024224E+03 -0.28606246183E+03  0.41054287882E+03  0.51293599812E+03  0.00000000000E+00 0. -1.
         -1    1    6    6    0  503 -0.33913777268E+01  0.52315824540E+01  0.34613715170E+01  0.71310581709E+01  0.00000000000E+00 0.  1.
<mgrwt>
<rscale>  0 0.12032083E+04</rscale>
<asrwt>0</asrwt>
<pdfrwt beam="1">  1        4 0.54886764E-01 0.12032083E+04</pdfrwt>
<pdfrwt beam="2">  1       -3 0.15607283E+00 0.12032083E+04</pdfrwt>
<totfact> 0.20808121E+00</totfact>
</mgrwt>
</event>
<event>
12    7  0.1625631E-007  0.1767032E+04  0.7818608E-02  0.8724031E-01
         -1   -1    0    0    0  501 -0.00000000000E+00  0.00000000000E+00  0.23044081828E+03  0.23044081828E+03  0.00000000000E+00 0.  1.
          2   -1    0    0  501    0  0.00000000000E+00 -0.00000000000E+00 -0.33874224048E+04  0.33874224048E+04  0.00000000000E+00 0. -1.
         24    2    1    2    0    0  0.88239615500E+02 -0.58971352735E+03 -0.17657148351E+04  0.18653992502E+04  0.80107486701E+02 0.  0.
        254    2    1    2    0    0 -0.88239615500E+02  0.58971352735E+03 -0.13912667514E+04  0.17524639729E+04  0.88315260785E+03 0.  0.
         23    2    4    4    0    0  0.36303100900E+03  0.87535948125E+02 -0.48681386853E+03  0.62032441442E+03  0.91436211761E+02 0.  0.
         23    2    4    4    0    0 -0.45127062450E+03  0.50217757923E+03 -0.90445288287E+03  0.11321395585E+04  0.88755084253E+02 0.  0.
          4    1    3    3  502    0  0.51784339254E+02 -0.34417026732E+03 -0.11504811854E+04  0.12019741048E+04  0.00000000000E+00 0. -1.
         -3    1    3    3    0  502  0.36455276246E+02 -0.24554326003E+03 -0.61523364973E+03  0.66342514534E+03  0.00000000000E+00 0.  1.
         13    1    5    5    0    0  0.34686818939E+03  0.67773062822E+02 -0.47534179441E+03  0.59233482961E+03  0.00000000000E+00 0. -1.
        -13    1    5    5    0    0  0.16162819607E+02  0.19762885303E+02 -0.11472074121E+02  0.27989584809E+02  0.00000000000E+00 0.  1.
          4    1    6    6  503    0 -0.40206890372E+03  0.48191599701E+03 -0.83960388644E+03  0.10482543192E+04  0.00000000000E+00 0. -1.
         -4    1    6    6    0  503 -0.49201720780E+02  0.20261582218E+02 -0.64848996428E+02  0.83885239342E+02  0.00000000000E+00 0.  1.
<mgrwt>
<rscale>  0 0.17670319E+04</rscale>
<asrwt>0</asrwt>
<pdfrwt beam="1">  1        2 0.52114190E+00 0.17670319E+04</pdfrwt>
<pdfrwt beam="2">  1       -1 0.35452434E-01 0.17670319E+04</pdfrwt>
<totfact> 0.80065818E+00</totfact>
</mgrwt>
</event>
<event>
12    7  0.1625631E-007  0.1401227E+04  0.7818608E-02  0.8952931E-01
         -1   -1    0    0    0  501 -0.00000000000E+00  0.00000000000E+00  0.35758302303E+03  0.35758302303E+03  0.00000000000E+00 0.  1.
          2   -1    0    0  501    0  0.00000000000E+00 -0.00000000000E+00 -0.13727144153E+04  0.13727144153E+04  0.00000000000E+00 0. -1.
         24    2    1    2    0    0  0.25226767752E+03 -0.10651623240E+03 -0.66946174071E+03  0.72780562706E+03  0.80853692615E+02 0.  0.
        254    2    1    2    0    0 -0.25226767752E+03  0.10651623240E+03 -0.34566965156E+03  0.10024918113E+04  0.90028752896E+03 0.  0.
         23    2    4    4    0    0 -0.88698853417E+01 -0.89280637858E+02  0.27405952509E+03  0.30224917869E+03  0.90533063356E+02 0.  0.
         23    2    4    4    0    0 -0.24339779218E+03  0.19579687026E+03 -0.61972917665E+03  0.70024263260E+03  0.93255522479E+02 0.  0.
          2    1    3    3  502    0  0.88078885249E+02 -0.80223288479E+02 -0.26985645907E+03  0.29498504122E+03  0.00000000000E+00 0. -1.
         -1    1    3    3    0  502  0.16418879227E+03 -0.26292943924E+02 -0.39960528164E+03  0.43282058583E+03  0.00000000000E+00 0.  1.
         13    1    5    5    0    0  0.14589159756E+02  0.12620282596E+02  0.21425614249E+02  0.28830054824E+02  0.00000000000E+00 0. -1.
        -13    1    5    5    0    0 -0.23459045098E+02 -0.10190092045E+03  0.25263391084E+03  0.27341912386E+03  0.00000000000E+00 0.  1.
          3    1    6    6  503    0 -0.76479389204E+02  0.21423576260E+02 -0.10437083715E+03  0.13115387238E+03  0.00000000000E+00 0. -1.
         -3    1    6    6    0  503 -0.16691840298E+03  0.17437329400E+03 -0.51535833951E+03  0.56908876022E+03  0.00000000000E+00 0.  1.
<mgrwt>
<rscale>  0 0.14012271E+04</rscale>
<asrwt>0</asrwt>
<pdfrwt beam="1">  1        2 0.21118683E+00 0.14012271E+04</pdfrwt>
<pdfrwt beam="2">  1       -1 0.55012774E-01 0.14012271E+04</pdfrwt>
<totfact> 0.55567781E+01</totfact>
</mgrwt>
</event>
<event>
12    7  0.1625631E-007  0.2893982E+04  0.7818608E-02  0.8274670E-01
         -1   -1    0    0    0  501 -0.00000000000E+00  0.00000000000E+00  0.71555986105E+03  0.71555986105E+03  0.00000000000E+00 0.  1.
          2   -1    0    0  501    0  0.00000000000E+00 -0.00000000000E+00 -0.29260769153E+04  0.29260769153E+04  0.00000000000E+00 0. -1.
         24    2    1    2    0    0  0.19884058845E+03 -0.84041265079E+03  0.22071015508E+03  0.89491089743E+03  0.79508103759E+02 0.  0.
        254    2    1    2    0    0 -0.19884058845E+03  0.84041265079E+03 -0.24312272093E+04  0.27467258789E+04  0.94223474108E+03 0.  0.
         23    2    4    4    0    0 -0.42660501488E+03  0.26881820231E+03 -0.49301290316E+03  0.71113738242E+03  0.91649273755E+02 0.  0.
         23    2    4    4    0    0  0.22776442643E+03  0.57159444848E+03 -0.19382143061E+04  0.20355884965E+04  0.91372769156E+02 0.  0.
          4    1    3    3  502    0  0.41532006688E+02 -0.31766035797E+03  0.10237950054E+03  0.33632509977E+03  0.00000000000E+00 0. -1.
         -3    1    3    3    0  502  0.15730858177E+03 -0.52275229282E+03  0.11833065455E+03  0.55858579766E+03  0.00000000000E+00 0.  1.
         13    1    5    5    0    0 -0.36396285159E+03  0.25127735492E+03 -0.46021796402E+03  0.63828664473E+03  0.00000000000E+00 0.  1.
        -13    1    5    5    0    0 -0.62642163289E+02  0.17540847388E+02 -0.32794939137E+02  0.72850737688E+02  0.00000000000E+00 0. -1.
          3    1    6    6  503    0  0.14452487450E+03  0.24346662085E+03 -0.91907635481E+03  0.96169890340E+03  0.00000000000E+00 0. -1.
         -3    1    6    6    0  503  0.83239551927E+02  0.32812782763E+03 -0.10191379513E+04  0.10738895931E+04  0.00000000000E+00 0.  1.
<mgrwt>
<rscale>  0 0.28939822E+04</rscale>
<asrwt>0</asrwt>
<pdfrwt beam="1">  1        2 0.45016568E+00 0.28939822E+04</pdfrwt>
<pdfrwt beam="2">  1       -1 0.11008613E+00 0.28939822E+04</pdfrwt>
<totfact> 0.14464129E+00</totfact>
</mgrwt>
</event>
<event>
12    7  0.1625631E-007  0.1785796E+04  0.7818608E-02  0.8713890E-01
          2   -1    0    0  501    0  0.00000000000E+00  0.00000000000E+00  0.14540040900E+04  0.14540040900E+04  0.00000000000E+00 0. -1.
         -1   -1    0    0    0  501 -0.00000000000E+00 -0.00000000000E+00 -0.54832517640E+03  0.54832517640E+03  0.00000000000E+00 0.  1.
         24    2    1    2    0    0  0.21646461532E+03 -0.85949828893E+02  0.10317530874E+04  0.10605748884E+04  0.77848299337E+02 0.  0.
        254    2    1    2    0    0 -0.21646461532E+03  0.85949828893E+02 -0.12607417380E+03  0.94175437802E+03  0.90374902957E+03 0.  0.
         23    2    4    4    0    0  0.38734187305E+01 -0.37811081088E+03  0.49076116349E+02  0.39210634332E+03  0.91411873431E+02 0.  0.
         23    2    4    4    0    0 -0.22033803405E+03  0.46406063977E+03 -0.17515029015E+03  0.54964803470E+03  0.86799834547E+02 0.  0.
          4    1    3    3  502    0  0.17066346200E+03 -0.99217613628E+02  0.80360192829E+03  0.82749393427E+03  0.00000000000E+00 0. -1.
         -3    1    3    3    0  502  0.45801153319E+02  0.13267784735E+02  0.22815115911E+03  0.23308095409E+03  0.00000000000E+00 0.  1.
         13    1    5    5    0    0  0.18494926242E+02 -0.35184838832E+03  0.24331878335E+02  0.35317331576E+03  0.00000000000E+00 0.  1.
        -13    1    5    5    0    0 -0.14621507512E+02 -0.26262422555E+02  0.24744238014E+02  0.38933027564E+02  0.00000000000E+00 0. -1.
          3    1    6    6  503    0 -0.25082788991E+02  0.11920809584E+02 -0.30179945270E+01  0.27934929670E+02  0.00000000000E+00 0. -1.
         -3    1    6    6    0  503 -0.19525524506E+03  0.45213983019E+03 -0.17213229562E+03  0.52171310503E+03  0.00000000000E+00 0.  1.
<mgrwt>
<rscale>  0 0.17857962E+04</rscale>
<asrwt>0</asrwt>
<pdfrwt beam="1">  1        2 0.22369294E+00 0.17857962E+04</pdfrwt>
<pdfrwt beam="2">  1       -1 0.84357720E-01 0.17857962E+04</pdfrwt>
<totfact> 0.20206368E+01</totfact>
</mgrwt>
</event>
<event>
12    7  0.1625631E-007  0.1713914E+04  0.7818608E-02  0.8753468E-01
         -1   -1    0    0    0  501 -0.00000000000E+00  0.00000000000E+00  0.55234124185E+03  0.55234124185E+03  0.00000000000E+00 0.  1.
          2   -1    0    0  501    0  0.00000000000E+00 -0.00000000000E+00 -0.13295685605E+04  0.13295685605E+04  0.00000000000E+00 0. -1.
         24    2    1    2    0    0 -0.41129752890E+03  0.39420039867E+03 -0.17353179675E+02  0.57547557656E+03  0.79444287326E+02 0.  0.
        254    2    1    2    0    0  0.41129752890E+03 -0.39420039867E+03 -0.75987413893E+03  0.13064342257E+04  0.89710761203E+03 0.  0.
         23    2    4    4    0    0 -0.74560547775E+02 -0.15456924801E+03  0.14875858917E+03  0.24390882558E+03  0.88946442475E+02 0.  0.
         23    2    4    4    0    0  0.48585807667E+03 -0.23963115067E+03 -0.90863272810E+03  0.10625254002E+04  0.99325889692E+02 0.  0.
          2    1    3    3  502    0 -0.26077394536E+03  0.25013125904E+03 -0.49270767691E+02  0.36468658583E+03  0.00000000000E+00 0. -1.
         -1    1    3    3    0  502 -0.15052358353E+03  0.14406913963E+03  0.31917588016E+02  0.21078899074E+03  0.00000000000E+00 0.  1.
         13    1    5    5    0    0 -0.34607265622E+02 -0.18093595959E+01  0.35354349013E+02  0.49506227993E+02  0.00000000000E+00 0.  1.
        -13    1    5    5    0    0 -0.39953282154E+02 -0.15275988841E+03  0.11340424016E+03  0.19440259758E+03  0.00000000000E+00 0. -1.
          1    1    6    6  503    0  0.69476736875E+02 -0.71203021977E+02 -0.13093280530E+03  0.16443931042E+03  0.00000000000E+00 0. -1.
         -1    1    6    6    0  503  0.41638133980E+03 -0.16842812869E+03 -0.77769992280E+03  0.89808608974E+03  0.00000000000E+00 0.  1.
<mgrwt>
<rscale>  0 0.17139143E+04</rscale>
<asrwt>0</asrwt>
<pdfrwt beam="1">  1        2 0.20454901E+00 0.17139143E+04</pdfrwt>
<pdfrwt beam="2">  1       -1 0.84975576E-01 0.17139143E+04</pdfrwt>
<totfact> 0.23586039E+01</totfact>
</mgrwt>
</event>
<event>
12    7  0.1625631E-007  0.2510020E+04  0.7818608E-02  0.8399425E-01
          2   -1    0    0  501    0  0.00000000000E+00  0.00000000000E+00  0.95564685992E+03  0.95564685992E+03  0.00000000000E+00 0. -1.
         -1   -1    0    0    0  501 -0.00000000000E+00 -0.00000000000E+00 -0.16481508082E+04  0.16481508082E+04  0.00000000000E+00 0.  1.
         24    2    1    2    0    0 -0.77395306078E+03 -0.27399297089E+02 -0.11089244015E+04  0.13551579156E+04  0.83579819848E+02 0.  0.
        254    2    1    2    0    0  0.77395306078E+03  0.27399297089E+02  0.41642045322E+03  0.12486397525E+04  0.88653323450E+03 0.  0.
         23    2    4    4    0    0  0.95449353755E+03  0.52095476206E+02  0.40918809311E+03  0.10440915483E+04  0.94447942212E+02 0.  0.
         23    2    4    4    0    0 -0.18054047677E+03 -0.24696179117E+02  0.72323601109E+01  0.20454820421E+03  0.92643919370E+02 0.  0.
          2    1    3    3  502    0 -0.12577582588E+03  0.20314431032E+02 -0.15110800699E+03  0.19765086456E+03  0.00000000000E+00 0. -1.
         -1    1    3    3    0  502 -0.64817723490E+03 -0.47713728121E+02 -0.95781639453E+03  0.11575070511E+04  0.00000000000E+00 0.  1.
         13    1    5    5    0    0  0.46870345339E+03 -0.20020313481E+02  0.21347117270E+03  0.51541602783E+03  0.00000000000E+00 0.  1.
        -13    1    5    5    0    0  0.48579008416E+03  0.72115789687E+02  0.19571692041E+03  0.52867552045E+03  0.00000000000E+00 0. -1.
          2    1    6    6  503    0 -0.11316504441E+03 -0.58110053680E+02  0.18334245034E+02  0.12852723508E+03  0.00000000000E+00 0. -1.
         -2    1    6    6    0  503 -0.67375432359E+02  0.33413874563E+02 -0.11101884923E+02  0.76020969132E+02  0.00000000000E+00 0.  1.
<mgrwt>
<rscale>  0 0.25100200E+04</rscale>
<asrwt>0</asrwt>
<pdfrwt beam="1">  1        2 0.14702259E+00 0.25100200E+04</pdfrwt>
<pdfrwt beam="2">  1       -1 0.25356166E+00 0.25100200E+04</pdfrwt>
<totfact> 0.18073808E+00</totfact>
</mgrwt>
</event>
<event>
12    7  0.1625631E-007  0.2986807E+04  0.7818608E-02  0.8247508E-01
         -1   -1    0    0    0  501 -0.00000000000E+00  0.00000000000E+00  0.87165122006E+03  0.87165122006E+03  0.00000000000E+00 0.  1.
          2   -1    0    0  501    0  0.00000000000E+00 -0.00000000000E+00 -0.25586549447E+04  0.25586549447E+04  0.00000000000E+00 0. -1.
         24    2    1    2    0    0  0.29246070654E+03  0.11433561517E+04  0.21352267137E+01  0.11829162502E+04  0.80558930523E+02 0.  0.
        254    2    1    2    0    0 -0.29246070654E+03 -0.11433561517E+04 -0.16891389513E+04  0.22473899145E+04  0.89709223414E+03 0.  0.
         23    2    4    4    0    0  0.43491773109E+02 -0.10545084040E+04 -0.93880323598E+03  0.14153963994E+04  0.90088529268E+02 0.  0.
         23    2    4    4    0    0 -0.33595247965E+03 -0.88847747685E+02 -0.75033571536E+03  0.83199351513E+03  0.91932217562E+02 0.  0.
          2    1    3    3  502    0  0.26349385284E+03  0.10787305031E+04  0.16896265836E+02  0.11105737223E+04  0.00000000000E+00 0. -1.
         -1    1    3    3    0  502  0.28966853706E+02  0.64625648587E+02 -0.14761039122E+02  0.72342527913E+02  0.00000000000E+00 0.  1.
         13    1    5    5    0    0  0.71363899394E+02 -0.69875097576E+03 -0.61968664539E+03  0.93667351342E+03  0.00000000000E+00 0. -1.
        -13    1    5    5    0    0 -0.27872126285E+02 -0.35575742826E+03 -0.31911659059E+03  0.47872288600E+03  0.00000000000E+00 0.  1.
          4    1    6    6  503    0 -0.10663416317E+03 -0.73450363340E+02 -0.28160981308E+03  0.30995142757E+03  0.00000000000E+00 0. -1.
         -4    1    6    6    0  503 -0.22931831649E+03 -0.15397384345E+02 -0.46872590228E+03  0.52204208757E+03  0.00000000000E+00 0.  1.
<mgrwt>
<rscale>  0 0.29868075E+04</rscale>
<asrwt>0</asrwt>
<pdfrwt beam="1">  1        2 0.39363922E+00 0.29868075E+04</pdfrwt>
<pdfrwt beam="2">  1       -1 0.13410019E+00 0.29868075E+04</pdfrwt>
<totfact> 0.14682659E+00</totfact>
</mgrwt>
</event>
<event>
12    7  0.1625631E-007  0.2403852E+04  0.7818608E-02  0.8438063E-01
         -1   -1    0    0    0  501 -0.00000000000E+00  0.00000000000E+00  0.16376321977E+04  0.16376321977E+04  0.00000000000E+00 0.  1.
          2   -1    0    0  501    0  0.00000000000E+00 -0.00000000000E+00 -0.88214327711E+03  0.88214327711E+03  0.00000000000E+00 0. -1.
         24    2    1    2    0    0  0.41725488485E+03 -0.14456089299E+03 -0.64537148489E+03  0.78613315793E+03  0.80631865703E+02 0.  0.
        254    2    1    2    0    0 -0.41725488485E+03  0.14456089299E+03  0.14008604055E+04  0.17336423169E+04  0.92092687905E+03 0.  0.
         23    2    4    4    0    0  0.24040038722E+03  0.19250418656E+03  0.26237788086E+03  0.41451838870E+03  0.90183890959E+02 0.  0.
         23    2    4    4    0    0 -0.65765527207E+03 -0.47943293573E+02  0.11384825246E+04  0.13191239282E+04  0.95584845875E+02 0.  0.
          4    1    3    3  502    0  0.40759429435E+03 -0.12378924133E+03 -0.61304195604E+03  0.74651009699E+03  0.00000000000E+00 0. -1.
         -3    1    3    3    0  502  0.96605905074E+01 -0.20771651667E+02 -0.32329528854E+02  0.39623060935E+02  0.00000000000E+00 0.  1.
         13    1    5    5    0    0 -0.53641745862E+01  0.41029660216E+01  0.20490379749E+02  0.21574623088E+02  0.00000000000E+00 0. -1.
        -13    1    5    5    0    0  0.24576456181E+03  0.18840122054E+03  0.24188750111E+03  0.39294376561E+03  0.00000000000E+00 0.  1.
          3    1    6    6  503    0 -0.16617038634E+03 -0.48027079730E+01  0.21141044237E+03  0.26894244448E+03  0.00000000000E+00 0. -1.
         -3    1    6    6    0  503 -0.49148488574E+03 -0.43140585600E+02  0.92707208224E+03  0.10501814837E+04  0.00000000000E+00 0.  1.
<mgrwt>
<rscale>  0 0.24038521E+04</rscale>
<asrwt>0</asrwt>
<pdfrwt beam="1">  1        2 0.13571435E+00 0.24038521E+04</pdfrwt>
<pdfrwt beam="2">  1       -1 0.25194341E+00 0.24038521E+04</pdfrwt>
<totfact> 0.20932119E+00</totfact>
</mgrwt>
</event>
<event>
12    7  0.1625631E-007  0.2216398E+04  0.7818608E-02  0.8511634E-01
         -1   -1    0    0    0  501 -0.00000000000E+00  0.00000000000E+00  0.38411880332E+03  0.38411880332E+03  0.00000000000E+00 0.  1.
          2   -1    0    0  501    0  0.00000000000E+00 -0.00000000000E+00 -0.31971996320E+04  0.31971996320E+04  0.00000000000E+00 0. -1.
         24    2    1    2    0    0  0.13581726914E+03  0.58741967515E+03 -0.23126461886E+04  0.23912183994E+04  0.78005349791E+02 0.  0.
        254    2    1    2    0    0 -0.13581726914E+03 -0.58741967515E+03 -0.50043464007E+03  0.11901000359E+04  0.89576507029E+03 0.  0.
         23    2    4    4    0    0 -0.31128320496E+03 -0.11623394757E+03 -0.57842230037E+03  0.67330961164E+03  0.91465355694E+02 0.  0.
         23    2    4    4    0    0  0.17546593583E+03 -0.47118572759E+03  0.77987660301E+02  0.51679042428E+03  0.90476422081E+02 0.  0.
          4    1    3    3  502    0  0.43937882203E+02  0.35515673190E+03 -0.13247482894E+04  0.13722335341E+04  0.00000000000E+00 0. -1.
         -3    1    3    3    0  502  0.91879386935E+02  0.23226294326E+03 -0.98789789919E+03  0.10189848653E+04  0.00000000000E+00 0.  1.
         13    1    5    5    0    0 -0.19491394723E+03 -0.92382550641E+02 -0.29031971622E+03  0.36167875264E+03  0.00000000000E+00 0. -1.
        -13    1    5    5    0    0 -0.11636925774E+03 -0.23851396927E+02 -0.28810258416E+03  0.31163085900E+03  0.00000000000E+00 0.  1.
          4    1    6    6  503    0  0.15704570115E+03 -0.41027466627E+03  0.36485047970E+02  0.44081721014E+03  0.00000000000E+00 0. -1.
         -4    1    6    6    0  503  0.18420234676E+02 -0.60911061321E+02  0.41502612331E+02  0.75973214142E+02  0.00000000000E+00 0.  1.
<mgrwt>
<rscale>  0 0.22163975E+04</rscale>
<asrwt>0</asrwt>
<pdfrwt beam="1">  1        2 0.49187687E+00 0.22163975E+04</pdfrwt>
<pdfrwt beam="2">  1       -1 0.59095200E-01 0.22163975E+04</pdfrwt>
<totfact> 0.39330859E+00</totfact>
</mgrwt>
</event>
<event>
12    7  0.1625631E-007  0.1310569E+04  0.7818608E-02  0.9021225E-01
          2   -1    0    0  501    0  0.00000000000E+00  0.00000000000E+00  0.28997958934E+04  0.28997958934E+04  0.00000000000E+00 0. -1.
         -1   -1    0    0    0  501 -0.00000000000E+00 -0.00000000000E+00 -0.14807870907E+03  0.14807870907E+03  0.00000000000E+00 0.  1.
         24    2    1    2    0    0  0.34189096813E+03  0.33536192756E+02  0.59878576031E+03  0.69525157688E+03  0.82560632750E+02 0.  0.
        254    2    1    2    0    0 -0.34189096813E+03 -0.33536192756E+02  0.21529314240E+04  0.23526230256E+04  0.88414211172E+03 0.  0.
         23    2    4    4    0    0 -0.14233105918E+03 -0.26641596640E+03  0.19793967182E+03  0.37168149405E+03  0.87928503769E+02 0.  0.
         23    2    4    4    0    0 -0.19955990896E+03  0.23287977364E+03  0.19549917522E+04  0.19809415315E+04  0.89885783256E+02 0.  0.
          4    1    3    3  502    0  0.11680424912E+02  0.81506580857E+01  0.69089799184E+02  0.70542653088E+02  0.00000000000E+00 0. -1.
         -3    1    3    3    0  502  0.33021054322E+03  0.25385534670E+02  0.52969596113E+03  0.62470892379E+03  0.00000000000E+00 0.  1.
         13    1    5    5    0    0 -0.65406048668E+02 -0.64596406440E+02  0.25764017217E+02  0.95469531844E+02  0.00000000000E+00 0. -1.
        -13    1    5    5    0    0 -0.76925010509E+02 -0.20181955996E+03  0.17217565461E+03  0.27621196220E+03  0.00000000000E+00 0.  1.
          2    1    6    6  503    0 -0.13552798360E+03  0.13428537626E+03  0.14470002420E+04  0.14595239282E+04  0.00000000000E+00 0. -1.
         -2    1    6    6    0  503 -0.64031925359E+02  0.98594397383E+02  0.50799151014E+03  0.52141760330E+03  0.00000000000E+00 0.  1.
<mgrwt>
<rscale>  0 0.13105694E+04</rscale>
<asrwt>0</asrwt>
<pdfrwt beam="1">  1        2 0.44612240E+00 0.13105694E+04</pdfrwt>
<pdfrwt beam="2">  1       -1 0.22781342E-01 0.13105694E+04</pdfrwt>
<totfact> 0.37162594E+01</totfact>
</mgrwt>
</event>
<event>
12    7  0.1625631E-007  0.1388113E+04  0.7818608E-02  0.8962468E-01
          2   -1    0    0  501    0  0.00000000000E+00  0.00000000000E+00  0.18336204217E+04  0.18336204217E+04  0.00000000000E+00 0. -1.
         -1   -1    0    0    0  501 -0.00000000000E+00 -0.00000000000E+00 -0.26271208821E+03  0.26271208821E+03  0.00000000000E+00 0.  1.
         24    2    1    2    0    0  0.28403632042E+03  0.26322183249E+03  0.29917490197E+03  0.49520315862E+03  0.75882685282E+02 0.  0.
        254    2    1    2    0    0 -0.28403632042E+03 -0.26322183249E+03  0.12717334315E+04  0.16011293513E+04  0.89238271739E+03 0.  0.
         23    2    4    4    0    0 -0.43869849779E+03 -0.24116060646E+03  0.13192425295E+04  0.14137733482E+04  0.87973963451E+02 0.  0.
         23    2    4    4    0    0  0.15466217737E+03 -0.22061226024E+02 -0.47509098010E+02  0.18735600310E+03  0.91858971818E+02 0.  0.
          4    1    3    3  502    0  0.10402325337E+03  0.51937334166E+02  0.10271519592E+03  0.15514101777E+03  0.00000000000E+00 0. -1.
         -3    1    3    3    0  502  0.18001306705E+03  0.21128449832E+03  0.19645970604E+03  0.34006214085E+03  0.00000000000E+00 0.  1.
         13    1    5    5    0    0 -0.12529358864E+03 -0.71419036552E+02  0.49938550266E+03  0.51979326891E+03  0.00000000000E+00 0.  1.
        -13    1    5    5    0    0 -0.31340490915E+03 -0.16974156991E+03  0.81985702688E+03  0.89398007929E+03  0.00000000000E+00 0. -1.
          4    1    6    6  503    0  0.14619612333E+03  0.79148233939E+01 -0.24074568092E+02  0.14837633145E+03  0.00000000000E+00 0. -1.
         -4    1    6    6    0  503  0.84660540380E+01 -0.29976049418E+02 -0.23434529918E+02  0.38979671653E+02  0.00000000000E+00 0.  1.
<mgrwt>
<rscale>  0 0.13881127E+04</rscale>
<asrwt>0</asrwt>
<pdfrwt beam="1">  1        2 0.28209544E+00 0.13881127E+04</pdfrwt>
<pdfrwt beam="2">  1       -1 0.40417245E-01 0.13881127E+04</pdfrwt>
<totfact> 0.54825820E+01</totfact>
</mgrwt>
</event>
<event>
12    7  0.1625631E-007  0.1130321E+04  0.7818608E-02  0.9176132E-01
         -1   -1    0    0    0  501 -0.00000000000E+00  0.00000000000E+00  0.21067277589E+03  0.21067277589E+03  0.00000000000E+00 0.  1.
          2   -1    0    0  501    0  0.00000000000E+00 -0.00000000000E+00 -0.15161261441E+04  0.15161261441E+04  0.00000000000E+00 0. -1.
         24    2    1    2    0    0  0.71927469149E+02  0.11511739933E+03 -0.20462296409E+02  0.15882137725E+03  0.79874575742E+02 0.  0.
        254    2    1    2    0    0 -0.71927469149E+02 -0.11511739933E+03 -0.12849910718E+04  0.15679775427E+04  0.88821503223E+03 0.  0.
         23    2    4    4    0    0  0.16578361967E+03 -0.81838567923E+02 -0.12940377918E+04  0.13105677598E+04  0.94192816443E+02 0.  0.
         23    2    4    4    0    0 -0.23771108882E+03 -0.33278831411E+02  0.90467200316E+01  0.25740978291E+03  0.92541400594E+02 0.  0.
          4    1    3    3  502    0 -0.12816944730E+02  0.33886615733E+02 -0.20101292209E+02  0.41432339380E+02  0.00000000000E+00 0. -1.
         -3    1    3    3    0  502  0.84744413879E+02  0.81230783601E+02 -0.36100420008E+00  0.11738903787E+03  0.00000000000E+00 0.  1.
         13    1    5    5    0    0  0.56390810188E+02 -0.61543800278E+02 -0.34146231499E+03  0.35151682091E+03  0.00000000000E+00 0. -1.
        -13    1    5    5    0    0  0.10939280948E+03 -0.20294767646E+02 -0.95257547684E+03  0.95905093891E+03  0.00000000000E+00 0.  1.
          1    1    6    6  503    0 -0.14898786300E+03 -0.50415419801E+01 -0.36914061149E+02  0.15357554616E+03  0.00000000000E+00 0. -1.
         -1    1    6    6    0  503 -0.88723225820E+02 -0.28237289431E+02  0.45960781181E+02  0.10383423675E+03  0.00000000000E+00 0.  1.
<mgrwt>
<rscale>  0 0.11303212E+04</rscale>
<asrwt>0</asrwt>
<pdfrwt beam="1">  1        2 0.23325017E+00 0.11303212E+04</pdfrwt>
<pdfrwt beam="2">  1       -1 0.32411197E-01 0.11303212E+04</pdfrwt>
<totfact> 0.12486212E+02</totfact>
</mgrwt>
</event>
<event>
12    7  0.1625631E-007  0.1959582E+04  0.7818608E-02  0.8625754E-01
         -1   -1    0    0    0  501 -0.00000000000E+00  0.00000000000E+00  0.12258190643E+04  0.12258190643E+04  0.00000000000E+00 0.  1.
          2   -1    0    0  501    0  0.00000000000E+00 -0.00000000000E+00 -0.78314200248E+03  0.78314200248E+03  0.00000000000E+00 0. -1.
         24    2    1    2    0    0  0.19524072593E+03  0.17435538577E+03  0.91892502934E+03  0.95880588859E+03  0.79792110102E+02 0.  0.
        254    2    1    2    0    0 -0.19524072593E+03 -0.17435538577E+03 -0.47624796756E+03  0.10501551782E+04  0.89860727239E+03 0.  0.
         23    2    4    4    0    0 -0.53664158866E+03 -0.15933112638E+03 -0.19262482657E+03  0.59898347768E+03  0.91138796382E+02 0.  0.
         23    2    4    4    0    0  0.34140086273E+03 -0.15024259391E+02 -0.28362314099E+03  0.45117170048E+03  0.79583539565E+02 0.  0.
          4    1    3    3  502    0 -0.66608165868E+01  0.76659410041E+00  0.35459566159E+02  0.36087878523E+02  0.00000000000E+00 0. -1.
         -3    1    3    3    0  502  0.20190154252E+03  0.17358879167E+03  0.88346546318E+03  0.92271801007E+03  0.00000000000E+00 0.  1.
         13    1    5    5    0    0 -0.22469766595E+02 -0.28513706700E+02 -0.17284869005E+02  0.40208066070E+02  0.00000000000E+00 0.  1.
        -13    1    5    5    0    0 -0.51417182207E+03 -0.13081741968E+03 -0.17533995757E+03  0.55877541161E+03  0.00000000000E+00 0. -1.
          1    1    6    6  503    0  0.22485954260E+03 -0.12793318076E+01 -0.13676888169E+03  0.26319038278E+03  0.00000000000E+00 0. -1.
         -1    1    6    6    0  503  0.11654132012E+03 -0.13744927584E+02 -0.14685425929E+03  0.18798131770E+03  0.00000000000E+00 0.  1.
<mgrwt>
<rscale>  0 0.19595820E+04</rscale>
<asrwt>0</asrwt>
<pdfrwt beam="1">  1        2 0.12048339E+00 0.19595820E+04</pdfrwt>
<pdfrwt beam="2">  1       -1 0.18858755E+00 0.19595820E+04</pdfrwt>
<totfact> 0.68145684E+00</totfact>
</mgrwt>
</event>
<event>
12    7  0.1625631E-007  0.2460791E+04  0.7818608E-02  0.8417089E-01
         -3   -1    0    0    0  501 -0.00000000000E+00  0.00000000000E+00  0.96597896195E+03  0.96597896195E+03  0.00000000000E+00 0.  1.
          2   -1    0    0  501    0  0.00000000000E+00 -0.00000000000E+00 -0.15671900890E+04  0.15671900890E+04  0.00000000000E+00 0. -1.
         24    2    1    2    0    0  0.36528867892E+03 -0.11220960519E+03 -0.12815299293E+04  0.13395961196E+04  0.78562011624E+02 0.  0.
        254    2    1    2    0    0 -0.36528867892E+03  0.11220960519E+03  0.68031880221E+03  0.11935729313E+04  0.90319203677E+03 0.  0.
         23    2    4    4    0    0 -0.48813763317E+03 -0.34397825975E+02  0.18050633842E+02  0.49818449229E+03  0.91653715880E+02 0.  0.
         23    2    4    4    0    0  0.12284895425E+03  0.14660743116E+03  0.66226816837E+03  0.69538843902E+03  0.91544250794E+02 0.  0.
          2    1    3    3  502    0  0.26604529486E+03 -0.95785918344E+02 -0.10446429414E+04  0.10822356102E+04  0.00000000000E+00 0. -1.
         -1    1    3    3    0  502  0.99243384056E+02 -0.16423686842E+02 -0.23688698792E+03  0.25736050943E+03  0.00000000000E+00 0.  1.
         13    1    5    5    0    0 -0.17980816887E+03  0.29193586399E+02 -0.76098811136E+01  0.18232156584E+03  0.00000000000E+00 0. -1.
        -13    1    5    5    0    0 -0.30832946430E+03 -0.63591412374E+02  0.25660514955E+02  0.31586292646E+03  0.00000000000E+00 0.  1.
          3    1    6    6  503    0  0.59882123040E+02  0.16378211796E+02  0.27669369890E+03  0.28357277284E+03  0.00000000000E+00 0. -1.
         -3    1    6    6    0  503  0.62966831211E+02  0.13022921936E+03  0.38557446947E+03  0.41181566618E+03  0.00000000000E+00 0.  1.
<mgrwt>
<rscale>  0 0.24607906E+04</rscale>
<asrwt>0</asrwt>
<pdfrwt beam="1">  1        2 0.24110617E+00 0.24607906E+04</pdfrwt>
<pdfrwt beam="2">  1       -3 0.14861215E+00 0.24607906E+04</pdfrwt>
<totfact> 0.21803242E+00</totfact>
</mgrwt>
</event>
<event>
12    7  0.1625631E-007  0.5195583E+04  0.7818608E-02  0.7799025E-01
         -1   -1    0    0    0  501 -0.00000000000E+00  0.00000000000E+00  0.26252323202E+04  0.26252323202E+04  0.00000000000E+00 0.  1.
          2   -1    0    0  501    0  0.00000000000E+00 -0.00000000000E+00 -0.25706373419E+04  0.25706373419E+04  0.00000000000E+00 0. -1.
         24    2    1    2    0    0 -0.16375835362E+04  0.18174586641E+04 -0.57607271810E+03  0.25145742499E+04  0.79925265585E+02 0.  0.
        254    2    1    2    0    0  0.16375835362E+04 -0.18174586641E+04  0.63066769647E+03  0.26812954122E+04  0.89820237715E+03 0.  0.
         23    2    4    4    0    0  0.43924292322E+03 -0.70813436406E+03 -0.17730592334E+03  0.85707609077E+03  0.93559669523E+02 0.  0.
         23    2    4    4    0    0  0.11983406130E+04 -0.11093243000E+04  0.80797361981E+03  0.18242193214E+04  0.91291483515E+02 0.  0.
          4    1    3    3  502    0 -0.11367125724E+04  0.13131331518E+04 -0.39728737527E+03  0.17816485078E+04  0.00000000000E+00 0. -1.
         -3    1    3    3    0  502 -0.50087096374E+03  0.50432551232E+03 -0.17878534283E+03  0.73292574215E+03  0.00000000000E+00 0.  1.
         13    1    5    5    0    0  0.31657159086E+03 -0.57755591623E+03 -0.15414091878E+03  0.67642281995E+03  0.00000000000E+00 0.  1.
        -13    1    5    5    0    0  0.12267133237E+03 -0.13057844783E+03 -0.23165004556E+02  0.18065327082E+03  0.00000000000E+00 0. -1.
          1    1    6    6  503    0  0.40824869817E+03 -0.38526240416E+03  0.23012437386E+03  0.60667235561E+03  0.00000000000E+00 0. -1.
         -1    1    6    6    0  503  0.79009191479E+03 -0.72406189588E+03  0.57784924595E+03  0.12175469658E+04  0.00000000000E+00 0.  1.
<mgrwt>
<rscale>  0 0.51955828E+04</rscale>
<asrwt>0</asrwt>
<pdfrwt beam="1">  1        2 0.39548267E+00 0.51955828E+04</pdfrwt>
<pdfrwt beam="2">  1       -1 0.40388190E+00 0.51955828E+04</pdfrwt>
<totfact> 0.17391678E-02</totfact>
</mgrwt>
</event>
<event>
12    7  0.1625631E-007  0.1664615E+04  0.7818608E-02  0.8781807E-01
         -1   -1    0    0    0  501 -0.00000000000E+00  0.00000000000E+00  0.36952041852E+03  0.36952041852E+03  0.00000000000E+00 0.  1.
          2   -1    0    0  501    0  0.00000000000E+00 -0.00000000000E+00 -0.18746886897E+04  0.18746886897E+04  0.00000000000E+00 0. -1.
         24    2    1    2    0    0  0.24361623970E+03 -0.40993782012E+03 -0.98957989366E+03  0.11014178562E+04  0.80343259365E+02 0.  0.
        254    2    1    2    0    0 -0.24361623970E+03  0.40993782012E+03 -0.51558837750E+03  0.11427912520E+04  0.90152236918E+03 0.  0.
         23    2    4    4    0    0 -0.36990188831E+03 -0.21478701742E+02  0.81763793927E+02  0.38978254473E+03  0.89198500994E+02 0.  0.
         23    2    4    4    0    0  0.12628564860E+03  0.43141652186E+03 -0.59735217142E+03  0.75300870731E+03  0.90134434070E+02 0.  0.
          2    1    3    3  502    0  0.24247631670E+03 -0.39003379095E+03 -0.90929369167E+03  0.10186933493E+04  0.00000000000E+00 0. -1.
         -1    1    3    3    0  502  0.11399229988E+01 -0.19904029167E+02 -0.80286201992E+02  0.82724506839E+02  0.00000000000E+00 0.  1.
         13    1    5    5    0    0 -0.19940842446E+03 -0.55521826416E+02  0.51571954547E+02  0.21332149317E+03  0.00000000000E+00 0. -1.
        -13    1    5    5    0    0 -0.17049346385E+03  0.34043124675E+02  0.30191839380E+02  0.17646105156E+03  0.00000000000E+00 0.  1.
          1    1    6    6  503    0  0.96137141208E+02  0.41015010321E+03 -0.54140846038E+03  0.68599459040E+03  0.00000000000E+00 0. -1.
         -1    1    6    6    0  503  0.30148507395E+02  0.21266418646E+02 -0.55943711038E+02  0.67014116908E+02  0.00000000000E+00 0.  1.
<mgrwt>
<rscale>  0 0.16646150E+04</rscale>
<asrwt>0</asrwt>
<pdfrwt beam="1">  1        2 0.28841364E+00 0.16646150E+04</pdfrwt>
<pdfrwt beam="2">  1       -1 0.56849296E-01 0.16646150E+04</pdfrwt>
<totfact> 0.26702013E+01</totfact>
</mgrwt>
</event>
<event>
12    7  0.1625631E-007  0.1186966E+04  0.7818608E-02  0.9124342E-01
         -1   -1    0    0    0  501 -0.00000000000E+00  0.00000000000E+00  0.16509706675E+03  0.16509706675E+03  0.00000000000E+00 0.  1.
          2   -1    0    0  501    0  0.00000000000E+00 -0.00000000000E+00 -0.21334256554E+04  0.21334256554E+04  0.00000000000E+00 0. -1.
         24    2    1    2    0    0 -0.12970192107E+03  0.11691449850E+03 -0.14044424146E+03  0.24892699473E+03  0.10839038453E+03 0.  0.
        254    2    1    2    0    0  0.12970192107E+03 -0.11691449850E+03 -0.18278843471E+04  0.20495957274E+04  0.91059863326E+03 0.  0.
         23    2    4    4    0    0 -0.16008181607E+02  0.32632296371E+03 -0.31807320474E+03  0.46689690726E+03  0.10039531819E+03 0.  0.
         23    2    4    4    0    0  0.14571010267E+03 -0.44323746221E+03 -0.15098111424E+04  0.15826988201E+04  0.87835001888E+02 0.  0.
          4    1    3    3  502    0 -0.42727382226E+02  0.85398647397E+02 -0.12143939339E+03  0.15448651862E+03  0.00000000000E+00 0. -1.
         -3    1    3    3    0  502 -0.86974538841E+02  0.31515851102E+02 -0.19004848072E+02  0.94440476108E+02  0.00000000000E+00 0.  1.
         13    1    5    5    0    0 -0.29971387167E+01  0.42419247884E+02 -0.30700499248E+01  0.42635673304E+02  0.00000000000E+00 0. -1.
        -13    1    5    5    0    0 -0.13011042891E+02  0.28390371583E+03 -0.31500315481E+03  0.42426123396E+03  0.00000000000E+00 0.  1.
          3    1    6    6  503    0  0.32027615592E+02 -0.15734179741E+03 -0.64860888381E+03  0.66818836680E+03  0.00000000000E+00 0. -1.
         -3    1    6    6    0  503  0.11368248708E+03 -0.28589566480E+03 -0.86120225859E+03  0.91451045331E+03  0.00000000000E+00 0.  1.
<mgrwt>
<rscale>  0 0.11869664E+04</rscale>
<asrwt>0</asrwt>
<pdfrwt beam="1">  1        2 0.32821933E+00 0.11869664E+04</pdfrwt>
<pdfrwt beam="2">  1       -1 0.25399549E-01 0.11869664E+04</pdfrwt>
<totfact> 0.86515681E+01</totfact>
</mgrwt>
</event>
<event>
12    7  0.1625631E-007  0.2653290E+04  0.7818608E-02  0.8350322E-01
         -1   -1    0    0    0  501 -0.00000000000E+00  0.00000000000E+00  0.12421040628E+04  0.12421040628E+04  0.00000000000E+00 0.  1.
          2   -1    0    0  501    0  0.00000000000E+00 -0.00000000000E+00 -0.14169403297E+04  0.14169403297E+04  0.00000000000E+00 0. -1.
         24    2    1    2    0    0  0.88549444233E+03 -0.51426854320E+03  0.49758738307E+03  0.11408853899E+04  0.73849353914E+02 0.  0.
        254    2    1    2    0    0 -0.88549444233E+03  0.51426854320E+03 -0.67242365006E+03  0.15181590027E+04  0.89670544230E+03 0.  0.
         23    2    4    4    0    0 -0.10529960242E+04  0.36372146750E+03 -0.51842268624E+03  0.12321814423E+04  0.91733811469E+02 0.  0.
         23    2    4    4    0    0  0.16750158190E+03  0.15054707570E+03 -0.15400096382E+03  0.28597756036E+03  0.85706862213E+02 0.  0.
          4    1    3    3  502    0  0.15667978125E+03 -0.80382404352E+02  0.57011573811E+02  0.18509512238E+03  0.00000000000E+00 0. -1.
         -3    1    3    3    0  502  0.72881466108E+03 -0.43388613885E+03  0.44057580926E+03  0.95579026748E+03  0.00000000000E+00 0.  1.
         13    1    5    5    0    0 -0.33603952562E+03  0.15596934615E+03 -0.14890662004E+03  0.39927707324E+03  0.00000000000E+00 0.  1.
        -13    1    5    5    0    0 -0.71695649861E+03  0.20775212134E+03 -0.36951606620E+03  0.83290436906E+03  0.00000000000E+00 0. -1.
          4    1    6    6  503    0  0.13655411139E+03  0.15582688110E+03 -0.11890136751E+03  0.23888611807E+03  0.00000000000E+00 0. -1.
         -4    1    6    6    0  503  0.30947470506E+02 -0.52798053948E+01 -0.35099596311E+02  0.47091442290E+02  0.00000000000E+00 0.  1.
<mgrwt>
<rscale>  0 0.26532903E+04</rscale>
<asrwt>0</asrwt>
<pdfrwt beam="1">  1        2 0.21799082E+00 0.26532903E+04</pdfrwt>
<pdfrwt beam="2">  1       -1 0.19109293E+00 0.26532903E+04</pdfrwt>
<totfact> 0.24645486E+00</totfact>
</mgrwt>
</event>
<event>
12    7  0.1625631E-007  0.1726563E+04  0.7818608E-02  0.8746358E-01
         -1   -1    0    0    0  501 -0.00000000000E+00  0.00000000000E+00  0.12711818975E+04  0.12711818975E+04  0.00000000000E+00 0.  1.
          2   -1    0    0  501    0  0.00000000000E+00 -0.00000000000E+00 -0.58626916899E+03  0.58626916899E+03  0.00000000000E+00 0. -1.
         24    2    1    2    0    0 -0.59902061421E+03 -0.40149312773E+02  0.42066881961E+03  0.73749720274E+03  0.80636249245E+02 0.  0.
        254    2    1    2    0    0  0.59902061421E+03  0.40149312773E+02  0.26424390892E+03  0.11199538638E+04  0.90776326761E+03 0.  0.
         23    2    4    4    0    0 -0.13261026881E+03  0.13668546306E+03  0.30979845857E+03  0.37531203202E+03  0.92820456982E+02 0.  0.
         23    2    4    4    0    0  0.73163088303E+03 -0.96536150292E+02 -0.45554549646E+02  0.74464183176E+03  0.88392665437E+02 0.  0.
          4    1    3    3  502    0 -0.54350795265E+03 -0.25044399265E+02  0.35248699173E+03  0.64828635330E+03  0.00000000000E+00 0. -1.
         -3    1    3    3    0  502 -0.55512661559E+02 -0.15104913508E+02  0.68181827885E+02  0.89210849447E+02  0.00000000000E+00 0.  1.
         13    1    5    5    0    0 -0.74639652512E+02  0.21156836980E+02  0.15739712335E+03  0.17547804397E+03  0.00000000000E+00 0. -1.
        -13    1    5    5    0    0 -0.57970616303E+02  0.11552862608E+03  0.15240133522E+03  0.19983398804E+03  0.00000000000E+00 0.  1.
          2    1    6    6  503    0  0.71389489095E+03 -0.80295331502E+02 -0.50202576915E+02  0.72014828634E+03  0.00000000000E+00 0. -1.
         -2    1    6    6    0  503  0.17735992075E+02 -0.16240818790E+02  0.46480272682E+01  0.24493545422E+02  0.00000000000E+00 0.  1.
<mgrwt>
<rscale>  0 0.17265628E+04</rscale>
<asrwt>0</asrwt>
<pdfrwt beam="1">  1        2 0.90195257E-01 0.17265628E+04</pdfrwt>
<pdfrwt beam="2">  1       -1 0.19556644E+00 0.17265628E+04</pdfrwt>
<totfact> 0.89367059E+00</totfact>
</mgrwt>
</event>
<event>
12    7  0.2422373E-007  0.2372599E+04  0.7818608E-02  0.8449834E-01
          2   -1    0    0  501    0  0.00000000000E+00  0.00000000000E+00  0.27156064897E+04  0.27156064897E+04  0.00000000000E+00 0. -1.
         -1   -1    0    0    0  501 -0.00000000000E+00 -0.00000000000E+00 -0.51822918105E+03  0.51822918105E+03  0.00000000000E+00 0.  1.
         24    2    1    2    0    0  0.65280033500E+02  0.76456606897E+02 -0.43654593452E+03  0.45490216548E+03  0.79098240841E+02 0.  0.
        254    2    1    2    0    0 -0.65280033500E+02 -0.76456606897E+02  0.26339232432E+04  0.27789335053E+04  0.88023444621E+03 0.  0.
         23    2    4    4    0    0 -0.28724157636E+03  0.13966779061E+03  0.38341745609E+03  0.50535287211E+03  0.79735593013E+02 0.  0.
         23    2    4    4    0    0  0.22196154286E+03 -0.21612439751E+03  0.22505057871E+04  0.22735806332E+04  0.91738302223E+02 0.  0.
          4    1    3    3  502    0  0.29443361663E+02  0.17281143225E+02 -0.41005221386E+02  0.53357076739E+02  0.00000000000E+00 0. -1.
         -3    1    3    3    0  502  0.35836671837E+02  0.59175463672E+02 -0.39554071313E+03  0.40154508874E+03  0.00000000000E+00 0.  1.
         13    1    5    5    0    0 -0.26651344216E+03  0.14851112817E+03  0.34284548060E+03  0.45894225520E+03  0.00000000000E+00 0. -1.
        -13    1    5    5    0    0 -0.20728134194E+02 -0.88433375608E+01  0.40571975491E+02  0.46410616906E+02  0.00000000000E+00 0.  1.
          4    1    6    6  503    0  0.61290820261E+02 -0.37867322763E+02  0.30836089860E+03  0.31666534791E+03  0.00000000000E+00 0.  1.
         -4    1    6    6    0  503  0.16067072260E+03 -0.17825707474E+03  0.19421448885E+04  0.19569152853E+04  0.00000000000E+00 0. -1.
<mgrwt>
<rscale>  0 0.23725990E+04</rscale>
<asrwt>0</asrwt>
<pdfrwt beam="1">  1        2 0.41778560E+00 0.23725990E+04</pdfrwt>
<pdfrwt beam="2">  1       -1 0.79727568E-01 0.23725990E+04</pdfrwt>
<totfact> 0.41874120E+00</totfact>
</mgrwt>
</event>
<event>
12    7  0.1625631E-007  0.1696051E+04  0.7818608E-02  0.8763620E-01
         -1   -1    0    0    0  501 -0.00000000000E+00  0.00000000000E+00  0.10888294905E+04  0.10888294905E+04  0.00000000000E+00 0.  1.
          2   -1    0    0  501    0  0.00000000000E+00 -0.00000000000E+00 -0.66047763719E+03  0.66047763719E+03  0.00000000000E+00 0. -1.
         24    2    1    2    0    0 -0.52414296640E+03 -0.31523468321E+02 -0.15753924475E+03  0.55390742440E+03  0.79216430623E+02 0.  0.
        254    2    1    2    0    0  0.52414296640E+03  0.31523468321E+02  0.58589109810E+03  0.11953997033E+04  0.89999582977E+03 0.  0.
         23    2    4    4    0    0  0.28581574694E+02  0.19790025744E+03 -0.16560334207E+03  0.27559188040E+03  0.92439165556E+02 0.  0.
         23    2    4    4    0    0  0.49556139171E+03 -0.16637678912E+03  0.75149444017E+03  0.91980782293E+03  0.89667210341E+02 0.  0.
          2    1    3    3  502    0 -0.39236958112E+03  0.20541298840E+01 -0.14091256309E+03  0.41691061161E+03  0.00000000000E+00 0. -1.
         -1    1    3    3    0  502 -0.13177338529E+03 -0.33577598205E+02 -0.16626681661E+02  0.13699681279E+03  0.00000000000E+00 0.  1.
         13    1    5    5    0    0  0.48581000294E+02  0.10954201004E+03 -0.52891252647E+02  0.13098492341E+03  0.00000000000E+00 0. -1.
        -13    1    5    5    0    0 -0.19999425600E+02  0.88358247403E+02 -0.11271208942E+03  0.14460695699E+03  0.00000000000E+00 0.  1.
          2    1    6    6  503    0  0.15974617417E+03 -0.13265075726E+02  0.20203721439E+03  0.25790276926E+03  0.00000000000E+00 0.  1.
         -2    1    6    6    0  503  0.33581521754E+03 -0.15311171340E+03  0.54945722578E+03  0.66190505367E+03  0.00000000000E+00 0. -1.
<mgrwt>
<rscale>  0 0.16960513E+04</rscale>
<asrwt>0</asrwt>
<pdfrwt beam="1">  1        2 0.10161194E+00 0.16960513E+04</pdfrwt>
<pdfrwt beam="2">  1       -1 0.16751223E+00 0.16960513E+04</pdfrwt>
<totfact> 0.12300141E+01</totfact>
</mgrwt>
</event>
<event>
12    7  0.1625631E-007  0.2047863E+04  0.7818608E-02  0.8584564E-01
         -1   -1    0    0    0  501 -0.00000000000E+00  0.00000000000E+00  0.10578691915E+04  0.10578691915E+04  0.00000000000E+00 0.  1.
          2   -1    0    0  501    0  0.00000000000E+00 -0.00000000000E+00 -0.99108284675E+03  0.99108284675E+03  0.00000000000E+00 0. -1.
         24    2    1    2    0    0 -0.55232324649E+03  0.50987561363E+03  0.35805659578E+03  0.83632291443E+03  0.78723449033E+02 0.  0.
        254    2    1    2    0    0  0.55232324649E+03 -0.50987561363E+03 -0.29127025100E+03  0.12126291239E+04  0.90586804942E+03 0.  0.
         23    2    4    4    0    0  0.54823160698E+03 -0.49203935133E+03 -0.55916211464E+03  0.92935433709E+03  0.91523741592E+02 0.  0.
         23    2    4    4    0    0  0.40916395055E+01 -0.17836262304E+02  0.26789186365E+03  0.28327478678E+03  0.90242342874E+02 0.  0.
          2    1    3    3  502    0 -0.28962658578E+03  0.26870313238E+03  0.14460387652E+03  0.42070799095E+03  0.00000000000E+00 0. -1.
         -1    1    3    3    0  502 -0.26269666070E+03  0.24117248125E+03  0.21345271927E+03  0.41561492348E+03  0.00000000000E+00 0.  1.
         13    1    5    5    0    0  0.15942686357E+03 -0.13038312482E+03 -0.10791723872E+03  0.23251411673E+03  0.00000000000E+00 0. -1.
        -13    1    5    5    0    0  0.38880474341E+03 -0.36165622651E+03 -0.45124487592E+03  0.69684022037E+03  0.00000000000E+00 0.  1.
          2    1    6    6  503    0 -0.16732403415E+02 -0.71915474230E+01  0.43859547348E+01  0.18733079761E+02  0.00000000000E+00 0. -1.
         -2    1    6    6    0  503  0.20824042921E+02 -0.10644714881E+02  0.26350590891E+03  0.26454170701E+03  0.00000000000E+00 0.  1.
<mgrwt>
<rscale>  0 0.20478633E+04</rscale>
<asrwt>0</asrwt>
<pdfrwt beam="1">  1        2 0.15247428E+00 0.20478633E+04</pdfrwt>
<pdfrwt beam="2">  1       -1 0.16274911E+00 0.20478633E+04</pdfrwt>
<totfact> 0.75069861E+00</totfact>
</mgrwt>
</event>
<event>
12    7  0.1625631E-007  0.1544946E+04  0.7818608E-02  0.8855102E-01
          2   -1    0    0  501    0  0.00000000000E+00  0.00000000000E+00  0.10105682824E+04  0.10105682824E+04  0.00000000000E+00 0. -1.
         -1   -1    0    0    0  501 -0.00000000000E+00 -0.00000000000E+00 -0.59047459177E+03  0.59047459177E+03  0.00000000000E+00 0.  1.
         24    2    1    2    0    0  0.50797825484E+02  0.48954845397E+03  0.15413680238E+03  0.52076507113E+03  0.72111008835E+02 0.  0.
        254    2    1    2    0    0 -0.50797825484E+02 -0.48954845397E+03  0.26595688822E+03  0.10802778030E+04  0.92413687159E+03 0.  0.
         23    2    4    4    0    0  0.90474099513E+02 -0.27720807333E+03 -0.31550979422E+03  0.43901407918E+03  0.90316404181E+02 0.  0.
         23    2    4    4    0    0 -0.14127192500E+03 -0.21234038064E+03  0.58146668244E+03  0.64126372384E+03  0.89830210283E+02 0.  0.
          4    1    3    3  502    0  0.37300663463E+02  0.30165954197E+03  0.13097008375E+03  0.33097278075E+03  0.00000000000E+00 0. -1.
         -3    1    3    3    0  502  0.13497162021E+02  0.18788891200E+03  0.23166718634E+02  0.18979229038E+03  0.00000000000E+00 0.  1.
         13    1    5    5    0    0  0.57291878721E+02 -0.25672577520E+03 -0.29394305693E+03  0.39445279025E+03  0.00000000000E+00 0. -1.
        -13    1    5    5    0    0  0.33182220792E+02 -0.20482298134E+02 -0.21566737288E+02  0.44561288926E+02  0.00000000000E+00 0.  1.
          3    1    6    6  503    0 -0.12716214223E+03 -0.13470205692E+03  0.33942278802E+03  0.38668163078E+03  0.00000000000E+00 0. -1.
         -3    1    6    6    0  503 -0.14109782766E+02 -0.77638323722E+02  0.24204389442E+03  0.25458209305E+03  0.00000000000E+00 0.  1.
<mgrwt>
<rscale>  0 0.15449465E+04</rscale>
<asrwt>0</asrwt>
<pdfrwt beam="1">  1        2 0.15547204E+00 0.15449465E+04</pdfrwt>
<pdfrwt beam="2">  1       -1 0.90842246E-01 0.15449465E+04</pdfrwt>
<totfact> 0.32244118E+01</totfact>
</mgrwt>
</event>
<event>
12    7  0.1625631E-007  0.2090019E+04  0.7818608E-02  0.8565653E-01
         -1   -1    0    0    0  501 -0.00000000000E+00  0.00000000000E+00  0.11214683788E+04  0.11214683788E+04  0.00000000000E+00 0.  1.
          2   -1    0    0  501    0  0.00000000000E+00 -0.00000000000E+00 -0.97376347635E+03  0.97376347635E+03  0.00000000000E+00 0. -1.
         24    2    1    2    0    0  0.76122271414E+02  0.34337312606E+03 -0.70969100004E+03  0.79600871675E+03  0.79176118214E+02 0.  0.
        254    2    1    2    0    0 -0.76122271414E+02 -0.34337312606E+03  0.85739590249E+03  0.12992231384E+04  0.91057856655E+03 0.  0.
         23    2    4    4    0    0  0.18209428243E+03 -0.24018062170E+03  0.94279179608E+03  0.99416852261E+03  0.93110804211E+02 0.  0.
         23    2    4    4    0    0 -0.25821655384E+03 -0.10319250437E+03 -0.85395893592E+02  0.30505461580E+03  0.91876973946E+02 0.  0.
          4    1    3    3  502    0  0.72933152871E+02  0.30225954277E+03 -0.67064419179E+03  0.73921830873E+03  0.00000000000E+00 0. -1.
         -1    1    3    3    0  502  0.31891185432E+01  0.41113583291E+02 -0.39046808248E+02  0.56790408015E+02  0.00000000000E+00 0.  1.
         13    1    5    5    0    0 -0.79768992535E+01 -0.21119107745E+02  0.39957464632E+02  0.45893862482E+02  0.00000000000E+00 0.  1.
        -13    1    5    5    0    0  0.19007118168E+03 -0.21906151395E+03  0.90283433145E+03  0.94827466013E+03  0.00000000000E+00 0. -1.
          1    1    6    6  503    0 -0.18476610232E+03 -0.84050584425E+02 -0.10227705206E+03  0.22729630152E+03  0.00000000000E+00 0. -1.
         -1    1    6    6    0  503 -0.73450451522E+02 -0.19141919944E+02  0.16881158463E+02  0.77758314275E+02  0.00000000000E+00 0.  1.
<mgrwt>
<rscale>  0 0.20900191E+04</rscale>
<asrwt>0</asrwt>
<pdfrwt beam="1">  1        2 0.14980977E+00 0.20900191E+04</pdfrwt>
<pdfrwt beam="2">  1       -1 0.17253360E+00 0.20900191E+04</pdfrwt>
<totfact> 0.64966595E+00</totfact>
</mgrwt>
</event>
<event>
12    7  0.1625631E-007  0.1846111E+04  0.7818608E-02  0.8682155E-01
          2   -1    0    0  501    0  0.00000000000E+00  0.00000000000E+00  0.17868792811E+04  0.17868792811E+04  0.00000000000E+00 0. -1.
         -1   -1    0    0    0  501 -0.00000000000E+00 -0.00000000000E+00 -0.47682640979E+03  0.47682640979E+03  0.00000000000E+00 0.  1.
         24    2    1    2    0    0 -0.55572391058E+03 -0.42649296108E+03  0.43982710186E+03  0.83123346348E+03  0.82315737422E+02 0.  0.
        254    2    1    2    0    0  0.55572391058E+03  0.42649296108E+03  0.87022576943E+03  0.14324722274E+04  0.89663731902E+03 0.  0.
         23    2    4    4    0    0  0.82769269954E+02  0.45045690535E+03  0.35014492397E+02  0.46810781956E+03  0.90203882562E+02 0.  0.
         23    2    4    4    0    0  0.47295464063E+03 -0.23963944262E+02  0.83521127703E+03  0.96436440785E+03  0.90335325995E+02 0.  0.
          4    1    3    3  502    0 -0.30649030595E+03 -0.21281146544E+03  0.19017602712E+03  0.41879821962E+03  0.00000000000E+00 0. -1.
         -3    1    3    3    0  502 -0.24923360463E+03 -0.21368149565E+03  0.24965107474E+03  0.41243524385E+03  0.00000000000E+00 0.  1.
         13    1    5    5    0    0  0.63270023623E+02  0.29813308760E+03 -0.18883532045E+02  0.30535720328E+03  0.00000000000E+00 0.  1.
        -13    1    5    5    0    0  0.19499246330E+02  0.15232381774E+03  0.53898024442E+02  0.16275061627E+03  0.00000000000E+00 0. -1.
          1    1    6    6  503    0  0.20633442546E+03 -0.33867660364E+02  0.29172707186E+03  0.35892283015E+03  0.00000000000E+00 0. -1.
         -1    1    6    6    0  503  0.26662021517E+03  0.99037161014E+01  0.54348420517E+03  0.60544157769E+03  0.00000000000E+00 0.  1.
<mgrwt>
<rscale>  0 0.18461108E+04</rscale>
<asrwt>0</asrwt>
<pdfrwt beam="1">  1        2 0.27490450E+00 0.18461108E+04</pdfrwt>
<pdfrwt beam="2">  1       -1 0.73357910E-01 0.18461108E+04</pdfrwt>
<totfact> 0.17601309E+01</totfact>
</mgrwt>
</event>
<event>
12    7  0.1625631E-007  0.1971773E+04  0.7818608E-02  0.8619933E-01
         -1   -1    0    0    0  501 -0.00000000000E+00  0.00000000000E+00  0.65889618339E+03  0.65889618339E+03  0.00000000000E+00 0.  1.
          2   -1    0    0  501    0  0.00000000000E+00 -0.00000000000E+00 -0.14751523204E+04  0.14751523204E+04  0.00000000000E+00 0. -1.
         24    2    1    2    0    0 -0.42925570547E+03  0.56275229530E+03  0.29562948485E+02  0.71265988920E+03  0.77843067825E+02 0.  0.
        254    2    1    2    0    0  0.42925570547E+03 -0.56275229530E+03 -0.84581908553E+03  0.14213886146E+04  0.89665214093E+03 0.  0.
         23    2    4    4    0    0  0.15255683919E+03  0.38931902355E+02  0.14159998607E+03  0.22937289734E+03  0.88159445191E+02 0.  0.
         23    2    4    4    0    0  0.27669886628E+03 -0.60168419765E+03 -0.98741907160E+03  0.11920157173E+04  0.85550634124E+02 0.  0.
          2    1    3    3  502    0 -0.12214168352E+03  0.19737242651E+03 -0.19022942962E+02  0.23288696390E+03  0.00000000000E+00 0. -1.
         -1    1    3    3    0  502 -0.30711402195E+03  0.36537986879E+03  0.48585891447E+02  0.47977292529E+03  0.00000000000E+00 0.  1.
         13    1    5    5    0    0  0.12190203782E+02 -0.21875485266E+02  0.80448288637E+01  0.26303178426E+02  0.00000000000E+00 0. -1.
        -13    1    5    5    0    0  0.14036663540E+03  0.60807387621E+02  0.13355515721E+03  0.20306971892E+03  0.00000000000E+00 0.  1.
          3    1    6    6  503    0  0.84895452391E+02 -0.10603357442E+03 -0.18355509657E+03  0.22834804623E+03  0.00000000000E+00 0. -1.
         -3    1    6    6    0  503  0.19180341389E+03 -0.49565062323E+03 -0.80386397503E+03  0.96366767106E+03  0.00000000000E+00 0.  1.
<mgrwt>
<rscale>  0 0.19717730E+04</rscale>
<asrwt>0</asrwt>
<pdfrwt beam="1">  1        2 0.22694651E+00 0.19717730E+04</pdfrwt>
<pdfrwt beam="2">  1       -1 0.10136864E+00 0.19717730E+04</pdfrwt>
<totfact> 0.12851863E+01</totfact>
</mgrwt>
</event>
<event>
12    7  0.1625631E-007  0.1667743E+04  0.7818608E-02  0.8779979E-01
         -1   -1    0    0    0  501 -0.00000000000E+00  0.00000000000E+00  0.58206545065E+03  0.58206545065E+03  0.00000000000E+00 0.  1.
          2   -1    0    0  501    0  0.00000000000E+00 -0.00000000000E+00 -0.11946108630E+04  0.11946108630E+04  0.00000000000E+00 0. -1.
         24    2    1    2    0    0  0.30940674761E+03 -0.45766694933E+03  0.98772217811E+01  0.55808655601E+03  0.78558720194E+02 0.  0.
        254    2    1    2    0    0 -0.30940674761E+03  0.45766694933E+03 -0.62242263411E+03  0.12185897576E+04  0.89014576894E+03 0.  0.
         23    2    4    4    0    0  0.16888928095E+03  0.20525350183E+03  0.11128933241E+03  0.30277158726E+03  0.92912481997E+02 0.  0.
         23    2    4    4    0    0 -0.47829602856E+03  0.25241344750E+03 -0.73371196652E+03  0.91581817036E+03  0.88938360330E+02 0.  0.
          4    1    3    3  502    0  0.13607993808E+03 -0.14894209844E+03 -0.20220988177E+02  0.20275696436E+03  0.00000000000E+00 0. -1.
         -3    1    3    3    0  502  0.17332680953E+03 -0.30872485089E+03  0.30098209958E+02  0.35532959165E+03  0.00000000000E+00 0.  1.
         13    1    5    5    0    0  0.54751605304E+02  0.64367087271E+02  0.84466414213E+02  0.11947985327E+03  0.00000000000E+00 0.  1.
        -13    1    5    5    0    0  0.11413767565E+03  0.14088641456E+03  0.26822918196E+02  0.18329173399E+03  0.00000000000E+00 0. -1.
          4    1    6    6  503    0 -0.42314651421E+03  0.19392931242E+03 -0.59424676500E+03  0.75484486381E+03  0.00000000000E+00 0. -1.
         -4    1    6    6    0  503 -0.55149514356E+02  0.58484135077E+02 -0.13946520152E+03  0.16097330656E+03  0.00000000000E+00 0.  1.
<mgrwt>
<rscale>  0 0.16677430E+04</rscale>
<asrwt>0</asrwt>
<pdfrwt beam="1">  1        2 0.18378629E+00 0.16677430E+04</pdfrwt>
<pdfrwt beam="2">  1       -1 0.89548531E-01 0.16677430E+04</pdfrwt>
<totfact> 0.25356588E+01</totfact>
</mgrwt>
</event>
<event>
12    7  0.1625631E-007  0.1116908E+04  0.7818608E-02  0.9188867E-01
          2   -1    0    0  501    0  0.00000000000E+00  0.00000000000E+00  0.19536414436E+04  0.19536414436E+04  0.00000000000E+00 0. -1.
         -1   -1    0    0    0  501 -0.00000000000E+00 -0.00000000000E+00 -0.15963573803E+03  0.15963573803E+03  0.00000000000E+00 0.  1.
         24    2    1    2    0    0  0.65752666224E+02 -0.80325782278E+02  0.78306898137E+02  0.15195583656E+03  0.78631810068E+02 0.  0.
        254    2    1    2    0    0 -0.65752666224E+02  0.80325782278E+02  0.17156988075E+04  0.19613213451E+04  0.94466045562E+03 0.  0.
         23    2    4    4    0    0  0.15629164571E+03  0.46392319587E+03  0.93609521691E+03  0.10603853048E+04  0.92146239270E+02 0.  0.
         23    2    4    4    0    0 -0.22204431194E+03 -0.38359741360E+03  0.77960359056E+03  0.90093604027E+03  0.86332717171E+02 0.  0.
          4    1    3    3  502    0  0.16689591922E+02  0.83202709530E+01  0.39094595866E+02  0.43314625858E+02  0.00000000000E+00 0. -1.
         -3    1    3    3    0  502  0.49063074302E+02 -0.88646053231E+02  0.39212302270E+02  0.10864121070E+03  0.00000000000E+00 0.  1.
         13    1    5    5    0    0  0.93558548041E+01  0.15374029235E+03  0.31988810978E+03  0.35503804344E+03  0.00000000000E+00 0.  1.
        -13    1    5    5    0    0  0.14693579091E+03  0.31018290352E+03  0.61620710713E+03  0.70534726140E+03  0.00000000000E+00 0. -1.
          3    1    6    6  503    0 -0.21807328760E+03 -0.32267529409E+03  0.65155313236E+03  0.75907627315E+03  0.00000000000E+00 0. -1.
         -3    1    6    6    0  503 -0.39710243418E+01 -0.60922119506E+02  0.12805045820E+03  0.14185976711E+03  0.00000000000E+00 0.  1.
<mgrwt>
<rscale>  0 0.11169082E+04</rscale>
<asrwt>0</asrwt>
<pdfrwt beam="1">  1        2 0.30056020E+00 0.11169082E+04</pdfrwt>
<pdfrwt beam="2">  1       -1 0.24559346E-01 0.11169082E+04</pdfrwt>
<totfact> 0.11587502E+02</totfact>
</mgrwt>
</event>
<event>
12    7  0.2479815E-007  0.1702737E+04  0.7818608E-02  0.8759805E-01
          2   -1    0    0  501    0  0.00000000000E+00  0.00000000000E+00  0.19067069163E+04  0.19067069163E+04  0.00000000000E+00 0. -1.
         -1   -1    0    0    0  501 -0.00000000000E+00 -0.00000000000E+00 -0.38014670560E+03  0.38014670560E+03  0.00000000000E+00 0.  1.
         24    2    1    2    0    0  0.86176241015E+02  0.50590999660E+03  0.10619302884E+03  0.53101151746E+03  0.85586232069E+02 0.  0.
        254    2    1    2    0    0 -0.86176241015E+02 -0.50590999660E+03  0.14203671819E+04  0.17558421044E+04  0.89563792642E+03 0.  0.
         23    2    4    4    0    0  0.21154020788E+03 -0.26790799278E+03  0.83659362235E+02  0.36287927139E+03  0.90324551340E+02 0.  0.
         23    2    4    4    0    0 -0.29771644889E+03 -0.23800200382E+03  0.13367078196E+04  0.13929628330E+04  0.90981434525E+02 0.  0.
          4    1    3    3  502    0  0.20228277997E+02  0.60918582417E+02 -0.13316127139E+02  0.65555901004E+02  0.00000000000E+00 0. -1.
         -3    1    3    3    0  502  0.65947963018E+02  0.44499141418E+03  0.11950915598E+03  0.46545561645E+03  0.00000000000E+00 0.  1.
         13    1    5    5    0    0 -0.56731472369E+01 -0.18264457628E+02 -0.59829869235E+01  0.20039240119E+02  0.00000000000E+00 0.  1.
        -13    1    5    5    0    0  0.21721335511E+03 -0.24964353515E+03  0.89642349158E+02  0.34284003128E+03  0.00000000000E+00 0. -1.
          2    1    6    6  503    0 -0.22986218746E+02 -0.16199068719E+02  0.39027819909E+02  0.48103500979E+02  0.00000000000E+00 0.  1.
         -2    1    6    6    0  503 -0.27473023015E+03 -0.22180293511E+03  0.12976799997E+04  0.13448593321E+04  0.00000000000E+00 0. -1.
<mgrwt>
<rscale>  0 0.17027370E+04</rscale>
<asrwt>0</asrwt>
<pdfrwt beam="1">  1        2 0.29333952E+00 0.17027370E+04</pdfrwt>
<pdfrwt beam="2">  1       -1 0.58484110E-01 0.17027370E+04</pdfrwt>
<totfact> 0.24169531E+01</totfact>
</mgrwt>
</event>
<event>
12    7  0.1625631E-007  0.1182562E+04  0.7818608E-02  0.9128259E-01
         -1   -1    0    0    0  501 -0.00000000000E+00  0.00000000000E+00  0.19820802790E+03  0.19820802790E+03  0.00000000000E+00 0.  1.
          2   -1    0    0  501    0  0.00000000000E+00 -0.00000000000E+00 -0.17638688969E+04  0.17638688969E+04  0.00000000000E+00 0. -1.
         24    2    1    2    0    0  0.23411120235E+03 -0.15096748836E+02 -0.19193742170E+03  0.31382174879E+03  0.81290523881E+02 0.  0.
        254    2    1    2    0    0 -0.23411120235E+03  0.15096748836E+02 -0.13737234473E+04  0.16482551760E+04  0.88010967992E+03 0.  0.
         23    2    4    4    0    0 -0.30368487819E+03 -0.25699527047E+03 -0.12718174756E+04  0.13356397524E+04  0.90237367754E+02 0.  0.
         23    2    4    4    0    0  0.69573675837E+02  0.27209201931E+03 -0.10190597162E+03  0.31261542358E+03  0.92027238750E+02 0.  0.
          2    1    3    3  502    0 -0.67585941303E+01 -0.52795300902E+00 -0.74168329899E+01  0.10048220768E+02  0.00000000000E+00 0. -1.
         -1    1    3    3    0  502  0.24086979648E+03 -0.14568795827E+02 -0.18452058871E+03  0.30377352802E+03  0.00000000000E+00 0.  1.
         13    1    5    5    0    0 -0.20995279975E+03 -0.13007031948E+03 -0.69270414461E+03  0.73541654733E+03  0.00000000000E+00 0.  1.
        -13    1    5    5    0    0 -0.93732078441E+02 -0.12692495099E+03 -0.57911333104E+03  0.60022320507E+03  0.00000000000E+00 0. -1.
          4    1    6    6  503    0  0.23559537502E+02  0.25337895024E+02  0.12469927832E+02  0.36777164542E+02  0.00000000000E+00 0. -1.
         -4    1    6    6    0  503  0.46014138334E+02  0.24675412428E+03 -0.11437589945E+03  0.27583825904E+03  0.00000000000E+00 0.  1.
<mgrwt>
<rscale>  0 0.11825616E+04</rscale>
<asrwt>0</asrwt>
<pdfrwt beam="1">  1        2 0.27136444E+00 0.11825616E+04</pdfrwt>
<pdfrwt beam="2">  1       -1 0.30493543E-01 0.11825616E+04</pdfrwt>
<totfact> 0.10084944E+02</totfact>
</mgrwt>
</event>
<event>
12    7  0.1625631E-007  0.2038367E+04  0.7818608E-02  0.8588890E-01
         -1   -1    0    0    0  501 -0.00000000000E+00  0.00000000000E+00  0.92341111230E+03  0.92341111230E+03  0.00000000000E+00 0.  1.
          2   -1    0    0  501    0  0.00000000000E+00 -0.00000000000E+00 -0.11248891700E+04  0.11248891700E+04  0.00000000000E+00 0. -1.
         24    2    1    2    0    0  0.48130515330E+03  0.43324963079E+02  0.59063154151E+03  0.76719394555E+03  0.78798662669E+02 0.  0.
        254    2    1    2    0    0 -0.48130515330E+03 -0.43324963079E+02 -0.79210959916E+03  0.12811063367E+04  0.88332560580E+03 0.  0.
         23    2    4    4    0    0 -0.26907160621E+03  0.33706555559E+03 -0.69792003429E+03  0.82618408564E+03  0.97339873934E+02 0.  0.
         23    2    4    4    0    0 -0.21223354709E+03 -0.38039051867E+03 -0.94189564872E+02  0.45492225107E+03  0.91337589109E+02 0.  0.
          2    1    3    3  502    0  0.13928319476E+03  0.47681393325E+02  0.16430513188E+03  0.22061164968E+03  0.00000000000E+00 0. -1.
         -1    1    3    3    0  502  0.34202195854E+03 -0.43564302466E+01  0.42632640963E+03  0.54658229587E+03  0.00000000000E+00 0.  1.
         13    1    5    5    0    0 -0.24981210974E+03  0.31008785571E+03 -0.68123042101E+03  0.78907252831E+03  0.00000000000E+00 0. -1.
        -13    1    5    5    0    0 -0.19259496475E+02  0.26977699888E+02 -0.16689613285E+02  0.37111557328E+02  0.00000000000E+00 0.  1.
          3    1    6    6  503    0 -0.22136206160E+03 -0.36673271619E+03 -0.87629755126E+02  0.43723337181E+03  0.00000000000E+00 0. -1.
         -3    1    6    6    0  503  0.91285145078E+01 -0.13657802486E+02 -0.65598097459E+01  0.17688879269E+02  0.00000000000E+00 0.  1.
<mgrwt>
<rscale>  0 0.20383672E+04</rscale>
<asrwt>0</asrwt>
<pdfrwt beam="1">  1        2 0.17305987E+00 0.20383672E+04</pdfrwt>
<pdfrwt beam="2">  1       -1 0.14206325E+00 0.20383672E+04</pdfrwt>
<totfact> 0.89600355E+00</totfact>
</mgrwt>
</event>
<event>
12    7  0.1625631E-007  0.1306846E+04  0.7818608E-02  0.9024154E-01
          2   -1    0    0  501    0  0.00000000000E+00  0.00000000000E+00  0.24315726021E+03  0.24315726021E+03  0.00000000000E+00 0. -1.
         -1   -1    0    0    0  501 -0.00000000000E+00 -0.00000000000E+00 -0.17559061244E+04  0.17559061244E+04  0.00000000000E+00 0.  1.
         24    2    1    2    0    0 -0.91497874540E+02 -0.22099869791E+03 -0.75936543571E+03  0.80098660555E+03  0.87928333276E+02 0.  0.
        254    2    1    2    0    0  0.91497874540E+02  0.22099869791E+03 -0.75338342847E+03  0.11980767790E+04  0.90032721423E+03 0.  0.
         23    2    4    4    0    0  0.26847930099E+02 -0.22042792401E+03 -0.70143545754E+03  0.74146231849E+03  0.91898790012E+02 0.  0.
         23    2    4    4    0    0  0.64649944442E+02  0.44142662191E+03 -0.51947970923E+02  0.45661446056E+03  0.82225884354E+02 0.  0.
          4    1    3    3  502    0 -0.44862944378E+02 -0.92431640878E+02 -0.19644906354E+03  0.22169466971E+03  0.00000000000E+00 0. -1.
         -3    1    3    3    0  502 -0.46634930162E+02 -0.12856705703E+03 -0.56291637217E+03  0.57929193584E+03  0.00000000000E+00 0.  1.
         13    1    5    5    0    0 -0.31522297815E+02 -0.54625275120E+02 -0.22348878287E+03  0.23221716562E+03  0.00000000000E+00 0. -1.
        -13    1    5    5    0    0  0.58370227914E+02 -0.16580264889E+03 -0.47794667468E+03  0.50924515287E+03  0.00000000000E+00 0.  1.
          2    1    6    6  503    0  0.27301063286E+02  0.11648087625E+03 -0.49624277977E+02  0.12952108536E+03  0.00000000000E+00 0. -1.
         -2    1    6    6    0  503  0.37348881156E+02  0.32494574567E+03 -0.23236929460E+01  0.32709337520E+03  0.00000000000E+00 0.  1.
<mgrwt>
<rscale>  0 0.13068455E+04</rscale>
<asrwt>0</asrwt>
<pdfrwt beam="1">  1        2 0.37408809E-01 0.13068455E+04</pdfrwt>
<pdfrwt beam="2">  1       -1 0.27013941E+00 0.13068455E+04</pdfrwt>
<totfact> 0.80613767E+00</totfact>
</mgrwt>
</event>
<event>
12    7  0.1625631E-007  0.1862610E+04  0.7818608E-02  0.8673695E-01
         -1   -1    0    0    0  501 -0.00000000000E+00  0.00000000000E+00  0.84062716539E+03  0.84062716539E+03  0.00000000000E+00 0.  1.
          2   -1    0    0  501    0  0.00000000000E+00 -0.00000000000E+00 -0.10317642189E+04  0.10317642189E+04  0.00000000000E+00 0. -1.
         24    2    1    2    0    0  0.30846854014E+03  0.91411544354E+02  0.56714528269E+03  0.65740693428E+03  0.83792570461E+02 0.  0.
        254    2    1    2    0    0 -0.30846854014E+03 -0.91411544354E+02 -0.75828233620E+03  0.12149844500E+04  0.89313280182E+03 0.  0.
         23    2    4    4    0    0 -0.42573887630E+03 -0.34445088932E+03 -0.73490839087E+03  0.92100633135E+03  0.90897268820E+02 0.  0.
         23    2    4    4    0    0  0.11727033616E+03  0.25303934496E+03 -0.23373945327E+02  0.29397811866E+03  0.89975280425E+02 0.  0.
          2    1    3    3  502    0  0.24270827177E+02 -0.57206526966E+01  0.91823905495E+02  0.95149506249E+02  0.00000000000E+00 0. -1.
         -1    1    3    3    0  502  0.28419771296E+03  0.97132197051E+02  0.47532137719E+03  0.56225742803E+03  0.00000000000E+00 0.  1.
         13    1    5    5    0    0 -0.14552555633E+03 -0.98501185709E+02 -0.17255919197E+03  0.24628610571E+03  0.00000000000E+00 0. -1.
        -13    1    5    5    0    0 -0.28021331997E+03 -0.24594970361E+03 -0.56234919890E+03  0.67472022564E+03  0.00000000000E+00 0.  1.
          1    1    6    6  503    0  0.74630271462E+02  0.68206094261E+02 -0.25536756963E+02  0.10427787238E+03  0.00000000000E+00 0. -1.
         -1    1    6    6    0  503  0.42640064701E+02  0.18483325070E+03  0.21628116361E+01  0.18970024627E+03  0.00000000000E+00 0.  1.
<mgrwt>
<rscale>  0 0.18626100E+04</rscale>
<asrwt>0</asrwt>
<pdfrwt beam="1">  1        2 0.15873296E+00 0.18626100E+04</pdfrwt>
<pdfrwt beam="2">  1       -1 0.12932726E+00 0.18626100E+04</pdfrwt>
<totfact> 0.13236978E+01</totfact>
</mgrwt>
</event>
<event>
12    7  0.1625631E-007  0.1467800E+04  0.7818608E-02  0.8906153E-01
         -1   -1    0    0    0  501 -0.00000000000E+00  0.00000000000E+00  0.34295865340E+03  0.34295865340E+03  0.00000000000E+00 0.  1.
          2   -1    0    0  501    0  0.00000000000E+00 -0.00000000000E+00 -0.15704779823E+04  0.15704779823E+04  0.00000000000E+00 0. -1.
         24    2    1    2    0    0  0.27772637618E+03  0.36266423866E+03 -0.36352544806E+03  0.58914676176E+03  0.79283450220E+02 0.  0.
        254    2    1    2    0    0 -0.27772637618E+03 -0.36266423866E+03 -0.86399388086E+03  0.13242898740E+04  0.89364475832E+03 0.  0.
         23    2    4    4    0    0 -0.36249890610E+03 -0.55701497666E+02  0.20672603152E+02  0.37868830652E+03  0.92029143265E+02 0.  0.
         23    2    4    4    0    0  0.84772529919E+02 -0.30696274099E+03 -0.88466648401E+03  0.94560156744E+03  0.10057350654E+03 0.  0.
          4    1    3    3  502    0  0.87102894966E+01  0.17561046608E+02  0.10087855303E+01  0.19628478019E+02  0.00000000000E+00 0. -1.
         -3    1    3    3    0  502  0.26901608668E+03  0.34510319205E+03 -0.36453423359E+03  0.56951828374E+03  0.00000000000E+00 0.  1.
         13    1    5    5    0    0 -0.83853258848E+02 -0.26159424311E+02 -0.32164890935E+02  0.93542849586E+02  0.00000000000E+00 0.  1.
        -13    1    5    5    0    0 -0.27864564725E+03 -0.29542073355E+02  0.52837494087E+02  0.28514545693E+03  0.00000000000E+00 0. -1.
          2    1    6    6  503    0  0.75553861614E+02 -0.27803285216E+03 -0.85837217570E+03  0.90543550013E+03  0.00000000000E+00 0. -1.
         -2    1    6    6    0  503  0.92186683052E+01 -0.28929888829E+02 -0.26294308312E+02  0.40166067303E+02  0.00000000000E+00 0.  1.
<mgrwt>
<rscale>  0 0.14677997E+04</rscale>
<asrwt>0</asrwt>
<pdfrwt beam="1">  1        2 0.24161200E+00 0.14677997E+04</pdfrwt>
<pdfrwt beam="2">  1       -1 0.52762869E-01 0.14677997E+04</pdfrwt>
<totfact> 0.46283847E+01</totfact>
</mgrwt>
</event>
<event>
12    7  0.1625631E-007  0.1433021E+04  0.7818608E-02  0.8930257E-01
          2   -1    0    0  501    0  0.00000000000E+00  0.00000000000E+00  0.26992123657E+04  0.26992123657E+04  0.00000000000E+00 0. -1.
         -1   -1    0    0    0  501 -0.00000000000E+00 -0.00000000000E+00 -0.19019881103E+03  0.19019881103E+03  0.00000000000E+00 0.  1.
         24    2    1    2    0    0 -0.59422152898E+02 -0.88550336244E+02  0.16237478914E+04  0.16292408741E+04  0.80600600830E+02 0.  0.
        254    2    1    2    0    0  0.59422152898E+02  0.88550336244E+02  0.88526566335E+03  0.12601703027E+04  0.89048399351E+03 0.  0.
         23    2    4    4    0    0  0.18012748618E+03  0.42598811590E+03  0.27399526940E+03  0.54528551049E+03  0.91384321027E+02 0.  0.
         23    2    4    4    0    0 -0.12070533328E+03 -0.33743777965E+03  0.61127039395E+03  0.71488479218E+03  0.94735098805E+02 0.  0.
          2    1    3    3  502    0 -0.59618080948E+02 -0.82742570240E+02  0.94831539407E+03  0.95378337957E+03  0.00000000000E+00 0. -1.
         -1    1    3    3    0  502  0.19592804979E+00 -0.58077660048E+01  0.67543249729E+03  0.67545749454E+03  0.00000000000E+00 0.  1.
         13    1    5    5    0    0  0.71000697724E+02  0.97765448523E+02  0.10611225902E+03  0.16080731798E+03  0.00000000000E+00 0.  1.
        -13    1    5    5    0    0  0.10912678846E+03  0.32822266737E+03  0.16788301038E+03  0.38447819250E+03  0.00000000000E+00 0. -1.
          1    1    6    6  503    0 -0.51023259663E+02 -0.18177546826E+03  0.40785064670E+03  0.44943057740E+03  0.00000000000E+00 0. -1.
         -1    1    6    6    0  503 -0.69682073619E+02 -0.15566231139E+03  0.20341974725E+03  0.26545421478E+03  0.00000000000E+00 0.  1.
<mgrwt>
<rscale>  0 0.14330206E+04</rscale>
<asrwt>0</asrwt>
<pdfrwt beam="1">  1        2 0.41526341E+00 0.14330206E+04</pdfrwt>
<pdfrwt beam="2">  1       -1 0.29261357E-01 0.14330206E+04</pdfrwt>
<totfact> 0.31498713E+01</totfact>
</mgrwt>
</event>
<event>
12    7  0.1625631E-007  0.1452257E+04  0.7818608E-02  0.8916837E-01
          2   -1    0    0  501    0  0.00000000000E+00  0.00000000000E+00  0.13604584650E+04  0.13604584650E+04  0.00000000000E+00 0. -1.
         -1   -1    0    0    0  501 -0.00000000000E+00 -0.00000000000E+00 -0.38756266125E+03  0.38756266125E+03  0.00000000000E+00 0.  1.
         24    2    1    2    0    0  0.26088028410E+03  0.23575831904E+03 -0.23478781301E+02  0.36113774500E+03  0.78922177253E+02 0.  0.
        254    2    1    2    0    0 -0.26088028410E+03 -0.23575831904E+03  0.99637458509E+03  0.13868833813E+04  0.89835554869E+03 0.  0.
         23    2    4    4    0    0 -0.80810790965E+02  0.18741772735E+03  0.87503358932E+03  0.90312356279E+03  0.91063707122E+02 0.  0.
         23    2    4    4    0    0 -0.18006949313E+03 -0.42317604639E+03  0.12134099576E+03  0.48375981851E+03  0.88300261322E+02 0.  0.
          4    1    3    3  502    0 -0.18662266371E+00  0.24496715732E+02 -0.29179306653E+01  0.24670594420E+02  0.00000000000E+00 0. -1.
         -3    1    3    3    0  502  0.26106690676E+03  0.21126160331E+03 -0.20560850636E+02  0.33646715058E+03  0.00000000000E+00 0.  1.
         13    1    5    5    0    0 -0.67924704336E+02  0.11286911818E+03  0.37645499477E+03  0.39883776951E+03  0.00000000000E+00 0. -1.
        -13    1    5    5    0    0 -0.12886086629E+02  0.74548609176E+02  0.49857859455E+03  0.50428579328E+03  0.00000000000E+00 0.  1.
          4    1    6    6  503    0 -0.24846618627E+02 -0.10430897193E+02  0.11624297729E+02  0.29347612699E+02  0.00000000000E+00 0. -1.
         -4    1    6    6    0  503 -0.15522287451E+03 -0.41274514920E+03  0.10971669804E+03  0.45441220581E+03  0.00000000000E+00 0.  1.
<mgrwt>
<rscale>  0 0.14522574E+04</rscale>
<asrwt>0</asrwt>
<pdfrwt beam="1">  1        2 0.20930130E+00 0.14522574E+04</pdfrwt>
<pdfrwt beam="2">  1       -1 0.59625025E-01 0.14522574E+04</pdfrwt>
<totfact> 0.48054636E+01</totfact>
</mgrwt>
</event>
<event>
12    7  0.1625631E-007  0.2057025E+04  0.7818608E-02  0.8580414E-01
          2   -1    0    0  501    0  0.00000000000E+00  0.00000000000E+00  0.54998583196E+03  0.54998583196E+03  0.00000000000E+00 0. -1.
         -1   -1    0    0    0  501 -0.00000000000E+00 -0.00000000000E+00 -0.19233915477E+04  0.19233915477E+04  0.00000000000E+00 0.  1.
         24    2    1    2    0    0  0.67496477234E+03  0.18374885057E+03 -0.10788965575E+04  0.12882186030E+04  0.78411118177E+02 0.  0.
        254    2    1    2    0    0 -0.67496477234E+03 -0.18374885057E+03 -0.29450915832E+03  0.11851587767E+04  0.91023326550E+03 0.  0.
         23    2    4    4    0    0 -0.39069657966E+03 -0.54074561237E+03 -0.24691083235E+03  0.71759571563E+03  0.94493477593E+02 0.  0.
         23    2    4    4    0    0 -0.28426819268E+03  0.35699676180E+03 -0.47598325975E+02  0.46756306106E+03  0.89969562209E+02 0.  0.
          4    1    3    3  502    0  0.97416770828E+02  0.41932545932E+02 -0.12285151766E+03  0.16229867848E+03  0.00000000000E+00 0. -1.
         -3    1    3    3    0  502  0.57754800152E+03  0.14181630464E+03 -0.95604503981E+03  0.11259199245E+04  0.00000000000E+00 0.  1.
         13    1    5    5    0    0 -0.91106503891E+02 -0.15016324760E+03 -0.24162015534E+02  0.17729410305E+03  0.00000000000E+00 0. -1.
        -13    1    5    5    0    0 -0.29959007577E+03 -0.39058236476E+03 -0.22274881681E+03  0.54030161258E+03  0.00000000000E+00 0.  1.
          2    1    6    6  503    0 -0.10808472264E+03  0.19508095447E+03 -0.48691035728E+02  0.22827549808E+03  0.00000000000E+00 0. -1.
         -2    1    6    6    0  503 -0.17618347004E+03  0.16191580733E+03  0.10927097533E+01  0.23928756297E+03  0.00000000000E+00 0.  1.
<mgrwt>
<rscale>  0 0.20570251E+04</rscale>
<asrwt>0</asrwt>
<pdfrwt beam="1">  1        2 0.84613206E-01 0.20570251E+04</pdfrwt>
<pdfrwt beam="2">  1       -1 0.29590639E+00 0.20570251E+04</pdfrwt>
<totfact> 0.20422746E+00</totfact>
</mgrwt>
</event>
<event>
12    7  0.1625631E-007  0.1349840E+04  0.7818608E-02  0.8990949E-01
         -1   -1    0    0    0  501 -0.00000000000E+00  0.00000000000E+00  0.59169062481E+03  0.59169062481E+03  0.00000000000E+00 0.  1.
          2   -1    0    0  501    0  0.00000000000E+00 -0.00000000000E+00 -0.76985674457E+03  0.76985674457E+03  0.00000000000E+00 0. -1.
         24    2    1    2    0    0 -0.14601933771E+03 -0.10000534711E+03  0.27501086423E+03  0.33708553828E+03  0.81688238066E+02 0.  0.
        254    2    1    2    0    0  0.14601933771E+03  0.10000534711E+03 -0.45317698399E+03  0.10244618311E+04  0.90157082257E+03 0.  0.
         23    2    4    4    0    0  0.44777465062E+03  0.23361030192E+03 -0.82842541377E+02  0.51972706343E+03  0.90429104275E+02 0.  0.
         23    2    4    4    0    0 -0.30175531290E+03 -0.13360495481E+03 -0.37033444262E+03  0.50473476767E+03  0.93290050315E+02 0.  0.
          4    1    3    3  502    0  0.19455150925E+01 -0.23199313983E+02  0.13372916620E+02  0.26848241975E+02  0.00000000000E+00 0. -1.
         -3    1    3    3    0  502 -0.14796485280E+03 -0.76806033122E+02  0.26163794761E+03  0.31023729631E+03  0.00000000000E+00 0.  1.
         13    1    5    5    0    0  0.11149544927E+03  0.75868915110E+02 -0.59948464947E+02  0.14758436888E+03  0.00000000000E+00 0. -1.
        -13    1    5    5    0    0  0.33627920135E+03  0.15774138681E+03 -0.22894076431E+02  0.37214269455E+03  0.00000000000E+00 0.  1.
          4    1    6    6  503    0 -0.13464353859E+03 -0.98818866654E+02 -0.13929295899E+03  0.21747776740E+03  0.00000000000E+00 0. -1.
         -4    1    6    6    0  503 -0.16711177431E+03 -0.34786088161E+02 -0.23104148363E+03  0.28725700027E+03  0.00000000000E+00 0.  1.
<mgrwt>
<rscale>  0 0.13498400E+04</rscale>
<asrwt>0</asrwt>
<pdfrwt beam="1">  1        2 0.11843950E+00 0.13498400E+04</pdfrwt>
<pdfrwt beam="2">  1       -1 0.91029326E-01 0.13498400E+04</pdfrwt>
<totfact> 0.47635091E+01</totfact>
</mgrwt>
</event>
<event>
12    7  0.1625631E-007  0.1697152E+04  0.7818608E-02  0.8762990E-01
         -1   -1    0    0    0  501 -0.00000000000E+00  0.00000000000E+00  0.76775738193E+03  0.76775738193E+03  0.00000000000E+00 0.  1.
          2   -1    0    0  501    0  0.00000000000E+00 -0.00000000000E+00 -0.93790175825E+03  0.93790175825E+03  0.00000000000E+00 0. -1.
         24    2    1    2    0    0 -0.38268992870E+03  0.31993722498E+03 -0.44317096162E+03  0.67195746719E+03  0.79466515144E+02 0.  0.
        254    2    1    2    0    0  0.38268992870E+03 -0.31993722498E+03  0.27302658530E+03  0.10337016730E+04  0.86324053601E+03 0.  0.
         23    2    4    4    0    0  0.32749523101E+03  0.89963712639E+02  0.45290110288E+03  0.57340858964E+03  0.91276534554E+02 0.  0.
         23    2    4    4    0    0  0.55194697689E+02 -0.40990093762E+03 -0.17987451758E+03  0.46029308335E+03  0.91921962529E+02 0.  0.
          4    1    3    3  502    0 -0.28047188372E+03  0.27131799627E+03 -0.31981779725E+03  0.50454073779E+03  0.00000000000E+00 0. -1.
         -3    1    3    3    0  502 -0.10221804498E+03  0.48619228711E+02 -0.12335316438E+03  0.16741672940E+03  0.00000000000E+00 0.  1.
         13    1    5    5    0    0  0.26960959416E+03  0.38240485107E+02  0.37493049099E+03  0.46338379454E+03  0.00000000000E+00 0. -1.
        -13    1    5    5    0    0  0.57885636853E+02  0.51723227531E+02  0.77970611887E+02  0.11002479511E+03  0.00000000000E+00 0.  1.
          2    1    6    6  503    0  0.16564744169E+02 -0.35968913197E+03 -0.15873959201E+03  0.39350847574E+03  0.00000000000E+00 0. -1.
         -2    1    6    6    0  503  0.38629953520E+02 -0.50211805649E+02 -0.21134925569E+02  0.66784607615E+02  0.00000000000E+00 0.  1.
<mgrwt>
<rscale>  0 0.16971517E+04</rscale>
<asrwt>0</asrwt>
<pdfrwt beam="1">  1        2 0.14429258E+00 0.16971517E+04</pdfrwt>
<pdfrwt beam="2">  1       -1 0.11811652E+00 0.16971517E+04</pdfrwt>
<totfact> 0.19331106E+01</totfact>
</mgrwt>
</event>
<event>
12    7  0.1625631E-007  0.1294186E+04  0.7818608E-02  0.9034189E-01
         -1   -1    0    0    0  501 -0.00000000000E+00  0.00000000000E+00  0.27926031539E+03  0.27926031539E+03  0.00000000000E+00 0.  1.
          2   -1    0    0  501    0  0.00000000000E+00 -0.00000000000E+00 -0.14994222659E+04  0.14994222659E+04  0.00000000000E+00 0. -1.
         24    2    1    2    0    0 -0.58461831320E+02 -0.26871751603E+03 -0.57190259068E+03  0.63911818609E+03  0.75977585007E+02 0.  0.
        254    2    1    2    0    0  0.58461831320E+02  0.26871751603E+03 -0.64825935987E+03  0.11395643952E+04  0.89595754593E+03 0.  0.
         23    2    4    4    0    0  0.17950546998E+03  0.32726096460E+03  0.81089797867E+02  0.39274877147E+03  0.91400708251E+02 0.  0.
         23    2    4    4    0    0 -0.12104363866E+03 -0.58543448566E+02 -0.72934915774E+03  0.74681562378E+03  0.87775191220E+02 0.  0.
          2    1    3    3  502    0 -0.37303457567E+02 -0.46578459502E+02 -0.15804274283E+03  0.16893374263E+03  0.00000000000E+00 0. -1.
         -3    1    3    3    0  502 -0.21158373753E+02 -0.22213905653E+03 -0.41385984785E+03  0.47018444347E+03  0.00000000000E+00 0.  1.
         13    1    5    5    0    0  0.80832276949E+02  0.10706262448E+03  0.69718485994E+02  0.15118508474E+03  0.00000000000E+00 0.  1.
        -13    1    5    5    0    0  0.98673193032E+02  0.22019834012E+03  0.11371311874E+02  0.24156368673E+03  0.00000000000E+00 0. -1.
          4    1    6    6  503    0 -0.10987837025E+03 -0.61716647860E+02 -0.72235052437E+03  0.73326153652E+03  0.00000000000E+00 0. -1.
         -4    1    6    6    0  503 -0.11165268414E+02  0.31731992945E+01 -0.69986333661E+01  0.13554087262E+02  0.00000000000E+00 0.  1.
<mgrwt>
<rscale>  0 0.12941857E+04</rscale>
<asrwt>0</asrwt>
<pdfrwt beam="1">  1        2 0.23068035E+00 0.12941857E+04</pdfrwt>
<pdfrwt beam="2">  1       -1 0.42963125E-01 0.12941857E+04</pdfrwt>
<totfact> 0.75754352E+01</totfact>
</mgrwt>
</event>
<event>
12    7  0.1625631E-007  0.2162226E+04  0.7818608E-02  0.8534317E-01
         -1   -1    0    0    0  501 -0.00000000000E+00  0.00000000000E+00  0.47531557923E+03  0.47531557923E+03  0.00000000000E+00 0.  1.
          2   -1    0    0  501    0  0.00000000000E+00 -0.00000000000E+00 -0.24590098360E+04  0.24590098360E+04  0.00000000000E+00 0. -1.
         24    2    1    2    0    0 -0.79936931882E+03 -0.38948308714E+03 -0.81928519792E+03  0.12121601621E+04  0.86114110618E+02 0.  0.
        254    2    1    2    0    0  0.79936931882E+03  0.38948308714E+03 -0.11644090589E+04  0.17221652531E+04  0.90516093580E+03 0.  0.
         23    2    4    4    0    0  0.66450871481E+03  0.48626389301E+03 -0.37293792891E+03  0.90845111721E+03  0.90423049317E+02 0.  0.
         23    2    4    4    0    0  0.13486060401E+03 -0.96780805861E+02 -0.79147112996E+03  0.81371413593E+03  0.90278671633E+02 0.  0.
          2    1    3    3  502    0  0.20811044372E+01 -0.19874176493E+01 -0.11389547080E+01  0.30948412590E+01  0.00000000000E+00 0. -1.
         -1    1    3    3    0  502 -0.80145042326E+03 -0.38749566950E+03 -0.81814624321E+03  0.12090653209E+04  0.00000000000E+00 0.  1.
         13    1    5    5    0    0  0.46110320292E+03  0.28414891788E+03 -0.24426926198E+03  0.59415843310E+03  0.00000000000E+00 0.  1.
        -13    1    5    5    0    0  0.20340551189E+03  0.20211497513E+03 -0.12866866693E+03  0.31429268411E+03  0.00000000000E+00 0. -1.
          1    1    6    6  503    0  0.92936256889E+02 -0.11087933116E+03 -0.61375000844E+03  0.63057152392E+03  0.00000000000E+00 0. -1.
         -1    1    6    6    0  503  0.41924347126E+02  0.14098525302E+02 -0.17772112152E+03  0.18314261200E+03  0.00000000000E+00 0.  1.
<mgrwt>
<rscale>  0 0.21622263E+04</rscale>
<asrwt>0</asrwt>
<pdfrwt beam="1">  1        2 0.37830921E+00 0.21622263E+04</pdfrwt>
<pdfrwt beam="2">  1       -1 0.73125474E-01 0.21622263E+04</pdfrwt>
<totfact> 0.72320430E+00</totfact>
</mgrwt>
</event>
<event>
12    7  0.1625631E-007  0.2051533E+04  0.7818608E-02  0.8582899E-01
         -1   -1    0    0    0  501 -0.00000000000E+00  0.00000000000E+00  0.24651978955E+03  0.24651978955E+03  0.00000000000E+00 0.  1.
          2   -1    0    0  501    0  0.00000000000E+00 -0.00000000000E+00 -0.42682067142E+04  0.42682067142E+04  0.00000000000E+00 0. -1.
         24    2    1    2    0    0 -0.18709136974E+03  0.14820872404E+03  0.11685398499E+03  0.27515059440E+03  0.71302098690E+02 0.  0.
        254    2    1    2    0    0  0.18709136974E+03 -0.14820872404E+03 -0.41385409096E+04  0.42395759093E+04  0.88854601670E+03 0.  0.
         23    2    4    4    0    0  0.13910795380E+03 -0.25111673460E+03 -0.41686202517E+03  0.51505402647E+03  0.95373292664E+02 0.  0.
         23    2    4    4    0    0  0.47983415939E+02  0.10290801056E+03 -0.37216788844E+04  0.37245218828E+04  0.90978404084E+02 0.  0.
          4    1    3    3  502    0 -0.34320778614E+02  0.20751623326E+02 -0.71125178095E+01  0.40732464017E+02  0.00000000000E+00 0. -1.
         -3    1    3    3    0  502 -0.15277059113E+03  0.12745710071E+03  0.12396650280E+03  0.23441813038E+03  0.00000000000E+00 0.  1.
         13    1    5    5    0    0  0.11394310101E+03 -0.23116447470E+03 -0.40649218160E+03  0.48130649106E+03  0.00000000000E+00 0. -1.
        -13    1    5    5    0    0  0.25164852790E+02 -0.19952259892E+02 -0.10369843564E+02  0.33747535411E+02  0.00000000000E+00 0.  1.
          3    1    6    6  503    0  0.24638950044E+02  0.11559119912E+03 -0.28807133630E+04  0.28831368130E+04  0.00000000000E+00 0. -1.
         -3    1    6    6    0  503  0.23344465896E+02 -0.12683188559E+02 -0.84096552148E+03  0.84138506980E+03  0.00000000000E+00 0.  1.
<mgrwt>
<rscale>  0 0.20515335E+04</rscale>
<asrwt>0</asrwt>
<pdfrwt beam="1">  1        2 0.65664722E+00 0.20515335E+04</pdfrwt>
<pdfrwt beam="2">  1       -1 0.37926119E-01 0.20515335E+04</pdfrwt>
<totfact> 0.14495535E+00</totfact>
</mgrwt>
</event>
<event>
12    7  0.1625631E-007  0.1234132E+04  0.7818608E-02  0.9083494E-01
         -3   -1    0    0    0  501 -0.00000000000E+00  0.00000000000E+00  0.17721616524E+03  0.17721616524E+03  0.00000000000E+00 0.  1.
          2   -1    0    0  501    0  0.00000000000E+00 -0.00000000000E+00 -0.21486216296E+04  0.21486216296E+04  0.00000000000E+00 0. -1.
         24    2    1    2    0    0  0.14288730189E+03  0.15064635661E+03 -0.86192965027E+03  0.88951860467E+03  0.72177006295E+02 0.  0.
        254    2    1    2    0    0 -0.14288730189E+03 -0.15064635661E+03 -0.11094758141E+04  0.14363191901E+04  0.88823709008E+03 0.  0.
         23    2    4    4    0    0  0.26759505522E+03  0.15349343398E+03 -0.17102676356E+03  0.36394541886E+03  0.89659166869E+02 0.  0.
         23    2    4    4    0    0 -0.41048235711E+03 -0.30413979059E+03 -0.93844905049E+03  0.10723737713E+04  0.91115899961E+02 0.  0.
          2    1    3    3  502    0  0.13511410369E+03  0.14504886462E+03 -0.85504424132E+03  0.87772185159E+03  0.00000000000E+00 0. -1.
         -1    1    3    3    0  502  0.77731981967E+01  0.55974919911E+01 -0.68854089478E+01  0.11796753078E+02  0.00000000000E+00 0.  1.
         13    1    5    5    0    0  0.45844382493E+02  0.14195693307E+02 -0.66439868644E+02  0.81960241947E+02  0.00000000000E+00 0.  1.
        -13    1    5    5    0    0  0.22175067273E+03  0.13929774067E+03 -0.10458689492E+03  0.28198517692E+03  0.00000000000E+00 0. -1.
          3    1    6    6  503    0 -0.30347700416E+03 -0.19558528811E+03 -0.72695861658E+03  0.81167772373E+03  0.00000000000E+00 0. -1.
         -3    1    6    6    0  503 -0.10700535295E+03 -0.10855450248E+03 -0.21149043391E+03  0.26069604754E+03  0.00000000000E+00 0.  1.
<mgrwt>
<rscale>  0 0.12341321E+04</rscale>
<asrwt>0</asrwt>
<pdfrwt beam="1">  1        2 0.33055714E+00 0.12341321E+04</pdfrwt>
<pdfrwt beam="2">  1       -3 0.27264028E-01 0.12341321E+04</pdfrwt>
<totfact> 0.45840964E+01</totfact>
</mgrwt>
</event>
<event>
12    7  0.1625631E-007  0.1438694E+04  0.7818608E-02  0.8926276E-01
          2   -1    0    0  501    0  0.00000000000E+00  0.00000000000E+00  0.15486957908E+04  0.15486957908E+04  0.00000000000E+00 0. -1.
         -1   -1    0    0    0  501 -0.00000000000E+00 -0.00000000000E+00 -0.33412650112E+03  0.33412650112E+03  0.00000000000E+00 0.  1.
         24    2    1    2    0    0  0.89077284895E+01 -0.40457706425E+03  0.18376195842E+03  0.45557887206E+03  0.10010845500E+03 0.  0.
        254    2    1    2    0    0 -0.89077284895E+01  0.40457706425E+03  0.10308073313E+04  0.14272434199E+04  0.90038773696E+03 0.  0.
         23    2    4    4    0    0  0.13068836396E+02 -0.13452776417E+03  0.82693311983E+03  0.84268126148E+03  0.89581303592E+02 0.  0.
         23    2    4    4    0    0 -0.21976564886E+02  0.53910482842E+03  0.20387421145E+03  0.58456215841E+03  0.95032823421E+02 0.  0.
          4    1    3    3  502    0 -0.41148309907E+02 -0.12580031278E+03  0.75354550669E+02  0.15230630456E+03  0.00000000000E+00 0. -1.
         -1    1    3    3    0  502  0.50056038396E+02 -0.27877675147E+03  0.10840740775E+03  0.30327256750E+03  0.00000000000E+00 0.  1.
         13    1    5    5    0    0 -0.19871470688E+02 -0.22846771896E+02  0.36667768275E+03  0.36792577154E+03  0.00000000000E+00 0. -1.
        -13    1    5    5    0    0  0.32940307084E+02 -0.11168099228E+03  0.46025543708E+03  0.47475548994E+03  0.00000000000E+00 0.  1.
          2    1    6    6  503    0  0.52885726032E+01  0.20276189853E+02 -0.93745152970E+01  0.22955923249E+02  0.00000000000E+00 0. -1.
         -2    1    6    6    0  503 -0.27265137489E+02  0.51882863857E+03  0.21324872675E+03  0.56160623517E+03  0.00000000000E+00 0.  1.
<mgrwt>
<rscale>  0 0.14386943E+04</rscale>
<asrwt>0</asrwt>
<pdfrwt beam="1">  1        2 0.23826089E+00 0.14386943E+04</pdfrwt>
<pdfrwt beam="2">  1       -1 0.51404078E-01 0.14386943E+04</pdfrwt>
<totfact> 0.50162540E+01</totfact>
</mgrwt>
</event>
<event>
12    7  0.1625631E-007  0.2288484E+04  0.7818608E-02  0.8482475E-01
         -1   -1    0    0    0  501 -0.00000000000E+00  0.00000000000E+00  0.50010470272E+03  0.50010470272E+03  0.00000000000E+00 0.  1.
          2   -1    0    0  501    0  0.00000000000E+00 -0.00000000000E+00 -0.26180320779E+04  0.26180320779E+04  0.00000000000E+00 0. -1.
         24    2    1    2    0    0  0.38522829492E+03  0.10649853217E+03  0.33143216678E+03  0.52526323024E+03  0.79444340887E+02 0.  0.
        254    2    1    2    0    0 -0.38522829492E+03 -0.10649853217E+03 -0.24493595419E+04  0.25928735503E+04  0.75092496692E+03 0.  0.
         23    2    4    4    0    0 -0.38080400075E+03  0.19637016581E+03 -0.78903709099E+03  0.90261029203E+03  0.92481778270E+02 0.  0.
         23    2    4    4    0    0 -0.44242941690E+01 -0.30286869797E+03 -0.16603224509E+04  0.16902632583E+04  0.92575476103E+02 0.  0.
          2    1    3    3  502    0  0.16449300910E+02  0.24471848884E+02  0.19672951867E+02  0.35446804136E+02  0.00000000000E+00 0. -1.
         -1    1    3    3    0  502  0.36877899401E+03  0.82026683283E+02  0.31175921491E+03  0.48981642610E+03  0.00000000000E+00 0.  1.
         13    1    5    5    0    0 -0.12819715132E+03  0.45817822974E+02 -0.33563365197E+03  0.36219294698E+03  0.00000000000E+00 0. -1.
        -13    1    5    5    0    0 -0.25260684944E+03  0.15055234283E+03 -0.45340343901E+03  0.54041734504E+03  0.00000000000E+00 0.  1.
          4    1    6    6  503    0 -0.40298001437E+02 -0.23589143783E+03 -0.13253608908E+04  0.13467925565E+04  0.00000000000E+00 0.  1.
         -4    1    6    6    0  503  0.35873707268E+02 -0.66977260146E+02 -0.33496156011E+03  0.34347070180E+03  0.00000000000E+00 0. -1.
<mgrwt>
<rscale>  0 0.22884843E+04</rscale>
<asrwt>0</asrwt>
<pdfrwt beam="1">  1        2 0.40277416E+00 0.22884843E+04</pdfrwt>
<pdfrwt beam="2">  1       -1 0.76939186E-01 0.22884843E+04</pdfrwt>
<totfact> 0.51962343E+00</totfact>
</mgrwt>
</event>
<event>
12    7  0.1625631E-007  0.1520682E+04  0.7818608E-02  0.8870815E-01
         -1   -1    0    0    0  501 -0.00000000000E+00  0.00000000000E+00  0.56838088273E+03  0.56838088273E+03  0.00000000000E+00 0.  1.
          2   -1    0    0  501    0  0.00000000000E+00 -0.00000000000E+00 -0.10171324288E+04  0.10171324288E+04  0.00000000000E+00 0. -1.
         24    2    1    2    0    0 -0.44410802939E+03  0.12922015100E+03 -0.31008233366E+03  0.56271098836E+03  0.81011194203E+02 0.  0.
        254    2    1    2    0    0  0.44410802939E+03 -0.12922015100E+03 -0.13866921246E+03  0.10228023232E+04  0.90164607952E+03 0.  0.
         23    2    4    4    0    0  0.54233120688E+02 -0.49293393251E+02  0.36042756531E+03  0.37805165208E+03  0.87429696376E+02 0.  0.
         23    2    4    4    0    0  0.38987490870E+03 -0.79926757750E+02 -0.49909677777E+03  0.64475067114E+03  0.90637207143E+02 0.  0.
          2    1    3    3  502    0 -0.15989622583E+03  0.11237796328E+02 -0.84846376299E+02  0.18136151375E+03  0.00000000000E+00 0. -1.
         -1    1    3    3    0  502 -0.28421180356E+03  0.11798235467E+03 -0.22523595736E+03  0.38134947461E+03  0.00000000000E+00 0.  1.
         13    1    5    5    0    0  0.73731374064E+02 -0.39681439320E+02  0.33123506848E+03  0.34165421516E+03  0.00000000000E+00 0. -1.
        -13    1    5    5    0    0 -0.19498253376E+02 -0.96119539311E+01  0.29192496834E+02  0.36397436922E+02  0.00000000000E+00 0.  1.
          2    1    6    6  503    0  0.10846458483E+03 -0.46725719687E+02 -0.96941462328E+02  0.15279236290E+03  0.00000000000E+00 0.  1.
         -2    1    6    6    0  503  0.28141032387E+03 -0.33201038063E+02 -0.40215531544E+03  0.49195830824E+03  0.00000000000E+00 0. -1.
<mgrwt>
<rscale>  0 0.15206823E+04</rscale>
<asrwt>0</asrwt>
<pdfrwt beam="1">  1        2 0.15648191E+00 0.15206823E+04</pdfrwt>
<pdfrwt beam="2">  1       -1 0.87443213E-01 0.15206823E+04</pdfrwt>
<totfact> 0.34795946E+01</totfact>
</mgrwt>
</event>
<event>
12    7  0.1625631E-007  0.1784788E+04  0.7818608E-02  0.8714431E-01
         -1   -1    0    0    0  501 -0.00000000000E+00  0.00000000000E+00  0.86250503680E+03  0.86250503680E+03  0.00000000000E+00 0.  1.
          2   -1    0    0  501    0  0.00000000000E+00 -0.00000000000E+00 -0.92331911053E+03  0.92331911053E+03  0.00000000000E+00 0. -1.
         24    2    1    2    0    0 -0.59664324486E+02 -0.63861026518E+03  0.16314189829E+03  0.66662920854E+03  0.79976998504E+02 0.  0.
        254    2    1    2    0    0  0.59664324486E+02  0.63861026518E+03 -0.22395597202E+03  0.11191949388E+04  0.88941448785E+03 0.  0.
         23    2    4    4    0    0  0.37726765975E+02  0.35048307397E+03  0.32782724235E+03  0.49016342012E+03  0.92345999327E+02 0.  0.
         23    2    4    4    0    0  0.21937558511E+02  0.28812719121E+03 -0.55178321437E+03  0.62903151867E+03  0.87848739506E+02 0.  0.
          2    1    3    3  502    0 -0.48165827981E+00 -0.42559393161E+02  0.32536227633E+02  0.53573688033E+02  0.00000000000E+00 0. -1.
         -1    1    3    3    0  502 -0.59182666206E+02 -0.59605087202E+03  0.13060567065E+03  0.61305552050E+03  0.00000000000E+00 0.  1.
         13    1    5    5    0    0  0.17406381689E+02  0.24605794816E+03  0.28105673531E+03  0.37395238258E+03  0.00000000000E+00 0.  1.
        -13    1    5    5    0    0  0.20320384286E+02  0.10442512581E+03  0.46770507039E+02  0.11621103754E+03  0.00000000000E+00 0. -1.
          4    1    6    6  503    0 -0.63113110308E+01  0.23918186313E+03 -0.38873711430E+03  0.45646942979E+03  0.00000000000E+00 0.  1.
         -4    1    6    6    0  503  0.28248869542E+02  0.48945328077E+02 -0.16304610007E+03  0.17256208888E+03  0.00000000000E+00 0. -1.
<mgrwt>
<rscale>  0 0.17847884E+04</rscale>
<asrwt>0</asrwt>
<pdfrwt beam="1">  1        2 0.14204909E+00 0.17847884E+04</pdfrwt>
<pdfrwt beam="2">  1       -1 0.13269308E+00 0.17847884E+04</pdfrwt>
<totfact> 0.14686353E+01</totfact>
</mgrwt>
</event>
<event>
12    7  0.1625631E-007  0.2905396E+04  0.7818608E-02  0.8271274E-01
         -1   -1    0    0    0  501 -0.00000000000E+00  0.00000000000E+00  0.11106590431E+04  0.11106590431E+04  0.00000000000E+00 0.  1.
          2   -1    0    0  501    0  0.00000000000E+00 -0.00000000000E+00 -0.19000713113E+04  0.19000713113E+04  0.00000000000E+00 0. -1.
         24    2    1    2    0    0  0.44062375126E+03 -0.39066732714E+03 -0.15697179779E+04  0.16784462888E+04  0.79982271443E+02 0.  0.
        254    2    1    2    0    0 -0.44062375126E+03  0.39066732714E+03  0.78030570966E+03  0.13322840655E+04  0.90517047016E+03 0.  0.
         23    2    4    4    0    0  0.13489235018E+03 -0.19364637835E+03  0.15502134847E+03  0.29697756280E+03  0.92028193174E+02 0.  0.
         23    2    4    4    0    0 -0.57551610144E+03  0.58431370548E+03  0.62528436119E+03  0.10353065027E+04  0.90761956774E+02 0.  0.
          2    1    3    3  502    0  0.14752218810E+03 -0.85422294048E+02 -0.48635450736E+03  0.51536440616E+03  0.00000000000E+00 0. -1.
         -1    1    3    3    0  502  0.29310156316E+03 -0.30524503309E+03 -0.10833634705E+04  0.11630818827E+04  0.00000000000E+00 0.  1.
         13    1    5    5    0    0  0.14582371524E+03 -0.17132281430E+03  0.12289346043E+03  0.25635690988E+03  0.00000000000E+00 0. -1.
        -13    1    5    5    0    0 -0.10931365055E+02 -0.22323564049E+02  0.32127888041E+02  0.40620652922E+02  0.00000000000E+00 0.  1.
          1    1    6    6  503    0 -0.38113027250E+03  0.32411105482E+03  0.37348316079E+03  0.62433799490E+03  0.00000000000E+00 0. -1.
         -1    1    6    6    0  503 -0.19438582894E+03  0.26020265066E+03  0.25180120040E+03  0.41096850783E+03  0.00000000000E+00 0.  1.
<mgrwt>
<rscale>  0 0.29053959E+04</rscale>
<asrwt>0</asrwt>
<pdfrwt beam="1">  1        2 0.29231866E+00 0.29053959E+04</pdfrwt>
<pdfrwt beam="2">  1       -1 0.17087062E+00 0.29053959E+04</pdfrwt>
<totfact> 0.18070532E+00</totfact>
</mgrwt>
</event>
<event>
12    7  0.1625631E-007  0.1500365E+04  0.7818608E-02  0.8884210E-01
         -1   -1    0    0    0  501 -0.00000000000E+00  0.00000000000E+00  0.29928031342E+03  0.29928031342E+03  0.00000000000E+00 0.  1.
          2   -1    0    0  501    0  0.00000000000E+00 -0.00000000000E+00 -0.18804236813E+04  0.18804236813E+04  0.00000000000E+00 0. -1.
         24    2    1    2    0    0  0.82581352594E+02  0.18042062007E+03  0.12468013880E+03  0.24763924973E+03  0.80054862784E+02 0.  0.
        254    2    1    2    0    0 -0.82581352594E+02 -0.18042062007E+03 -0.17058235067E+04  0.19320647450E+04  0.88525084750E+03 0.  0.
         23    2    4    4    0    0 -0.43734215495E+03 -0.19245894462E+03 -0.63184829707E+03  0.79728516535E+03  0.90126347464E+02 0.  0.
         23    2    4    4    0    0  0.35476080236E+03  0.12038324551E+02 -0.10739752096E+04  0.11347795797E+04  0.91114188814E+02 0.  0.
          2    1    3    3  502    0  0.28686616923E+02  0.56619418096E+02 -0.56092584517E+00  0.63474365958E+02  0.00000000000E+00 0. -1.
         -3    1    3    3    0  502  0.53894735671E+02  0.12380120197E+03  0.12524106464E+03  0.18416488377E+03  0.00000000000E+00 0.  1.
         13    1    5    5    0    0 -0.10390115666E+03 -0.65889379208E+02 -0.22339353190E+03  0.25503241116E+03  0.00000000000E+00 0.  1.
        -13    1    5    5    0    0 -0.33344099830E+03 -0.12656956541E+03 -0.40845476518E+03  0.54225275419E+03  0.00000000000E+00 0. -1.
          1    1    6    6  503    0  0.32212668791E+03  0.71652600049E+01 -0.10334873646E+04  0.10825493415E+04  0.00000000000E+00 0. -1.
         -1    1    6    6    0  503  0.32634114447E+02  0.48730645462E+01 -0.40487845031E+02  0.52230238168E+02  0.00000000000E+00 0.  1.
<mgrwt>
<rscale>  0 0.15003650E+04</rscale>
<asrwt>0</asrwt>
<pdfrwt beam="1">  1        2 0.28929595E+00 0.15003650E+04</pdfrwt>
<pdfrwt beam="2">  1       -1 0.46043125E-01 0.15003650E+04</pdfrwt>
<totfact> 0.40207730E+01</totfact>
</mgrwt>
</event>
<event>
12    7  0.1625631E-007  0.1467094E+04  0.7818608E-02  0.8906635E-01
          2   -1    0    0  501    0  0.00000000000E+00  0.00000000000E+00  0.15632593224E+04  0.15632593224E+04  0.00000000000E+00 0. -1.
         -1   -1    0    0    0  501 -0.00000000000E+00 -0.00000000000E+00 -0.34421089524E+03  0.34421089524E+03  0.00000000000E+00 0.  1.
         24    2    1    2    0    0 -0.32811347863E+03  0.10173039793E+03  0.77562587872E+03  0.85201201375E+03  0.79507478383E+02 0.  0.
        254    2    1    2    0    0  0.32811347863E+03 -0.10173039793E+03  0.44342254844E+03  0.10554582039E+04  0.89406987141E+03 0.  0.
         23    2    4    4    0    0  0.35288947191E+03 -0.68216355895E+01  0.68721544786E+03  0.77810325393E+03  0.92747441499E+02 0.  0.
         23    2    4    4    0    0 -0.24775993282E+02 -0.94908762343E+02 -0.24379289942E+03  0.27735494995E+03  0.88708891551E+02 0.  0.
          4    1    3    3  502    0 -0.22057729442E+03  0.10223407567E+03  0.49482567219E+03  0.55132440079E+03  0.00000000000E+00 0. -1.
         -3    1    3    3    0  502 -0.10753618420E+03 -0.50367774169E+00  0.28080020652E+03  0.30068761296E+03  0.00000000000E+00 0.  1.
         13    1    5    5    0    0  0.12450359825E+03  0.39493655182E+02  0.21619928793E+03  0.25259261050E+03  0.00000000000E+00 0. -1.
        -13    1    5    5    0    0  0.22838587366E+03 -0.46315290771E+02  0.47101615993E+03  0.52551064343E+03  0.00000000000E+00 0.  1.
          3    1    6    6  503    0 -0.35643018292E+02 -0.42174663342E+02 -0.44503328791E+02  0.70920189329E+02  0.00000000000E+00 0. -1.
         -3    1    6    6    0  503  0.10867025011E+02 -0.52734099001E+02 -0.19928957063E+03  0.20643476062E+03  0.00000000000E+00 0.  1.
<mgrwt>
<rscale>  0 0.14670936E+04</rscale>
<asrwt>0</asrwt>
<pdfrwt beam="1">  1        2 0.24050143E+00 0.14670936E+04</pdfrwt>
<pdfrwt beam="2">  1       -1 0.52955523E-01 0.14670936E+04</pdfrwt>
<totfact> 0.46393516E+01</totfact>
</mgrwt>
</event>
<event>
12    7  0.1625631E-007  0.1374344E+04  0.7818608E-02  0.8972602E-01
          2   -1    0    0  501    0  0.00000000000E+00  0.00000000000E+00  0.15892432708E+04  0.15892432708E+04  0.00000000000E+00 0. -1.
         -1   -1    0    0    0  501 -0.00000000000E+00 -0.00000000000E+00 -0.29712589919E+03  0.29712589919E+03  0.00000000000E+00 0.  1.
         24    2    1    2    0    0  0.83983390368E+01  0.35468324764E+03  0.59258390311E+03  0.69535257165E+03  0.80552954148E+02 0.  0.
        254    2    1    2    0    0 -0.83983390368E+01 -0.35468324764E+03  0.69953346851E+03  0.11910165983E+04  0.89627156918E+03 0.  0.
         23    2    4    4    0    0 -0.38292457587E+02 -0.33369000767E+03 -0.11830994485E+03  0.36735893973E+03  0.90222026285E+02 0.  0.
         23    2    4    4    0    0  0.29894118551E+02 -0.20993239974E+02  0.81784341336E+03  0.82365765861E+03  0.90607479663E+02 0.  0.
          4    1    3    3  502    0  0.42031178341E+02  0.16188412778E+03  0.29685143156E+03  0.34072549537E+03  0.00000000000E+00 0. -1.
         -3    1    3    3    0  502 -0.33632839304E+02  0.19279911987E+03  0.29573247155E+03  0.35462707628E+03  0.00000000000E+00 0.  1.
         13    1    5    5    0    0 -0.58257122428E+02 -0.27266354377E+03 -0.11898869366E+03  0.30314618525E+03  0.00000000000E+00 0.  1.
        -13    1    5    5    0    0  0.19964664841E+02 -0.61026463902E+02  0.67874880933E+00  0.64212754485E+02  0.00000000000E+00 0. -1.
          4    1    6    6  503    0 -0.25671054718E+01  0.11887383868E+02  0.14237281296E+02  0.18724318531E+02  0.00000000000E+00 0. -1.
         -4    1    6    6    0  503  0.32461224022E+02 -0.32880623842E+02  0.80360613206E+03  0.80493334008E+03  0.00000000000E+00 0.  1.
<mgrwt>
<rscale>  0 0.13743440E+04</rscale>
<asrwt>0</asrwt>
<pdfrwt beam="1">  1        2 0.24449896E+00 0.13743440E+04</pdfrwt>
<pdfrwt beam="2">  1       -1 0.45711678E-01 0.13743440E+04</pdfrwt>
<totfact> 0.59734973E+01</totfact>
</mgrwt>
</event>
<event>
12    7  0.1625631E-007  0.1895941E+04  0.7818608E-02  0.8656879E-01
         -1   -1    0    0    0  501 -0.00000000000E+00  0.00000000000E+00  0.65259334037E+03  0.65259334037E+03  0.00000000000E+00 0.  1.
          2   -1    0    0  501    0  0.00000000000E+00 -0.00000000000E+00 -0.13770417846E+04  0.13770417846E+04  0.00000000000E+00 0. -1.
         24    2    1    2    0    0 -0.95610861359E+02 -0.63910460011E+03 -0.64985163361E+03  0.91988712794E+03  0.79303567133E+02 0.  0.
        254    2    1    2    0    0  0.95610861359E+02  0.63910460011E+03 -0.74596810650E+02  0.11097479971E+04  0.89909944174E+03 0.  0.
         23    2    4    4    0    0 -0.18194232059E+02  0.82750752468E+03  0.62814989828E+02  0.83511689013E+03  0.91513735293E+02 0.  0.
         23    2    4    4    0    0  0.11380509342E+03 -0.18840292457E+03 -0.13741180048E+03  0.27463110694E+03  0.89960995503E+02 0.  0.
          2    1    3    3  502    0 -0.36141346080E+02 -0.45957272293E+03 -0.48295170747E+03  0.66764933633E+03  0.00000000000E+00 0. -1.
         -1    1    3    3    0  502 -0.59469515279E+02 -0.17953187718E+03 -0.16689992614E+03  0.25223779161E+03  0.00000000000E+00 0.  1.
         13    1    5    5    0    0  0.18054777948E+02  0.13027491766E+03 -0.16078765596E+02  0.13249926747E+03  0.00000000000E+00 0. -1.
        -13    1    5    5    0    0 -0.36249010007E+02  0.69723260702E+03  0.78893755424E+02  0.70261762266E+03  0.00000000000E+00 0.  1.
          4    1    6    6  503    0  0.87787748892E+01 -0.69583457849E+01  0.12585342650E+02  0.16848629447E+02  0.00000000000E+00 0. -1.
         -4    1    6    6    0  503  0.10502631853E+03 -0.18144457878E+03 -0.14999714313E+03  0.25778247749E+03  0.00000000000E+00 0.  1.
<mgrwt>
<rscale>  0 0.18959412E+04</rscale>
<asrwt>0</asrwt>
<pdfrwt beam="1">  1        2 0.21185258E+00 0.18959412E+04</pdfrwt>
<pdfrwt beam="2">  1       -1 0.10039898E+00 0.18959412E+04</pdfrwt>
<totfact> 0.15043561E+01</totfact>
</mgrwt>
</event>
<event>
12    7  0.1625631E-007  0.2881412E+04  0.7818608E-02  0.8278430E-01
         -1   -1    0    0    0  501 -0.00000000000E+00  0.00000000000E+00  0.97748137306E+03  0.97748137306E+03  0.00000000000E+00 0.  1.
          2   -1    0    0  501    0  0.00000000000E+00 -0.00000000000E+00 -0.21234505626E+04  0.21234505626E+04  0.00000000000E+00 0. -1.
         24    2    1    2    0    0 -0.11307145565E+04  0.55071657489E+03 -0.53409333186E+02  0.12612897475E+04  0.78709059769E+02 0.  0.
        254    2    1    2    0    0  0.11307145565E+04 -0.55071657489E+03 -0.10925598564E+04  0.18396421882E+04  0.78025136132E+03 0.  0.
         23    2    4    4    0    0  0.11772786568E+04 -0.39419344195E+03 -0.76287959461E+03  0.14599423144E+04  0.89848650712E+02 0.  0.
         23    2    4    4    0    0 -0.46564100298E+02 -0.15652313294E+03 -0.32968026177E+03  0.37969987386E+03  0.93889363754E+02 0.  0.
          2    1    3    3  502    0 -0.10551740943E+04  0.50888448131E+03 -0.69158326618E+02  0.11735155128E+04  0.00000000000E+00 0. -1.
         -1    1    3    3    0  502 -0.75540462186E+02  0.41832093588E+02  0.15748993432E+02  0.87774234690E+02  0.00000000000E+00 0.  1.
         13    1    5    5    0    0  0.85813584629E+01  0.45945886775E+01 -0.82114542614E+01  0.12734910258E+02  0.00000000000E+00 0. -1.
        -13    1    5    5    0    0  0.11686972983E+04 -0.39878803063E+03 -0.75466814035E+03  0.14472074041E+04  0.00000000000E+00 0.  1.
          4    1    6    6  503    0  0.79221528697E+01 -0.67970033531E+02 -0.21149065319E+03  0.22228581230E+03  0.00000000000E+00 0. -1.
         -4    1    6    6    0  503 -0.54486253167E+02 -0.88553099411E+02 -0.11818960858E+03  0.15741406155E+03  0.00000000000E+00 0.  1.
<mgrwt>
<rscale>  0 0.28814117E+04</rscale>
<asrwt>0</asrwt>
<pdfrwt beam="1">  1        2 0.32668470E+00 0.28814117E+04</pdfrwt>
<pdfrwt beam="2">  1       -1 0.15038175E+00 0.28814117E+04</pdfrwt>
<totfact> 0.19419463E+00</totfact>
</mgrwt>
</event>
<event>
12    7  0.1625631E-007  0.1857197E+04  0.7818608E-02  0.8676460E-01
         -1   -1    0    0    0  501 -0.00000000000E+00  0.00000000000E+00  0.34520019485E+03  0.34520019485E+03  0.00000000000E+00 0.  1.
          2   -1    0    0  501    0  0.00000000000E+00 -0.00000000000E+00 -0.24979579975E+04  0.24979579975E+04  0.00000000000E+00 0. -1.
         24    2    1    2    0    0  0.48127982674E+03  0.28553418417E+03 -0.15044136648E+03  0.58501486263E+03  0.80310290717E+02 0.  0.
        254    2    1    2    0    0 -0.48127982674E+03 -0.28553418417E+03 -0.20023164361E+04  0.22581433297E+04  0.88135131759E+03 0.  0.
         23    2    4    4    0    0 -0.52253811474E+03 -0.37795530323E+03 -0.20199346121E+04  0.21223402601E+04  0.91082654282E+02 0.  0.
         23    2    4    4    0    0  0.41258288007E+02  0.92421119056E+02  0.17618175995E+02  0.13580306955E+03  0.88815336491E+02 0.  0.
          4    1    3    3  502    0  0.18587341044E+03  0.15208980394E+03 -0.46659039574E+02  0.24465751398E+03  0.00000000000E+00 0. -1.
         -3    1    3    3    0  502  0.29540641629E+03  0.13344438023E+03 -0.10378232690E+03  0.34035734865E+03  0.00000000000E+00 0.  1.
         13    1    5    5    0    0 -0.39061994112E+03 -0.31769815746E+03 -0.16450851911E+04  0.17204131317E+04  0.00000000000E+00 0. -1.
        -13    1    5    5    0    0 -0.13191817362E+03 -0.60257145772E+02 -0.37484942106E+03  0.40192712849E+03  0.00000000000E+00 0.  1.
          1    1    6    6  503    0 -0.27809256476E+01  0.87080013911E+02 -0.23457782345E+01  0.87155981124E+02  0.00000000000E+00 0. -1.
         -1    1    6    6    0  503  0.44039213654E+02  0.53411051450E+01  0.19963954230E+02  0.48647088422E+02  0.00000000000E+00 0.  1.
<mgrwt>
<rscale>  0 0.18571974E+04</rscale>
<asrwt>0</asrwt>
<pdfrwt beam="1">  1        2 0.38430122E+00 0.18571974E+04</pdfrwt>
<pdfrwt beam="2">  1       -1 0.53107724E-01 0.18571974E+04</pdfrwt>
<totfact> 0.13366386E+01</totfact>
</mgrwt>
</event>
<event>
12    7  0.1625631E-007  0.1730996E+04  0.7818608E-02  0.8743881E-01
          2   -1    0    0  501    0  0.00000000000E+00  0.00000000000E+00  0.54460658905E+03  0.54460658905E+03  0.00000000000E+00 0. -1.
         -1   -1    0    0    0  501 -0.00000000000E+00 -0.00000000000E+00 -0.13754633387E+04  0.13754633387E+04  0.00000000000E+00 0.  1.
         24    2    1    2    0    0  0.33481559179E+03  0.11946983427E+02  0.28761293726E+03  0.44892374949E+03  0.81037770587E+02 0.  0.
        254    2    1    2    0    0 -0.33481559179E+03 -0.11946983427E+02 -0.11184696869E+04  0.14711461782E+04  0.89501532186E+03 0.  0.
         23    2    4    4    0    0  0.47376463434E+02  0.37941162366E+03 -0.55890833086E+03  0.68333106925E+03  0.91461021446E+02 0.  0.
         23    2    4    4    0    0 -0.38219205522E+03 -0.39135860708E+03 -0.55956135602E+03  0.78781510899E+03  0.91166925951E+02 0.  0.
          4    1    3    3  502    0  0.19244049871E+03  0.45636212415E+02  0.17839647337E+03  0.26634810144E+03  0.00000000000E+00 0. -1.
         -3    1    3    3    0  502  0.14237509308E+03 -0.33689228988E+02  0.10921646389E+03  0.18257564805E+03  0.00000000000E+00 0.  1.
         13    1    5    5    0    0 -0.49030791105E+01  0.23626686247E+03 -0.28844543511E+03  0.37288984905E+03  0.00000000000E+00 0. -1.
        -13    1    5    5    0    0  0.52279542544E+02  0.14314476118E+03 -0.27046289574E+03  0.31044122020E+03  0.00000000000E+00 0.  1.
          1    1    6    6  503    0 -0.35521316698E+03 -0.36492932307E+03 -0.48035232597E+03  0.70006296995E+03  0.00000000000E+00 0. -1.
         -1    1    6    6    0  503 -0.26978888245E+02 -0.26429284009E+02 -0.79209030049E+02  0.87752139036E+02  0.00000000000E+00 0.  1.
<mgrwt>
<rscale>  0 0.17309955E+04</rscale>
<asrwt>0</asrwt>
<pdfrwt beam="1">  1        2 0.83785629E-01 0.17309955E+04</pdfrwt>
<pdfrwt beam="2">  1       -1 0.21160974E+00 0.17309955E+04</pdfrwt>
<totfact> 0.75724602E+00</totfact>
</mgrwt>
</event>
<event>
12    7  0.1625631E-007  0.1792079E+04  0.7818608E-02  0.8710523E-01
          2   -1    0    0  501    0  0.00000000000E+00  0.00000000000E+00  0.85178605651E+03  0.85178605651E+03  0.00000000000E+00 0. -1.
         -1   -1    0    0    0  501 -0.00000000000E+00 -0.00000000000E+00 -0.94259241672E+03  0.94259241672E+03  0.00000000000E+00 0.  1.
         24    2    1    2    0    0  0.23264360328E+03  0.13126873408E+03  0.58182866175E+03  0.64510221793E+03  0.79232273986E+02 0.  0.
        254    2    1    2    0    0 -0.23264360328E+03 -0.13126873408E+03 -0.67263502196E+03  0.11492762553E+04  0.89277293392E+03 0.  0.
         23    2    4    4    0    0  0.28497207500E+03  0.15147854174E+03 -0.22277343413E+03  0.40262412718E+03  0.91232410341E+02 0.  0.
         23    2    4    4    0    0 -0.51761567828E+03 -0.28274727582E+03 -0.44986158783E+03  0.74665212812E+03  0.85099587762E+02 0.  0.
          4    1    3    3  502    0  0.10811189256E+03  0.38023876228E+02  0.32741178576E+03  0.34688971436E+03  0.00000000000E+00 0. -1.
         -3    1    3    3    0  502  0.12453171072E+03  0.93244857856E+02  0.25441687599E+03  0.29821250357E+03  0.00000000000E+00 0.  1.
         13    1    5    5    0    0  0.54382001032E+02  0.30799996750E+02 -0.39957461164E+01  0.62625935706E+02  0.00000000000E+00 0.  1.
        -13    1    5    5    0    0  0.23059007397E+03  0.12067854499E+03 -0.21877768801E+03  0.33999819147E+03  0.00000000000E+00 0. -1.
          2    1    6    6  503    0 -0.12550420660E+03 -0.10692010992E+03 -0.10299610891E+03  0.19440013948E+03  0.00000000000E+00 0. -1.
         -2    1    6    6    0  503 -0.39211147167E+03 -0.17582716591E+03 -0.34686547892E+03  0.55225198864E+03  0.00000000000E+00 0.  1.
<mgrwt>
<rscale>  0 0.17920793E+04</rscale>
<asrwt>0</asrwt>
<pdfrwt beam="1">  1        2 0.13104401E+00 0.17920793E+04</pdfrwt>
<pdfrwt beam="2">  1       -1 0.14501422E+00 0.17920793E+04</pdfrwt>
<totfact> 0.13034975E+01</totfact>
</mgrwt>
</event>
<event>
12    7  0.1625631E-007  0.1373707E+04  0.7818608E-02  0.8973074E-01
          2   -1    0    0  501    0  0.00000000000E+00  0.00000000000E+00  0.35536290230E+04  0.35536290230E+04  0.00000000000E+00 0. -1.
         -1   -1    0    0    0  501 -0.00000000000E+00 -0.00000000000E+00 -0.13275666118E+03  0.13275666118E+03  0.00000000000E+00 0.  1.
         24    2    1    2    0    0  0.17752302118E+03 -0.34723968311E+03  0.12743784012E+04  0.13351308642E+04  0.80276362886E+02 0.  0.
        254    2    1    2    0    0 -0.17752302118E+03  0.34723968311E+03  0.21464939606E+04  0.23512548200E+04  0.87685408423E+03 0.  0.
         23    2    4    4    0    0  0.31737976112E+03  0.61704614867E+01  0.52128771157E+03  0.61608954609E+03  0.84008709102E+02 0.  0.
         23    2    4    4    0    0 -0.49490278230E+03  0.34106922162E+03  0.16252062490E+04  0.17351652739E+04  0.90808578804E+02 0.  0.
          2    1    3    3  502    0  0.13938027938E+03 -0.25256090837E+03  0.10446414301E+04  0.10837387103E+04  0.00000000000E+00 0. -1.
         -1    1    3    3    0  502  0.38142741803E+02 -0.94678774734E+02  0.22973697110E+03  0.25139215387E+03  0.00000000000E+00 0.  1.
         13    1    5    5    0    0  0.11062379554E+03 -0.16437568030E+02  0.25305142416E+03  0.27666376895E+03  0.00000000000E+00 0.  1.
        -13    1    5    5    0    0  0.20675596558E+03  0.22608029516E+02  0.26823628742E+03  0.33942577714E+03  0.00000000000E+00 0. -1.
          3    1    6    6  503    0 -0.48423598921E+03  0.31827788458E+03  0.15863447576E+04  0.16888679626E+04  0.00000000000E+00 0. -1.
         -3    1    6    6    0  503 -0.10666793092E+02  0.22791337041E+02  0.38861491411E+02  0.46297311301E+02  0.00000000000E+00 0.  1.
<mgrwt>
<rscale>  0 0.13737073E+04</rscale>
<asrwt>0</asrwt>
<pdfrwt beam="1">  1        2 0.54671209E+00 0.13737073E+04</pdfrwt>
<pdfrwt beam="2">  1       -1 0.20424104E-01 0.13737073E+04</pdfrwt>
<totfact> 0.16657293E+01</totfact>
</mgrwt>
</event>
<event>
12    7  0.1625631E-007  0.1239013E+04  0.7818608E-02  0.9079377E-01
         -1   -1    0    0    0  501 -0.00000000000E+00  0.00000000000E+00  0.41280327387E+03  0.41280327387E+03  0.00000000000E+00 0.  1.
          2   -1    0    0  501    0  0.00000000000E+00 -0.00000000000E+00 -0.92971276597E+03  0.92971276597E+03  0.00000000000E+00 0. -1.
         24    2    1    2    0    0  0.26776873524E+03 -0.21466680620E+02 -0.10136363106E+03  0.30018829986E+03  0.87621434138E+02 0.  0.
        254    2    1    2    0    0 -0.26776873524E+03  0.21466680620E+02 -0.41554586103E+03  0.10423277400E+04  0.91739186882E+03 0.  0.
         23    2    4    4    0    0  0.28960379400E+02  0.43048247568E+03 -0.22023396948E+03  0.49306173253E+03  0.91940226970E+02 0.  0.
         23    2    4    4    0    0 -0.29672911464E+03 -0.40901579506E+03 -0.19531189155E+03  0.54926600745E+03  0.90577722880E+02 0.  0.
          4    1    3    3  502    0  0.21726066962E+02 -0.23154909096E+02  0.49838546664E+01  0.32140482389E+02  0.00000000000E+00 0. -1.
         -3    1    3    3    0  502  0.24604266828E+03  0.16882284757E+01 -0.10634748573E+03  0.26804781747E+03  0.00000000000E+00 0.  1.
         13    1    5    5    0    0  0.37980052440E+02  0.19962534287E+03 -0.59923375181E+02  0.21185743507E+03  0.00000000000E+00 0.  1.
        -13    1    5    5    0    0 -0.90196730391E+01  0.23085713280E+03 -0.16031059430E+03  0.28120429746E+03  0.00000000000E+00 0. -1.
          2    1    6    6  503    0 -0.21360608438E+03 -0.25982977441E+03 -0.16913454994E+03  0.37649112465E+03  0.00000000000E+00 0. -1.
         -2    1    6    6    0  503 -0.83123030255E+02 -0.14918602064E+03 -0.26177341618E+02  0.17277488280E+03  0.00000000000E+00 0.  1.
<mgrwt>
<rscale>  0 0.12390133E+04</rscale>
<asrwt>0</asrwt>
<pdfrwt beam="1">  1        2 0.14303273E+00 0.12390133E+04</pdfrwt>
<pdfrwt beam="2">  1       -1 0.63508197E-01 0.12390133E+04</pdfrwt>
<totfact> 0.79091341E+01</totfact>
</mgrwt>
</event>
<event>
12    7  0.1625631E-007  0.4632021E+04  0.7818608E-02  0.7887923E-01
         -1   -1    0    0    0  501 -0.00000000000E+00  0.00000000000E+00  0.21472718491E+04  0.21472718491E+04  0.00000000000E+00 0.  1.
          2   -1    0    0  501    0  0.00000000000E+00 -0.00000000000E+00 -0.24980085970E+04  0.24980085970E+04  0.00000000000E+00 0. -1.
         24    2    1    2    0    0 -0.49371070245E+03 -0.35442182455E+03  0.19776427922E+04  0.20704383073E+04  0.79238143744E+02 0.  0.
        254    2    1    2    0    0  0.49371070245E+03  0.35442182455E+03 -0.23283795400E+04  0.25748421388E+04  0.91602165364E+03 0.  0.
         23    2    4    4    0    0  0.54772197572E+03  0.59704769082E+03 -0.19358818072E+04  0.21005319458E+04  0.90170814717E+02 0.  0.
         23    2    4    4    0    0 -0.54011273268E+02 -0.24262586626E+03 -0.39249773281E+03  0.47431019306E+03  0.95557105198E+02 0.  0.
          2    1    3    3  502    0 -0.27569234826E+03 -0.18479372540E+03  0.12062542711E+04  0.12510812757E+04  0.00000000000E+00 0. -1.
         -1    1    3    3    0  502 -0.21801835420E+03 -0.16962809916E+03  0.77138852106E+03  0.81935703159E+03  0.00000000000E+00 0.  1.
         13    1    5    5    0    0  0.17776353702E+03  0.19445850727E+03 -0.74256219774E+03  0.78791662227E+03  0.00000000000E+00 0. -1.
        -13    1    5    5    0    0  0.36995843870E+03  0.40258918355E+03 -0.11933196095E+04  0.13126153235E+04  0.00000000000E+00 0.  1.
          3    1    6    6  503    0 -0.34726101412E+00 -0.64949878904E+02 -0.40971165276E+02  0.76793513684E+02  0.00000000000E+00 0. -1.
         -3    1    6    6    0  503 -0.53664012254E+02 -0.17767598736E+03 -0.35152656754E+03  0.39751667937E+03  0.00000000000E+00 0.  1.
<mgrwt>
<rscale>  0 0.46320205E+04</rscale>
<asrwt>0</asrwt>
<pdfrwt beam="1">  1        2 0.38430902E+00 0.46320205E+04</pdfrwt>
<pdfrwt beam="2">  1       -1 0.33034952E+00 0.46320205E+04</pdfrwt>
<totfact> 0.62315056E-02</totfact>
</mgrwt>
</event>
<event>
12    7  0.1625631E-007  0.1701151E+04  0.7818608E-02  0.8760708E-01
         -1   -1    0    0    0  501 -0.00000000000E+00  0.00000000000E+00  0.64249224786E+03  0.64249224786E+03  0.00000000000E+00 0.  1.
          2   -1    0    0  501    0  0.00000000000E+00 -0.00000000000E+00 -0.11260504800E+04  0.11260504800E+04  0.00000000000E+00 0. -1.
         24    2    1    2    0    0  0.60885662771E+03 -0.43179095880E+02 -0.24342158684E+03  0.66198149180E+03  0.79966237399E+02 0.  0.
        254    2    1    2    0    0 -0.60885662771E+03  0.43179095880E+02 -0.24013664535E+03  0.11065612361E+04  0.89120218433E+03 0.  0.
         23    2    4    4    0    0  0.20866818112E+03 -0.92535109603E+02 -0.43724463187E+02  0.25048897819E+03  0.93422391279E+02 0.  0.
         23    2    4    4    0    0 -0.81752480883E+03  0.13571420548E+03 -0.19641218216E+03  0.85607225791E+03  0.86699520430E+02 0.  0.
          2    1    3    3  502    0  0.33758173421E+03 -0.54352335888E+02 -0.10801634605E+03  0.35858490585E+03  0.00000000000E+00 0. -1.
         -1    1    3    3    0  502  0.27127489350E+03  0.11173240008E+02 -0.13540524079E+03  0.30339658596E+03  0.00000000000E+00 0.  1.
         13    1    5    5    0    0  0.15958819173E+03 -0.23034479552E+02 -0.34650299674E+02  0.16492307739E+03  0.00000000000E+00 0.  1.
        -13    1    5    5    0    0  0.49079989382E+02 -0.69500630050E+02 -0.90741635124E+01  0.85565900794E+02  0.00000000000E+00 0. -1.
          4    1    6    6  503    0 -0.15103770356E+03  0.59060865824E+02 -0.45322473065E+02  0.16838853979E+03  0.00000000000E+00 0. -1.
         -4    1    6    6    0  503 -0.66648710527E+03  0.76653339658E+02 -0.15108970909E+03  0.68768371812E+03  0.00000000000E+00 0.  1.
<mgrwt>
<rscale>  0 0.17011510E+04</rscale>
<asrwt>0</asrwt>
<pdfrwt beam="1">  1        2 0.17323853E+00 0.17011510E+04</pdfrwt>
<pdfrwt beam="2">  1       -1 0.98844962E-01 0.17011510E+04</pdfrwt>
<totfact> 0.22304109E+01</totfact>
</mgrwt>
</event>
<event>
12    7  0.1625631E-007  0.1450440E+04  0.7818608E-02  0.8918096E-01
         -1   -1    0    0    0  501 -0.00000000000E+00  0.00000000000E+00  0.30940298713E+03  0.30940298713E+03  0.00000000000E+00 0.  1.
          2   -1    0    0  501    0  0.00000000000E+00 -0.00000000000E+00 -0.16998669292E+04  0.16998669292E+04  0.00000000000E+00 0. -1.
         24    2    1    2    0    0 -0.18256922785E+03  0.37496333838E+03 -0.67665092260E+03  0.79730354833E+03  0.62509591564E+02 0.  0.
        254    2    1    2    0    0  0.18256922785E+03 -0.37496333838E+03 -0.71381301947E+03  0.12119663680E+04  0.88623045666E+03 0.  0.
         23    2    4    4    0    0 -0.19942229625E+03 -0.15812556904E+03 -0.71516381810E+03  0.76445369744E+03  0.90317334952E+02 0.  0.
         23    2    4    4    0    0  0.38199152410E+03 -0.21683776933E+03  0.13507986289E+01  0.44751267056E+03  0.85613217216E+02 0.  0.
          2    1    3    3  502    0 -0.14409768974E+03  0.30526132583E+03 -0.49694890223E+03  0.60075521859E+03  0.00000000000E+00 0. -1.
         -1    1    3    3    0  502 -0.38471538104E+02  0.69702012544E+02 -0.17970202037E+03  0.19654832973E+03  0.00000000000E+00 0.  1.
         13    1    5    5    0    0 -0.32249543211E+02 -0.72288914412E+02 -0.16334323659E+03  0.18151234978E+03  0.00000000000E+00 0. -1.
        -13    1    5    5    0    0 -0.16717275304E+03 -0.85836654633E+02 -0.55182058151E+03  0.58294134766E+03  0.00000000000E+00 0.  1.
          4    1    6    6  503    0  0.17509172440E+03 -0.52931900522E+02  0.12291389525E+02  0.18333023837E+03  0.00000000000E+00 0. -1.
         -4    1    6    6    0  503  0.20689979970E+03 -0.16390586881E+03 -0.10940590896E+02  0.26418243218E+03  0.00000000000E+00 0.  1.
<mgrwt>
<rscale>  0 0.14504398E+04</rscale>
<asrwt>0</asrwt>
<pdfrwt beam="1">  1        2 0.26151798E+00 0.14504398E+04</pdfrwt>
<pdfrwt beam="2">  1       -1 0.47600462E-01 0.14504398E+04</pdfrwt>
<totfact> 0.47750040E+01</totfact>
</mgrwt>
</event>
<event>
12    7  0.1625631E-007  0.1729915E+04  0.7818608E-02  0.8744484E-01
         -1   -1    0    0    0  501 -0.00000000000E+00  0.00000000000E+00  0.14494285658E+04  0.14494285658E+04  0.00000000000E+00 0.  1.
          2   -1    0    0  501    0  0.00000000000E+00 -0.00000000000E+00 -0.51616977236E+03  0.51616977236E+03  0.00000000000E+00 0. -1.
         24    2    1    2    0    0  0.12167384804E+02 -0.35567260103E+03 -0.23315078558E+03  0.43890028038E+03  0.10781058818E+03 0.  0.
        254    2    1    2    0    0 -0.12167384804E+02  0.35567260103E+03  0.11664095790E+04  0.15266980578E+04  0.91850128428E+03 0.  0.
         23    2    4    4    0    0 -0.32640887459E+03  0.58611580874E+02  0.99485241776E+03  0.10525772075E+04  0.90605594367E+02 0.  0.
         23    2    4    4    0    0  0.31424148978E+03  0.29706102016E+03  0.17155716125E+03  0.47412085031E+03  0.91464515105E+02 0.  0.
          2    1    3    3  502    0 -0.24739045792E+02 -0.25804077862E+03 -0.20584657444E+03  0.33101340763E+03  0.00000000000E+00 0. -1.
         -1    1    3    3    0  502  0.36906430596E+02 -0.97631822410E+02 -0.27304211131E+02  0.10788687275E+03  0.00000000000E+00 0.  1.
         13    1    5    5    0    0 -0.16911051305E+03 -0.57775700408E+01  0.58222402758E+03  0.60631391559E+03  0.00000000000E+00 0.  1.
        -13    1    5    5    0    0 -0.15729836154E+03  0.64389150915E+02  0.41262839018E+03  0.44626329188E+03  0.00000000000E+00 0. -1.
          4    1    6    6  503    0  0.31076055452E+03  0.27929947736E+03  0.14558667820E+03  0.44246559320E+03  0.00000000000E+00 0.  1.
         -4    1    6    6    0  503  0.34809352656E+01  0.17761542798E+02  0.25970483045E+02  0.31655257106E+02  0.00000000000E+00 0. -1.
<mgrwt>
<rscale>  0 0.17299147E+04</rscale>
<asrwt>0</asrwt>
<pdfrwt beam="1">  1        2 0.79410735E-01 0.17299147E+04</pdfrwt>
<pdfrwt beam="2">  1       -1 0.22298901E+00 0.17299147E+04</pdfrwt>
<totfact> 0.67641443E+00</totfact>
</mgrwt>
</event>
<event>
12    7  0.1625631E-007  0.2146311E+04  0.7818608E-02  0.8541113E-01
          2   -1    0    0  501    0  0.00000000000E+00  0.00000000000E+00  0.86149755213E+03  0.86149755213E+03  0.00000000000E+00 0. -1.
         -1   -1    0    0    0  501 -0.00000000000E+00 -0.00000000000E+00 -0.13368144814E+04  0.13368144814E+04  0.00000000000E+00 0.  1.
         24    2    1    2    0    0  0.24721880285E+03 -0.35916921550E+03 -0.98270088194E+03  0.10780845200E+04  0.80284164990E+02 0.  0.
        254    2    1    2    0    0 -0.24721880285E+03  0.35916921550E+03  0.50738395266E+03  0.11202275135E+04  0.89852743127E+03 0.  0.
         23    2    4    4    0    0 -0.55435299664E+03  0.29416392860E+03  0.47304166526E+03  0.79138131130E+03  0.93146664135E+02 0.  0.
         23    2    4    4    0    0  0.30713419379E+03  0.65005286908E+02  0.34342287397E+02  0.32884620220E+03  0.91669687883E+02 0.  0.
          4    1    3    3  502    0  0.62756013622E+02 -0.79059126725E+02 -0.15451224441E+03  0.18456082043E+03  0.00000000000E+00 0. -1.
         -3    1    3    3    0  502  0.18446278922E+03 -0.28011008878E+03 -0.82818863753E+03  0.89352369962E+03  0.00000000000E+00 0.  1.
         13    1    5    5    0    0 -0.30369675909E+03  0.16538131271E+03  0.20251479034E+03  0.40074298544E+03  0.00000000000E+00 0. -1.
        -13    1    5    5    0    0 -0.25065623755E+03  0.12878261588E+03  0.27052687492E+03  0.39063832586E+03  0.00000000000E+00 0.  1.
          3    1    6    6  503    0  0.25161463737E+03  0.66670647743E+02  0.60827322770E+02  0.26731042667E+03  0.00000000000E+00 0. -1.
         -3    1    6    6    0  503  0.55519556417E+02 -0.16653608350E+01 -0.26485035373E+02  0.61535775531E+02  0.00000000000E+00 0.  1.
<mgrwt>
<rscale>  0 0.21463107E+04</rscale>
<asrwt>0</asrwt>
<pdfrwt beam="1">  1        2 0.13253809E+00 0.21463107E+04</pdfrwt>
<pdfrwt beam="2">  1       -1 0.20566376E+00 0.21463107E+04</pdfrwt>
<totfact> 0.44906153E+00</totfact>
</mgrwt>
</event>
<event>
12    7  0.1625631E-007  0.1364377E+04  0.7818608E-02  0.8980016E-01
         -1   -1    0    0    0  501 -0.00000000000E+00  0.00000000000E+00  0.32942219987E+03  0.32942219987E+03  0.00000000000E+00 0.  1.
          2   -1    0    0  501    0  0.00000000000E+00 -0.00000000000E+00 -0.14127191648E+04  0.14127191648E+04  0.00000000000E+00 0. -1.
         24    2    1    2    0    0  0.27077622121E+03 -0.19476468626E+02 -0.64742670079E+03  0.70684971561E+03  0.82317025995E+02 0.  0.
        254    2    1    2    0    0 -0.27077622121E+03  0.19476468626E+02 -0.43587026417E+03  0.10352916491E+04  0.89896986415E+03 0.  0.
         23    2    4    4    0    0 -0.42924310016E+03 -0.16397827185E+03  0.63548890914E+02  0.47299415309E+03  0.92447253353E+02 0.  0.
         23    2    4    4    0    0  0.15846687895E+03  0.18345474047E+03 -0.49941915508E+03  0.56229749598E+03  0.89395682233E+02 0.  0.
          2    1    3    3  502    0  0.19376581842E+03 -0.13074425300E+02 -0.35799414986E+03  0.40727870595E+03  0.00000000000E+00 0. -1.
         -1    1    3    3    0  502  0.77010402793E+02 -0.64020433265E+01 -0.28943255092E+03  0.29957100967E+03  0.00000000000E+00 0.  1.
         13    1    5    5    0    0 -0.30518034069E+03 -0.14592494196E+03  0.76934543574E+02  0.34691216904E+03  0.00000000000E+00 0. -1.
        -13    1    5    5    0    0 -0.12406275947E+03 -0.18053329887E+02 -0.13385652661E+02  0.12608198406E+03  0.00000000000E+00 0.  1.
          4    1    6    6  503    0  0.46143237009E+02  0.11687683456E+03 -0.28117714968E+03  0.30797724313E+03  0.00000000000E+00 0. -1.
         -4    1    6    6    0  503  0.11232364194E+03  0.66577905914E+02 -0.21824200540E+03  0.25432025286E+03  0.00000000000E+00 0.  1.
<mgrwt>
<rscale>  0 0.13643769E+04</rscale>
<asrwt>0</asrwt>
<pdfrwt beam="1">  1        2 0.21734141E+00 0.13643769E+04</pdfrwt>
<pdfrwt beam="2">  1       -1 0.50680339E-01 0.13643769E+04</pdfrwt>
<totfact> 0.61888728E+01</totfact>
</mgrwt>
</event>
<event>
12    7  0.1625631E-007  0.2078174E+04  0.7818608E-02  0.8570919E-01
         -1   -1    0    0    0  501 -0.00000000000E+00  0.00000000000E+00  0.20668283888E+04  0.20668283888E+04  0.00000000000E+00 0.  1.
          2   -1    0    0  501    0  0.00000000000E+00 -0.00000000000E+00 -0.52239526474E+03  0.52239526474E+03  0.00000000000E+00 0. -1.
         24    2    1    2    0    0 -0.17034162503E+03 -0.68422672412E+03  0.53635657846E+02  0.71154814254E+03  0.79003140081E+02 0.  0.
        254    2    1    2    0    0  0.17034162503E+03  0.68422672412E+03  0.14907974662E+04  0.18776755110E+04  0.89777823547E+03 0.  0.
         23    2    4    4    0    0 -0.24426996669E+03  0.63433613826E+03  0.70262995664E+03  0.98105150104E+03  0.81994138763E+02 0.  0.
         23    2    4    4    0    0  0.41461159171E+03  0.49890585865E+02  0.78816750956E+03  0.89662400994E+03  0.91294849484E+02 0.  0.
          4    1    3    3  502    0 -0.13312507242E+03 -0.56433887465E+03  0.73452394391E+02  0.58446206429E+03  0.00000000000E+00 0. -1.
         -3    1    3    3    0  502 -0.37216552614E+02 -0.11988784947E+03 -0.19816736545E+02  0.12708607825E+03  0.00000000000E+00 0.  1.
         13    1    5    5    0    0 -0.59995719399E+02  0.15446612699E+03  0.12330029090E+03  0.20654837804E+03  0.00000000000E+00 0. -1.
        -13    1    5    5    0    0 -0.18427424729E+03  0.47987001127E+03  0.57932966574E+03  0.77450312300E+03  0.00000000000E+00 0.  1.
          3    1    6    6  503    0  0.17844753700E+03  0.29817166573E+01  0.42428323586E+03  0.46029194901E+03  0.00000000000E+00 0. -1.
         -3    1    6    6    0  503  0.23616405472E+03  0.46908869208E+02  0.36388427370E+03  0.43633206093E+03  0.00000000000E+00 0.  1.
<mgrwt>
<rscale>  0 0.20781736E+04</rscale>
<asrwt>0</asrwt>
<pdfrwt beam="1">  1        2 0.80368503E-01 0.20781736E+04</pdfrwt>
<pdfrwt beam="2">  1       -1 0.31797359E+00 0.20781736E+04</pdfrwt>
<totfact> 0.15577193E+00</totfact>
</mgrwt>
</event>
<event>
12    7  0.1625631E-007  0.1186511E+04  0.7818608E-02  0.9124746E-01
          2   -1    0    0  501    0  0.00000000000E+00  0.00000000000E+00  0.13803065489E+04  0.13803065489E+04  0.00000000000E+00 0. -1.
         -1   -1    0    0    0  501 -0.00000000000E+00 -0.00000000000E+00 -0.25498103787E+03  0.25498103787E+03  0.00000000000E+00 0.  1.
         24    2    1    2    0    0  0.17331783733E+03  0.16027881584E+03  0.24657547780E+03  0.35032911272E+03  0.78756900801E+02 0.  0.
        254    2    1    2    0    0 -0.17331783733E+03 -0.16027881584E+03  0.87875003320E+03  0.12849584740E+04  0.90729724322E+03 0.  0.
         23    2    4    4    0    0  0.23505946165E+03 -0.38125782103E+03  0.50693354824E+03  0.68325259577E+03  0.96135376859E+02 0.  0.
         23    2    4    4    0    0 -0.40837729898E+03  0.22097900520E+03  0.37181648495E+03  0.60170587824E+03  0.90546818633E+02 0.  0.
          4    1    3    3  502    0  0.56895349160E+02  0.14174690788E+02  0.85416454282E+02  0.10360489022E+03  0.00000000000E+00 0. -1.
         -3    1    3    3    0  502  0.11642248817E+03  0.14610412505E+03  0.16115902352E+03  0.24672422250E+03  0.00000000000E+00 0.  1.
         13    1    5    5    0    0  0.50843291967E+02 -0.47671859639E+02  0.12858025356E+03  0.14625501066E+03  0.00000000000E+00 0.  1.
        -13    1    5    5    0    0  0.18421616968E+03 -0.33358596139E+03  0.37835329469E+03  0.53699758511E+03  0.00000000000E+00 0. -1.
          1    1    6    6  503    0 -0.67309920954E+02  0.26499751979E+02  0.10305643926E+03  0.12591065081E+03  0.00000000000E+00 0. -1.
         -1    1    6    6    0  503 -0.34106737803E+03  0.19447925322E+03  0.26876004569E+03  0.47579522744E+03  0.00000000000E+00 0.  1.
<mgrwt>
<rscale>  0 0.11865108E+04</rscale>
<asrwt>0</asrwt>
<pdfrwt beam="1">  1        2 0.21235485E+00 0.11865108E+04</pdfrwt>
<pdfrwt beam="2">  1       -1 0.39227853E-01 0.11865108E+04</pdfrwt>
<totfact> 0.10544900E+02</totfact>
</mgrwt>
</event>
<event>
12    7  0.1625631E-007  0.1513133E+04  0.7818608E-02  0.8875766E-01
         -1   -1    0    0    0  501 -0.00000000000E+00  0.00000000000E+00  0.39584095848E+03  0.39584095848E+03  0.00000000000E+00 0.  1.
          2   -1    0    0  501    0  0.00000000000E+00 -0.00000000000E+00 -0.14460170520E+04  0.14460170520E+04  0.00000000000E+00 0. -1.
         24    2    1    2    0    0  0.33384828397E+03  0.18396555467E+03  0.22456052671E+02  0.38999398053E+03  0.79328611075E+02 0.  0.
        254    2    1    2    0    0 -0.33384828397E+03 -0.18396555467E+03 -0.10726321462E+04  0.14518640299E+04  0.90115006430E+03 0.  0.
         23    2    4    4    0    0 -0.22969880841E+03  0.38571744211E+02  0.84784587432E+02  0.26519335854E+03  0.94285572122E+02 0.  0.
         23    2    4    4    0    0 -0.10414947556E+03 -0.22253729888E+03 -0.11574167336E+04  0.11866706714E+04  0.90574965905E+02 0.  0.
          4    1    3    3  502    0  0.58472580735E+02  0.14649193766E+01  0.10435593852E+02  0.59414563077E+02  0.00000000000E+00 0. -1.
         -3    1    3    3    0  502  0.27537570323E+03  0.18250063530E+03  0.12020458819E+02  0.33057941745E+03  0.00000000000E+00 0.  1.
         13    1    5    5    0    0 -0.14230045021E+03  0.50615242940E+01  0.94792507226E+02  0.17105746573E+03  0.00000000000E+00 0. -1.
        -13    1    5    5    0    0 -0.87398358200E+02  0.33510219917E+02 -0.10007919794E+02  0.94135892801E+02  0.00000000000E+00 0.  1.
          2    1    6    6  503    0 -0.63087128652E+00 -0.74240000316E+02 -0.22676918830E+03  0.23861316059E+03  0.00000000000E+00 0. -1.
         -2    1    6    6    0  503 -0.10351860427E+03 -0.14829729857E+03 -0.93064754532E+03  0.94805751081E+03  0.00000000000E+00 0.  1.
<mgrwt>
<rscale>  0 0.15131329E+04</rscale>
<asrwt>0</asrwt>
<pdfrwt beam="1">  1        2 0.22246416E+00 0.15131329E+04</pdfrwt>
<pdfrwt beam="2">  1       -1 0.60898608E-01 0.15131329E+04</pdfrwt>
<totfact> 0.40970873E+01</totfact>
</mgrwt>
</event>
<event>
12    7  0.1625631E-007  0.2134660E+04  0.7818608E-02  0.8546127E-01
         -1   -1    0    0    0  501 -0.00000000000E+00  0.00000000000E+00  0.64416647080E+03  0.64416647080E+03  0.00000000000E+00 0.  1.
          2   -1    0    0  501    0  0.00000000000E+00 -0.00000000000E+00 -0.17684767665E+04  0.17684767665E+04  0.00000000000E+00 0. -1.
         24    2    1    2    0    0  0.30325075371E+03 -0.52101591235E+03  0.24272073208E+03  0.65460534819E+03  0.78588851284E+02 0.  0.
        254    2    1    2    0    0 -0.30325075371E+03  0.52101591235E+03 -0.13670310277E+04  0.17580378891E+04  0.92655533459E+03 0.  0.
         23    2    4    4    0    0 -0.17383707576E+03  0.75606356465E+03 -0.76763550124E+03  0.10951923432E+04  0.91271918612E+02 0.  0.
         23    2    4    4    0    0 -0.12941367795E+03 -0.23504765230E+03 -0.59939552649E+03  0.66284554587E+03  0.89966224853E+02 0.  0.
          2    1    3    3  502    0  0.10694311678E+02 -0.57201645144E+02  0.10705131216E+02  0.59169217874E+02  0.00000000000E+00 0. -1.
         -1    1    3    3    0  502  0.29255644204E+03 -0.46381426721E+03  0.23201560086E+03  0.59543613032E+03  0.00000000000E+00 0.  1.
         13    1    5    5    0    0 -0.11550205320E+03  0.46739688649E+03 -0.41392445711E+03  0.63492836603E+03  0.00000000000E+00 0.  1.
        -13    1    5    5    0    0 -0.58335022563E+02  0.28866667816E+03 -0.35371104413E+03  0.46026397717E+03  0.00000000000E+00 0. -1.
          4    1    6    6  503    0 -0.87384827579E+02 -0.18878078433E+03 -0.36356546290E+03  0.41887246082E+03  0.00000000000E+00 0. -1.
         -4    1    6    6    0  503 -0.42028850373E+02 -0.46266867971E+02 -0.23583006359E+03  0.24397308505E+03  0.00000000000E+00 0.  1.
<mgrwt>
<rscale>  0 0.21346601E+04</rscale>
<asrwt>0</asrwt>
<pdfrwt beam="1">  1        2 0.27207335E+00 0.21346601E+04</pdfrwt>
<pdfrwt beam="2">  1       -1 0.99102534E-01 0.21346601E+04</pdfrwt>
<totfact> 0.91461041E+00</totfact>
</mgrwt>
</event>
<event>
12    7  0.1625631E-007  0.2693900E+04  0.7818608E-02  0.8336987E-01
          2   -1    0    0  501    0  0.00000000000E+00  0.00000000000E+00  0.20721177468E+04  0.20721177468E+04  0.00000000000E+00 0. -1.
         -1   -1    0    0    0  501 -0.00000000000E+00 -0.00000000000E+00 -0.87556519031E+03  0.87556519031E+03  0.00000000000E+00 0.  1.
         24    2    1    2    0    0 -0.36630396680E+03  0.86282508681E+03 -0.28420011394E+03  0.98274515668E+03  0.79828639498E+02 0.  0.
        254    2    1    2    0    0  0.36630396680E+03 -0.86282508681E+03  0.14807526704E+04  0.19649377804E+04  0.88865419790E+03 0.  0.
         23    2    4    4    0    0  0.18165634385E+03  0.14356828257E+03  0.41966959076E+03  0.48823077413E+03  0.92929243956E+02 0.  0.
         23    2    4    4    0    0  0.18464762295E+03 -0.10063933694E+04  0.10610830797E+04  0.14767070063E+04  0.88565918220E+02 0.  0.
          4    1    3    3  502    0 -0.26240811712E+03  0.55484923758E+03 -0.15549785908E+03  0.63316291786E+03  0.00000000000E+00 0. -1.
         -3    1    3    3    0  502 -0.10389584968E+03  0.30797584923E+03 -0.12870225486E+03  0.34958223881E+03  0.00000000000E+00 0.  1.
         13    1    5    5    0    0  0.18714994796E+03  0.14809713066E+03  0.41730262163E+03  0.48072792841E+03  0.00000000000E+00 0. -1.
        -13    1    5    5    0    0 -0.54936041091E+01 -0.45288480904E+01  0.23669691278E+01  0.75028457258E+01  0.00000000000E+00 0.  1.
          4    1    6    6  503    0  0.97321539273E+02 -0.61821469592E+03  0.59016265753E+03  0.86020512356E+03  0.00000000000E+00 0. -1.
         -4    1    6    6    0  503  0.87326083681E+02 -0.38817867347E+03  0.47092042215E+03  0.61650188274E+03  0.00000000000E+00 0.  1.
<mgrwt>
<rscale>  0 0.26938999E+04</rscale>
<asrwt>0</asrwt>
<pdfrwt beam="1">  1        2 0.31878734E+00 0.26938999E+04</pdfrwt>
<pdfrwt beam="2">  1       -1 0.13470234E+00 0.26938999E+04</pdfrwt>
<totfact> 0.28170208E+00</totfact>
</mgrwt>
</event>
<event>
12    7  0.1625631E-007  0.2186726E+04  0.7818608E-02  0.8523974E-01
         -1   -1    0    0    0  501 -0.00000000000E+00  0.00000000000E+00  0.80895586859E+03  0.80895586859E+03  0.00000000000E+00 0.  1.
          2   -1    0    0  501    0  0.00000000000E+00 -0.00000000000E+00 -0.14777597165E+04  0.14777597165E+04  0.00000000000E+00 0. -1.
         24    2    1    2    0    0 -0.48326607134E+03  0.40144033942E+03 -0.95909361143E+03  0.11493032344E+04  0.79604819098E+02 0.  0.
        254    2    1    2    0    0  0.48326607134E+03 -0.40144033942E+03  0.29028976356E+03  0.11374123507E+04  0.90262853201E+03 0.  0.
         23    2    4    4    0    0  0.41046140624E+03 -0.52031069821E+03  0.52415465610E+03  0.84998975422E+03  0.92426674044E+02 0.  0.
         23    2    4    4    0    0  0.72804665098E+02  0.11887035879E+03 -0.23386489254E+03  0.28742259645E+03  0.92131859463E+02 0.  0.
          4    1    3    3  502    0 -0.19094521342E+03  0.16419442256E+03 -0.45629035793E+03  0.52117249895E+03  0.00000000000E+00 0. -1.
         -3    1    3    3    0  502 -0.29232085792E+03  0.23724591686E+03 -0.50280325350E+03  0.62813073542E+03  0.00000000000E+00 0.  1.
         13    1    5    5    0    0  0.19550424178E+03 -0.20523417005E+03  0.17652819905E+03  0.33392391075E+03  0.00000000000E+00 0.  1.
        -13    1    5    5    0    0  0.21495716446E+03 -0.31507652816E+03  0.34762645705E+03  0.51606584347E+03  0.00000000000E+00 0. -1.
          3    1    6    6  503    0  0.94111726707E+02  0.83603216464E+02 -0.17691220917E+03  0.21712771509E+03  0.00000000000E+00 0. -1.
         -3    1    6    6    0  503 -0.21307061609E+02  0.35267142326E+02 -0.56952683366E+02  0.70294881356E+02  0.00000000000E+00 0.  1.
<mgrwt>
<rscale>  0 0.21867258E+04</rscale>
<asrwt>0</asrwt>
<pdfrwt beam="1">  1        2 0.22734765E+00 0.21867258E+04</pdfrwt>
<pdfrwt beam="2">  1       -1 0.12445475E+00 0.21867258E+04</pdfrwt>
<totfact> 0.77072181E+00</totfact>
</mgrwt>
</event>
<event>
12    7  0.1625631E-007  0.1281637E+04  0.7818608E-02  0.9044256E-01
          2   -1    0    0  501    0  0.00000000000E+00  0.00000000000E+00  0.19219334359E+03  0.19219334359E+03  0.00000000000E+00 0. -1.
         -1   -1    0    0    0  501 -0.00000000000E+00 -0.00000000000E+00 -0.21366408273E+04  0.21366408273E+04  0.00000000000E+00 0.  1.
         24    2    1    2    0    0 -0.21549518664E+03 -0.17616638683E+03 -0.19888940876E+03  0.35020968833E+03  0.74947031733E+02 0.  0.
        254    2    1    2    0    0  0.21549518664E+03  0.17616638683E+03 -0.17455580749E+04  0.19786244825E+04  0.88910577473E+03 0.  0.
         23    2    4    4    0    0 -0.27349102032E+03  0.14654625218E+03 -0.27297490904E+03  0.42409939272E+03  0.95246268784E+02 0.  0.
         23    2    4    4    0    0  0.48898620695E+03  0.29620134648E+02 -0.14725831659E+04  0.15545250898E+04  0.89789818228E+02 0.  0.
          4    1    3    3  502    0 -0.15004062736E+03 -0.13888057195E+03 -0.10500187100E+03  0.22983776025E+03  0.00000000000E+00 0. -1.
         -3    1    3    3    0  502 -0.65454559278E+02 -0.37285814887E+02 -0.93887537761E+02  0.12037192808E+03  0.00000000000E+00 0.  1.
         13    1    5    5    0    0 -0.25538286236E+03  0.10167463905E+03 -0.24494414687E+03  0.36817899682E+03  0.00000000000E+00 0. -1.
        -13    1    5    5    0    0 -0.18108157958E+02  0.44871613135E+02 -0.28030762165E+02  0.55920395899E+02  0.00000000000E+00 0.  1.
          1    1    6    6  503    0  0.47166053730E+03  0.43241051236E+02 -0.13688422312E+04  0.14484690210E+04  0.00000000000E+00 0. -1.
         -1    1    6    6    0  503  0.17325669653E+02 -0.13620916588E+02 -0.10374093474E+03  0.10605606884E+03  0.00000000000E+00 0.  1.
<mgrwt>
<rscale>  0 0.12816367E+04</rscale>
<asrwt>0</asrwt>
<pdfrwt beam="1">  1        2 0.29568206E-01 0.12816367E+04</pdfrwt>
<pdfrwt beam="2">  1       -1 0.32871398E+00 0.12816367E+04</pdfrwt>
<totfact> 0.44073589E+00</totfact>
</mgrwt>
</event>
<event>
12    7  0.1625631E-007  0.1261481E+04  0.7818608E-02  0.9060682E-01
          2   -1    0    0  501    0  0.00000000000E+00  0.00000000000E+00  0.61282714315E+03  0.61282714315E+03  0.00000000000E+00 0. -1.
         -1   -1    0    0    0  501 -0.00000000000E+00 -0.00000000000E+00 -0.64917730677E+03  0.64917730677E+03  0.00000000000E+00 0.  1.
         24    2    1    2    0    0 -0.24856231246E+02  0.28654039515E+03  0.83191347937E+02  0.30975705144E+03  0.79406550491E+02 0.  0.
        254    2    1    2    0    0  0.24856231246E+02 -0.28654039515E+03 -0.11954151156E+03  0.95224739848E+03  0.89986760395E+03 0.  0.
         23    2    4    4    0    0 -0.34863170412E+03 -0.32552264901E+03  0.11694031597E+03  0.49967942204E+03  0.92170641570E+02 0.  0.
         23    2    4    4    0    0  0.37348793537E+03  0.38982253865E+02 -0.23648182753E+03  0.45256797644E+03  0.88776486556E+02 0.  0.
          2    1    3    3  502    0  0.79187824845E+01 -0.13087397257E+01 -0.93578108752E+00  0.80805694075E+01  0.00000000000E+00 0. -1.
         -1    1    3    3    0  502 -0.32775013730E+02  0.28784913488E+03  0.84127129024E+02  0.30167648203E+03  0.00000000000E+00 0.  1.
         13    1    5    5    0    0 -0.13222410110E+03 -0.90901812708E+02  0.21215320886E+01  0.16047072432E+03  0.00000000000E+00 0. -1.
        -13    1    5    5    0    0 -0.21640760302E+03 -0.23462083631E+03  0.11481878388E+03  0.33920869772E+03  0.00000000000E+00 0.  1.
          1    1    6    6  503    0  0.16566375920E+03  0.58905447766E+02 -0.89926047046E+02  0.19748677633E+03  0.00000000000E+00 0. -1.
         -1    1    6    6    0  503  0.20782417617E+03 -0.19923193901E+02 -0.14655578049E+03  0.25508120011E+03  0.00000000000E+00 0.  1.
<mgrwt>
<rscale>  0 0.12614808E+04</rscale>
<asrwt>0</asrwt>
<pdfrwt beam="1">  1        2 0.94281099E-01 0.12614808E+04</pdfrwt>
<pdfrwt beam="2">  1       -1 0.99873431E-01 0.12614808E+04</pdfrwt>
<totfact> 0.51917327E+01</totfact>
</mgrwt>
</event>
<event>
12    7  0.1625631E-007  0.1823793E+04  0.7818608E-02  0.8693748E-01
         -1   -1    0    0    0  501 -0.00000000000E+00  0.00000000000E+00  0.74111899604E+03  0.74111899604E+03  0.00000000000E+00 0.  1.
          2   -1    0    0  501    0  0.00000000000E+00 -0.00000000000E+00 -0.11220265421E+04  0.11220265421E+04  0.00000000000E+00 0. -1.
         24    2    1    2    0    0 -0.15877480879E+03 -0.38157166673E+03 -0.70917416465E+03  0.82251157417E+03  0.52829131022E+02 0.  0.
        254    2    1    2    0    0  0.15877480879E+03  0.38157166673E+03  0.32826661861E+03  0.10406339639E+04  0.89685767949E+03 0.  0.
         23    2    4    4    0    0 -0.20561703461E+03  0.76003018969E+02 -0.20973651862E+03  0.31679003495E+03  0.91168498891E+02 0.  0.
         23    2    4    4    0    0  0.36439184340E+03  0.30556864776E+03  0.53800313723E+03  0.72384392899E+03  0.91373102366E+02 0.  0.
          4    1    3    3  502    0 -0.11025362575E+03 -0.31459159941E+03 -0.58506626653E+03  0.67336934341E+03  0.00000000000E+00 0. -1.
         -3    1    3    3    0  502 -0.48521183041E+02 -0.66980067319E+02 -0.12410789811E+03  0.14914223076E+03  0.00000000000E+00 0.  1.
         13    1    5    5    0    0 -0.64016619843E+02  0.66646574704E+02 -0.10822457296E+03  0.14231110894E+03  0.00000000000E+00 0. -1.
        -13    1    5    5    0    0 -0.14160041476E+03  0.93564442656E+01 -0.10151194566E+03  0.17447892601E+03  0.00000000000E+00 0.  1.
          2    1    6    6  503    0  0.87008203658E+02  0.49809472730E+02  0.16643946760E+03  0.19430261824E+03  0.00000000000E+00 0. -1.
         -2    1    6    6    0  503  0.27738363974E+03  0.25575917503E+03  0.37156366963E+03  0.52954131075E+03  0.00000000000E+00 0.  1.
<mgrwt>
<rscale>  0 0.18237930E+04</rscale>
<asrwt>0</asrwt>
<pdfrwt beam="1">  1        2 0.17261947E+00 0.18237930E+04</pdfrwt>
<pdfrwt beam="2">  1       -1 0.11401831E+00 0.18237930E+04</pdfrwt>
<totfact> 0.15902018E+01</totfact>
</mgrwt>
</event>
<event>
12    7  0.1625631E-007  0.1689010E+04  0.7818608E-02  0.8767657E-01
         -1   -1    0    0    0  501 -0.00000000000E+00  0.00000000000E+00  0.63976913872E+03  0.63976913872E+03  0.00000000000E+00 0.  1.
          2   -1    0    0  501    0  0.00000000000E+00 -0.00000000000E+00 -0.11147601028E+04  0.11147601028E+04  0.00000000000E+00 0. -1.
         24    2    1    2    0    0 -0.12131331461E+03 -0.39524408292E+03  0.28967225279E+03  0.51113566452E+03  0.80092747004E+02 0.  0.
        254    2    1    2    0    0  0.12131331461E+03  0.39524408292E+03 -0.76466321690E+03  0.12433935770E+04  0.88903483999E+03 0.  0.
         23    2    4    4    0    0  0.10627272405E+03 -0.72471244157E+00  0.17166500692E+03  0.22273354096E+03  0.94058165960E+02 0.  0.
         23    2    4    4    0    0  0.15040590568E+02  0.39596879536E+03 -0.93632822382E+03  0.10206600361E+04  0.89548088970E+02 0.  0.
          2    1    3    3  502    0 -0.51957469165E+02 -0.88191316847E+02  0.42192535299E+02  0.11071358094E+03  0.00000000000E+00 0. -1.
         -1    1    3    3    0  502 -0.69355845450E+02 -0.30705276608E+03  0.24747971749E+03  0.40042208359E+03  0.00000000000E+00 0.  1.
         13    1    5    5    0    0  0.26558729897E+02  0.43166049166E+02  0.55287262014E+02  0.75002368465E+02  0.00000000000E+00 0.  1.
        -13    1    5    5    0    0  0.79713994149E+02 -0.43890761607E+02  0.11637774490E+03  0.14773117249E+03  0.00000000000E+00 0. -1.
          1    1    6    6  503    0 -0.26063033766E+02  0.24140125506E+03 -0.49736685961E+03  0.55346873509E+03  0.00000000000E+00 0. -1.
         -1    1    6    6    0  503  0.41103624334E+02  0.15456754030E+03 -0.43896136420E+03  0.46719130098E+03  0.00000000000E+00 0.  1.
<mgrwt>
<rscale>  0 0.16890105E+04</rscale>
<asrwt>0</asrwt>
<pdfrwt beam="1">  1        2 0.17150155E+00 0.16890105E+04</pdfrwt>
<pdfrwt beam="2">  1       -1 0.98426021E-01 0.16890105E+04</pdfrwt>
<totfact> 0.22905662E+01</totfact>
</mgrwt>
</event>
<event>
12    7  0.1625631E-007  0.1897791E+04  0.7818608E-02  0.8655957E-01
         -1   -1    0    0    0  501 -0.00000000000E+00  0.00000000000E+00  0.46302194272E+03  0.46302194272E+03  0.00000000000E+00 0.  1.
          2   -1    0    0  501    0  0.00000000000E+00 -0.00000000000E+00 -0.19446214294E+04  0.19446214294E+04  0.00000000000E+00 0. -1.
         24    2    1    2    0    0  0.51709903494E+03  0.46758175622E+03 -0.85859189514E+03  0.11088744809E+04  0.79990382575E+02 0.  0.
        254    2    1    2    0    0 -0.51709903494E+03 -0.46758175622E+03 -0.62300759153E+03  0.12987688912E+04  0.90146439918E+03 0.  0.
         23    2    4    4    0    0  0.11308847241E+03 -0.45163050063E+03 -0.12897454979E+03  0.49168291805E+03  0.91425082556E+02 0.  0.
         23    2    4    4    0    0 -0.63018750735E+03 -0.15951255585E+02 -0.49403304174E+03  0.80708597316E+03  0.99641280426E+02 0.  0.
          4    1    3    3  502    0  0.32428612399E+03  0.25554289258E+03 -0.46256543330E+03  0.62002454810E+03  0.00000000000E+00 0. -1.
         -3    1    3    3    0  502  0.19281291096E+03  0.21203886364E+03 -0.39602646184E+03  0.48884993280E+03  0.00000000000E+00 0.  1.
         13    1    5    5    0    0  0.72144316796E+02 -0.14087225526E+03 -0.68498057682E+02  0.17245804897E+03  0.00000000000E+00 0. -1.
        -13    1    5    5    0    0  0.40944155613E+02 -0.31075824537E+03 -0.60476492111E+02  0.31922486908E+03  0.00000000000E+00 0.  1.
          4    1    6    6  503    0 -0.26622200154E+03 -0.52665958669E+02 -0.23309857500E+03  0.35774684202E+03  0.00000000000E+00 0. -1.
         -4    1    6    6    0  503 -0.36396550581E+03  0.36714703084E+02 -0.26093446674E+03  0.44933913114E+03  0.00000000000E+00 0.  1.
<mgrwt>
<rscale>  0 0.18977907E+04</rscale>
<asrwt>0</asrwt>
<pdfrwt beam="1">  1        2 0.29917253E+00 0.18977907E+04</pdfrwt>
<pdfrwt beam="2">  1       -1 0.71234145E-01 0.18977907E+04</pdfrwt>
<totfact> 0.15225468E+01</totfact>
</mgrwt>
</event>
<event>
12    7  0.1625631E-007  0.1783529E+04  0.7818608E-02  0.8715108E-01
         -1   -1    0    0    0  501 -0.00000000000E+00  0.00000000000E+00  0.30040467883E+03  0.30040467883E+03  0.00000000000E+00 0.  1.
          2   -1    0    0  501    0  0.00000000000E+00 -0.00000000000E+00 -0.26472422792E+04  0.26472422792E+04  0.00000000000E+00 0. -1.
         24    2    1    2    0    0  0.35202793174E+03 -0.33339665482E+03 -0.16201128691E+04  0.16921524315E+04  0.59473932261E+02 0.  0.
        254    2    1    2    0    0 -0.35202793174E+03  0.33339665482E+03 -0.72672473127E+03  0.12554945265E+04  0.90169877285E+03 0.  0.
         23    2    4    4    0    0  0.14739410699E+03  0.44419442263E+03 -0.20357431852E+03  0.51805134141E+03  0.88887464238E+02 0.  0.
         23    2    4    4    0    0 -0.49942203873E+03 -0.11079776781E+03 -0.52315041275E+03  0.73744318513E+03  0.91856294377E+02 0.  0.
          4    1    3    3  502    0  0.97746861465E+01 -0.40772107882E+01 -0.73306140812E+02  0.74067256043E+02  0.00000000000E+00 0. -1.
         -3    1    3    3    0  502  0.34225324559E+03 -0.32931944404E+03 -0.15468067283E+04  0.16180851755E+04  0.00000000000E+00 0.  1.
         13    1    5    5    0    0  0.76534589972E+02  0.20499566824E+03 -0.47923378444E+02  0.22400316440E+03  0.00000000000E+00 0.  1.
        -13    1    5    5    0    0  0.70859517023E+02  0.23919875439E+03 -0.15565094007E+03  0.29404817701E+03  0.00000000000E+00 0. -1.
          3    1    6    6  503    0 -0.82608604704E+02 -0.22359464370E+02 -0.43959616750E+02  0.96211096672E+02  0.00000000000E+00 0. -1.
         -3    1    6    6    0  503 -0.41681343403E+03 -0.88438303439E+02 -0.47919079600E+03  0.64123208846E+03  0.00000000000E+00 0.  1.
<mgrwt>
<rscale>  0 0.17835290E+04</rscale>
<asrwt>0</asrwt>
<pdfrwt beam="1">  1        2 0.40726803E+00 0.17835290E+04</pdfrwt>
<pdfrwt beam="2">  1       -1 0.46216106E-01 0.17835290E+04</pdfrwt>
<totfact> 0.14338275E+01</totfact>
</mgrwt>
</event>
<event>
12    7  0.1625631E-007  0.2309918E+04  0.7818608E-02  0.8474021E-01
          2   -1    0    0  501    0  0.00000000000E+00  0.00000000000E+00  0.90126150959E+03  0.90126150959E+03  0.00000000000E+00 0. -1.
         -1   -1    0    0    0  501 -0.00000000000E+00 -0.00000000000E+00 -0.14800704653E+04  0.14800704653E+04  0.00000000000E+00 0.  1.
         24    2    1    2    0    0  0.52826528274E+03 -0.74997657121E+03 -0.59698016408E+03  0.10972137971E+04  0.77225215071E+02 0.  0.
        254    2    1    2    0    0 -0.52826528274E+03  0.74997657121E+03  0.18171208403E+02  0.12841181778E+04  0.89838757527E+03 0.  0.
         23    2    4    4    0    0 -0.11466216292E+03  0.30157721957E+03  0.42813254712E+03  0.54329974244E+03  0.88209417076E+02 0.  0.
         23    2    4    4    0    0 -0.41360311982E+03  0.44839935164E+03 -0.40996133872E+03  0.74081843536E+03  0.92812367914E+02 0.  0.
          4    1    3    3  502    0  0.96392939837E+02 -0.10591487417E+03 -0.68129303379E+02  0.15859117693E+03  0.00000000000E+00 0. -1.
         -3    1    3    3    0  502  0.43187234290E+03 -0.64406169704E+03 -0.52885086070E+03  0.93862262013E+03  0.00000000000E+00 0.  1.
         13    1    5    5    0    0 -0.95901897985E+02  0.19357967699E+03  0.33916735383E+03  0.40212530296E+03  0.00000000000E+00 0. -1.
        -13    1    5    5    0    0 -0.18760264933E+02  0.10799754258E+03  0.88965193296E+02  0.14117443948E+03  0.00000000000E+00 0.  1.
          3    1    6    6  503    0 -0.28593622380E+03  0.33052656771E+03 -0.33907829202E+03  0.55315587691E+03  0.00000000000E+00 0. -1.
         -3    1    6    6    0  503 -0.12766689603E+03  0.11787278393E+03 -0.70883046700E+02  0.18766255844E+03  0.00000000000E+00 0.  1.
<mgrwt>
<rscale>  0 0.23099182E+04</rscale>
<asrwt>0</asrwt>
<pdfrwt beam="1">  1        2 0.13865562E+00 0.23099182E+04</pdfrwt>
<pdfrwt beam="2">  1       -1 0.22770315E+00 0.23099182E+04</pdfrwt>
<totfact> 0.29558489E+00</totfact>
</mgrwt>
</event>
<event>
12    7  0.1625631E-007  0.2339350E+04  0.7818608E-02  0.8462565E-01
         -1   -1    0    0    0  501 -0.00000000000E+00  0.00000000000E+00  0.16310075701E+04  0.16310075701E+04  0.00000000000E+00 0.  1.
          2   -1    0    0  501    0  0.00000000000E+00 -0.00000000000E+00 -0.83883125109E+03  0.83883125109E+03  0.00000000000E+00 0. -1.
         24    2    1    2    0    0 -0.40274319348E+03 -0.86533344923E+03  0.63748381211E+03  0.11505156983E+04  0.79351768561E+02 0.  0.
        254    2    1    2    0    0  0.40274319348E+03  0.86533344923E+03  0.15469250694E+03  0.13193231229E+04  0.89759660910E+03 0.  0.
         23    2    4    4    0    0  0.43227125461E+03  0.55175076519E+03 -0.29222874925E+03  0.76490809167E+03  0.91648253445E+02 0.  0.
         23    2    4    4    0    0 -0.29528061137E+02  0.31358268404E+03  0.44692125620E+03  0.55441503123E+03  0.91822717719E+02 0.  0.
          4    1    3    3  502    0 -0.22767529761E+03 -0.47762823261E+03  0.30612514933E+03  0.61129156446E+03  0.00000000000E+00 0. -1.
         -3    1    3    3    0  502 -0.17506789587E+03 -0.38770521662E+03  0.33135866278E+03  0.53922413388E+03  0.00000000000E+00 0.  1.
         13    1    5    5    0    0  0.18268411678E+03  0.16837579306E+03 -0.83720836815E+02  0.26216993102E+03  0.00000000000E+00 0. -1.
        -13    1    5    5    0    0  0.24958713783E+03  0.38337497213E+03 -0.20850791244E+03  0.50273816065E+03  0.00000000000E+00 0.  1.
          3    1    6    6  503    0 -0.13815353670E+02  0.15241471713E+03  0.14009535437E+03  0.20747968168E+03  0.00000000000E+00 0. -1.
         -3    1    6    6    0  503 -0.15712707467E+02  0.16116796691E+03  0.30682590183E+03  0.34693534955E+03  0.00000000000E+00 0.  1.
<mgrwt>
<rscale>  0 0.23393504E+04</rscale>
<asrwt>0</asrwt>
<pdfrwt beam="1">  1        2 0.12905096E+00 0.23393504E+04</pdfrwt>
<pdfrwt beam="2">  1       -1 0.25092424E+00 0.23393504E+04</pdfrwt>
<totfact> 0.22903710E+00</totfact>
</mgrwt>
</event>
<event>
12    7  0.1625631E-007  0.2794925E+04  0.7818608E-02  0.8304846E-01
         -1   -1    0    0    0  501 -0.00000000000E+00  0.00000000000E+00  0.94558942149E+03  0.94558942149E+03  0.00000000000E+00 0.  1.
          2   -1    0    0  501    0  0.00000000000E+00 -0.00000000000E+00 -0.20652738061E+04  0.20652738061E+04  0.00000000000E+00 0. -1.
         24    2    1    2    0    0  0.76900413014E+03 -0.78433901553E+03 -0.11465619923E+04  0.15898149661E+04  0.79700569097E+02 0.  0.
        254    2    1    2    0    0 -0.76900413014E+03  0.78433901553E+03  0.26877607645E+02  0.14210482615E+04  0.90116630674E+03 0.  0.
         23    2    4    4    0    0 -0.63004019944E+02  0.58186571591E+03 -0.23289611724E+03  0.63665854443E+03  0.92500177800E+02 0.  0.
         23    2    4    4    0    0 -0.70600011020E+03  0.20247329962E+03  0.25977372489E+03  0.78438971712E+03  0.91396102321E+02 0.  0.
          2    1    3    3  502    0  0.67176634232E+03 -0.64422476757E+03 -0.96543603090E+03  0.13410303127E+04  0.00000000000E+00 0. -1.
         -1    1    3    3    0  502  0.97237787825E+02 -0.14011424796E+03 -0.18112596137E+03  0.24878465335E+03  0.00000000000E+00 0.  1.
         13    1    5    5    0    0  0.29005065498E+01  0.37782131407E+03 -0.13922119601E+03  0.40266599027E+03  0.00000000000E+00 0. -1.
        -13    1    5    5    0    0 -0.65904526494E+02  0.20404440184E+03 -0.93674921237E+02  0.23399255416E+03  0.00000000000E+00 0.  1.
          2    1    6    6  503    0 -0.24330466536E+03  0.51024450794E+02  0.46663196653E+02  0.25293894261E+03  0.00000000000E+00 0. -1.
         -2    1    6    6    0  503 -0.46269544484E+03  0.15144884883E+03  0.21311052823E+03  0.53145077451E+03  0.00000000000E+00 0.  1.
<mgrwt>
<rscale>  0 0.27949247E+04</rscale>
<asrwt>0</asrwt>
<pdfrwt beam="1">  1        2 0.31773443E+00 0.27949247E+04</pdfrwt>
<pdfrwt beam="2">  1       -1 0.14547529E+00 0.27949247E+04</pdfrwt>
<totfact> 0.23044029E+00</totfact>
</mgrwt>
</event>
<event>
12    7  0.1625631E-007  0.2164529E+04  0.7818608E-02  0.8533339E-01
         -1   -1    0    0    0  501 -0.00000000000E+00  0.00000000000E+00  0.10988082904E+04  0.10988082904E+04  0.00000000000E+00 0.  1.
          2   -1    0    0  501    0  0.00000000000E+00 -0.00000000000E+00 -0.10659699517E+04  0.10659699517E+04  0.00000000000E+00 0. -1.
         24    2    1    2    0    0 -0.22501840679E+03 -0.99991774940E+02 -0.84550627222E+03  0.88433481612E+03  0.80842885804E+02 0.  0.
        254    2    1    2    0    0  0.22501840679E+03  0.99991774940E+02  0.87834461089E+03  0.12804434259E+04  0.89856244805E+03 0.  0.
         23    2    4    4    0    0  0.26261952070E+02  0.20145717511E+02 -0.17595302414E+03  0.20154932750E+03  0.92558763234E+02 0.  0.
         23    2    4    4    0    0  0.19875645472E+03  0.79846057429E+02  0.10542976350E+04  0.10788940984E+04  0.81175434698E+02 0.  0.
          4    1    3    3  502    0 -0.16350950916E+03 -0.78612472812E+02 -0.72504627687E+03  0.74740041750E+03  0.00000000000E+00 0. -1.
         -3    1    3    3    0  502 -0.61508897623E+02 -0.21379302128E+02 -0.12045999535E+03  0.13693439862E+03  0.00000000000E+00 0.  1.
         13    1    5    5    0    0 -0.28909904514E+01  0.33321639494E+02 -0.13652734853E+02  0.36125983077E+02  0.00000000000E+00 0. -1.
        -13    1    5    5    0    0  0.29152942522E+02 -0.13175921983E+02 -0.16230028928E+03  0.16542334442E+03  0.00000000000E+00 0.  1.
          3    1    6    6  503    0  0.40792983497E+02 -0.13442598459E+02  0.14285393474E+03  0.14917110185E+03  0.00000000000E+00 0. -1.
         -3    1    6    6    0  503  0.15796347122E+03  0.93288655888E+02  0.91144370029E+03  0.92972299657E+03  0.00000000000E+00 0.  1.
<mgrwt>
<rscale>  0 0.21645292E+04</rscale>
<asrwt>0</asrwt>
<pdfrwt beam="1">  1        2 0.16399538E+00 0.21645292E+04</pdfrwt>
<pdfrwt beam="2">  1       -1 0.16904743E+00 0.21645292E+04</pdfrwt>
<totfact> 0.59798404E+00</totfact>
</mgrwt>
</event>
<event>
12    7  0.1625631E-007  0.1809148E+04  0.7818608E-02  0.8701450E-01
          2   -1    0    0  501    0  0.00000000000E+00  0.00000000000E+00  0.13537285905E+04  0.13537285905E+04  0.00000000000E+00 0. -1.
         -1   -1    0    0    0  501 -0.00000000000E+00 -0.00000000000E+00 -0.60444502199E+03  0.60444502199E+03  0.00000000000E+00 0.  1.
         24    2    1    2    0    0  0.13662474696E+03  0.42242301815E+03 -0.28134590318E+03  0.53185885319E+03  0.81306793850E+02 0.  0.
        254    2    1    2    0    0 -0.13662474696E+03 -0.42242301815E+03  0.10306294717E+04  0.14263147593E+04  0.88038012070E+03 0.  0.
         23    2    4    4    0    0  0.33276047795E+03 -0.30955337461E+03  0.67792613876E+03  0.82126707161E+03  0.91339618353E+02 0.  0.
         23    2    4    4    0    0 -0.46938522491E+03 -0.11286964354E+03  0.35270333294E+03  0.60504768770E+03  0.92849434669E+02 0.  0.
          2    1    3    3  502    0 -0.89267071414E+00  0.10401246001E+03 -0.54551237117E+02  0.11745308072E+03  0.00000000000E+00 0. -1.
         -1    1    3    3    0  502  0.13751741768E+03  0.31841055814E+03 -0.22679466607E+03  0.41440577247E+03  0.00000000000E+00 0.  1.
         13    1    5    5    0    0  0.29900792528E+03 -0.24033065511E+03  0.59633859838E+03  0.70907283624E+03  0.00000000000E+00 0.  1.
        -13    1    5    5    0    0  0.33752552666E+02 -0.69222719500E+02  0.81587540380E+02  0.11219423538E+03  0.00000000000E+00 0. -1.
          1    1    6    6  503    0 -0.80470816544E+01  0.10960827611E+02  0.62472989917E+01  0.14964090676E+02  0.00000000000E+00 0. -1.
         -1    1    6    6    0  503 -0.46133814326E+03 -0.12383047115E+03  0.34645603395E+03  0.59008359702E+03  0.00000000000E+00 0.  1.
<mgrwt>
<rscale>  0 0.18091484E+04</rscale>
<asrwt>0</asrwt>
<pdfrwt beam="1">  1        2 0.20826594E+00 0.18091484E+04</pdfrwt>
<pdfrwt beam="2">  1       -1 0.92991543E-01 0.18091484E+04</pdfrwt>
<totfact> 0.18584363E+01</totfact>
</mgrwt>
</event>
<event>
12    7  0.1625631E-007  0.1675836E+04  0.7818608E-02  0.8775268E-01
          2   -1    0    0  501    0  0.00000000000E+00  0.00000000000E+00  0.20326779822E+04  0.20326779822E+04  0.00000000000E+00 0. -1.
         -1   -1    0    0    0  501 -0.00000000000E+00 -0.00000000000E+00 -0.34540943992E+03  0.34540943992E+03  0.00000000000E+00 0.  1.
         24    2    1    2    0    0  0.20407228378E+03  0.40309252379E+03  0.60857847479E+02  0.46280703757E+03  0.79734538838E+02 0.  0.
        254    2    1    2    0    0 -0.20407228378E+03 -0.40309252379E+03  0.16264106948E+04  0.19152803846E+04  0.90496305093E+03 0.  0.
         23    2    4    4    0    0 -0.17875398019E+03 -0.14408694388E+02 -0.37708980684E+02  0.20374377975E+03  0.89044734022E+02 0.  0.
         23    2    4    4    0    0 -0.25318303589E+02 -0.38868382941E+03  0.16641196755E+04  0.17115366048E+04  0.91362571593E+02 0.  0.
          2    1    3    3  502    0  0.43320258625E+02  0.68869317908E+02  0.41737529457E+02  0.91442053354E+02  0.00000000000E+00 0. -1.
         -1    1    3    3    0  502  0.16075202515E+03  0.33422320589E+03  0.19120318021E+02  0.37136498422E+03  0.00000000000E+00 0.  1.
         13    1    5    5    0    0 -0.11854163628E+03  0.24408648878E+02  0.35338608760E+01  0.12108009681E+03  0.00000000000E+00 0.  1.
        -13    1    5    5    0    0 -0.60212343911E+02 -0.38817343267E+02 -0.41242841560E+02  0.82663682942E+02  0.00000000000E+00 0. -1.
          1    1    6    6  503    0 -0.41593852082E+02 -0.23962899000E+03  0.11768600096E+04  0.12017285815E+04  0.00000000000E+00 0. -1.
         -1    1    6    6    0  503  0.16275548493E+02 -0.14905483941E+03  0.48725966593E+03  0.50980802335E+03  0.00000000000E+00 0.  1.
<mgrwt>
<rscale>  0 0.16758355E+04</rscale>
<asrwt>0</asrwt>
<pdfrwt beam="1">  1        2 0.31271968E+00 0.16758355E+04</pdfrwt>
<pdfrwt beam="2">  1       -1 0.53139915E-01 0.16758355E+04</pdfrwt>
<totfact> 0.24849524E+01</totfact>
</mgrwt>
</event>
<event>
12    7  0.1695739E-007  0.1964529E+04  0.7818608E-02  0.8623386E-01
          2   -1    0    0  501    0  0.00000000000E+00  0.00000000000E+00  0.25166423931E+04  0.25166423931E+04  0.00000000000E+00 0. -1.
         -1   -1    0    0    0  501 -0.00000000000E+00 -0.00000000000E+00 -0.38338527089E+03  0.38338527089E+03  0.00000000000E+00 0.  1.
         24    2    1    2    0    0 -0.49015964966E+03  0.47308525157E+03  0.30506363196E+03  0.75087617981E+03  0.81762341242E+02 0.  0.
        254    2    1    2    0    0  0.49015964966E+03 -0.47308525157E+03  0.18281934902E+04  0.21491514842E+04  0.90138478288E+03 0.  0.
         23    2    4    4    0    0 -0.25027609079E+03 -0.86029968633E+02  0.57972537941E+03  0.64419530222E+03  0.94163659386E+02 0.  0.
         23    2    4    4    0    0  0.74043574045E+03 -0.38705528294E+03  0.12484681108E+04  0.15049561819E+04  0.90352687203E+02 0.  0.
          2    1    3    3  502    0 -0.36962557681E+02  0.41719733491E+02  0.22617512500E+01  0.55784248240E+02  0.00000000000E+00 0. -1.
         -1    1    3    3    0  502 -0.45319709198E+03  0.43136551808E+03  0.30280188071E+03  0.69509193157E+03  0.00000000000E+00 0.  1.
         13    1    5    5    0    0 -0.16039529687E+02 -0.30033316509E+02  0.36168252453E+02  0.49673021839E+02  0.00000000000E+00 0. -1.
        -13    1    5    5    0    0 -0.23423656110E+03 -0.55996652124E+02  0.54355712696E+03  0.59452228038E+03  0.00000000000E+00 0.  1.
          1    1    6    6  503    0  0.30262461962E+03 -0.11123321818E+03  0.50463469354E+03  0.59884110009E+03  0.00000000000E+00 0. -1.
         -1    1    6    6    0  503  0.43781112082E+03 -0.27582206476E+03  0.74383341727E+03  0.90611508186E+03  0.00000000000E+00 0.  1.
<mgrwt>
<rscale>  0 0.19645291E+04</rscale>
<asrwt>0</asrwt>
<pdfrwt beam="1">  1        2 0.38717574E+00 0.19645291E+04</pdfrwt>
<pdfrwt beam="2">  1       -1 0.58982351E-01 0.19645291E+04</pdfrwt>
<totfact> 0.10527907E+01</totfact>
</mgrwt>
</event>
<event>
12    7  0.1625631E-007  0.1208794E+04  0.7818608E-02  0.9105194E-01
         -1   -1    0    0    0  501 -0.00000000000E+00  0.00000000000E+00  0.24464856554E+03  0.24464856554E+03  0.00000000000E+00 0.  1.
          2   -1    0    0  501    0  0.00000000000E+00 -0.00000000000E+00 -0.14931439430E+04  0.14931439430E+04  0.00000000000E+00 0. -1.
         24    2    1    2    0    0  0.56998368674E+01 -0.23857386452E+03 -0.43987290593E+03  0.50646570191E+03  0.77906077233E+02 0.  0.
        254    2    1    2    0    0 -0.56998368674E+01  0.23857386452E+03 -0.80862247152E+03  0.12313268066E+04  0.89741040014E+03 0.  0.
         23    2    4    4    0    0 -0.22811966802E+03  0.10566378346E+03 -0.90148566291E+03  0.94026156177E+03  0.90620009035E+02 0.  0.
         23    2    4    4    0    0  0.22241983116E+03  0.13291008106E+03  0.92863191384E+02  0.29106524485E+03  0.94655868855E+02 0.  0.
          4    1    3    3  502    0 -0.88137141697E+01 -0.17502421212E+03 -0.24683566421E+03  0.30271934446E+03  0.00000000000E+00 0. -1.
         -3    1    3    3    0  502  0.14513551037E+02 -0.63549652407E+02 -0.19303724172E+03  0.20374635745E+03  0.00000000000E+00 0.  1.
         13    1    5    5    0    0 -0.18303584960E+03  0.69610975396E+02 -0.79888994148E+03  0.82254054535E+03  0.00000000000E+00 0. -1.
        -13    1    5    5    0    0 -0.45083818423E+02  0.36052808068E+02 -0.10259572142E+03  0.11772101642E+03  0.00000000000E+00 0.  1.
          4    1    6    6  503    0  0.13904365157E+03  0.12333688259E+03  0.35007312748E+02  0.18913126551E+03  0.00000000000E+00 0. -1.
         -4    1    6    6    0  503  0.83376179587E+02  0.95731984704E+01  0.57855878636E+02  0.10193397934E+03  0.00000000000E+00 0.  1.
<mgrwt>
<rscale>  0 0.12087937E+04</rscale>
<asrwt>0</asrwt>
<pdfrwt beam="1">  1        2 0.22971445E+00 0.12087937E+04</pdfrwt>
<pdfrwt beam="2">  1       -1 0.37638242E-01 0.12087937E+04</pdfrwt>
<totfact> 0.97902251E+01</totfact>
</mgrwt>
</event>
<event>
12    7  0.1625631E-007  0.3115573E+04  0.7818608E-02  0.8211477E-01
         -1   -1    0    0    0  501 -0.00000000000E+00  0.00000000000E+00  0.21752515468E+04  0.21752515468E+04  0.00000000000E+00 0.  1.
          2   -1    0    0  501    0  0.00000000000E+00 -0.00000000000E+00 -0.11155948061E+04  0.11155948061E+04  0.00000000000E+00 0. -1.
         24    2    1    2    0    0 -0.57843917840E+03 -0.10595746976E+04 -0.31933822277E+03  0.12512090307E+04  0.79099399983E+02 0.  0.
        254    2    1    2    0    0  0.57843917840E+03  0.10595746976E+04  0.13789949635E+04  0.20396373221E+04  0.89509936507E+03 0.  0.
         23    2    4    4    0    0  0.53595297927E+03  0.49335260116E+03  0.25394232213E+03  0.77610933617E+03  0.84950654277E+02 0.  0.
         23    2    4    4    0    0  0.42486199125E+02  0.56622209649E+03  0.11250526413E+04  0.12635279859E+04  0.91361839591E+02 0.  0.
          4    1    3    3  502    0 -0.39218650798E+03 -0.69293886754E+03 -0.24705079040E+03  0.83367177248E+03  0.00000000000E+00 0. -1.
         -3    1    3    3    0  502 -0.18625267042E+03 -0.36663583011E+03 -0.72287432366E+02  0.41753725826E+03  0.00000000000E+00 0.  1.
         13    1    5    5    0    0 -0.99371384016E+00 -0.12866887495E+01  0.42258438426E+01  0.45277799545E+01  0.00000000000E+00 0.  1.
        -13    1    5    5    0    0  0.53694669311E+03  0.49463928991E+03  0.24971647829E+03  0.77158155622E+03  0.00000000000E+00 0. -1.
          2    1    6    6  503    0  0.60249712738E+02  0.23762994626E+03  0.51544357031E+03  0.57077148967E+03  0.00000000000E+00 0. -1.
         -2    1    6    6    0  503 -0.17763513613E+02  0.32859215023E+03  0.60960907102E+03  0.69275649623E+03  0.00000000000E+00 0.  1.
<mgrwt>
<rscale>  0 0.31155734E+04</rscale>
<asrwt>0</asrwt>
<pdfrwt beam="1">  1        2 0.17162997E+00 0.31155734E+04</pdfrwt>
<pdfrwt beam="2">  1       -1 0.33465408E+00 0.31155734E+04</pdfrwt>
<totfact> 0.40383139E-01</totfact>
</mgrwt>
</event>
<event>
12    7  0.1625631E-007  0.1854616E+04  0.7818608E-02  0.8677783E-01
          2   -1    0    0  501    0  0.00000000000E+00  0.00000000000E+00  0.67725476548E+03  0.67725476548E+03  0.00000000000E+00 0. -1.
         -1   -1    0    0    0  501 -0.00000000000E+00 -0.00000000000E+00 -0.12696843118E+04  0.12696843118E+04  0.00000000000E+00 0.  1.
         24    2    1    2    0    0 -0.10945628839E+03  0.69613866902E+03 -0.31210172435E+03  0.77422734441E+03  0.73693750939E+02 0.  0.
        254    2    1    2    0    0  0.10945628839E+03 -0.69613866902E+03 -0.28032782198E+03  0.11727117329E+04  0.89447157310E+03 0.  0.
         23    2    4    4    0    0  0.44958554936E+03 -0.20066002803E+03  0.69256002119E+01  0.50081754295E+03  0.91534880506E+02 0.  0.
         23    2    4    4    0    0 -0.34012926097E+03 -0.49547864099E+03 -0.28725342219E+03  0.67189418992E+03  0.87978838652E+02 0.  0.
          2    1    3    3  502    0 -0.81120735598E+02  0.51579749119E+03 -0.19509920715E+03  0.55739691988E+03  0.00000000000E+00 0. -1.
         -1    1    3    3    0  502 -0.28335552794E+02  0.18034117783E+03 -0.11700251720E+03  0.21683042454E+03  0.00000000000E+00 0.  1.
         13    1    5    5    0    0  0.14452060571E+03 -0.82675497975E+02 -0.37670093121E+02  0.17070582696E+03  0.00000000000E+00 0. -1.
        -13    1    5    5    0    0  0.30506494365E+03 -0.11798453005E+03  0.44595693333E+02  0.33011171600E+03  0.00000000000E+00 0.  1.
          1    1    6    6  503    0 -0.54629951704E+02 -0.58219148497E+02 -0.94693230753E+01  0.80396324259E+02  0.00000000000E+00 0. -1.
         -1    1    6    6    0  503 -0.28549930926E+03 -0.43725949249E+03 -0.27778409912E+03  0.59149786566E+03  0.00000000000E+00 0.  1.
<mgrwt>
<rscale>  0 0.18546156E+04</rscale>
<asrwt>0</asrwt>
<pdfrwt beam="1">  1        2 0.10419304E+00 0.18546156E+04</pdfrwt>
<pdfrwt beam="2">  1       -1 0.19533605E+00 0.18546156E+04</pdfrwt>
<totfact> 0.74328058E+00</totfact>
</mgrwt>
</event>
<event>
12    7  0.1625631E-007  0.1304297E+04  0.7818608E-02  0.9026164E-01
          4   -1    0    0  501    0  0.00000000000E+00  0.00000000000E+00  0.77334782892E+03  0.77334782892E+03  0.00000000000E+00 0. -1.
         -3   -1    0    0    0  501 -0.00000000000E+00 -0.00000000000E+00 -0.54994364440E+03  0.54994364440E+03  0.00000000000E+00 0.  1.
         24    2    1    2    0    0 -0.45993320691E+02 -0.64833898623E+02  0.38864075408E+03  0.40433844676E+03  0.78288721008E+02 0.  0.
        254    2    1    2    0    0  0.45993320691E+02  0.64833898623E+02 -0.16523656955E+03  0.91895302656E+03  0.90047360936E+03 0.  0.
         23    2    4    4    0    0 -0.25629840230E+03  0.91704836203E+02  0.25892327115E+03  0.38955898814E+03  0.10303541572E+03 0.  0.
         23    2    4    4    0    0  0.30229172299E+03 -0.26870937579E+02 -0.42415984071E+03  0.52939403842E+03  0.90797270743E+02 0.  0.
          2    1    3    3  502    0  0.48426337464E+01 -0.47763825330E+02  0.26870530112E+03  0.27296038717E+03  0.00000000000E+00 0. -1.
         -1    1    3    3    0  502 -0.50835954437E+02 -0.17070073293E+02  0.11993545296E+03  0.13137805959E+03  0.00000000000E+00 0.  1.
         13    1    5    5    0    0 -0.18302272055E+03  0.10007898940E+03  0.22955240968E+03  0.31017322443E+03  0.00000000000E+00 0. -1.
        -13    1    5    5    0    0 -0.73275681747E+02 -0.83741531994E+01  0.29370861468E+02  0.79385763716E+02  0.00000000000E+00 0.  1.
          2    1    6    6  503    0  0.18033340380E+02 -0.13372232641E+02 -0.78567464050E+02  0.81712082205E+02  0.00000000000E+00 0. -1.
         -2    1    6    6    0  503  0.28425838261E+03 -0.13498704939E+02 -0.34559237666E+03  0.44768195622E+03  0.00000000000E+00 0.  1.
<mgrwt>
<rscale>  0 0.13042971E+04</rscale>
<asrwt>0</asrwt>
<pdfrwt beam="1">  1        4 0.11897659E+00 0.13042971E+04</pdfrwt>
<pdfrwt beam="2">  1       -3 0.84606715E-01 0.13042971E+04</pdfrwt>
<totfact> 0.15539093E+00</totfact>
</mgrwt>
</event>
<event>
12    7  0.1625631E-007  0.1445526E+04  0.7818608E-02  0.8921508E-01
         -1   -1    0    0    0  501 -0.00000000000E+00  0.00000000000E+00  0.56917187882E+03  0.56917187882E+03  0.00000000000E+00 0.  1.
          2   -1    0    0  501    0  0.00000000000E+00 -0.00000000000E+00 -0.91780100650E+03  0.91780100650E+03  0.00000000000E+00 0. -1.
         24    2    1    2    0    0  0.18885848828E+03  0.19121768149E+03  0.22662976902E+03  0.36047245946E+03  0.79671899135E+02 0.  0.
        254    2    1    2    0    0 -0.18885848828E+03 -0.19121768149E+03 -0.57525889670E+03  0.11265004259E+04  0.93050990372E+03 0.  0.
         23    2    4    4    0    0  0.24625968277E+03 -0.18407600356E+03  0.82719752805E+02  0.33227840886E+03  0.95071431268E+02 0.  0.
         23    2    4    4    0    0 -0.43511817106E+03 -0.71416779223E+01 -0.65797864950E+03  0.79422201700E+03  0.92053694869E+02 0.  0.
          2    1    3    3  502    0  0.54457618361E+02  0.38351980363E+02  0.10193433052E+03  0.12176663883E+03  0.00000000000E+00 0. -1.
         -1    1    3    3    0  502  0.13440086992E+03  0.15286570112E+03  0.12469543850E+03  0.23870582062E+03  0.00000000000E+00 0.  1.
         13    1    5    5    0    0  0.21507677852E+03 -0.16623242114E+03  0.10339195039E+03  0.29082835815E+03  0.00000000000E+00 0.  1.
        -13    1    5    5    0    0  0.31182904254E+02 -0.17843582419E+02 -0.20672197582E+02  0.41450050713E+02  0.00000000000E+00 0. -1.
          2    1    6    6  503    0 -0.12453230623E+03  0.39675836889E+02 -0.19071531037E+03  0.23120293454E+03  0.00000000000E+00 0. -1.
         -2    1    6    6    0  503 -0.31058586483E+03 -0.46817514811E+02 -0.46726333913E+03  0.56301908246E+03  0.00000000000E+00 0.  1.
<mgrwt>
<rscale>  0 0.14455262E+04</rscale>
<asrwt>0</asrwt>
<pdfrwt beam="1">  1        2 0.14120015E+00 0.14455262E+04</pdfrwt>
<pdfrwt beam="2">  1       -1 0.87564906E-01 0.14455262E+04</pdfrwt>
<totfact> 0.40529496E+01</totfact>
</mgrwt>
</event>
<event>
12    7  0.1625631E-007  0.1469835E+04  0.7818608E-02  0.8904764E-01
          2   -1    0    0  501    0  0.00000000000E+00  0.00000000000E+00  0.57514427060E+03  0.57514427060E+03  0.00000000000E+00 0. -1.
         -1   -1    0    0    0  501 -0.00000000000E+00 -0.00000000000E+00 -0.93907553590E+03  0.93907553590E+03  0.00000000000E+00 0.  1.
         24    2    1    2    0    0  0.16214506444E+03 -0.17402040841E+03 -0.50151732863E+03  0.56075329549E+03  0.79690043444E+02 0.  0.
        254    2    1    2    0    0 -0.16214506444E+03  0.17402040841E+03  0.13758606332E+03  0.95346651101E+03  0.91301387631E+03 0.  0.
         23    2    4    4    0    0  0.22281148044E+03 -0.13974989751E+03  0.31315749047E+03  0.41899747784E+03  0.91193656173E+02 0.  0.
         23    2    4    4    0    0 -0.38495654488E+03  0.31377030592E+03 -0.17557142715E+03  0.53446903317E+03  0.90490193164E+02 0.  0.
          2    1    3    3  502    0  0.14216998394E+03 -0.16844544087E+03 -0.39596152615E+03  0.45317954618E+03  0.00000000000E+00 0. -1.
         -1    1    3    3    0  502  0.19975080495E+02 -0.55749675405E+01 -0.10555580249E+03  0.10757374932E+03  0.00000000000E+00 0.  1.
         13    1    5    5    0    0  0.23272148160E+02 -0.16027422081E+01  0.76654859596E+02  0.80125708497E+02  0.00000000000E+00 0.  1.
        -13    1    5    5    0    0  0.19953933228E+03 -0.13814715530E+03  0.23650263088E+03  0.33887176934E+03  0.00000000000E+00 0. -1.
          4    1    6    6  503    0 -0.75869489101E+01  0.29930036443E+02 -0.56590453087E+00  0.30881857509E+02  0.00000000000E+00 0.  1.
         -4    1    6    6    0  503 -0.37736959597E+03  0.28384026948E+03 -0.17500552262E+03  0.50358717566E+03  0.00000000000E+00 0. -1.
<mgrwt>
<rscale>  0 0.14698352E+04</rscale>
<asrwt>0</asrwt>
<pdfrwt beam="1">  1        2 0.88483734E-01 0.14698352E+04</pdfrwt>
<pdfrwt beam="2">  1       -1 0.14447316E+00 0.14698352E+04</pdfrwt>
<totfact> 0.22286504E+01</totfact>
</mgrwt>
</event>
<event>
12    7  0.1625631E-007  0.2292858E+04  0.7818608E-02  0.8480742E-01
         -1   -1    0    0    0  501 -0.00000000000E+00  0.00000000000E+00  0.65606511949E+03  0.65606511949E+03  0.00000000000E+00 0.  1.
          2   -1    0    0  501    0  0.00000000000E+00 -0.00000000000E+00 -0.20033069404E+04  0.20033069404E+04  0.00000000000E+00 0. -1.
         24    2    1    2    0    0 -0.65033290237E+03  0.51452501868E+03 -0.11424568156E+04  0.14139087288E+04  0.79129255858E+02 0.  0.
        254    2    1    2    0    0  0.65033290237E+03 -0.51452501868E+03 -0.20478500531E+03  0.12454633311E+04  0.90640671441E+03 0.  0.
         23    2    4    4    0    0  0.83150952821E+03 -0.21599253071E+03 -0.10071228533E+03  0.87028763639E+03  0.95899618416E+02 0.  0.
         23    2    4    4    0    0 -0.18117662585E+03 -0.29853248797E+03 -0.10407271999E+03  0.37517569469E+03  0.89325554663E+02 0.  0.
          4    1    3    3  502    0 -0.62611709388E+03  0.48256715907E+03 -0.11077149612E+04  0.13608549201E+04  0.00000000000E+00 0. -1.
         -3    1    3    3    0  502 -0.24215808485E+02  0.31957859608E+02 -0.34741854352E+02  0.53053808677E+02  0.00000000000E+00 0.  1.
         13    1    5    5    0    0  0.59058635023E+03 -0.17846859860E+03 -0.35968906389E+02  0.61801055006E+03  0.00000000000E+00 0. -1.
        -13    1    5    5    0    0  0.24092317799E+03 -0.37523932107E+02 -0.64743378936E+02  0.25227708633E+03  0.00000000000E+00 0.  1.
          3    1    6    6  503    0 -0.15998244298E+03 -0.21126392833E+03 -0.10582830736E+03  0.28535321991E+03  0.00000000000E+00 0. -1.
         -3    1    6    6    0  503 -0.21194182868E+02 -0.87268559639E+02  0.17555873711E+01  0.89822474782E+02  0.00000000000E+00 0.  1.
<mgrwt>
<rscale>  0 0.22928583E+04</rscale>
<asrwt>0</asrwt>
<pdfrwt beam="1">  1        2 0.30820107E+00 0.22928583E+04</pdfrwt>
<pdfrwt beam="2">  1       -1 0.10093310E+00 0.22928583E+04</pdfrwt>
<totfact> 0.64080303E+00</totfact>
</mgrwt>
</event>
<event>
12    7  0.1625631E-007  0.1607687E+04  0.7818608E-02  0.8815839E-01
         -1   -1    0    0    0  501 -0.00000000000E+00  0.00000000000E+00  0.58487082671E+03  0.58487082671E+03  0.00000000000E+00 0.  1.
          2   -1    0    0  501    0  0.00000000000E+00 -0.00000000000E+00 -0.11047990157E+04  0.11047990157E+04  0.00000000000E+00 0. -1.
         24    2    1    2    0    0  0.36874605742E+03 -0.31115037493E+03 -0.42026951929E+03  0.64483132812E+03  0.79954750989E+02 0.  0.
        254    2    1    2    0    0 -0.36874605742E+03  0.31115037493E+03 -0.99658669686E+02  0.10448385143E+04  0.92139430201E+03 0.  0.
         23    2    4    4    0    0 -0.17841049357E+03 -0.31068806241E+03 -0.11677268667E+03  0.38815726304E+03  0.93127998803E+02 0.  0.
         23    2    4    4    0    0 -0.19033556385E+03  0.62183843734E+03  0.17114016988E+02  0.65668125123E+03  0.89591892032E+02 0.  0.
          4    1    3    3  502    0  0.21064580299E+03 -0.14855407354E+03 -0.26693008098E+03  0.37106823525E+03  0.00000000000E+00 0. -1.
         -3    1    3    3    0  502  0.15810025443E+03 -0.16259630139E+03 -0.15333943831E+03  0.27376309287E+03  0.00000000000E+00 0.  1.
         13    1    5    5    0    0  0.62099181771E+01 -0.35969495867E+00 -0.97007616341E+01  0.11523768503E+02  0.00000000000E+00 0. -1.
        -13    1    5    5    0    0 -0.18462041175E+03 -0.31032836745E+03 -0.10707192504E+03  0.37663349454E+03  0.00000000000E+00 0.  1.
          1    1    6    6  503    0 -0.22605061220E+02  0.29335376629E+02 -0.15234141752E+02  0.40045376632E+02  0.00000000000E+00 0. -1.
         -1    1    6    6    0  503 -0.16773050263E+03  0.59250306071E+03  0.32348158740E+02  0.61663587459E+03  0.00000000000E+00 0.  1.
<mgrwt>
<rscale>  0 0.16076874E+04</rscale>
<asrwt>0</asrwt>
<pdfrwt beam="1">  1        2 0.16996908E+00 0.16076874E+04</pdfrwt>
<pdfrwt beam="2">  1       -1 0.89980127E-01 0.16076874E+04</pdfrwt>
<totfact> 0.28589503E+01</totfact>
</mgrwt>
</event>
<event>
12    7  0.1625631E-007  0.1923126E+04  0.7818608E-02  0.8643430E-01
          2   -1    0    0  501    0  0.00000000000E+00  0.00000000000E+00  0.17966724453E+04  0.17966724453E+04  0.00000000000E+00 0. -1.
         -1   -1    0    0    0  501 -0.00000000000E+00 -0.00000000000E+00 -0.51461970570E+03  0.51461970570E+03  0.00000000000E+00 0.  1.
         24    2    1    2    0    0 -0.77932321094E+01  0.64180010746E+03  0.97700050435E+03  0.11736519994E+04  0.10469440169E+03 0.  0.
        254    2    1    2    0    0  0.77932321094E+01 -0.64180010746E+03  0.30505223521E+03  0.11376401516E+04  0.88836936904E+03 0.  0.
         23    2    4    4    0    0  0.22310295913E+03  0.67045366050E+02 -0.12453197421E+03  0.27674795120E+03  0.82530021289E+02 0.  0.
         23    2    4    4    0    0 -0.21530972702E+03 -0.70884547351E+03  0.42958420941E+03  0.86089220036E+03  0.88162371782E+02 0.  0.
          2    1    3    3  502    0 -0.35034710031E+02  0.48270069226E+03  0.79166539311E+03  0.92788010209E+03  0.00000000000E+00 0. -1.
         -1    1    3    3    0  502  0.27241477922E+02  0.15909941521E+03  0.18533511124E+03  0.24577189729E+03  0.00000000000E+00 0.  1.
         13    1    5    5    0    0  0.13692636260E+03  0.27039077649E+02 -0.11576825514E+03  0.18133457860E+03  0.00000000000E+00 0. -1.
        -13    1    5    5    0    0  0.86176596528E+02  0.40006288401E+02 -0.87637190653E+01  0.95413372609E+02  0.00000000000E+00 0.  1.
          1    1    6    6  503    0 -0.39338630338E+02 -0.69214158560E+02  0.71587069291E+02  0.10706463502E+03  0.00000000000E+00 0. -1.
         -1    1    6    6    0  503 -0.17597109668E+03 -0.63963131495E+03  0.35799714012E+03  0.75382756535E+03  0.00000000000E+00 0.  1.
<mgrwt>
<rscale>  0 0.19231256E+04</rscale>
<asrwt>0</asrwt>
<pdfrwt beam="1">  1        2 0.27641114E+00 0.19231256E+04</pdfrwt>
<pdfrwt beam="2">  1       -1 0.79172263E-01 0.19231256E+04</pdfrwt>
<totfact> 0.14712877E+01</totfact>
</mgrwt>
</event>
<event>
12    7  0.1625631E-007  0.2456575E+04  0.7818608E-02  0.8418621E-01
          2   -1    0    0  501    0  0.00000000000E+00  0.00000000000E+00  0.13789308981E+04  0.13789308981E+04  0.00000000000E+00 0. -1.
         -1   -1    0    0    0  501 -0.00000000000E+00 -0.00000000000E+00 -0.10941017964E+04  0.10941017964E+04  0.00000000000E+00 0.  1.
         24    2    1    2    0    0  0.86663583761E+03  0.57775264075E+03  0.40956207172E+03  0.11232229496E+04  0.95041649136E+02 0.  0.
        254    2    1    2    0    0 -0.86663583761E+03 -0.57775264075E+03 -0.12473297004E+03  0.13498097449E+04  0.84945408632E+03 0.  0.
         23    2    4    4    0    0 -0.88631370057E+03 -0.14956005050E+03 -0.12021658068E+03  0.91125661022E+03  0.89534344632E+02 0.  0.
         23    2    4    4    0    0  0.19677862961E+02 -0.42819259026E+03 -0.45163893597E+01  0.43855313471E+03  0.92586940519E+02 0.  0.
          4    1    3    3  502    0  0.22468732087E+03  0.13001664116E+03  0.62224537562E+02  0.26694683406E+03  0.00000000000E+00 0. -1.
         -3    1    3    3    0  502  0.64194851674E+03  0.44773599959E+03  0.34733753415E+03  0.85627611558E+03  0.00000000000E+00 0.  1.
         13    1    5    5    0    0 -0.88117213160E+03 -0.14600742441E+03 -0.11091003201E+03  0.90004640363E+03  0.00000000000E+00 0. -1.
        -13    1    5    5    0    0 -0.51415689718E+01 -0.35526260887E+01 -0.93065486649E+01  0.11210206585E+02  0.00000000000E+00 0.  1.
          4    1    6    6  503    0 -0.46918295445E+01 -0.26890857825E+03  0.38703750213E+02  0.27172010784E+03  0.00000000000E+00 0.  1.
         -4    1    6    6    0  503  0.24369692505E+02 -0.15928401200E+03 -0.43220139572E+02  0.16683302688E+03  0.00000000000E+00 0. -1.
<mgrwt>
<rscale>  0 0.24565755E+04</rscale>
<asrwt>0</asrwt>
<pdfrwt beam="1">  1        2 0.21214322E+00 0.24565755E+04</pdfrwt>
<pdfrwt beam="2">  1       -1 0.16832335E+00 0.24565755E+04</pdfrwt>
<totfact> 0.38416709E+00</totfact>
</mgrwt>
</event>
<event>
12    7  0.1625631E-007  0.1544811E+04  0.7818608E-02  0.8855189E-01
          2   -1    0    0  501    0  0.00000000000E+00  0.00000000000E+00  0.14866747012E+04  0.14866747012E+04  0.00000000000E+00 0. -1.
         -1   -1    0    0    0  501 -0.00000000000E+00 -0.00000000000E+00 -0.40130495628E+03  0.40130495628E+03  0.00000000000E+00 0.  1.
         24    2    1    2    0    0 -0.43443046682E+03 -0.14182561409E+02  0.67574520326E+03  0.80800866263E+03  0.85530366577E+02 0.  0.
        254    2    1    2    0    0  0.43443046682E+03  0.14182561409E+02  0.40962454172E+03  0.10799709949E+04  0.89978559062E+03 0.  0.
         23    2    4    4    0    0  0.42095221829E+03  0.38093243339E+03  0.85495674065E+02  0.58121125077E+03  0.90480488769E+02 0.  0.
         23    2    4    4    0    0  0.13478248539E+02 -0.36674987198E+03  0.32412886765E+03  0.49875974413E+03  0.94945393482E+02 0.  0.
          4    1    3    3  502    0 -0.31251550276E+03 -0.22966826911E+02  0.41483352854E+03  0.51988486322E+03  0.00000000000E+00 0. -1.
         -3    1    3    3    0  502 -0.12191496406E+03  0.87842655022E+01  0.26091167471E+03  0.28812379941E+03  0.00000000000E+00 0.  1.
         13    1    5    5    0    0  0.34612235297E+03  0.27251067607E+03  0.42203221891E+02  0.44254249936E+03  0.00000000000E+00 0. -1.
        -13    1    5    5    0    0  0.74829865316E+02  0.10842175731E+03  0.43292452174E+02  0.13866875141E+03  0.00000000000E+00 0.  1.
          1    1    6    6  503    0 -0.36413659189E+02 -0.10305194987E+03  0.11379666655E+03  0.15778257275E+03  0.00000000000E+00 0. -1.
         -1    1    6    6    0  503  0.49891907728E+02 -0.26369792211E+03  0.21033220110E+03  0.34097717138E+03  0.00000000000E+00 0.  1.
<mgrwt>
<rscale>  0 0.15448106E+04</rscale>
<asrwt>0</asrwt>
<pdfrwt beam="1">  1        2 0.22871918E+00 0.15448106E+04</pdfrwt>
<pdfrwt beam="2">  1       -1 0.61739225E-01 0.15448106E+04</pdfrwt>
<totfact> 0.37711379E+01</totfact>
</mgrwt>
</event>
<event>
12    7  0.1625631E-007  0.1618185E+04  0.7818608E-02  0.8809454E-01
         -3   -1    0    0    0  501 -0.00000000000E+00  0.00000000000E+00  0.93097868792E+03  0.93097868792E+03  0.00000000000E+00 0.  1.
          4   -1    0    0  501    0  0.00000000000E+00 -0.00000000000E+00 -0.70316367053E+03  0.70316367053E+03  0.00000000000E+00 0. -1.
         24    2    1    2    0    0 -0.47881849450E+03 -0.20578372440E+03  0.25565237892E+03  0.58625806409E+03  0.82013943662E+02 0.  0.
        254    2    1    2    0    0  0.47881849450E+03  0.20578372440E+03 -0.27837361529E+02  0.10478842944E+04  0.90866522095E+03 0.  0.
         23    2    4    4    0    0  0.16326171550E+03  0.50155379208E+03 -0.20282854078E+03  0.57238679330E+03  0.90975986356E+02 0.  0.
         23    2    4    4    0    0  0.31555677900E+03 -0.29577006767E+03  0.17499117926E+03  0.47549750106E+03  0.91760269165E+02 0.  0.
          4    1    3    3  502    0 -0.13828850719E+03 -0.60764644448E+02  0.33960783108E+02  0.15482050260E+03  0.00000000000E+00 0. -1.
         -3    1    3    3    0  502 -0.34052998731E+03 -0.14501907996E+03  0.22169159581E+03  0.43143756148E+03  0.00000000000E+00 0.  1.
         13    1    5    5    0    0  0.10856473091E+03  0.36769859225E+03 -0.18807363717E+03  0.42703658922E+03  0.00000000000E+00 0. -1.
        -13    1    5    5    0    0  0.54696984590E+02  0.13385519983E+03 -0.14754903618E+02  0.14535020408E+03  0.00000000000E+00 0.  1.
          2    1    6    6  503    0  0.96709040383E+02 -0.14678747583E+03  0.89745425759E+02  0.19736626611E+03  0.00000000000E+00 0. -1.
         -2    1    6    6    0  503  0.21884773862E+03 -0.14898259184E+03  0.85245753496E+02  0.27813123496E+03  0.00000000000E+00 0.  1.
<mgrwt>
<rscale>  0 0.16181847E+04</rscale>
<asrwt>0</asrwt>
<pdfrwt beam="1">  1        4 0.10817903E+00 0.16181847E+04</pdfrwt>
<pdfrwt beam="2">  1       -3 0.14322749E+00 0.16181847E+04</pdfrwt>
<totfact> 0.54376727E-01</totfact>
</mgrwt>
</event>
<event>
12    7  0.1625631E-007  0.1830210E+04  0.7818608E-02  0.8690397E-01
         -1   -1    0    0    0  501 -0.00000000000E+00  0.00000000000E+00  0.42165965973E+03  0.42165965973E+03  0.00000000000E+00 0.  1.
          2   -1    0    0  501    0  0.00000000000E+00 -0.00000000000E+00 -0.19860021602E+04  0.19860021602E+04  0.00000000000E+00 0. -1.
         24    2    1    2    0    0 -0.69265333846E+03 -0.30720316594E+02 -0.65692757616E+03  0.95844737606E+03  0.79719177262E+02 0.  0.
        254    2    1    2    0    0  0.69265333846E+03  0.30720316594E+02 -0.90741492426E+03  0.14492144438E+04  0.89224899793E+03 0.  0.
         23    2    4    4    0    0 -0.43266170336E+02  0.10038648154E+03  0.11587999191E+03  0.18335267682E+03  0.90777884975E+02 0.  0.
         23    2    4    4    0    0  0.73591950880E+03 -0.69666164948E+02 -0.10232949162E+04  0.12658617670E+04  0.94035258016E+02 0.  0.
          2    1    3    3  502    0 -0.20530269687E+03 -0.62768285853E+01 -0.14643970964E+03  0.25225618819E+03  0.00000000000E+00 0. -1.
         -1    1    3    3    0  502 -0.48735064159E+03 -0.24443488008E+02 -0.51048786652E+03  0.70619118788E+03  0.00000000000E+00 0.  1.
         13    1    5    5    0    0 -0.40991125119E+02  0.44145362069E+02  0.11170154863E+03  0.12691068236E+03  0.00000000000E+00 0. -1.
        -13    1    5    5    0    0 -0.22750452171E+01  0.56241119472E+02  0.41784432776E+01  0.56441994459E+02  0.00000000000E+00 0.  1.
          1    1    6    6  503    0  0.67215241407E+03 -0.47778887330E+02 -0.96343537881E+03  0.11757037973E+04  0.00000000000E+00 0. -1.
         -1    1    6    6    0  503  0.63767094722E+02 -0.21887277617E+02 -0.59859537359E+02  0.90157969718E+02  0.00000000000E+00 0.  1.
<mgrwt>
<rscale>  0 0.18302098E+04</rscale>
<asrwt>0</asrwt>
<pdfrwt beam="1">  1        2 0.30553879E+00 0.18302098E+04</pdfrwt>
<pdfrwt beam="2">  1       -1 0.64870718E-01 0.18302098E+04</pdfrwt>
<totfact> 0.17576965E+01</totfact>
</mgrwt>
</event>
<event>
12    7  0.1625631E-007  0.2328211E+04  0.7818608E-02  0.8466880E-01
          2   -1    0    0  501    0  0.00000000000E+00  0.00000000000E+00  0.13407047973E+04  0.13407047973E+04  0.00000000000E+00 0. -1.
         -1   -1    0    0    0  501 -0.00000000000E+00 -0.00000000000E+00 -0.10107679104E+04  0.10107679104E+04  0.00000000000E+00 0.  1.
         24    2    1    2    0    0 -0.78624939935E+03  0.59981056395E+03  0.14772382451E+03  0.10030672606E+04  0.79754437716E+02 0.  0.
        254    2    1    2    0    0  0.78624939935E+03 -0.59981056395E+03  0.18221306245E+03  0.13484054471E+04  0.89835116686E+03 0.  0.
         23    2    4    4    0    0  0.56096119212E+03 -0.82030545667E+03  0.21076703488E+03  0.10196917704E+04  0.88147957027E+02 0.  0.
         23    2    4    4    0    0  0.22528820724E+03  0.22049489272E+03 -0.28553972432E+02  0.32871367669E+03  0.88682455231E+02 0.  0.
          2    1    3    3  502    0 -0.29815986356E+03  0.20369467769E+03  0.20199218639E+02  0.36166121494E+03  0.00000000000E+00 0. -1.
         -1    1    3    3    0  502 -0.48808953579E+03  0.39611588627E+03  0.12752460587E+03  0.64140604565E+03  0.00000000000E+00 0.  1.
         13    1    5    5    0    0  0.16416000468E+02 -0.11804141009E+02 -0.60120345310E+01  0.21094249821E+02  0.00000000000E+00 0. -1.
        -13    1    5    5    0    0  0.54454519165E+03 -0.80850131566E+03  0.21677906942E+03  0.99859752058E+03  0.00000000000E+00 0.  1.
          2    1    6    6  503    0  0.28428933644E+02  0.62169377097E+02  0.20498465467E+02  0.71368219841E+02  0.00000000000E+00 0. -1.
         -2    1    6    6    0  503  0.19685927359E+03  0.15832551562E+03 -0.49052437899E+02  0.25734545685E+03  0.00000000000E+00 0.  1.
<mgrwt>
<rscale>  0 0.23282108E+04</rscale>
<asrwt>0</asrwt>
<pdfrwt beam="1">  1        2 0.20626228E+00 0.23282108E+04</pdfrwt>
<pdfrwt beam="2">  1       -1 0.15550276E+00 0.23282108E+04</pdfrwt>
<totfact> 0.51039123E+00</totfact>
</mgrwt>
</event>
<event>
12    7  0.1625631E-007  0.2673464E+04  0.7818608E-02  0.8343667E-01
         -1   -1    0    0    0  501 -0.00000000000E+00  0.00000000000E+00  0.11624769361E+04  0.11624769361E+04  0.00000000000E+00 0.  1.
          2   -1    0    0  501    0  0.00000000000E+00 -0.00000000000E+00 -0.15371078471E+04  0.15371078471E+04  0.00000000000E+00 0. -1.
         24    2    1    2    0    0 -0.92551063548E+03 -0.17894483165E+03 -0.88824469368E+03  0.12977915919E+04  0.81811923790E+02 0.  0.
        254    2    1    2    0    0  0.92551063548E+03  0.17894483165E+03  0.51361378272E+03  0.14017931913E+04  0.90146205928E+03 0.  0.
         23    2    4    4    0    0  0.20014105398E+02 -0.18839171699E+03  0.34806254744E+03  0.40652984123E+03  0.90702653979E+02 0.  0.
         23    2    4    4    0    0  0.90549653008E+03  0.36733654864E+03  0.16555123529E+03  0.99526335011E+03  0.91004497707E+02 0.  0.
          4    1    3    3  502    0 -0.86593857660E+03 -0.14881382126E+03 -0.83860559424E+03  0.12146005576E+04  0.00000000000E+00 0. -1.
         -3    1    3    3    0  502 -0.59572058885E+02 -0.30131010387E+02 -0.49639099438E+02  0.83191034251E+02  0.00000000000E+00 0.  1.
         13    1    5    5    0    0 -0.20229893422E+02 -0.14704650778E+03  0.28304089938E+03  0.31959986664E+03  0.00000000000E+00 0. -1.
        -13    1    5    5    0    0  0.40243998821E+02 -0.41345209211E+02  0.65021648062E+02  0.86929974592E+02  0.00000000000E+00 0.  1.
          3    1    6    6  503    0  0.87955440291E+03  0.35915025229E+03  0.17581906913E+03  0.96618693660E+03  0.00000000000E+00 0. -1.
         -3    1    6    6    0  503  0.25942127174E+02  0.81862963503E+01 -0.10267833846E+02  0.29076413502E+02  0.00000000000E+00 0.  1.
<mgrwt>
<rscale>  0 0.26734640E+04</rscale>
<asrwt>0</asrwt>
<pdfrwt beam="1">  1        2 0.23647813E+00 0.26734640E+04</pdfrwt>
<pdfrwt beam="2">  1       -1 0.17884261E+00 0.26734640E+04</pdfrwt>
<totfact> 0.25694181E+00</totfact>
</mgrwt>
</event>
<event>
12    7  0.1625631E-007  0.2346748E+04  0.7818608E-02  0.8459714E-01
          2   -1    0    0  501    0  0.00000000000E+00  0.00000000000E+00  0.40778935131E+04  0.40778935131E+04  0.00000000000E+00 0. -1.
         -1   -1    0    0    0  501 -0.00000000000E+00 -0.00000000000E+00 -0.33762681547E+03  0.33762681547E+03  0.00000000000E+00 0.  1.
         24    2    1    2    0    0 -0.17087982811E+03  0.76587770411E+03  0.43482408278E+03  0.90066403147E+03  0.79719140149E+02 0.  0.
        254    2    1    2    0    0  0.17087982811E+03 -0.76587770411E+03  0.33054426148E+04  0.35148562971E+04  0.90138523168E+03 0.  0.
         23    2    4    4    0    0  0.43287029755E+03 -0.25578178580E+03  0.85003276081E+03  0.99168252611E+03  0.89875033777E+02 0.  0.
         23    2    4    4    0    0 -0.26199046943E+03 -0.51009591831E+03  0.24554098540E+04  0.25231737710E+04  0.92365985853E+02 0.  0.
          2    1    3    3  502    0 -0.33309307487E+02  0.16588877961E+03  0.13229638086E+03  0.21478112011E+03  0.00000000000E+00 0. -1.
         -1    1    3    3    0  502 -0.13757052063E+03  0.59998892451E+03  0.30252770193E+03  0.68588291137E+03  0.00000000000E+00 0.  1.
         13    1    5    5    0    0  0.41451524433E+03 -0.25921311962E+03  0.79221013773E+03  0.93091956231E+03  0.00000000000E+00 0. -1.
        -13    1    5    5    0    0  0.18355053222E+02  0.34313338185E+01  0.57822623076E+02  0.60762963801E+02  0.00000000000E+00 0.  1.
          3    1    6    6  503    0 -0.26485103788E+03 -0.46617246480E+03  0.22347670364E+04  0.22981833144E+04  0.00000000000E+00 0. -1.
         -3    1    6    6    0  503  0.28605684446E+01 -0.43923453516E+02  0.22064281757E+03  0.22499045661E+03  0.00000000000E+00 0.  1.
<mgrwt>
<rscale>  0 0.23467477E+04</rscale>
<asrwt>0</asrwt>
<pdfrwt beam="1">  1        2 0.62736820E+00 0.23467477E+04</pdfrwt>
<pdfrwt beam="2">  1       -1 0.51942590E-01 0.23467477E+04</pdfrwt>
<totfact> 0.11386020E+00</totfact>
</mgrwt>
</event>
<event>
12    7  0.1625631E-007  0.1291303E+04  0.7818608E-02  0.9036490E-01
          2   -1    0    0  501    0  0.00000000000E+00  0.00000000000E+00  0.20896215696E+04  0.20896215696E+04  0.00000000000E+00 0. -1.
         -1   -1    0    0    0  501 -0.00000000000E+00 -0.00000000000E+00 -0.19949360001E+03  0.19949360001E+03  0.00000000000E+00 0.  1.
         24    2    1    2    0    0  0.24037577245E+03 -0.15765138278E+03  0.22062084429E+03  0.37120402814E+03  0.80525791492E+02 0.  0.
        254    2    1    2    0    0 -0.24037577245E+03  0.15765138278E+03  0.16695071253E+04  0.19179111415E+04  0.89916329702E+03 0.  0.
         23    2    4    4    0    0  0.13265560789E+03 -0.23678685811E+03  0.10506291705E+04  0.10890324551E+04  0.92219888308E+02 0.  0.
         23    2    4    4    0    0 -0.37303138034E+03  0.39443824089E+03  0.61887795484E+03  0.82887868645E+03  0.96415855875E+02 0.  0.
          2    1    3    3  502    0  0.70932023393E+02 -0.34968237580E+02  0.20485489012E+02  0.81693236208E+02  0.00000000000E+00 0. -1.
         -1    1    3    3    0  502  0.16944374906E+03 -0.12268314520E+03  0.20013535528E+03  0.28951079193E+03  0.00000000000E+00 0.  1.
         13    1    5    5    0    0  0.32518208930E+02 -0.13818182637E+03  0.62031215801E+03  0.63634803719E+03  0.00000000000E+00 0.  1.
        -13    1    5    5    0    0  0.10013739895E+03 -0.98605031740E+02  0.43031701248E+03  0.45268441787E+03  0.00000000000E+00 0. -1.
          3    1    6    6  503    0 -0.29926962117E+03  0.25882931946E+03  0.47055959775E+03  0.61480180367E+03  0.00000000000E+00 0. -1.
         -3    1    6    6    0  503 -0.73761759172E+02  0.13560892143E+03  0.14831835709E+03  0.21407688277E+03  0.00000000000E+00 0.  1.
<mgrwt>
<rscale>  0 0.12913034E+04</rscale>
<asrwt>0</asrwt>
<pdfrwt beam="1">  1        2 0.32148023E+00 0.12913034E+04</pdfrwt>
<pdfrwt beam="2">  1       -1 0.30691324E-01 0.12913034E+04</pdfrwt>
<totfact> 0.65306796E+01</totfact>
</mgrwt>
</event>
<event>
12    7  0.1625631E-007  0.1469543E+04  0.7818608E-02  0.8904963E-01
          2   -1    0    0  501    0  0.00000000000E+00  0.00000000000E+00  0.10597926184E+04  0.10597926184E+04  0.00000000000E+00 0. -1.
         -1   -1    0    0    0  501 -0.00000000000E+00 -0.00000000000E+00 -0.50942871413E+03  0.50942871413E+03  0.00000000000E+00 0.  1.
         24    2    1    2    0    0  0.36355816640E+03  0.24208845451E+03  0.78956602270E+02  0.45085860238E+03  0.79107358254E+02 0.  0.
        254    2    1    2    0    0 -0.36355816640E+03 -0.24208845451E+03  0.47140730195E+03  0.11183627301E+04  0.91527536382E+03 0.  0.
         23    2    4    4    0    0  0.17999356827E+03  0.19879471339E+01  0.47308576120E+03  0.51442694473E+03  0.91778578473E+02 0.  0.
         23    2    4    4    0    0 -0.54355173467E+03 -0.24407640165E+03 -0.16784592436E+01  0.60393578538E+03  0.98558802410E+02 0.  0.
          2    1    3    3  502    0  0.11045934736E+03  0.71356216972E+02  0.61188241966E+02  0.14504129782E+03  0.00000000000E+00 0. -1.
         -1    1    3    3    0  502  0.25309881904E+03  0.17073223754E+03  0.17768360304E+02  0.30581730455E+03  0.00000000000E+00 0.  1.
         13    1    5    5    0    0  0.45023794368E+02  0.38164309559E+02  0.18600838448E+03  0.19514808654E+03  0.00000000000E+00 0.  1.
        -13    1    5    5    0    0  0.13496977390E+03 -0.36176362425E+02  0.28707737672E+03  0.31927885819E+03  0.00000000000E+00 0. -1.
          4    1    6    6  503    0 -0.36236770501E+03 -0.20131245360E+03 -0.30067244704E+02  0.41562133825E+03  0.00000000000E+00 0. -1.
         -4    1    6    6    0  503 -0.18118402966E+03 -0.42763948053E+02  0.28388785460E+02  0.18831444713E+03  0.00000000000E+00 0.  1.
<mgrwt>
<rscale>  0 0.14695425E+04</rscale>
<asrwt>0</asrwt>
<pdfrwt beam="1">  1        2 0.16304502E+00 0.14695425E+04</pdfrwt>
<pdfrwt beam="2">  1       -1 0.78373648E-01 0.14695425E+04</pdfrwt>
<totfact> 0.41551195E+01</totfact>
</mgrwt>
</event>
<event>
12    7  0.1625631E-007  0.1607361E+04  0.7818608E-02  0.8816039E-01
         -1   -1    0    0    0  501 -0.00000000000E+00  0.00000000000E+00  0.77451488283E+03  0.77451488283E+03  0.00000000000E+00 0.  1.
          2   -1    0    0  501    0  0.00000000000E+00 -0.00000000000E+00 -0.83394405945E+03  0.83394405945E+03  0.00000000000E+00 0. -1.
         24    2    1    2    0    0  0.20998873270E+03 -0.13633431487E+03  0.46836265734E+03  0.53712860152E+03  0.80381854342E+02 0.  0.
        254    2    1    2    0    0 -0.20998873270E+03  0.13633431487E+03 -0.52779183396E+03  0.10713303408E+04  0.89805465634E+03 0.  0.
         23    2    4    4    0    0  0.24484326188E+03  0.10664139922E+03  0.90852462006E+02  0.29747272089E+03  0.94420542801E+02 0.  0.
         23    2    4    4    0    0 -0.45483199458E+03  0.29692915645E+02 -0.61864429597E+03  0.77385761987E+03  0.91548011261E+02 0.  0.
          2    1    3    3  502    0  0.11282310286E+03 -0.59620714355E+02  0.15872663758E+03  0.20366106058E+03  0.00000000000E+00 0. -1.
         -1    1    3    3    0  502  0.97165629834E+02 -0.76713600514E+02  0.30963601976E+03  0.33346754094E+03  0.00000000000E+00 0.  1.
         13    1    5    5    0    0  0.23246379853E+03  0.96862839047E+02  0.10813641761E+03  0.27407172789E+03  0.00000000000E+00 0. -1.
        -13    1    5    5    0    0  0.12379463352E+02  0.97785601767E+01 -0.17283955603E+02  0.23400992998E+02  0.00000000000E+00 0.  1.
          4    1    6    6  503    0 -0.28567871601E+03 -0.57035934491E+01 -0.44525198111E+03  0.52905026835E+03  0.00000000000E+00 0. -1.
         -4    1    6    6    0  503 -0.16915327857E+03  0.35396509094E+02 -0.17339231486E+03  0.24480735152E+03  0.00000000000E+00 0.  1.
<mgrwt>
<rscale>  0 0.16073607E+04</rscale>
<asrwt>0</asrwt>
<pdfrwt beam="1">  1        2 0.12829909E+00 0.16073607E+04</pdfrwt>
<pdfrwt beam="2">  1       -1 0.11915614E+00 0.16073607E+04</pdfrwt>
<totfact> 0.22452630E+01</totfact>
</mgrwt>
</event>
<event>
12    7  0.1625631E-007  0.1214298E+04  0.7818608E-02  0.9100433E-01
         -1   -1    0    0    0  501 -0.00000000000E+00  0.00000000000E+00  0.19048384934E+03  0.19048384934E+03  0.00000000000E+00 0.  1.
          2   -1    0    0  501    0  0.00000000000E+00 -0.00000000000E+00 -0.19352281966E+04  0.19352281966E+04  0.00000000000E+00 0. -1.
         24    2    1    2    0    0 -0.21608576574E+03  0.22487489170E+03 -0.49575220046E+03  0.59138686702E+03  0.81892656265E+02 0.  0.
        254    2    1    2    0    0  0.21608576574E+03 -0.22487489170E+03 -0.12489921468E+04  0.15343251789E+04  0.83481171340E+03 0.  0.
         23    2    4    4    0    0 -0.15008776892E+03 -0.11531646947E+02  0.34714423983E+02  0.17931717671E+03  0.91050762590E+02 0.  0.
         23    2    4    4    0    0  0.36617353466E+03 -0.21334324475E+03 -0.12837065707E+04  0.13550080022E+04  0.92443110237E+02 0.  0.
          2    1    3    3  502    0 -0.10194068573E+03  0.75263990057E+02 -0.13930514455E+03  0.18831488232E+03  0.00000000000E+00 0. -1.
         -1    1    3    3    0  502 -0.11414508001E+03  0.14961090164E+03 -0.35644705591E+03  0.40307198470E+03  0.00000000000E+00 0.  1.
         13    1    5    5    0    0 -0.15691278764E+03 -0.23652987758E+02  0.21508796137E+02  0.16013655132E+03  0.00000000000E+00 0.  1.
        -13    1    5    5    0    0  0.68250187208E+01  0.12121340811E+02  0.13205627847E+02  0.19180625392E+02  0.00000000000E+00 0. -1.
          4    1    6    6  503    0  0.17582578494E+03 -0.11657245075E+03 -0.77738407560E+03  0.80549974793E+03  0.00000000000E+00 0. -1.
         -4    1    6    6    0  503  0.19034774972E+03 -0.96770794004E+02 -0.50632249514E+03  0.54950825425E+03  0.00000000000E+00 0.  1.
<mgrwt>
<rscale>  0 0.12142977E+04</rscale>
<asrwt>0</asrwt>
<pdfrwt beam="1">  1        2 0.29772741E+00 0.12142977E+04</pdfrwt>
<pdfrwt beam="2">  1       -1 0.29305208E-01 0.12142977E+04</pdfrwt>
<totfact> 0.86750325E+01</totfact>
</mgrwt>
</event>
<event>
12    7  0.1625631E-007  0.1916471E+04  0.7818608E-02  0.8646701E-01
          2   -1    0    0  501    0  0.00000000000E+00  0.00000000000E+00  0.10001381225E+04  0.10001381225E+04  0.00000000000E+00 0. -1.
         -1   -1    0    0    0  501 -0.00000000000E+00 -0.00000000000E+00 -0.91808831428E+03  0.91808831428E+03  0.00000000000E+00 0.  1.
         24    2    1    2    0    0  0.69070955480E+02  0.75410222377E+01  0.77882449455E+03  0.78594401252E+03  0.79452713017E+02 0.  0.
        254    2    1    2    0    0 -0.69070955480E+02 -0.75410222377E+01 -0.69677468631E+03  0.11322824243E+04  0.88979821361E+03 0.  0.
         23    2    4    4    0    0  0.36323460293E+03  0.17598246451E+03 -0.32340156036E+03  0.52514945219E+03  0.91017434098E+02 0.  0.
         23    2    4    4    0    0 -0.43230555841E+03 -0.18352348675E+03 -0.37337312595E+03  0.60713297209E+03  0.92919258505E+02 0.  0.
          4    1    3    3  502    0  0.73181999908E+02 -0.17837990897E+02  0.46428867800E+03  0.47035919843E+03  0.00000000000E+00 0. -1.
         -3    1    3    3    0  502 -0.41110444284E+01  0.25379013134E+02  0.31453581655E+03  0.31558481409E+03  0.00000000000E+00 0.  1.
         13    1    5    5    0    0  0.26338407698E+03  0.13958951351E+03 -0.18567389391E+03  0.35118541993E+03  0.00000000000E+00 0. -1.
        -13    1    5    5    0    0  0.99850525947E+02  0.36392950999E+02 -0.13772766645E+03  0.17396403226E+03  0.00000000000E+00 0.  1.
          1    1    6    6  503    0 -0.36104360574E+03 -0.13828113367E+03 -0.34474672580E+03  0.51800044607E+03  0.00000000000E+00 0. -1.
         -1    1    6    6    0  503 -0.71261952662E+02 -0.45242353079E+02 -0.28626400147E+02  0.89132526020E+02  0.00000000000E+00 0.  1.
<mgrwt>
<rscale>  0 0.19164708E+04</rscale>
<asrwt>0</asrwt>
<pdfrwt beam="1">  1        2 0.15386740E+00 0.19164708E+04</pdfrwt>
<pdfrwt beam="2">  1       -1 0.14124436E+00 0.19164708E+04</pdfrwt>
<totfact> 0.11005441E+01</totfact>
</mgrwt>
</event>
<event>
12    7  0.1625631E-007  0.1520786E+04  0.7818608E-02  0.8870747E-01
          2   -1    0    0  501    0  0.00000000000E+00  0.00000000000E+00  0.12272818574E+04  0.12272818574E+04  0.00000000000E+00 0. -1.
         -1   -1    0    0    0  501 -0.00000000000E+00 -0.00000000000E+00 -0.47112011801E+03  0.47112011801E+03  0.00000000000E+00 0.  1.
         24    2    1    2    0    0  0.39759488806E+03  0.82286852137E+02 -0.50841006039E+02  0.42110224356E+03  0.99445817375E+02 0.  0.
        254    2    1    2    0    0 -0.39759488806E+03 -0.82286852137E+02  0.80700274547E+03  0.12772997319E+04  0.90298856737E+03 0.  0.
         23    2    4    4    0    0  0.23348058810E+03  0.12396556950E+03  0.84880419627E+02  0.29244783063E+03  0.91871652650E+02 0.  0.
         23    2    4    4    0    0 -0.63107547616E+03 -0.20625242163E+03  0.72212232584E+03  0.98485190124E+03  0.87614472914E+02 0.  0.
          4    1    3    3  502    0  0.10375808048E+02  0.16056619512E+02  0.12982957099E+02  0.23109080420E+02  0.00000000000E+00 0. -1.
         -3    1    3    3    0  502  0.38721908001E+03  0.66230232625E+02 -0.63823963138E+02  0.39799316314E+03  0.00000000000E+00 0.  1.
         13    1    5    5    0    0  0.21597682299E+03  0.10598236757E+03  0.10278902383E+03  0.26161772441E+03  0.00000000000E+00 0.  1.
        -13    1    5    5    0    0  0.17503765117E+02  0.17983201931E+02 -0.17908604208E+02  0.30830106221E+02  0.00000000000E+00 0. -1.
          1    1    6    6  503    0  0.62253836258E+00  0.32547572053E+01  0.81216839785E+01  0.87717016094E+01  0.00000000000E+00 0. -1.
         -1    1    6    6    0  503 -0.63169801453E+03 -0.20950717884E+03  0.71400064186E+03  0.97608019964E+03  0.00000000000E+00 0.  1.
<mgrwt>
<rscale>  0 0.15207856E+04</rscale>
<asrwt>0</asrwt>
<pdfrwt beam="1">  1        2 0.18881259E+00 0.15207856E+04</pdfrwt>
<pdfrwt beam="2">  1       -1 0.72480019E-01 0.15207856E+04</pdfrwt>
<totfact> 0.38531845E+01</totfact>
</mgrwt>
</event>
<event>
12    7  0.1625631E-007  0.1204153E+04  0.7818608E-02  0.9109229E-01
          2   -1    0    0  501    0  0.00000000000E+00  0.00000000000E+00  0.26028775093E+04  0.26028775093E+04  0.00000000000E+00 0. -1.
         -1   -1    0    0    0  501 -0.00000000000E+00 -0.00000000000E+00 -0.13926745462E+03  0.13926745462E+03  0.00000000000E+00 0.  1.
         24    2    1    2    0    0  0.21293771072E+03  0.11127668434E+03  0.70459192473E+03  0.74868297268E+03  0.79695947584E+02 0.  0.
        254    2    1    2    0    0 -0.21293771072E+03 -0.11127668434E+03  0.17590181299E+04  0.19934619912E+04  0.90665371554E+03 0.  0.
         23    2    4    4    0    0 -0.36951438030E+03 -0.19404668233E+03  0.17413398590E+04  0.17930179735E+04  0.91945399722E+02 0.  0.
         23    2    4    4    0    0  0.15657666958E+03  0.82769997982E+02  0.17678270934E+02  0.20044401774E+03  0.92185448759E+02 0.  0.
          2    1    3    3  502    0 -0.32980426184E+01  0.35816337070E+01  0.12706315775E+01  0.50318674197E+01  0.00000000000E+00 0. -1.
         -1    1    3    3    0  502  0.21623575334E+03  0.10769505064E+03  0.70332129316E+03  0.74365110526E+03  0.00000000000E+00 0.  1.
         13    1    5    5    0    0 -0.26654384250E+03 -0.12517396166E+03  0.13788729227E+04  0.14099661973E+04  0.00000000000E+00 0.  1.
        -13    1    5    5    0    0 -0.10297053780E+03 -0.68872720664E+02  0.36246693630E+03  0.38305177616E+03  0.00000000000E+00 0. -1.
          2    1    6    6  503    0  0.10890741028E+03  0.69899548633E+02  0.52888179525E+02  0.13979960818E+03  0.00000000000E+00 0. -1.
         -2    1    6    6    0  503  0.47669259299E+02  0.12870449349E+02 -0.35209908590E+02  0.60644409565E+02  0.00000000000E+00 0.  1.
<mgrwt>
<rscale>  0 0.12041530E+04</rscale>
<asrwt>0</asrwt>
<pdfrwt beam="1">  1        2 0.40044266E+00 0.12041530E+04</pdfrwt>
<pdfrwt beam="2">  1       -1 0.21425764E-01 0.12041530E+04</pdfrwt>
<totfact> 0.62530188E+01</totfact>
</mgrwt>
</event>
<event>
12    7  0.1625631E-007  0.1811863E+04  0.7818608E-02  0.8700016E-01
          2   -1    0    0  501    0  0.00000000000E+00  0.00000000000E+00  0.84278103171E+03  0.84278103171E+03  0.00000000000E+00 0. -1.
         -1   -1    0    0    0  501 -0.00000000000E+00 -0.00000000000E+00 -0.97381356510E+03  0.97381356510E+03  0.00000000000E+00 0.  1.
         24    2    1    2    0    0  0.25077351869E+03 -0.44395167844E+03  0.40535538639E+03  0.65622781564E+03  0.79633575018E+02 0.  0.
        254    2    1    2    0    0 -0.25077351869E+03  0.44395167844E+03 -0.53638791977E+03  0.11603667812E+04  0.89373296677E+03 0.  0.
         23    2    4    4    0    0 -0.34620492917E+03  0.15526708681E+03 -0.69971396275E+03  0.80105839348E+03  0.90162069971E+02 0.  0.
         23    2    4    4    0    0  0.95431410470E+02  0.28868459163E+03  0.16332604298E+03  0.35930838769E+03  0.99905823669E+02 0.  0.
          4    1    3    3  502    0  0.24674813664E+03 -0.44723854621E+03  0.40234638081E+03  0.65022270823E+03  0.00000000000E+00 0. -1.
         -3    1    3    3    0  502  0.40253820529E+01  0.32868677637E+01  0.30090055747E+01  0.60051074025E+01  0.00000000000E+00 0.  1.
         13    1    5    5    0    0 -0.64226071054E+02  0.43911240360E+02 -0.22225963182E+03  0.23548360701E+03  0.00000000000E+00 0. -1.
        -13    1    5    5    0    0 -0.28197885811E+03  0.11135584645E+03 -0.47745433093E+03  0.56557478646E+03  0.00000000000E+00 0.  1.
          1    1    6    6  503    0  0.14088960878E+02  0.19470133619E+03  0.10986376235E+03  0.22400257903E+03  0.00000000000E+00 0. -1.
         -1    1    6    6    0  503  0.81342449593E+02  0.93983255437E+02  0.53462280626E+02  0.13530580866E+03  0.00000000000E+00 0.  1.
<mgrwt>
<rscale>  0 0.18118627E+04</rscale>
<asrwt>0</asrwt>
<pdfrwt beam="1">  1        2 0.12965862E+00 0.18118627E+04</pdfrwt>
<pdfrwt beam="2">  1       -1 0.14981747E+00 0.18118627E+04</pdfrwt>
<totfact> 0.12100744E+01</totfact>
</mgrwt>
</event>
<event>
12    7  0.1625631E-007  0.1692749E+04  0.7818608E-02  0.8765511E-01
         -1   -1    0    0    0  501 -0.00000000000E+00  0.00000000000E+00  0.68332203549E+03  0.68332203549E+03  0.00000000000E+00 0.  1.
          2   -1    0    0  501    0  0.00000000000E+00 -0.00000000000E+00 -0.10483340383E+04  0.10483340383E+04  0.00000000000E+00 0. -1.
         24    2    1    2    0    0  0.14444797081E+03 -0.81623777996E+02  0.46321395582E+03  0.49839413022E+03  0.79384398779E+02 0.  0.
        254    2    1    2    0    0 -0.14444797081E+03  0.81623777996E+02 -0.82822595860E+03  0.12332619435E+04  0.89858172998E+03 0.  0.
         23    2    4    4    0    0 -0.11623694976E+03 -0.35580206584E+03 -0.13585489175E+03  0.40869262699E+03  0.92016157282E+02 0.  0.
         23    2    4    4    0    0 -0.28211021043E+02  0.43742584383E+03 -0.69237106685E+03  0.82456931654E+03  0.91649511766E+02 0.  0.
          4    1    3    3  502    0  0.54563297262E+02 -0.76188308944E+02  0.22557159534E+03  0.24426288390E+03  0.00000000000E+00 0. -1.
         -3    1    3    3    0  502  0.89884673545E+02 -0.54354690526E+01  0.23764236048E+03  0.25413124632E+03  0.00000000000E+00 0.  1.
         13    1    5    5    0    0 -0.62993219219E+02 -0.18101731791E+03 -0.20845610388E+02  0.19279511022E+03  0.00000000000E+00 0.  1.
        -13    1    5    5    0    0 -0.53243730545E+02 -0.17478474792E+03 -0.11500928136E+03  0.21589751677E+03  0.00000000000E+00 0. -1.
          3    1    6    6  503    0 -0.31947664532E+02  0.40690680657E+03 -0.58810316521E+03  0.71586251154E+03  0.00000000000E+00 0. -1.
         -3    1    6    6    0  503  0.37366434885E+01  0.30519037257E+02 -0.10426790164E+03  0.10870680499E+03  0.00000000000E+00 0.  1.
<mgrwt>
<rscale>  0 0.16927489E+04</rscale>
<asrwt>0</asrwt>
<pdfrwt beam="1">  1        2 0.16128216E+00 0.16927489E+04</pdfrwt>
<pdfrwt beam="2">  1       -1 0.10512647E+00 0.16927489E+04</pdfrwt>
<totfact> 0.21640130E+01</totfact>
</mgrwt>
</event>
<event>
12    7  0.1625631E-007  0.1952588E+04  0.7818608E-02  0.8629114E-01
         -1   -1    0    0    0  501 -0.00000000000E+00  0.00000000000E+00  0.10825079865E+04  0.10825079865E+04  0.00000000000E+00 0.  1.
          2   -1    0    0  501    0  0.00000000000E+00 -0.00000000000E+00 -0.88050186282E+03  0.88050186282E+03  0.00000000000E+00 0. -1.
         24    2    1    2    0    0  0.73843480601E+03 -0.14246874660E+02 -0.11067898545E+03  0.75106332105E+03  0.79732918181E+02 0.  0.
        254    2    1    2    0    0 -0.73843480601E+03  0.14246874660E+02  0.31268510908E+03  0.12119465282E+04  0.90859973237E+03 0.  0.
         23    2    4    4    0    0 -0.12185536540E+03 -0.38411247456E+03  0.12014672183E+02  0.41359329747E+03  0.92325187109E+02 0.  0.
         23    2    4    4    0    0 -0.61657944061E+03  0.39835934922E+03  0.30067043690E+03  0.79835323075E+03  0.90026616819E+02 0.  0.
          4    1    3    3  502    0  0.61977739403E+03 -0.27743538147E+02 -0.67434483880E+02  0.62405218666E+03  0.00000000000E+00 0. -1.
         -3    1    3    3    0  502  0.11865741199E+03  0.13496663487E+02 -0.43244501567E+02  0.12701113439E+03  0.00000000000E+00 0.  1.
         13    1    5    5    0    0 -0.53018777794E+02 -0.71933768028E+02  0.27626306228E+02  0.93534328336E+02  0.00000000000E+00 0. -1.
        -13    1    5    5    0    0 -0.68836587610E+02 -0.31217870653E+03 -0.15611634046E+02  0.32005896914E+03  0.00000000000E+00 0.  1.
          4    1    6    6  503    0 -0.26133779239E+03  0.21441299659E+03  0.11251364374E+03  0.35627193949E+03  0.00000000000E+00 0. -1.
         -4    1    6    6    0  503 -0.35524164821E+03  0.18394635263E+03  0.18815679316E+03  0.44208129126E+03  0.00000000000E+00 0.  1.
<mgrwt>
<rscale>  0 0.19525883E+04</rscale>
<asrwt>0</asrwt>
<pdfrwt beam="1">  1        2 0.13546182E+00 0.19525883E+04</pdfrwt>
<pdfrwt beam="2">  1       -1 0.16653969E+00 0.19525883E+04</pdfrwt>
<totfact> 0.83973078E+00</totfact>
</mgrwt>
</event>
<event>
12    7  0.1625631E-007  0.1341797E+04  0.7818608E-02  0.8997061E-01
         -1   -1    0    0    0  501 -0.00000000000E+00  0.00000000000E+00  0.47049206662E+03  0.47049206662E+03  0.00000000000E+00 0.  1.
          2   -1    0    0  501    0  0.00000000000E+00 -0.00000000000E+00 -0.95666854611E+03  0.95666854611E+03  0.00000000000E+00 0. -1.
         24    2    1    2    0    0  0.26962471386E+03  0.36233171572E+02  0.11458593348E+03  0.31396707038E+03  0.10693482168E+03 0.  0.
        254    2    1    2    0    0 -0.26962471386E+03 -0.36233171572E+02 -0.60076241297E+03  0.11131935423E+04  0.89681327869E+03 0.  0.
         23    2    4    4    0    0  0.20530448723E+03  0.16811471738E+03  0.40819097489E+02  0.28401459451E+03  0.92658515520E+02 0.  0.
         23    2    4    4    0    0 -0.47492920109E+03 -0.20434788895E+03 -0.64158151046E+03  0.82917894784E+03  0.92709693145E+02 0.  0.
          4    1    3    3  502    0  0.65953162771E+02 -0.33819626277E+02  0.10862461407E+02  0.74910479032E+02  0.00000000000E+00 0. -1.
         -3    1    3    3    0  502  0.20367155109E+03  0.70052797849E+02  0.10372347207E+03  0.23905659135E+03  0.00000000000E+00 0.  1.
         13    1    5    5    0    0  0.19115540867E+03  0.10984514946E+03  0.24208402537E+02  0.22179358394E+03  0.00000000000E+00 0.  1.
        -13    1    5    5    0    0  0.14149078561E+02  0.58269567918E+02  0.16610694952E+02  0.62221010569E+02  0.00000000000E+00 0. -1.
          3    1    6    6  503    0 -0.26860061953E+03 -0.16088008252E+03 -0.41187540846E+03  0.51736838505E+03  0.00000000000E+00 0. -1.
         -3    1    6    6    0  503 -0.20632858156E+03 -0.43467806437E+02 -0.22970610200E+03  0.31181056278E+03  0.00000000000E+00 0.  1.
<mgrwt>
<rscale>  0 0.13417972E+04</rscale>
<asrwt>0</asrwt>
<pdfrwt beam="1">  1        2 0.14717977E+00 0.13417972E+04</pdfrwt>
<pdfrwt beam="2">  1       -1 0.72383396E-01 0.13417972E+04</pdfrwt>
<totfact> 0.57719058E+01</totfact>
</mgrwt>
</event>
<event>
12    7  0.1625631E-007  0.3163527E+04  0.7818608E-02  0.8198516E-01
          2   -1    0    0  501    0  0.00000000000E+00  0.00000000000E+00  0.26584680229E+04  0.26584680229E+04  0.00000000000E+00 0. -1.
         -3   -1    0    0    0  501 -0.00000000000E+00 -0.00000000000E+00 -0.94113463816E+03  0.94113463816E+03  0.00000000000E+00 0.  1.
         24    2    1    2    0    0 -0.12713652089E+04 -0.42364253928E+03  0.14025152135E+04  0.19413597060E+04  0.77369816534E+02 0.  0.
        254    2    1    2    0    0  0.12713652089E+04  0.42364253928E+03  0.31481817130E+03  0.16582429551E+04  0.92456298964E+03 0.  0.
         23    2    4    4    0    0  0.39833234747E+03 -0.27690453958E+03  0.18908124130E+03  0.52818862075E+03  0.88807208001E+02 0.  0.
         23    2    4    4    0    0  0.87303286140E+03  0.70054707886E+03  0.12573693000E+03  0.11300543344E+04  0.90886942399E+02 0.  0.
          4    1    3    3  502    0 -0.81771626004E+03 -0.30974276971E+03  0.89860000375E+03  0.12538271141E+04  0.00000000000E+00 0. -1.
         -3    1    3    3    0  502 -0.45364894883E+03 -0.11389976957E+03  0.50391520973E+03  0.68753259187E+03  0.00000000000E+00 0.  1.
         13    1    5    5    0    0  0.28107250618E+03 -0.24111515946E+03  0.14946242514E+03  0.39934607846E+03  0.00000000000E+00 0. -1.
        -13    1    5    5    0    0  0.11725984129E+03 -0.35789380116E+02  0.39618816160E+02  0.12884254229E+03  0.00000000000E+00 0.  1.
          1    1    6    6  503    0  0.52928804977E+03  0.36737239394E+03  0.76592740268E+02  0.64882568023E+03  0.00000000000E+00 0. -1.
         -1    1    6    6    0  503  0.34374481163E+03  0.33317468491E+03  0.49144189732E+02  0.48122865415E+03  0.00000000000E+00 0.  1.
<mgrwt>
<rscale>  0 0.31635274E+04</rscale>
<asrwt>0</asrwt>
<pdfrwt beam="1">  1        2 0.40899508E+00 0.31635274E+04</pdfrwt>
<pdfrwt beam="2">  1       -3 0.14478995E+00 0.31635274E+04</pdfrwt>
<totfact> 0.53381009E-01</totfact>
</mgrwt>
</event>
<event>
12    7  0.1625631E-007  0.3005492E+04  0.7818608E-02  0.8242164E-01
         -1   -1    0    0    0  501 -0.00000000000E+00  0.00000000000E+00  0.79474931613E+03  0.79474931613E+03  0.00000000000E+00 0.  1.
          2   -1    0    0  501    0  0.00000000000E+00 -0.00000000000E+00 -0.28414566954E+04  0.28414566954E+04  0.00000000000E+00 0. -1.
         24    2    1    2    0    0 -0.73478123443E+02  0.11320570366E+04 -0.18545875238E+04  0.21754405770E+04  0.78068250211E+02 0.  0.
        254    2    1    2    0    0  0.73478123443E+02 -0.11320570366E+04 -0.19211985538E+03  0.14607654345E+04  0.89998524827E+03 0.  0.
         23    2    4    4    0    0  0.46622216673E+03 -0.48845571806E+03 -0.16412751966E+03  0.70080011173E+03  0.90724068626E+02 0.  0.
         23    2    4    4    0    0 -0.39274404329E+03 -0.64360131852E+03 -0.27992335717E+02  0.75996532278E+03  0.91066899685E+02 0.  0.
          2    1    3    3  502    0 -0.86109688340E+02  0.10811213749E+04 -0.17748520956E+04  0.20799851602E+04  0.00000000000E+00 0. -1.
         -1    1    3    3    0  502  0.12631564897E+02  0.50935661682E+02 -0.79735428281E+02  0.95455416745E+02  0.00000000000E+00 0.  1.
         13    1    5    5    0    0  0.37026685274E+03 -0.43060537565E+03 -0.12043197344E+03  0.58053629689E+03  0.00000000000E+00 0.  1.
        -13    1    5    5    0    0  0.95955313992E+02 -0.57850342411E+02 -0.43695546221E+02  0.12026381484E+03  0.00000000000E+00 0. -1.
          2    1    6    6  503    0  0.50547255911E+01 -0.77513498145E+01  0.13882267200E+01  0.93573953735E+01  0.00000000000E+00 0. -1.
         -2    1    6    6    0  503 -0.39779876888E+03 -0.63584996871E+03 -0.29380562437E+02  0.75060792740E+03  0.00000000000E+00 0.  1.
<mgrwt>
<rscale>  0 0.30054921E+04</rscale>
<asrwt>0</asrwt>
<pdfrwt beam="1">  1        2 0.43714719E+00 0.30054921E+04</pdfrwt>
<pdfrwt beam="2">  1       -1 0.12226912E+00 0.30054921E+04</pdfrwt>
<totfact> 0.12535489E+00</totfact>
</mgrwt>
</event>
<event>
12    7  0.1625631E-007  0.1618007E+04  0.7818608E-02  0.8809562E-01
         -1   -1    0    0    0  501 -0.00000000000E+00  0.00000000000E+00  0.23367908404E+04  0.23367908404E+04  0.00000000000E+00 0.  1.
          2   -1    0    0  501    0  0.00000000000E+00 -0.00000000000E+00 -0.28007912916E+03  0.28007912916E+03  0.00000000000E+00 0. -1.
         24    2    1    2    0    0  0.73742558079E+02 -0.52402706025E+03  0.44066220853E+03  0.69303384813E+03  0.77912822352E+02 0.  0.
        254    2    1    2    0    0 -0.73742558079E+02  0.52402706025E+03  0.16160495027E+04  0.19238361214E+04  0.89971501165E+03 0.  0.
         23    2    4    4    0    0 -0.16652801092E+03 -0.13329131774E+03  0.95510469056E+03  0.98285319950E+03  0.90979602325E+02 0.  0.
         23    2    4    4    0    0  0.92785452842E+02  0.65731837799E+03  0.66094481215E+03  0.94098292194E+03  0.89018112517E+02 0.  0.
          4    1    3    3  502    0  0.32288858821E+02 -0.37567981260E+03  0.27407396181E+03  0.46614850482E+03  0.00000000000E+00 0. -1.
         -3    1    3    3    0  502  0.41453699258E+02 -0.14834724764E+03  0.16658824672E+03  0.22688534331E+03  0.00000000000E+00 0.  1.
         13    1    5    5    0    0 -0.49559724134E+02 -0.29324804806E+02  0.11866406230E+03  0.13189871158E+03  0.00000000000E+00 0.  1.
        -13    1    5    5    0    0 -0.11696828679E+03 -0.10396651294E+03  0.83644062825E+03  0.85095448793E+03  0.00000000000E+00 0. -1.
          1    1    6    6  503    0 -0.68362841503E+01  0.23155761940E+03  0.20650302471E+03  0.31033717969E+03  0.00000000000E+00 0. -1.
         -1    1    6    6    0  503  0.99621736993E+02  0.42576075859E+03  0.45444178744E+03  0.63064574224E+03  0.00000000000E+00 0.  1.
<mgrwt>
<rscale>  0 0.16180066E+04</rscale>
<asrwt>0</asrwt>
<pdfrwt beam="1">  1        2 0.43089098E-01 0.16180066E+04</pdfrwt>
<pdfrwt beam="2">  1       -1 0.35950627E+00 0.16180066E+04</pdfrwt>
<totfact> 0.17531288E+00</totfact>
</mgrwt>
</event>
<event>
12    7  0.1625631E-007  0.2008936E+04  0.7818608E-02  0.8602454E-01
         -1   -1    0    0    0  501 -0.00000000000E+00  0.00000000000E+00  0.63569666595E+03  0.63569666595E+03  0.00000000000E+00 0.  1.
          2   -1    0    0  501    0  0.00000000000E+00 -0.00000000000E+00 -0.15871656116E+04  0.15871656116E+04  0.00000000000E+00 0. -1.
         24    2    1    2    0    0 -0.50425561179E+03  0.28068637857E+03 -0.98426538511E+03  0.11439209041E+04  0.81964147600E+02 0.  0.
        254    2    1    2    0    0  0.50425561179E+03 -0.28068637857E+03  0.32796439422E+02  0.10789413734E+04  0.91103255470E+03 0.  0.
         23    2    4    4    0    0  0.62918995790E+03 -0.48847873746E+03 -0.59803588430E+02  0.80433125390E+03  0.94238085397E+02 0.  0.
         23    2    4    4    0    0 -0.12493434612E+03  0.20779235889E+03  0.92600027852E+02  0.27461011953E+03  0.89720105522E+02 0.  0.
          2    1    3    3  502    0 -0.40095229558E+03  0.25170002869E+03 -0.83871857577E+03  0.96310149886E+03  0.00000000000E+00 0. -1.
         -1    1    3    3    0  502 -0.10330331620E+03  0.28986349874E+02 -0.14554680934E+03  0.18081940528E+03  0.00000000000E+00 0.  1.
         13    1    5    5    0    0  0.45835534407E+03 -0.30183828928E+03 -0.31196431906E+02  0.54969918290E+03  0.00000000000E+00 0. -1.
        -13    1    5    5    0    0  0.17083461383E+03 -0.18664044818E+03 -0.28607156524E+02  0.25463207101E+03  0.00000000000E+00 0.  1.
          4    1    6    6  503    0 -0.11558830062E+02  0.35722713153E+02 -0.16997338154E+02  0.41214418494E+02  0.00000000000E+00 0.  1.
         -4    1    6    6    0  503 -0.11337551606E+03  0.17206964574E+03  0.10959736601E+03  0.23339570103E+03  0.00000000000E+00 0. -1.
<mgrwt>
<rscale>  0 0.20089359E+04</rscale>
<asrwt>0</asrwt>
<pdfrwt beam="1">  1        2 0.24417932E+00 0.20089359E+04</pdfrwt>
<pdfrwt beam="2">  1       -1 0.97799487E-01 0.20089359E+04</pdfrwt>
<totfact> 0.12023744E+01</totfact>
</mgrwt>
</event>
<event>
12    7  0.1625631E-007  0.1994900E+04  0.7818608E-02  0.8609009E-01
          2   -1    0    0  501    0  0.00000000000E+00  0.00000000000E+00  0.12444935836E+04  0.12444935836E+04  0.00000000000E+00 0. -1.
         -1   -1    0    0    0  501 -0.00000000000E+00 -0.00000000000E+00 -0.79944686826E+03  0.79944686826E+03  0.00000000000E+00 0.  1.
         24    2    1    2    0    0 -0.16353399734E+01 -0.77297159093E+03  0.31059895640E+01  0.77716533218E+03  0.80551546498E+02 0.  0.
        254    2    1    2    0    0  0.16353399734E+01  0.77297159093E+03  0.44194072579E+03  0.12667751197E+04  0.90106594878E+03 0.  0.
         23    2    4    4    0    0 -0.24223710768E+03  0.64705944038E+03 -0.48292178080E+02  0.69778640060E+03  0.84905775227E+02 0.  0.
         23    2    4    4    0    0  0.24387244766E+03  0.12591215055E+03  0.49023290387E+03  0.56898871910E+03  0.89956778770E+02 0.  0.
          4    1    3    3  502    0 -0.13495709774E+02 -0.80019504680E+02  0.21208990290E+02  0.83875363372E+02  0.00000000000E+00 0. -1.
         -3    1    3    3    0  502  0.11860369800E+02 -0.69295208625E+03 -0.18103000726E+02  0.69328996880E+03  0.00000000000E+00 0.  1.
         13    1    5    5    0    0 -0.16133379586E+02  0.30855184206E+02 -0.21378686236E+02  0.40858004777E+02  0.00000000000E+00 0. -1.
        -13    1    5    5    0    0 -0.22610372810E+03  0.61620425618E+03 -0.26913491844E+02  0.65692839582E+03  0.00000000000E+00 0.  1.
          4    1    6    6  503    0  0.41072425701E+02  0.57985724167E+02  0.16601196220E+03  0.18058034210E+03  0.00000000000E+00 0. -1.
         -4    1    6    6    0  503  0.20280002196E+03  0.67926426381E+02  0.32422094166E+03  0.38840837699E+03  0.00000000000E+00 0.  1.
<mgrwt>
<rscale>  0 0.19949000E+04</rscale>
<asrwt>0</asrwt>
<pdfrwt beam="1">  1        2 0.19146055E+00 0.19949000E+04</pdfrwt>
<pdfrwt beam="2">  1       -1 0.12299183E+00 0.19949000E+04</pdfrwt>
<totfact> 0.11002283E+01</totfact>
</mgrwt>
</event>
<event>
12    7  0.1625631E-007  0.1550431E+04  0.7818608E-02  0.8851593E-01
         -1   -1    0    0    0  501 -0.00000000000E+00  0.00000000000E+00  0.47067170452E+03  0.47067170452E+03  0.00000000000E+00 0.  1.
          2   -1    0    0  501    0  0.00000000000E+00 -0.00000000000E+00 -0.12768114150E+04  0.12768114150E+04  0.00000000000E+00 0. -1.
         24    2    1    2    0    0 -0.23414386095E+03  0.29634310686E+03 -0.64174552598E+03  0.74965125480E+03  0.86585790444E+02 0.  0.
        254    2    1    2    0    0  0.23414386095E+03 -0.29634310686E+03 -0.16439418453E+03  0.99783186476E+03  0.90884564026E+03 0.  0.
         23    2    4    4    0    0  0.45556158480E+03 -0.15750325861E+03 -0.40107895788E+03  0.63366236107E+03  0.91214162139E+02 0.  0.
         23    2    4    4    0    0 -0.22141772384E+03 -0.13883984825E+03  0.23668477335E+03  0.36416950368E+03  0.91090249667E+02 0.  0.
          4    1    3    3  502    0 -0.11083963286E+03  0.75629280610E+02 -0.24039255240E+03  0.27530672267E+03  0.00000000000E+00 0. -1.
         -3    1    3    3    0  502 -0.12330422810E+03  0.22071382624E+03 -0.40135297358E+03  0.47434453213E+03  0.00000000000E+00 0.  1.
         13    1    5    5    0    0  0.28901078228E+03 -0.11303117970E+03 -0.20181174003E+03  0.37017733355E+03  0.00000000000E+00 0. -1.
        -13    1    5    5    0    0  0.16655080251E+03 -0.44472078911E+02 -0.19926721785E+03  0.26348502753E+03  0.00000000000E+00 0.  1.
          3    1    6    6  503    0 -0.49650294869E+01  0.86792609315E+01 -0.15203121964E+01  0.10113972380E+02  0.00000000000E+00 0. -1.
         -3    1    6    6    0  503 -0.21645269436E+03 -0.14751910918E+03  0.23820508555E+03  0.35405553130E+03  0.00000000000E+00 0.  1.
<mgrwt>
<rscale>  0 0.15504309E+04</rscale>
<asrwt>0</asrwt>
<pdfrwt beam="1">  1        2 0.19643252E+00 0.15504309E+04</pdfrwt>
<pdfrwt beam="2">  1       -1 0.72411033E-01 0.15504309E+04</pdfrwt>
<totfact> 0.36008630E+01</totfact>
</mgrwt>
</event>
<event>
12    7  0.1625631E-007  0.1419904E+04  0.7818608E-02  0.8939536E-01
         -1   -1    0    0    0  501 -0.00000000000E+00  0.00000000000E+00  0.17559336224E+03  0.17559336224E+03  0.00000000000E+00 0.  1.
          2   -1    0    0  501    0  0.00000000000E+00 -0.00000000000E+00 -0.28704472720E+04  0.28704472720E+04  0.00000000000E+00 0. -1.
         24    2    1    2    0    0 -0.10716377695E+03  0.28797684009E+03 -0.18654043457E+03  0.36737231516E+03  0.75831053670E+02 0.  0.
        254    2    1    2    0    0  0.10716377695E+03 -0.28797684009E+03 -0.25083134752E+04  0.26786683191E+04  0.88837646204E+03 0.  0.
         23    2    4    4    0    0  0.15377626291E+03 -0.40867007043E+03 -0.52649471538E+03  0.69059099624E+03  0.95188619403E+02 0.  0.
         23    2    4    4    0    0 -0.46612485966E+02  0.12069323034E+03 -0.19818187598E+04  0.19880773229E+04  0.90034799736E+02 0.  0.
          2    1    3    3  502    0 -0.23440952176E+02  0.97912446564E+02 -0.10145579550E+03  0.14293216528E+03  0.00000000000E+00 0. -1.
         -1    1    3    3    0  502 -0.83722824771E+02  0.19006439352E+03 -0.85084639073E+02  0.22444014988E+03  0.00000000000E+00 0.  1.
         13    1    5    5    0    0  0.14785709581E+03 -0.40577190064E+03 -0.52954972779E+03  0.68332676688E+03  0.00000000000E+00 0. -1.
        -13    1    5    5    0    0  0.59191671034E+01 -0.28981697847E+01  0.30550124126E+01  0.72642293562E+01  0.00000000000E+00 0.  1.
          1    1    6    6  503    0 -0.17899387519E+02  0.10675865452E+03 -0.10197522226E+04  0.10254815424E+04  0.00000000000E+00 0. -1.
         -1    1    6    6    0  503 -0.28713098448E+02  0.13934575815E+02 -0.96206653722E+03  0.96259578041E+03  0.00000000000E+00 0.  1.
<mgrwt>
<rscale>  0 0.14199035E+04</rscale>
<asrwt>0</asrwt>
<pdfrwt beam="1">  1        2 0.44160725E+00 0.14199035E+04</pdfrwt>
<pdfrwt beam="2">  1       -1 0.27014365E-01 0.14199035E+04</pdfrwt>
<totfact> 0.28616254E+01</totfact>
</mgrwt>
</event>
<event>
12    7  0.1625631E-007  0.1945419E+04  0.7818608E-02  0.8632573E-01
          2   -1    0    0  501    0  0.00000000000E+00  0.00000000000E+00  0.36214756682E+04  0.36214756682E+04  0.00000000000E+00 0. -1.
         -1   -1    0    0    0  501 -0.00000000000E+00 -0.00000000000E+00 -0.26126473328E+03  0.26126473328E+03  0.00000000000E+00 0.  1.
         24    2    1    2    0    0  0.19514957176E+03 -0.20256867595E+03 -0.79131247851E+02  0.30329193353E+03  0.81282339556E+02 0.  0.
        254    2    1    2    0    0 -0.19514957176E+03  0.20256867595E+03  0.34393421828E+04  0.35794484680E+04  0.95092547588E+03 0.  0.
         23    2    4    4    0    0  0.12080913597E+02 -0.33456302331E+03  0.73568544783E+03  0.81370359125E+03  0.93819460816E+02 0.  0.
         23    2    4    4    0    0 -0.20723048536E+03  0.53713169927E+03  0.27036567350E+04  0.27657448767E+04  0.90166768546E+02 0.  0.
          2    1    3    3  502    0  0.21894299561E+02  0.17457459057E+01 -0.18299152918E+02  0.28587881690E+02  0.00000000000E+00 0. -1.
         -1    1    3    3    0  502  0.17325527220E+03 -0.20431442186E+03 -0.60832094933E+02  0.27470405184E+03  0.00000000000E+00 0.  1.
         13    1    5    5    0    0  0.41356878147E+02 -0.82953139250E+02  0.23416562350E+03  0.25184351076E+03  0.00000000000E+00 0.  1.
        -13    1    5    5    0    0 -0.29275964550E+02 -0.25160988406E+03  0.50151982432E+03  0.56186008049E+03  0.00000000000E+00 0. -1.
          2    1    6    6  503    0 -0.21010490201E+03  0.52291161432E+03  0.25565485120E+04  0.26179230166E+04  0.00000000000E+00 0. -1.
         -2    1    6    6    0  503  0.28744166562E+01  0.14220084945E+02  0.14710822295E+03  0.14782186018E+03  0.00000000000E+00 0.  1.
<mgrwt>
<rscale>  0 0.19454191E+04</rscale>
<asrwt>0</asrwt>
<pdfrwt beam="1">  1        2 0.55715007E+00 0.19454191E+04</pdfrwt>
<pdfrwt beam="2">  1       -1 0.40194577E-01 0.19454191E+04</pdfrwt>
<totfact> 0.43036378E+00</totfact>
</mgrwt>
</event>
<event>
12    7  0.1625631E-007  0.1267371E+04  0.7818608E-02  0.9055848E-01
         -1   -1    0    0    0  501 -0.00000000000E+00  0.00000000000E+00  0.66586251052E+03  0.66586251052E+03  0.00000000000E+00 0.  1.
          2   -1    0    0  501    0  0.00000000000E+00 -0.00000000000E+00 -0.60306339146E+03  0.60306339146E+03  0.00000000000E+00 0. -1.
         24    2    1    2    0    0 -0.10067349644E+02 -0.27417804393E+03 -0.98221322307E+02  0.30266421082E+03  0.81751116525E+02 0.  0.
        254    2    1    2    0    0  0.10067349644E+02  0.27417804393E+03  0.16102044136E+03  0.96626169116E+03  0.91239197825E+03 0.  0.
         23    2    4    4    0    0 -0.22315386200E+03  0.52435801224E+03  0.20051864911E+03  0.61122040352E+03  0.92917608232E+02 0.  0.
         23    2    4    4    0    0  0.23322121164E+03 -0.25017996831E+03 -0.39498207746E+02  0.35504128764E+03  0.86672125898E+02 0.  0.
          2    1    3    3  502    0 -0.29976157487E+02 -0.23324501116E+03 -0.10332418221E+03  0.25686123077E+03  0.00000000000E+00 0. -1.
         -1    1    3    3    0  502  0.19908807843E+02 -0.40933032772E+02  0.51028598982E+01  0.45802980043E+02  0.00000000000E+00 0.  1.
         13    1    5    5    0    0 -0.22334967399E+03  0.49195087667E+03  0.16920169860E+03  0.56615365117E+03  0.00000000000E+00 0. -1.
        -13    1    5    5    0    0  0.19581199464E+00  0.32407135570E+02  0.31316950510E+02  0.45066752350E+02  0.00000000000E+00 0.  1.
          1    1    6    6  503    0  0.22426170119E+03 -0.19615843642E+03 -0.29830596570E+02  0.29943498007E+03  0.00000000000E+00 0. -1.
         -1    1    6    6    0  503  0.89595104591E+01 -0.54021531893E+02 -0.96676111767E+01  0.55606307571E+02  0.00000000000E+00 0.  1.
<mgrwt>
<rscale>  0 0.12673710E+04</rscale>
<asrwt>0</asrwt>
<pdfrwt beam="1">  1        2 0.92778984E-01 0.12673710E+04</pdfrwt>
<pdfrwt beam="2">  1       -1 0.10244039E+00 0.12673710E+04</pdfrwt>
<totfact> 0.49917364E+01</totfact>
</mgrwt>
</event>
<event>
12    7  0.1625631E-007  0.1583062E+04  0.7818608E-02  0.8831022E-01
          2   -1    0    0  501    0  0.00000000000E+00  0.00000000000E+00  0.18773558283E+04  0.18773558283E+04  0.00000000000E+00 0. -1.
         -1   -1    0    0    0  501 -0.00000000000E+00 -0.00000000000E+00 -0.33372530606E+03  0.33372530606E+03  0.00000000000E+00 0.  1.
         24    2    1    2    0    0 -0.14490659490E+03  0.50337596843E+03  0.38000511251E+03  0.65189019021E+03  0.78559835282E+02 0.  0.
        254    2    1    2    0    0  0.14490659490E+03 -0.50337596843E+03  0.11636254097E+04  0.15591909442E+04  0.89591685960E+03 0.  0.
         23    2    4    4    0    0 -0.77883370565E+02  0.75591828807E+02  0.84203322474E+03  0.85426585164E+03  0.94711402304E+02 0.  0.
         23    2    4    4    0    0  0.22278996547E+03 -0.57896779724E+03  0.32159218500E+03  0.70492509252E+03  0.93052531701E+02 0.  0.
          4    1    3    3  502    0 -0.15202459604E+03  0.46750686376E+03  0.36533027469E+03  0.61248702440E+03  0.00000000000E+00 0. -1.
         -3    1    3    3    0  502  0.71180011396E+01  0.35869104678E+02  0.14674837822E+02  0.39403165808E+02  0.00000000000E+00 0.  1.
         13    1    5    5    0    0 -0.12699545721E+02 -0.78744205670E+01  0.17728216488E+02  0.23185655493E+02  0.00000000000E+00 0.  1.
        -13    1    5    5    0    0 -0.65183824844E+02  0.83466249374E+02  0.82430500825E+03  0.83108019615E+03  0.00000000000E+00 0. -1.
          1    1    6    6  503    0  0.16208679377E+03 -0.33934356901E+03  0.15456224272E+03  0.40659030167E+03  0.00000000000E+00 0. -1.
         -1    1    6    6    0  503  0.60703171701E+02 -0.23962422824E+03  0.16702994228E+03  0.29833479085E+03  0.00000000000E+00 0.  1.
<mgrwt>
<rscale>  0 0.15830618E+04</rscale>
<asrwt>0</asrwt>
<pdfrwt beam="1">  1        2 0.28882397E+00 0.15830618E+04</pdfrwt>
<pdfrwt beam="2">  1       -1 0.51342356E-01 0.15830618E+04</pdfrwt>
<totfact> 0.32622494E+01</totfact>
</mgrwt>
</event>
<event>
12    7  0.1625631E-007  0.1981384E+04  0.7818608E-02  0.8615374E-01
         -1   -1    0    0    0  501 -0.00000000000E+00  0.00000000000E+00  0.42388829987E+03  0.42388829987E+03  0.00000000000E+00 0.  1.
          2   -1    0    0  501    0  0.00000000000E+00 -0.00000000000E+00 -0.23153993642E+04  0.23153993642E+04  0.00000000000E+00 0. -1.
         24    2    1    2    0    0 -0.75463658233E+03  0.21355167785E+03 -0.72949809406E+03  0.10756222724E+04  0.98565273563E+02 0.  0.
        254    2    1    2    0    0  0.75463658233E+03 -0.21355167785E+03 -0.11620129703E+04  0.16636653917E+04  0.89578328955E+03 0.  0.
         23    2    4    4    0    0  0.23824161388E+03  0.30809549065E+03 -0.65378748679E+03  0.76623866021E+03  0.89452269748E+02 0.  0.
         23    2    4    4    0    0  0.51639496845E+03 -0.52164716850E+03 -0.50822548346E+03  0.89742673145E+03  0.91115665085E+02 0.  0.
          2    1    3    3  502    0 -0.16826855410E+03  0.49872383826E+02 -0.11035560794E+03  0.20731599353E+03  0.00000000000E+00 0. -1.
         -3    1    3    3    0  502 -0.58636802823E+03  0.16367929403E+03 -0.61914248612E+03  0.86830627888E+03  0.00000000000E+00 0.  1.
         13    1    5    5    0    0  0.33045808080E+02  0.50696409974E+01 -0.61853976721E+02  0.70311031337E+02  0.00000000000E+00 0.  1.
        -13    1    5    5    0    0  0.20519580580E+03  0.30302584965E+03 -0.59193351007E+03  0.69592762887E+03  0.00000000000E+00 0. -1.
          1    1    6    6  503    0  0.30474075011E+03 -0.35957829440E+03 -0.29482835650E+03  0.55595614429E+03  0.00000000000E+00 0. -1.
         -1    1    6    6    0  503  0.21165421834E+03 -0.16206887410E+03 -0.21339712696E+03  0.34147058715E+03  0.00000000000E+00 0.  1.
<mgrwt>
<rscale>  0 0.19813841E+04</rscale>
<asrwt>0</asrwt>
<pdfrwt beam="1">  1        2 0.35621529E+00 0.19813841E+04</pdfrwt>
<pdfrwt beam="2">  1       -1 0.65213584E-01 0.19813841E+04</pdfrwt>
<totfact> 0.11221801E+01</totfact>
</mgrwt>
</event>
<event>
12    7  0.1625631E-007  0.1881166E+04  0.7818608E-02  0.8664288E-01
         -1   -1    0    0    0  501 -0.00000000000E+00  0.00000000000E+00  0.71952908259E+03  0.71952908259E+03  0.00000000000E+00 0.  1.
          2   -1    0    0  501    0  0.00000000000E+00 -0.00000000000E+00 -0.12295491852E+04  0.12295491852E+04  0.00000000000E+00 0. -1.
         24    2    1    2    0    0  0.10748855888E+03  0.51696995072E+03 -0.75014279244E+03  0.92087622650E+03  0.80542505816E+02 0.  0.
        254    2    1    2    0    0 -0.10748855888E+03 -0.51696995072E+03  0.24012268982E+03  0.10282020413E+04  0.84895748498E+03 0.  0.
         23    2    4    4    0    0 -0.29099648156E+03 -0.63524827677E+03  0.32649745867E+03  0.77646653231E+03  0.89890821850E+02 0.  0.
         23    2    4    4    0    0  0.18350792267E+03  0.11827832605E+03 -0.86374768851E+02  0.25173550899E+03  0.90803335258E+02 0.  0.
          2    1    3    3  502    0  0.84580352203E+02  0.48997053276E+03 -0.68106709200E+03  0.84325402030E+03  0.00000000000E+00 0. -1.
         -1    1    3    3    0  502  0.22908206681E+02  0.26999417962E+02 -0.69075700442E+02  0.77622206198E+02  0.00000000000E+00 0.  1.
         13    1    5    5    0    0 -0.39558533480E+02 -0.17366768279E+03  0.67248569402E+02  0.19038831819E+03  0.00000000000E+00 0.  1.
        -13    1    5    5    0    0 -0.25143794808E+03 -0.46158059398E+03  0.25924888927E+03  0.58607821411E+03  0.00000000000E+00 0. -1.
          4    1    6    6  503    0  0.14650960849E+03  0.10361456416E+03 -0.10487698201E+03  0.20784663731E+03  0.00000000000E+00 0. -1.
         -4    1    6    6    0  503  0.36998314179E+02  0.14663761888E+02  0.18502213160E+02  0.43888871672E+02  0.00000000000E+00 0.  1.
<mgrwt>
<rscale>  0 0.18811660E+04</rscale>
<asrwt>0</asrwt>
<pdfrwt beam="1">  1        2 0.18916141E+00 0.18811660E+04</pdfrwt>
<pdfrwt beam="2">  1       -1 0.11069678E+00 0.18811660E+04</pdfrwt>
<totfact> 0.14625121E+01</totfact>
</mgrwt>
</event>
<event>
12    7  0.1625631E-007  0.2582396E+04  0.7818608E-02  0.8374206E-01
         -1   -1    0    0    0  501 -0.00000000000E+00  0.00000000000E+00  0.89600102292E+03  0.89600102292E+03  0.00000000000E+00 0.  1.
          2   -1    0    0  501    0  0.00000000000E+00 -0.00000000000E+00 -0.18607031513E+04  0.18607031513E+04  0.00000000000E+00 0. -1.
         24    2    1    2    0    0  0.60766531461E+03 -0.37642047512E+03 -0.13674501477E+04  0.15452253975E+04  0.82777497618E+02 0.  0.
        254    2    1    2    0    0 -0.60766531461E+03  0.37642047512E+03  0.40274801924E+03  0.12114787767E+04  0.89136151523E+03 0.  0.
         23    2    4    4    0    0 -0.74950183578E+03  0.51189746399E+03  0.24686816749E+03  0.94493520564E+03  0.90369437615E+02 0.  0.
         23    2    4    4    0    0  0.14183652116E+03 -0.13547698888E+03  0.15587985174E+03  0.26654357111E+03  0.90968862093E+02 0.  0.
          4    1    3    3  502    0  0.41428928411E+03 -0.21253005250E+03 -0.85827972770E+03  0.97644699043E+03  0.00000000000E+00 0. -1.
         -3    1    3    3    0  502  0.19337603050E+03 -0.16389042262E+03 -0.50917041996E+03  0.56877840708E+03  0.00000000000E+00 0.  1.
         13    1    5    5    0    0 -0.48677727605E+03  0.28896949382E+03  0.17937956010E+03  0.59382868861E+03  0.00000000000E+00 0. -1.
        -13    1    5    5    0    0 -0.26272455973E+03  0.22292797017E+03  0.67488607392E+02  0.35110651702E+03  0.00000000000E+00 0.  1.
          2    1    6    6  503    0  0.14828207228E+03 -0.13937006649E+03  0.13463686925E+03  0.24400548140E+03  0.00000000000E+00 0. -1.
         -2    1    6    6    0  503 -0.64455511172E+01  0.38930776114E+01  0.21242982497E+02  0.22538089712E+02  0.00000000000E+00 0.  1.
<mgrwt>
<rscale>  0 0.25823957E+04</rscale>
<asrwt>0</asrwt>
<pdfrwt beam="1">  1        2 0.28626202E+00 0.25823957E+04</pdfrwt>
<pdfrwt beam="2">  1       -1 0.13784631E+00 0.25823957E+04</pdfrwt>
<totfact> 0.35135264E+00</totfact>
</mgrwt>
</event>
<event>
12    7  0.1625631E-007  0.2350918E+04  0.7818608E-02  0.8458111E-01
          2   -1    0    0  501    0  0.00000000000E+00  0.00000000000E+00  0.95892041506E+03  0.95892041506E+03  0.00000000000E+00 0. -1.
         -1   -1    0    0    0  501 -0.00000000000E+00 -0.00000000000E+00 -0.14408951390E+04  0.14408951390E+04  0.00000000000E+00 0.  1.
         24    2    1    2    0    0 -0.22993505088E+03  0.53278562045E+03  0.61960958197E+03  0.85306274189E+03  0.84079501452E+02 0.  0.
        254    2    1    2    0    0  0.22993505088E+03 -0.53278562045E+03 -0.11015843060E+04  0.15467528122E+04  0.91772851867E+03 0.  0.
         23    2    4    4    0    0 -0.95638790755E+02 -0.13737567244E+03 -0.99853037878E+03  0.10166935609E+04  0.92650017878E+02 0.  0.
         23    2    4    4    0    0  0.32557384163E+03 -0.39540994801E+03 -0.10305392718E+03  0.53005925129E+03  0.89416691002E+02 0.  0.
          4    1    3    3  502    0 -0.19830882504E+03  0.49668115000E+03  0.53937938597E+03  0.75957137706E+03  0.00000000000E+00 0. -1.
         -3    1    3    3    0  502 -0.31626225837E+02  0.36104470452E+02  0.80230196003E+02  0.93491364831E+02  0.00000000000E+00 0.  1.
         13    1    5    5    0    0 -0.98397350928E+02 -0.63032450027E+02 -0.59669585077E+03  0.60803048177E+03  0.00000000000E+00 0.  1.
        -13    1    5    5    0    0  0.27585601730E+01 -0.74343222414E+02 -0.40183452800E+03  0.40866307916E+03  0.00000000000E+00 0. -1.
          2    1    6    6  503    0  0.63666768426E+02 -0.13814776728E+03 -0.42849714400E+02  0.15803278467E+03  0.00000000000E+00 0. -1.
         -2    1    6    6    0  503  0.26190707320E+03 -0.25726218073E+03 -0.60204212775E+02  0.37202646662E+03  0.00000000000E+00 0.  1.
<mgrwt>
<rscale>  0 0.23509179E+04</rscale>
<asrwt>0</asrwt>
<pdfrwt beam="1">  1        2 0.14752622E+00 0.23509179E+04</pdfrwt>
<pdfrwt beam="2">  1       -1 0.22167618E+00 0.23509179E+04</pdfrwt>
<totfact> 0.29573579E+00</totfact>
</mgrwt>
</event>
<event>
12    7  0.1625631E-007  0.2108773E+04  0.7818608E-02  0.8557388E-01
         -1   -1    0    0    0  501 -0.00000000000E+00  0.00000000000E+00  0.88340171513E+03  0.88340171513E+03  0.00000000000E+00 0.  1.
          2   -1    0    0  501    0  0.00000000000E+00 -0.00000000000E+00 -0.12584663670E+04  0.12584663670E+04  0.00000000000E+00 0. -1.
         24    2    1    2    0    0 -0.48888881301E+03 -0.10315695912E+03  0.56032055409E+03  0.75500879051E+03  0.80159345801E+02 0.  0.
        254    2    1    2    0    0  0.48888881301E+03  0.10315695912E+03 -0.93538520592E+03  0.13868592916E+04  0.89374469591E+03 0.  0.
         23    2    4    4    0    0  0.19886505274E+03  0.30802147006E+03  0.46046802031E+01  0.37796310631E+03  0.91708077244E+02 0.  0.
         23    2    4    4    0    0  0.29002376027E+03 -0.20486451094E+03 -0.93998988613E+03  0.10088961853E+04  0.90594024408E+02 0.  0.
          2    1    3    3  502    0 -0.13581257650E+03  0.68793371664E-01  0.18475097833E+03  0.22929889808E+03  0.00000000000E+00 0. -1.
         -1    1    3    3    0  502 -0.35307623651E+03 -0.10322575249E+03  0.37556957576E+03  0.52570989243E+03  0.00000000000E+00 0.  1.
         13    1    5    5    0    0  0.16189758444E+02  0.97748378412E+02  0.79894563335E+01  0.99401635666E+02  0.00000000000E+00 0. -1.
        -13    1    5    5    0    0  0.18267529429E+03  0.21027309165E+03 -0.33847761304E+01  0.27856147064E+03  0.00000000000E+00 0.  1.
          4    1    6    6  503    0  0.17128188064E+03 -0.14047471774E+03 -0.46492040990E+03  0.51499671504E+03  0.00000000000E+00 0. -1.
         -4    1    6    6    0  503  0.11874187963E+03 -0.64389793199E+02 -0.47506947623E+03  0.49389947023E+03  0.00000000000E+00 0.  1.
<mgrwt>
<rscale>  0 0.21087734E+04</rscale>
<asrwt>0</asrwt>
<pdfrwt beam="1">  1        2 0.19361021E+00 0.21087734E+04</pdfrwt>
<pdfrwt beam="2">  1       -1 0.13590796E+00 0.21087734E+04</pdfrwt>
<totfact> 0.83112607E+00</totfact>
</mgrwt>
</event>
<event>
12    7  0.1625631E-007  0.1696951E+04  0.7818608E-02  0.8763105E-01
         -1   -1    0    0    0  501 -0.00000000000E+00  0.00000000000E+00  0.24796375876E+03  0.24796375876E+03  0.00000000000E+00 0.  1.
          2   -1    0    0  501    0  0.00000000000E+00 -0.00000000000E+00 -0.29032908765E+04  0.29032908765E+04  0.00000000000E+00 0. -1.
         24    2    1    2    0    0 -0.42063538257E+03  0.72216506811E+02 -0.17669283313E+04  0.18195369812E+04  0.80806861110E+02 0.  0.
        254    2    1    2    0    0  0.42063538257E+03 -0.72216506811E+02 -0.88839878642E+03  0.13317176541E+04  0.89558369663E+03 0.  0.
         23    2    4    4    0    0 -0.67854163814E+02 -0.38235086351E+03 -0.29107840873E+03  0.49509309030E+03  0.97949771126E+02 0.  0.
         23    2    4    4    0    0  0.48848954639E+03  0.31013435670E+03 -0.59732037769E+03  0.83662456383E+03  0.91343697414E+02 0.  0.
          2    1    3    3  502    0 -0.28510927679E+03  0.85566894904E+02 -0.12527348460E+04  0.12876154657E+04  0.00000000000E+00 0. -1.
         -1    1    3    3    0  502 -0.13552610578E+03 -0.13350388093E+02 -0.51419348533E+03  0.53192151542E+03  0.00000000000E+00 0.  1.
         13    1    5    5    0    0 -0.16282446321E+02 -0.34319408951E+02  0.73457838198E+00  0.37993150624E+02  0.00000000000E+00 0.  1.
        -13    1    5    5    0    0 -0.51571717494E+02 -0.34803145456E+03 -0.29181298711E+03  0.45709993968E+03  0.00000000000E+00 0. -1.
          2    1    6    6  503    0  0.41906637651E+03  0.30055232813E+03 -0.52461207812E+03  0.73563996790E+03  0.00000000000E+00 0. -1.
         -2    1    6    6    0  503  0.69423169879E+02  0.95820285683E+01 -0.72708299576E+02  0.10098459593E+03  0.00000000000E+00 0.  1.
<mgrwt>
<rscale>  0 0.16969513E+04</rscale>
<asrwt>0</asrwt>
<pdfrwt beam="1">  1        2 0.44666013E+00 0.16969513E+04</pdfrwt>
<pdfrwt beam="2">  1       -1 0.38148271E-01 0.16969513E+04</pdfrwt>
<totfact> 0.14452065E+01</totfact>
</mgrwt>
</event>
<event>
12    7  0.1625631E-007  0.1347308E+04  0.7818608E-02  0.8992868E-01
          2   -1    0    0  501    0  0.00000000000E+00  0.00000000000E+00  0.49618586199E+03  0.49618586199E+03  0.00000000000E+00 0. -1.
         -1   -1    0    0    0  501 -0.00000000000E+00 -0.00000000000E+00 -0.91459647002E+03  0.91459647002E+03  0.00000000000E+00 0.  1.
         24    2    1    2    0    0  0.28350240998E+03 -0.18087429107E+03 -0.46672817022E+03  0.58065909914E+03  0.78997967704E+02 0.  0.
        254    2    1    2    0    0 -0.28350240998E+03  0.18087429107E+03  0.48317562190E+02  0.83012323287E+03  0.75741723594E+03 0.  0.
         23    2    4    4    0    0 -0.20894636472E+03  0.24763507777E+03 -0.30328098489E+03  0.45320867150E+03  0.91853301837E+02 0.  0.
         23    2    4    4    0    0 -0.74556045264E+02 -0.66760786706E+02  0.35159854708E+03  0.37691456136E+03  0.91801098750E+02 0.  0.
          4    1    3    3  502    0  0.13981317423E+03 -0.12583917082E+03 -0.21542097651E+03  0.28598849229E+03  0.00000000000E+00 0. -1.
         -3    1    3    3    0  502  0.14368923575E+03 -0.55035120248E+02 -0.25130719371E+03  0.29467060685E+03  0.00000000000E+00 0.  1.
         13    1    5    5    0    0 -0.86697071135E+01 -0.34478419117E+01  0.25954559236E+01  0.96844115326E+01  0.00000000000E+00 0.  1.
        -13    1    5    5    0    0 -0.20027665760E+03  0.25108291968E+03 -0.30587644081E+03  0.44352425997E+03  0.00000000000E+00 0. -1.
          4    1    6    6  503    0 -0.38631700534E+01 -0.34628688934E+02  0.23008343801E+03  0.23270680829E+03  0.00000000000E+00 0. -1.
         -4    1    6    6    0  503 -0.70692875211E+02 -0.32132097772E+02  0.12151510907E+03  0.14420775307E+03  0.00000000000E+00 0.  1.
<mgrwt>
<rscale>  0 0.13473082E+04</rscale>
<asrwt>0</asrwt>
<pdfrwt beam="1">  1        2 0.76336287E-01 0.13473082E+04</pdfrwt>
<pdfrwt beam="2">  1       -1 0.14070715E+00 0.13473082E+04</pdfrwt>
<totfact> 0.28717403E+01</totfact>
</mgrwt>
</event>
<event>
12    7  0.1625631E-007  0.1684430E+04  0.7818608E-02  0.8770295E-01
          2   -1    0    0  501    0  0.00000000000E+00  0.00000000000E+00  0.19496234042E+04  0.19496234042E+04  0.00000000000E+00 0. -1.
         -1   -1    0    0    0  501 -0.00000000000E+00 -0.00000000000E+00 -0.36382704022E+03  0.36382704022E+03  0.00000000000E+00 0.  1.
         24    2    1    2    0    0  0.33751365532E+03 -0.13380552466E+03 -0.92283583472E+01  0.37111348680E+03  0.76293325603E+02 0.  0.
        254    2    1    2    0    0 -0.33751365532E+03  0.13380552466E+03  0.15950247224E+04  0.19423369577E+04  0.10472581373E+04 0.  0.
         23    2    4    4    0    0  0.29469481996E+03  0.31780918238E+03  0.65085754823E+03  0.78726193857E+03  0.91203610183E+02 0.  0.
         23    2    4    4    0    0 -0.63220847528E+03 -0.18400365772E+03  0.94416717413E+03  0.11550750191E+04  0.95925725134E+02 0.  0.
          2    1    3    3  502    0  0.14031002414E+03 -0.45472510772E+02  0.32512715707E+02  0.15103552163E+03  0.00000000000E+00 0. -1.
         -1    1    3    3    0  502  0.19720363118E+03 -0.88333013884E+02 -0.41741074054E+02  0.22007796518E+03  0.00000000000E+00 0.  1.
         13    1    5    5    0    0  0.26944257299E+03  0.28284132665E+03  0.62480561970E+03  0.73687215893E+03  0.00000000000E+00 0. -1.
        -13    1    5    5    0    0  0.25252246973E+02  0.34967855729E+02  0.26051928530E+02  0.50389779634E+02  0.00000000000E+00 0.  1.
          4    1    6    6  503    0 -0.57917983198E+03 -0.16755165393E+03  0.90370862052E+03  0.10863756741E+04  0.00000000000E+00 0. -1.
         -4    1    6    6    0  503 -0.53028643308E+02 -0.16452003785E+02  0.40458553607E+02  0.68699344972E+02  0.00000000000E+00 0.  1.
<mgrwt>
<rscale>  0 0.16844295E+04</rscale>
<asrwt>0</asrwt>
<pdfrwt beam="1">  1        2 0.29994206E+00 0.16844295E+04</pdfrwt>
<pdfrwt beam="2">  1       -1 0.55973392E-01 0.16844295E+04</pdfrwt>
<totfact> 0.24970928E+01</totfact>
</mgrwt>
</event>
<event>
12    7  0.1625631E-007  0.1462659E+04  0.7818608E-02  0.8909671E-01
          2   -1    0    0  501    0  0.00000000000E+00  0.00000000000E+00  0.27455272326E+04  0.27455272326E+04  0.00000000000E+00 0. -1.
         -1   -1    0    0    0  501 -0.00000000000E+00 -0.00000000000E+00 -0.19480508854E+03  0.19480508854E+03  0.00000000000E+00 0.  1.
         24    2    1    2    0    0  0.20603179214E+03  0.28452045221E+03  0.23823759415E+03  0.43195534788E+03  0.80170344889E+02 0.  0.
        254    2    1    2    0    0 -0.20603179214E+03 -0.28452045221E+03  0.23124845499E+04  0.25083769732E+04  0.90607353963E+03 0.  0.
         23    2    4    4    0    0 -0.49331212765E+03  0.39499792972E+02  0.93661550253E+03  0.10631112603E+04  0.89665284440E+02 0.  0.
         23    2    4    4    0    0  0.28728033551E+03 -0.32402024519E+03  0.13758690474E+04  0.14452657130E+04  0.90874831828E+02 0.  0.
          2    1    3    3  502    0  0.43055969438E+02  0.23543991561E+02  0.13381037306E+02  0.50864409977E+02  0.00000000000E+00 0. -1.
         -1    1    3    3    0  502  0.16297582270E+03  0.26097646065E+03  0.22485655684E+03  0.38109093791E+03  0.00000000000E+00 0.  1.
         13    1    5    5    0    0 -0.14910989914E+03  0.76687571369E+00  0.20344265027E+03  0.25223652009E+03  0.00000000000E+00 0.  1.
        -13    1    5    5    0    0 -0.34420222851E+03  0.38732917259E+02  0.73317285226E+03  0.81087474019E+03  0.00000000000E+00 0. -1.
          2    1    6    6  503    0  0.17092236793E+02 -0.12414637924E+02  0.15915052867E+03  0.16054643742E+03  0.00000000000E+00 0.  1.
         -2    1    6    6    0  503  0.27018809871E+03 -0.31160560726E+03  0.12167185187E+04  0.12847192755E+04  0.00000000000E+00 0. -1.
<mgrwt>
<rscale>  0 0.14626588E+04</rscale>
<asrwt>0</asrwt>
<pdfrwt beam="1">  1        2 0.42238878E+00 0.14626588E+04</pdfrwt>
<pdfrwt beam="2">  1       -1 0.29970016E-01 0.14626588E+04</pdfrwt>
<totfact> 0.28276563E+01</totfact>
</mgrwt>
</event>
<event>
12    7  0.1625631E-007  0.1580954E+04  0.7818608E-02  0.8832335E-01
         -1   -1    0    0    0  501 -0.00000000000E+00  0.00000000000E+00  0.26999120068E+03  0.26999120068E+03  0.00000000000E+00 0.  1.
          2   -1    0    0  501    0  0.00000000000E+00 -0.00000000000E+00 -0.23143492303E+04  0.23143492303E+04  0.00000000000E+00 0. -1.
         24    2    1    2    0    0  0.45280548181E+03  0.26492263816E+03 -0.54520805220E+03  0.76093303922E+03  0.80934920933E+02 0.  0.
        254    2    1    2    0    0 -0.45280548181E+03 -0.26492263816E+03 -0.14991499774E+04  0.18234073917E+04  0.89562662587E+03 0.  0.
         23    2    4    4    0    0  0.24381338120E+03 -0.21051189538E+03 -0.51658523456E+03  0.61425294154E+03  0.81768873519E+02 0.  0.
         23    2    4    4    0    0 -0.69661886301E+03 -0.54410742779E+02 -0.98256474285E+03  0.12091544502E+04  0.91556765729E+02 0.  0.
          2    1    3    3  502    0  0.23183299855E+03  0.16554330228E+03 -0.33875275486E+03  0.44261106298E+03  0.00000000000E+00 0. -1.
         -1    1    3    3    0  502  0.22097248326E+03  0.99379335883E+02 -0.20645529733E+03  0.31832197624E+03  0.00000000000E+00 0.  1.
         13    1    5    5    0    0  0.57804824213E+02 -0.42085301570E+02 -0.60362194338E+02  0.93574381194E+02  0.00000000000E+00 0. -1.
        -13    1    5    5    0    0  0.18600855699E+03 -0.16842659381E+03 -0.45622304022E+03  0.52067856034E+03  0.00000000000E+00 0.  1.
          3    1    6    6  503    0 -0.21267475068E+03 -0.21646196380E+02 -0.23176493349E+03  0.31530000284E+03  0.00000000000E+00 0. -1.
         -3    1    6    6    0  503 -0.48394411233E+03 -0.32764546399E+02 -0.75079980936E+03  0.89385444738E+03  0.00000000000E+00 0.  1.
<mgrwt>
<rscale>  0 0.15809541E+04</rscale>
<asrwt>0</asrwt>
<pdfrwt beam="1">  1        2 0.35605373E+00 0.15809541E+04</pdfrwt>
<pdfrwt beam="2">  1       -1 0.41537108E-01 0.15809541E+04</pdfrwt>
<totfact> 0.27689089E+01</totfact>
</mgrwt>
</event>
<event>
12    7  0.1625631E-007  0.3020257E+04  0.7818608E-02  0.8237970E-01
          2   -1    0    0  501    0  0.00000000000E+00  0.00000000000E+00  0.29096737527E+04  0.29096737527E+04  0.00000000000E+00 0. -1.
         -1   -1    0    0    0  501 -0.00000000000E+00 -0.00000000000E+00 -0.78376050331E+03  0.78376050331E+03  0.00000000000E+00 0.  1.
         24    2    1    2    0    0  0.12986332378E+04  0.10919196987E+03  0.14892869245E+04  0.19805481954E+04  0.78895110386E+02 0.  0.
        254    2    1    2    0    0 -0.12986332378E+04 -0.10919196987E+03  0.63662632490E+03  0.17128860606E+04  0.91121589443E+03 0.  0.
         23    2    4    4    0    0  0.19030773742E+02 -0.23439710771E+03  0.17367008403E+03  0.30690944710E+03  0.93423424161E+02 0.  0.
         23    2    4    4    0    0 -0.13176640115E+04  0.12520513784E+03  0.46295624087E+03  0.14059766135E+04  0.10260108553E+03 0.  0.
          4    1    3    3  502    0  0.12293496338E+04  0.86675669861E+02  0.13952776886E+04  0.18616157021E+04  0.00000000000E+00 0. -1.
         -3    1    3    3    0  502  0.69283603961E+02  0.22516300007E+02  0.94009235920E+02  0.11893249338E+03  0.00000000000E+00 0.  1.
         13    1    5    5    0    0  0.42490181298E+02 -0.14732345312E+03  0.67273431834E+02  0.16743754052E+03  0.00000000000E+00 0.  1.
        -13    1    5    5    0    0 -0.23459407555E+02 -0.87073654590E+02  0.10639665220E+03  0.13947190658E+03  0.00000000000E+00 0. -1.
          4    1    6    6  503    0 -0.54906235442E+03  0.10025648501E+03  0.17720552294E+03  0.58559596070E+03  0.00000000000E+00 0. -1.
         -4    1    6    6    0  503 -0.76860165712E+03  0.24948652831E+02  0.28575071794E+03  0.82038065275E+03  0.00000000000E+00 0.  1.
<mgrwt>
<rscale>  0 0.30202565E+04</rscale>
<asrwt>0</asrwt>
<pdfrwt beam="1">  1        2 0.44764211E+00 0.30202565E+04</pdfrwt>
<pdfrwt beam="2">  1       -1 0.12057854E+00 0.30202565E+04</pdfrwt>
<totfact> 0.11765952E+00</totfact>
</mgrwt>
</event>
<event>
12    7  0.1625631E-007  0.2018064E+04  0.7818608E-02  0.8598221E-01
         -1   -1    0    0    0  501 -0.00000000000E+00  0.00000000000E+00  0.96377604260E+03  0.96377604260E+03  0.00000000000E+00 0.  1.
          2   -1    0    0  501    0  0.00000000000E+00 -0.00000000000E+00 -0.10564133201E+04  0.10564133201E+04  0.00000000000E+00 0. -1.
         24    2    1    2    0    0  0.13733188303E+03  0.81089186971E+02 -0.82223089433E+03  0.84149724325E+03  0.81353945651E+02 0.  0.
        254    2    1    2    0    0 -0.13733188303E+03 -0.81089186971E+02  0.72959361681E+03  0.11786921195E+04  0.91190611606E+03 0.  0.
         23    2    4    4    0    0 -0.26423735595E+03  0.26701097589E+03  0.37132818046E+02  0.38801706915E+03  0.89789521937E+02 0.  0.
         23    2    4    4    0    0  0.12690547292E+03 -0.34810016286E+03  0.69246079876E+03  0.79067505033E+03  0.91577043854E+02 0.  0.
          2    1    3    3  502    0  0.70876483864E+01  0.16417846295E+01 -0.22403539894E+03  0.22415349694E+03  0.00000000000E+00 0. -1.
         -1    1    3    3    0  502  0.13024423464E+03  0.79447402342E+02 -0.59819549539E+03  0.61734374631E+03  0.00000000000E+00 0.  1.
         13    1    5    5    0    0 -0.17273423047E+03  0.17201173644E+03  0.66928054723E+02  0.25279342625E+03  0.00000000000E+00 0.  1.
        -13    1    5    5    0    0 -0.91503125484E+02  0.94999239445E+02 -0.29795236677E+02  0.13522364289E+03  0.00000000000E+00 0. -1.
          2    1    6    6  503    0  0.41852332133E+02 -0.11718732716E+03  0.32899879480E+03  0.35174521224E+03  0.00000000000E+00 0. -1.
         -2    1    6    6    0  503  0.85053140789E+02 -0.23091283570E+03  0.36346200396E+03  0.43892983809E+03  0.00000000000E+00 0.  1.
<mgrwt>
<rscale>  0 0.20180643E+04</rscale>
<asrwt>0</asrwt>
<pdfrwt beam="1">  1        2 0.16252513E+00 0.20180643E+04</pdfrwt>
<pdfrwt beam="2">  1       -1 0.14827324E+00 0.20180643E+04</pdfrwt>
<totfact> 0.88333343E+00</totfact>
</mgrwt>
</event>
<event>
12    7  0.1625631E-007  0.2048994E+04  0.7818608E-02  0.8584051E-01
         -1   -1    0    0    0  501 -0.00000000000E+00  0.00000000000E+00  0.62320679011E+03  0.62320679011E+03  0.00000000000E+00 0.  1.
          2   -1    0    0  501    0  0.00000000000E+00 -0.00000000000E+00 -0.16841824820E+04  0.16841824820E+04  0.00000000000E+00 0. -1.
         24    2    1    2    0    0 -0.47894434519E+03 -0.29371448509E+03 -0.10797990400E+04  0.12197851653E+04  0.79082223906E+02 0.  0.
        254    2    1    2    0    0  0.47894434519E+03  0.29371448509E+03  0.18823348182E+02  0.10876041068E+04  0.93105987458E+03 0.  0.
         23    2    4    4    0    0 -0.10150813070E+03 -0.20304506323E+03  0.17452912671E+03  0.30240827523E+03  0.97258164491E+02 0.  0.
         23    2    4    4    0    0  0.58045247588E+03  0.49675954832E+03 -0.15570577853E+03  0.78519583152E+03  0.92698860661E+02 0.  0.
          4    1    3    3  502    0 -0.30318414406E+03 -0.21371926868E+03 -0.77071528547E+03  0.85533537415E+03  0.00000000000E+00 0. -1.
         -3    1    3    3    0  502 -0.17576020112E+03 -0.79995216414E+02 -0.30908375455E+03  0.36444979115E+03  0.00000000000E+00 0.  1.
         13    1    5    5    0    0 -0.88946187188E+02 -0.96774017431E+02  0.13475881340E+03  0.18824604234E+03  0.00000000000E+00 0. -1.
        -13    1    5    5    0    0 -0.12561943507E+02 -0.10627104580E+03  0.39770313308E+02  0.11416223290E+03  0.00000000000E+00 0.  1.
          2    1    6    6  503    0  0.39077571742E+01  0.21068152697E+02 -0.10117214343E+02  0.23695899440E+02  0.00000000000E+00 0.  1.
         -2    1    6    6    0  503  0.57654471871E+03  0.47569139563E+03 -0.14558856419E+03  0.76149993208E+03  0.00000000000E+00 0. -1.
<mgrwt>
<rscale>  0 0.20489939E+04</rscale>
<asrwt>0</asrwt>
<pdfrwt beam="1">  1        2 0.25910499E+00 0.20489939E+04</pdfrwt>
<pdfrwt beam="2">  1       -1 0.95877971E-01 0.20489939E+04</pdfrwt>
<totfact> 0.11062221E+01</totfact>
</mgrwt>
</event>
<event>
12    7  0.1970338E-007  0.2658723E+04  0.7818608E-02  0.8348523E-01
          2   -1    0    0  501    0  0.00000000000E+00  0.00000000000E+00  0.11811330469E+04  0.11811330469E+04  0.00000000000E+00 0. -1.
         -1   -1    0    0    0  501 -0.00000000000E+00 -0.00000000000E+00 -0.14961925858E+04  0.14961925858E+04  0.00000000000E+00 0.  1.
         24    2    1    2    0    0  0.29463478639E+03 -0.78714954546E+03  0.68781403955E+03  0.10890715785E+04  0.81084436030E+02 0.  0.
        254    2    1    2    0    0 -0.29463478639E+03  0.78714954546E+03 -0.10028735785E+04  0.15882540542E+04  0.90021189838E+03 0.  0.
         23    2    4    4    0    0 -0.41199217180E+03  0.40582170789E+03 -0.10222728329E+04  0.11779226492E+04  0.89617042637E+02 0.  0.
         23    2    4    4    0    0  0.11735738541E+03  0.38132783757E+03  0.19399254389E+02  0.41033140504E+03  0.93871482779E+02 0.  0.
          4    1    3    3  502    0  0.21008172814E+03 -0.57633732478E+03  0.45453488088E+03  0.76347953631E+03  0.00000000000E+00 0. -1.
         -3    1    3    3    0  502  0.84553058248E+02 -0.21081222068E+03  0.23327915867E+03  0.32559204216E+03  0.00000000000E+00 0.  1.
         13    1    5    5    0    0 -0.35792600035E+03  0.31805917626E+03 -0.88533813194E+03  0.10065268348E+04  0.00000000000E+00 0. -1.
        -13    1    5    5    0    0 -0.54066171456E+02  0.87762531628E+02 -0.13693470094E+03  0.17139581435E+03  0.00000000000E+00 0.  1.
          1    1    6    6  503    0  0.98889768876E+02  0.37210791593E+03  0.48086557304E+01  0.38505403602E+03  0.00000000000E+00 0. -1.
         -1    1    6    6    0  503  0.18467616537E+02  0.92199216400E+01  0.14590598659E+02  0.25277369025E+02  0.00000000000E+00 0.  1.
<mgrwt>
<rscale>  0 0.26587234E+04</rscale>
<asrwt>0</asrwt>
<pdfrwt beam="1">  1        2 0.18171278E+00 0.26587234E+04</pdfrwt>
<pdfrwt beam="2">  1       -1 0.23018347E+00 0.26587234E+04</pdfrwt>
<totfact> 0.18356714E+00</totfact>
</mgrwt>
</event>
<event>
12    7  0.1625631E-007  0.1743932E+04  0.7818608E-02  0.8736697E-01
          2   -1    0    0  501    0  0.00000000000E+00  0.00000000000E+00  0.38031637690E+03  0.38031637690E+03  0.00000000000E+00 0. -1.
         -1   -1    0    0    0  501 -0.00000000000E+00 -0.00000000000E+00 -0.19991909254E+04  0.19991909254E+04  0.00000000000E+00 0.  1.
         24    2    1    2    0    0  0.54659310853E+03  0.12690257133E+03 -0.16261079409E+03  0.58969388774E+03  0.80176816948E+02 0.  0.
        254    2    1    2    0    0 -0.54659310853E+03 -0.12690257133E+03 -0.14562637544E+04  0.17898134146E+04  0.87627601113E+03 0.  0.
         23    2    4    4    0    0  0.10691203916E+03 -0.18495341726E+03 -0.88777884803E+03  0.91724514380E+03  0.86887399235E+02 0.  0.
         23    2    4    4    0    0 -0.65350514769E+03  0.58050845932E+02 -0.56848490641E+03  0.87256827080E+03  0.88098919448E+02 0.  0.
          2    1    3    3  502    0  0.51099463189E+03  0.12014497289E+03 -0.12963110259E+03  0.54069820703E+03  0.00000000000E+00 0. -1.
         -1    1    3    3    0  502  0.35598476644E+02  0.67575984418E+01 -0.32979691508E+02  0.48995680708E+02  0.00000000000E+00 0.  1.
         13    1    5    5    0    0  0.54197569933E+02 -0.21110278991E+02 -0.24671611865E+03  0.25347951331E+03  0.00000000000E+00 0.  1.
        -13    1    5    5    0    0  0.52714469227E+02 -0.16384313827E+03 -0.64106272939E+03  0.66376563050E+03  0.00000000000E+00 0. -1.
          1    1    6    6  503    0 -0.37035155128E+03  0.68622086972E+02 -0.29096783234E+03  0.47595329793E+03  0.00000000000E+00 0. -1.
         -1    1    6    6    0  503 -0.28315359642E+03 -0.10571241040E+02 -0.27751707407E+03  0.39661497287E+03  0.00000000000E+00 0.  1.
<mgrwt>
<rscale>  0 0.17439324E+04</rscale>
<asrwt>0</asrwt>
<pdfrwt beam="1">  1        2 0.58510212E-01 0.17439324E+04</pdfrwt>
<pdfrwt beam="2">  1       -1 0.30756783E+00 0.17439324E+04</pdfrwt>
<totfact> 0.26965224E+00</totfact>
</mgrwt>
</event>
<event>
12    7  0.1625631E-007  0.1118938E+04  0.7818608E-02  0.9186928E-01
          2   -1    0    0  501    0  0.00000000000E+00  0.00000000000E+00  0.18963962176E+04  0.18963962176E+04  0.00000000000E+00 0. -1.
         -1   -1    0    0    0  501 -0.00000000000E+00 -0.00000000000E+00 -0.16505277819E+03  0.16505277819E+03  0.00000000000E+00 0.  1.
         24    2    1    2    0    0  0.13637104675E+03  0.10664225227E+03  0.24933211452E+03  0.31406867153E+03  0.80641147931E+02 0.  0.
        254    2    1    2    0    0 -0.13637104675E+03 -0.10664225227E+03  0.14820113249E+04  0.17473803242E+04  0.90940134052E+03 0.  0.
         23    2    4    4    0    0  0.25780242130E+03 -0.31427547361E+03  0.10047941953E+04  0.10875109251E+04  0.88529517586E+02 0.  0.
         23    2    4    4    0    0 -0.39417346806E+03  0.20763322134E+03  0.47721712953E+03  0.65986939914E+03  0.95953935191E+02 0.  0.
          2    1    3    3  502    0  0.38536155809E+01 -0.95079902661E+01  0.35665307020E+02  0.37111539402E+02  0.00000000000E+00 0. -1.
         -1    1    3    3    0  502  0.13251743117E+03  0.11615024254E+03  0.21366680750E+03  0.27695713212E+03  0.00000000000E+00 0.  1.
         13    1    5    5    0    0  0.10286813568E+02 -0.17421807995E+02  0.15786061441E+02  0.25661988680E+02  0.00000000000E+00 0. -1.
        -13    1    5    5    0    0  0.24751560774E+03 -0.29685366561E+03  0.98900813389E+03  0.10618489364E+04  0.00000000000E+00 0.  1.
          3    1    6    6  503    0 -0.93125147685E+02  0.61083281247E+01  0.91410607526E+02  0.13063500286E+03  0.00000000000E+00 0. -1.
         -3    1    6    6    0  503 -0.30104832037E+03  0.20152489321E+03  0.38580652200E+03  0.52923439628E+03  0.00000000000E+00 0.  1.
<mgrwt>
<rscale>  0 0.11189378E+04</rscale>
<asrwt>0</asrwt>
<pdfrwt beam="1">  1        2 0.29175325E+00 0.11189378E+04</pdfrwt>
<pdfrwt beam="2">  1       -1 0.25392736E-01 0.11189378E+04</pdfrwt>
<totfact> 0.11766404E+02</totfact>
</mgrwt>
</event>
<event>
12    7  0.1625631E-007  0.1804795E+04  0.7818608E-02  0.8703753E-01
         -1   -1    0    0    0  501 -0.00000000000E+00  0.00000000000E+00  0.21146823067E+04  0.21146823067E+04  0.00000000000E+00 0.  1.
          2   -1    0    0  501    0  0.00000000000E+00 -0.00000000000E+00 -0.38507990386E+03  0.38507990386E+03  0.00000000000E+00 0. -1.
         24    2    1    2    0    0 -0.13794837189E+03  0.21270414865E+02  0.15775393700E+04  0.15855160489E+04  0.75818822528E+02 0.  0.
        254    2    1    2    0    0  0.13794837189E+03 -0.21270414865E+02  0.15206303293E+03  0.91424616166E+03  0.89064060893E+03 0.  0.
         23    2    4    4    0    0  0.51292620753E+02 -0.16626319267E+03 -0.33637852671E+03  0.38960753469E+03  0.91482980271E+02 0.  0.
         23    2    4    4    0    0  0.86655751136E+02  0.14499277780E+03  0.48844155964E+03  0.52463862697E+03  0.90213119385E+02 0.  0.
          2    1    3    3  502    0 -0.30352452750E+02  0.28773799915E+02  0.72109124694E+03  0.72230311460E+03  0.00000000000E+00 0. -1.
         -1    1    3    3    0  502 -0.10759591914E+03 -0.75033850494E+01  0.85644812302E+03  0.86321293435E+03  0.00000000000E+00 0.  1.
         13    1    5    5    0    0 -0.17099838099E+02 -0.25216046044E+02 -0.19771417034E+02  0.36320274953E+02  0.00000000000E+00 0. -1.
        -13    1    5    5    0    0  0.68392458852E+02 -0.14104714662E+03 -0.31660710968E+03  0.35328725974E+03  0.00000000000E+00 0.  1.
          1    1    6    6  503    0  0.19331106921E+02  0.80407361174E+02  0.12856594082E+03  0.15286672812E+03  0.00000000000E+00 0. -1.
         -1    1    6    6    0  503  0.67324644215E+02  0.64585416628E+02  0.35987561882E+03  0.37177189885E+03  0.00000000000E+00 0.  1.
<mgrwt>
<rscale>  0 0.18047955E+04</rscale>
<asrwt>0</asrwt>
<pdfrwt beam="1">  1        2 0.59243063E-01 0.18047955E+04</pdfrwt>
<pdfrwt beam="2">  1       -1 0.32533573E+00 0.18047955E+04</pdfrwt>
<totfact> 0.20267609E+00</totfact>
</mgrwt>
</event>
<event>
12    7  0.1625631E-007  0.2941878E+04  0.7818608E-02  0.8260526E-01
         -1   -1    0    0    0  501 -0.00000000000E+00  0.00000000000E+00  0.15652506268E+04  0.15652506268E+04  0.00000000000E+00 0.  1.
          2   -1    0    0  501    0  0.00000000000E+00 -0.00000000000E+00 -0.13823096613E+04  0.13823096613E+04  0.00000000000E+00 0. -1.
         24    2    1    2    0    0  0.30415526323E+03  0.85800867739E+03 -0.88998367756E+03  0.12761399471E+04  0.88164072929E+02 0.  0.
        254    2    1    2    0    0 -0.30415526323E+03 -0.85800867739E+03  0.10729246431E+04  0.16714203409E+04  0.90210273890E+03 0.  0.
         23    2    4    4    0    0 -0.50582448120E+03 -0.86265070330E+03  0.65865733968E+03  0.12013184478E+04  0.96498083864E+02 0.  0.
         23    2    4    4    0    0  0.20166921798E+03  0.46420259085E+01  0.41426730340E+03  0.47010189309E+03  0.93200693847E+02 0.  0.
          2    1    3    3  502    0  0.76570894998E+02  0.23631011559E+03 -0.19061095746E+03  0.31311037958E+03  0.00000000000E+00 0. -1.
         -1    1    3    3    0  502  0.22758436823E+03  0.62169856180E+03 -0.69937272009E+03  0.96302956757E+03  0.00000000000E+00 0.  1.
         13    1    5    5    0    0 -0.50544906257E+03 -0.82854730027E+03  0.63601018997E+03  0.11603785354E+04  0.00000000000E+00 0.  1.
        -13    1    5    5    0    0 -0.37541863326E+00 -0.34103403035E+02  0.22647149713E+02  0.40939912406E+02  0.00000000000E+00 0. -1.
          1    1    6    6  503    0  0.14160836459E+03 -0.35289314364E+02  0.31730057532E+03  0.34925337468E+03  0.00000000000E+00 0. -1.
         -1    1    6    6    0  503  0.60060853392E+02  0.39931340273E+02  0.96966728088E+02  0.12084851841E+03  0.00000000000E+00 0.  1.
<mgrwt>
<rscale>  0 0.29418777E+04</rscale>
<asrwt>0</asrwt>
<pdfrwt beam="1">  1        2 0.21266302E+00 0.29418777E+04</pdfrwt>
<pdfrwt beam="2">  1       -1 0.24080779E+00 0.29418777E+04</pdfrwt>
<totfact> 0.11621357E+00</totfact>
</mgrwt>
</event>
<event>
12    7  0.1625631E-007  0.1605479E+04  0.7818608E-02  0.8817189E-01
          2   -1    0    0  501    0  0.00000000000E+00  0.00000000000E+00  0.85644833248E+03  0.85644833248E+03  0.00000000000E+00 0. -1.
         -1   -1    0    0    0  501 -0.00000000000E+00 -0.00000000000E+00 -0.75239919497E+03  0.75239919497E+03  0.00000000000E+00 0.  1.
         24    2    1    2    0    0  0.26938462863E+03 -0.21853090460E+03 -0.39097087993E+03  0.52866892237E+03  0.79427741532E+02 0.  0.
        254    2    1    2    0    0 -0.26938462863E+03  0.21853090460E+03  0.49502001744E+03  0.10801786051E+04  0.89521906078E+03 0.  0.
         23    2    4    4    0    0 -0.87069792626E+02 -0.12924270771E+03 -0.20436892094E+03  0.27258242142E+03  0.90827827999E+02 0.  0.
         23    2    4    4    0    0 -0.18231483600E+03  0.34777361231E+03  0.69938893838E+03  0.80759618365E+03  0.94241837158E+02 0.  0.
          2    1    3    3  502    0  0.99354584794E+02 -0.10243268446E+03 -0.10918150509E+03  0.17967857251E+03  0.00000000000E+00 0. -1.
         -1    1    3    3    0  502  0.17003004383E+03 -0.11609822013E+03 -0.28178937484E+03  0.34899034986E+03  0.00000000000E+00 0.  1.
         13    1    5    5    0    0  0.10346045064E+02  0.18638638099E+01 -0.38033404721E+02  0.39459530046E+02  0.00000000000E+00 0. -1.
        -13    1    5    5    0    0 -0.97415837689E+02 -0.13110657152E+03 -0.16633551622E+03  0.23312289138E+03  0.00000000000E+00 0.  1.
          2    1    6    6  503    0  0.13490031515E+01  0.14498288873E+02  0.43363276496E+01  0.15192890680E+02  0.00000000000E+00 0. -1.
         -2    1    6    6    0  503 -0.18366383915E+03  0.33327532344E+03  0.69505261073E+03  0.79240329297E+03  0.00000000000E+00 0.  1.
<mgrwt>
<rscale>  0 0.16054794E+04</rscale>
<asrwt>0</asrwt>
<pdfrwt beam="1">  1        2 0.13176128E+00 0.16054794E+04</pdfrwt>
<pdfrwt beam="2">  1       -1 0.11575372E+00 0.16054794E+04</pdfrwt>
<totfact> 0.23228232E+01</totfact>
</mgrwt>
</event>
<event>
12    7  0.1625631E-007  0.1602931E+04  0.7818608E-02  0.8818750E-01
          2   -1    0    0  501    0  0.00000000000E+00  0.00000000000E+00  0.21968070937E+04  0.21968070937E+04  0.00000000000E+00 0. -1.
         -1   -1    0    0    0  501 -0.00000000000E+00 -0.00000000000E+00 -0.29240007418E+03  0.29240007418E+03  0.00000000000E+00 0.  1.
         24    2    1    2    0    0  0.20846572428E+03  0.48783313899E+03  0.45286456114E+03  0.70202660107E+03  0.79472688251E+02 0.  0.
        254    2    1    2    0    0 -0.20846572428E+03 -0.48783313899E+03  0.14515424583E+04  0.17871805668E+04  0.89755208216E+03 0.  0.
         23    2    4    4    0    0 -0.25271810624E+02 -0.26749008399E+03  0.14593878587E+04  0.14867629092E+04  0.91985959683E+02 0.  0.
         23    2    4    4    0    0 -0.18319391366E+03 -0.22034305499E+03 -0.78454003020E+01  0.30041765757E+03  0.89878511266E+02 0.  0.
          2    1    3    3  502    0  0.60494672310E+02  0.66694548078E+02  0.74672901904E+02  0.11697782012E+03  0.00000000000E+00 0. -1.
         -1    1    3    3    0  502  0.14797105197E+03  0.42113859091E+03  0.37819165924E+03  0.58504878095E+03  0.00000000000E+00 0.  1.
         13    1    5    5    0    0 -0.89738397572E+01 -0.52384256830E+02  0.53045272718E+03  0.53310855924E+03  0.00000000000E+00 0. -1.
        -13    1    5    5    0    0 -0.16297970867E+02 -0.21510582716E+03  0.92893513147E+03  0.95365434997E+03  0.00000000000E+00 0.  1.
          3    1    6    6  503    0 -0.82913630861E+02 -0.15331113411E+03  0.23285454742E+02  0.17584421068E+03  0.00000000000E+00 0. -1.
         -3    1    6    6    0  503 -0.10028028280E+03 -0.67031920880E+02 -0.31130855044E+02  0.12457344689E+03  0.00000000000E+00 0.  1.
<mgrwt>
<rscale>  0 0.16029305E+04</rscale>
<asrwt>0</asrwt>
<pdfrwt beam="1">  1        2 0.33797031E+00 0.16029305E+04</pdfrwt>
<pdfrwt beam="2">  1       -1 0.44984628E-01 0.16029305E+04</pdfrwt>
<totfact> 0.27766559E+01</totfact>
</mgrwt>
</event>
<event>
12    7  0.1625631E-007  0.1229402E+04  0.7818608E-02  0.9087504E-01
          2   -1    0    0  501    0  0.00000000000E+00  0.00000000000E+00  0.32554931956E+03  0.32554931956E+03  0.00000000000E+00 0. -1.
         -1   -1    0    0    0  501 -0.00000000000E+00 -0.00000000000E+00 -0.11606756110E+04  0.11606756110E+04  0.00000000000E+00 0.  1.
         24    2    1    2    0    0 -0.18507817918E+03  0.19982179663E+03 -0.11927493203E+03  0.31184446348E+03  0.94009452566E+02 0.  0.
        254    2    1    2    0    0  0.18507817918E+03 -0.19982179663E+03 -0.71585135943E+03  0.11743804671E+04  0.89024919538E+03 0.  0.
         23    2    4    4    0    0 -0.24003018904E+02 -0.13756569043E+03  0.18168806834E+03  0.24627389864E+03  0.90220922592E+02 0.  0.
         23    2    4    4    0    0  0.20908119809E+03 -0.62256106206E+02 -0.89753942777E+03  0.92810656846E+03  0.90631163843E+02 0.  0.
          4    1    3    3  502    0 -0.65438235386E+02  0.99016849501E+02 -0.98082252058E+02  0.15396956616E+03  0.00000000000E+00 0. -1.
         -3    1    3    3    0  502 -0.11963994380E+03  0.10080494713E+03 -0.21192679973E+02  0.15787489731E+03  0.00000000000E+00 0.  1.
         13    1    5    5    0    0 -0.13222393622E+01 -0.11636740722E+03  0.83330224150E+02  0.14313297327E+03  0.00000000000E+00 0. -1.
        -13    1    5    5    0    0 -0.22680779542E+02 -0.21198283204E+02  0.98357844191E+02  0.10314092537E+03  0.00000000000E+00 0.  1.
          4    1    6    6  503    0  0.18883385884E+03 -0.21870246704E+02 -0.75591433703E+03  0.77945045953E+03  0.00000000000E+00 0. -1.
         -4    1    6    6    0  503  0.20247339249E+02 -0.40385859502E+02 -0.14162509074E+03  0.14865610893E+03  0.00000000000E+00 0.  1.
<mgrwt>
<rscale>  0 0.12294017E+04</rscale>
<asrwt>0</asrwt>
<pdfrwt beam="1">  1        2 0.50084511E-01 0.12294017E+04</pdfrwt>
<pdfrwt beam="2">  1       -1 0.17856548E+00 0.12294017E+04</pdfrwt>
<totfact> 0.24091589E+01</totfact>
</mgrwt>
</event>
<event>
12    7  0.1625631E-007  0.1692979E+04  0.7818608E-02  0.8765379E-01
         -1   -1    0    0    0  501 -0.00000000000E+00  0.00000000000E+00  0.61948195089E+03  0.61948195089E+03  0.00000000000E+00 0.  1.
          2   -1    0    0  501    0  0.00000000000E+00 -0.00000000000E+00 -0.11566834734E+04  0.11566834734E+04  0.00000000000E+00 0. -1.
         24    2    1    2    0    0 -0.30811455117E+03  0.54522098586E+03 -0.63827659572E+02  0.63446654151E+03  0.79204306076E+02 0.  0.
        254    2    1    2    0    0  0.30811455117E+03 -0.54522098586E+03 -0.47337386289E+03  0.11416988827E+04  0.82897106386E+03 0.  0.
         23    2    4    4    0    0  0.25082034993E+03 -0.75182084901E+03 -0.41734689468E+03  0.90059312266E+03  0.93509919983E+02 0.  0.
         23    2    4    4    0    0  0.57294201241E+02  0.20659986315E+03 -0.56026968207E+02  0.24110576007E+03  0.95009670157E+02 0.  0.
          2    1    3    3  502    0 -0.21960614509E+03  0.36948040704E+03 -0.78487966081E+01  0.42988862948E+03  0.00000000000E+00 0. -1.
         -1    1    3    3    0  502 -0.88508406080E+02  0.17574057882E+03 -0.55978862964E+02  0.20457791203E+03  0.00000000000E+00 0.  1.
         13    1    5    5    0    0  0.19384210087E+03 -0.64464372182E+03 -0.32181416164E+03  0.74612642547E+03  0.00000000000E+00 0. -1.
        -13    1    5    5    0    0  0.56978249063E+02 -0.10717712720E+03 -0.95532733038E+02  0.15446669719E+03  0.00000000000E+00 0.  1.
          1    1    6    6  503    0  0.64578943755E+02  0.18185831506E+03 -0.16208033196E+02  0.19366359253E+03  0.00000000000E+00 0. -1.
         -1    1    6    6    0  503 -0.72847425138E+01  0.24741548095E+02 -0.39818935011E+02  0.47442167541E+02  0.00000000000E+00 0.  1.
<mgrwt>
<rscale>  0 0.16929791E+04</rscale>
<asrwt>0</asrwt>
<pdfrwt beam="1">  1        2 0.17795130E+00 0.16929791E+04</pdfrwt>
<pdfrwt beam="2">  1       -1 0.95304915E-01 0.16929791E+04</pdfrwt>
<totfact> 0.23218875E+01</totfact>
</mgrwt>
</event>
<event>
12    7  0.1625631E-007  0.1190789E+04  0.7818608E-02  0.9120958E-01
          2   -1    0    0  501    0  0.00000000000E+00  0.00000000000E+00  0.46328897445E+03  0.46328897445E+03  0.00000000000E+00 0. -1.
         -1   -1    0    0    0  501 -0.00000000000E+00 -0.00000000000E+00 -0.76516921618E+03  0.76516921618E+03  0.00000000000E+00 0.  1.
         24    2    1    2    0    0 -0.14505139981E+03 -0.79292934954E+02  0.12627538005E+03  0.22192897560E+03  0.77328652423E+02 0.  0.
        254    2    1    2    0    0  0.14505139981E+03  0.79292934954E+02 -0.42815562179E+03  0.10065292150E+04  0.89579938943E+03 0.  0.
         23    2    4    4    0    0  0.15745433822E+03 -0.35975939332E+03 -0.24540660334E+02  0.40330290605E+03  0.88500284254E+02 0.  0.
         23    2    4    4    0    0 -0.12402938414E+02  0.43905232827E+03 -0.40361496145E+03  0.60322630897E+03  0.89756130096E+02 0.  0.
          2    1    3    3  502    0 -0.13965675846E+03 -0.90693358947E+02  0.12680494735E+03  0.20930549494E+03  0.00000000000E+00 0. -1.
         -1    1    3    3    0  502 -0.53946413429E+01  0.11400423993E+02 -0.52956729592E+00  0.12623480660E+02  0.00000000000E+00 0.  1.
         13    1    5    5    0    0  0.51233315501E+02 -0.74344058518E+02  0.27424202893E+02  0.94360895282E+02  0.00000000000E+00 0. -1.
        -13    1    5    5    0    0  0.10622102272E+03 -0.28541533480E+03 -0.51964863227E+02  0.30894201076E+03  0.00000000000E+00 0.  1.
          1    1    6    6  503    0  0.22020837686E+02  0.32210559554E+02 -0.47304391051E+02  0.61320003685E+02  0.00000000000E+00 0. -1.
         -1    1    6    6    0  503 -0.34423776100E+02  0.40684176872E+03 -0.35631057040E+03  0.54190630529E+03  0.00000000000E+00 0.  1.
<mgrwt>
<rscale>  0 0.11907887E+04</rscale>
<asrwt>0</asrwt>
<pdfrwt beam="1">  1        2 0.71275227E-01 0.11907887E+04</pdfrwt>
<pdfrwt beam="2">  1       -1 0.11771834E+00 0.11907887E+04</pdfrwt>
<totfact> 0.49307869E+01</totfact>
</mgrwt>
</event>
<event>
12    7  0.1625631E-007  0.1764016E+04  0.7818608E-02  0.8725673E-01
         -1   -1    0    0    0  501 -0.00000000000E+00  0.00000000000E+00  0.34706562962E+03  0.34706562962E+03  0.00000000000E+00 0.  1.
          2   -1    0    0  501    0  0.00000000000E+00 -0.00000000000E+00 -0.22414718134E+04  0.22414718134E+04  0.00000000000E+00 0. -1.
         24    2    1    2    0    0  0.34071208946E+03  0.70679583696E+02 -0.15216612527E+04  0.15630460658E+04  0.81115378576E+02 0.  0.
        254    2    1    2    0    0 -0.34071208946E+03 -0.70679583696E+02 -0.37274493116E+03  0.10254913772E+04  0.88972661507E+03 0.  0.
         23    2    4    4    0    0 -0.34514696011E+03  0.25662815948E+03  0.92668524845E+02  0.44918772484E+03  0.90541263207E+02 0.  0.
         23    2    4    4    0    0  0.44348706427E+01 -0.32730774318E+03 -0.46541345600E+03  0.57630365237E+03  0.91466867671E+02 0.  0.
          2    1    3    3  502    0  0.32641261310E+03  0.74899891536E+02 -0.13571079291E+04  0.13978187004E+04  0.00000000000E+00 0. -1.
         -1    1    3    3    0  502  0.14299476360E+02 -0.42203078403E+01 -0.16455332352E+03  0.16522736548E+03  0.00000000000E+00 0.  1.
         13    1    5    5    0    0 -0.10193358782E+03  0.13025581398E+03  0.37816338978E+02  0.16966764245E+03  0.00000000000E+00 0. -1.
        -13    1    5    5    0    0 -0.24321337228E+03  0.12637234550E+03  0.54852185867E+02  0.27952008239E+03  0.00000000000E+00 0.  1.
          1    1    6    6  503    0 -0.23308107265E+02 -0.20556220837E+02 -0.54968416441E+02  0.63145489826E+02  0.00000000000E+00 0. -1.
         -1    1    6    6    0  503  0.27742977907E+02 -0.30675152234E+03 -0.41044503956E+03  0.51315816254E+03  0.00000000000E+00 0.  1.
<mgrwt>
<rscale>  0 0.17640157E+04</rscale>
<asrwt>0</asrwt>
<pdfrwt beam="1">  1        2 0.34484182E+00 0.17640157E+04</pdfrwt>
<pdfrwt beam="2">  1       -1 0.53394712E-01 0.17640157E+04</pdfrwt>
<totfact> 0.18675658E+01</totfact>
</mgrwt>
</event>
<event>
12    7  0.1625631E-007  0.1110125E+04  0.7818608E-02  0.9195379E-01
          2   -1    0    0  501    0  0.00000000000E+00  0.00000000000E+00  0.25711577111E+03  0.25711577111E+03  0.00000000000E+00 0. -1.
         -1   -1    0    0    0  501 -0.00000000000E+00 -0.00000000000E+00 -0.11982703928E+04  0.11982703928E+04  0.00000000000E+00 0.  1.
         24    2    1    2    0    0  0.10542211782E+03  0.10570679659E+03 -0.40604400711E+02  0.17092446516E+03  0.72654701593E+02 0.  0.
        254    2    1    2    0    0 -0.10542211782E+03 -0.10570679659E+03 -0.90055022095E+03  0.12844616987E+04  0.90363897948E+03 0.  0.
         23    2    4    4    0    0 -0.27489205345E+03  0.13482459822E+03  0.13586426316E+02  0.32004924957E+03  0.92215062945E+02 0.  0.
         23    2    4    4    0    0  0.16946993564E+03 -0.24053139481E+03 -0.91413664727E+03  0.96441244914E+03  0.88713872725E+02 0.  0.
          2    1    3    3  502    0  0.68078754724E+02  0.95246997706E+02 -0.33120610079E+01  0.11712248787E+03  0.00000000000E+00 0. -1.
         -1    1    3    3    0  502  0.37343363092E+02  0.10459798879E+02 -0.37292339703E+02  0.53801977289E+02  0.00000000000E+00 0.  1.
         13    1    5    5    0    0 -0.13853770653E+03  0.30638221031E+02  0.37580559797E+02  0.14677770673E+03  0.00000000000E+00 0. -1.
        -13    1    5    5    0    0 -0.13635434692E+03  0.10418637719E+03 -0.23994133481E+02  0.17327154284E+03  0.00000000000E+00 0.  1.
          4    1    6    6  503    0  0.60097496868E+01 -0.41701893172E+01 -0.13270574261E+01  0.74342889137E+01  0.00000000000E+00 0.  1.
         -4    1    6    6    0  503  0.16346018595E+03 -0.23636120549E+03 -0.91280958984E+03  0.95697816023E+03  0.00000000000E+00 0. -1.
<mgrwt>
<rscale>  0 0.11101247E+04</rscale>
<asrwt>0</asrwt>
<pdfrwt beam="1">  1        2 0.39556273E-01 0.11101247E+04</pdfrwt>
<pdfrwt beam="2">  1       -1 0.18434929E+00 0.11101247E+04</pdfrwt>
<totfact> 0.28758909E+01</totfact>
</mgrwt>
</event>
<event>
12    7  0.1625631E-007  0.2186343E+04  0.7818608E-02  0.8524134E-01
         -1   -1    0    0    0  501 -0.00000000000E+00  0.00000000000E+00  0.11899259259E+04  0.11899259259E+04  0.00000000000E+00 0.  1.
          2   -1    0    0  501    0  0.00000000000E+00 -0.00000000000E+00 -0.10042844229E+04  0.10042844229E+04  0.00000000000E+00 0. -1.
         24    2    1    2    0    0  0.75124754129E+03 -0.12076042528E+02 -0.42938616744E+03  0.86912422723E+03  0.80534107532E+02 0.  0.
        254    2    1    2    0    0 -0.75124754129E+03  0.12076042528E+02  0.61502767040E+03  0.13250861216E+04  0.90170698965E+03 0.  0.
         23    2    4    4    0    0 -0.79669022010E+03  0.27678140346E+03  0.59844046976E+03  0.10378796383E+04  0.87976676607E+02 0.  0.
         23    2    4    4    0    0  0.45442678804E+02 -0.26470536093E+03  0.16587200634E+02  0.28720648330E+03  0.10039155175E+03 0.  0.
          2    1    3    3  502    0  0.27363012070E+03  0.28337192089E+02 -0.18063118556E+03  0.32909582891E+03  0.00000000000E+00 0. -1.
         -1    1    3    3    0  502  0.47761742060E+03 -0.40413234617E+02 -0.24875498188E+03  0.54002839833E+03  0.00000000000E+00 0.  1.
         13    1    5    5    0    0 -0.11518217358E+03  0.63840061850E+02  0.12196737388E+03  0.17949520021E+03  0.00000000000E+00 0.  1.
        -13    1    5    5    0    0 -0.68150804652E+03  0.21294134161E+03  0.47647309588E+03  0.85838443808E+03  0.00000000000E+00 0. -1.
          2    1    6    6  503    0  0.59254047226E+02 -0.23556567260E+03  0.41543062905E+02  0.24643062776E+03  0.00000000000E+00 0. -1.
         -2    1    6    6    0  503 -0.13811368421E+02 -0.29139688331E+02 -0.24955862271E+02  0.40775855545E+02  0.00000000000E+00 0.  1.
<mgrwt>
<rscale>  0 0.21863431E+04</rscale>
<asrwt>0</asrwt>
<pdfrwt beam="1">  1        2 0.15450530E+00 0.21863431E+04</pdfrwt>
<pdfrwt beam="2">  1       -1 0.18306553E+00 0.21863431E+04</pdfrwt>
<totfact> 0.51678869E+00</totfact>
</mgrwt>
</event>
<event>
12    7  0.1625631E-007  0.2092740E+04  0.7818608E-02  0.8564448E-01
         -1   -1    0    0    0  501 -0.00000000000E+00  0.00000000000E+00  0.97474055041E+03  0.97474055041E+03  0.00000000000E+00 0.  1.
          2   -1    0    0  501    0  0.00000000000E+00 -0.00000000000E+00 -0.11232635097E+04  0.11232635097E+04  0.00000000000E+00 0. -1.
         24    2    1    2    0    0 -0.40038317814E+03  0.73561402426E+03  0.85552386739E+02  0.84692946595E+03  0.92388459165E+02 0.  0.
        254    2    1    2    0    0  0.40038317814E+03 -0.73561402426E+03 -0.23407534598E+03  0.12510745941E+04  0.89942297637E+03 0.  0.
         23    2    4    4    0    0 -0.36968848635E+02 -0.47578027221E+03  0.24753701744E+03  0.54503775757E+03  0.89766469173E+02 0.  0.
         23    2    4    4    0    0  0.43735202677E+03 -0.25983375205E+03 -0.48161236342E+03  0.70603683654E+03  0.88018020480E+02 0.  0.
          2    1    3    3  502    0 -0.36037381343E+03  0.68993150652E+03  0.99238897254E+02  0.78468027108E+03  0.00000000000E+00 0. -1.
         -3    1    3    3    0  502 -0.40009364703E+02  0.45682517739E+02 -0.13686510515E+02  0.62249194862E+02  0.00000000000E+00 0.  1.
         13    1    5    5    0    0 -0.42544773999E+02 -0.93098167394E+02  0.42264440430E+02  0.11074118246E+03  0.00000000000E+00 0.  1.
        -13    1    5    5    0    0  0.55759253641E+01 -0.38268210481E+03  0.20527257701E+03  0.43429657512E+03  0.00000000000E+00 0. -1.
          1    1    6    6  503    0  0.31834573807E+03 -0.17367887287E+03 -0.39166996843E+03  0.53377310160E+03  0.00000000000E+00 0. -1.
         -1    1    6    6    0  503  0.11900628870E+03 -0.86154879188E+02 -0.89942394993E+02  0.17226373494E+03  0.00000000000E+00 0.  1.
<mgrwt>
<rscale>  0 0.20927403E+04</rscale>
<asrwt>0</asrwt>
<pdfrwt beam="1">  1        2 0.17280977E+00 0.20927403E+04</pdfrwt>
<pdfrwt beam="2">  1       -1 0.14996009E+00 0.20927403E+04</pdfrwt>
<totfact> 0.77391453E+00</totfact>
</mgrwt>
</event>
<event>
12    7  0.1625631E-007  0.1807674E+04  0.7818608E-02  0.8702229E-01
          2   -1    0    0  501    0  0.00000000000E+00  0.00000000000E+00  0.14229298714E+04  0.14229298714E+04  0.00000000000E+00 0. -1.
         -1   -1    0    0    0  501 -0.00000000000E+00 -0.00000000000E+00 -0.57411228654E+03  0.57411228654E+03  0.00000000000E+00 0.  1.
         24    2    1    2    0    0 -0.83340727532E+02  0.20548910944E+03  0.10246659907E+04  0.10516099188E+04  0.82289596556E+02 0.  0.
        254    2    1    2    0    0  0.83340727532E+02 -0.20548910944E+03 -0.17584840586E+03  0.94543223920E+03  0.90207982248E+03 0.  0.
         23    2    4    4    0    0 -0.27230774342E+03  0.40030635505E+02 -0.36420895372E+03  0.46546090936E+03  0.90839073452E+02 0.  0.
         23    2    4    4    0    0  0.35564847095E+03 -0.24551974494E+03  0.18836054787E+03  0.47997132984E+03  0.90149883170E+02 0.  0.
          2    1    3    3  502    0 -0.94713178865E+02  0.19314659306E+03  0.98990517443E+03  0.10130095987E+04  0.00000000000E+00 0. -1.
         -1    1    3    3    0  502  0.11372451333E+02  0.12342516378E+02  0.34760816315E+02  0.38600320086E+02  0.00000000000E+00 0.  1.
         13    1    5    5    0    0 -0.39224188787E+02  0.40966520796E+02 -0.74181891792E+02  0.93379579577E+02  0.00000000000E+00 0.  1.
        -13    1    5    5    0    0 -0.23308355463E+03 -0.93588529087E+00 -0.29002706193E+03  0.37208132978E+03  0.00000000000E+00 0. -1.
          3    1    6    6  503    0  0.26152813472E+03 -0.13653820494E+03  0.10252942719E+03  0.31233304356E+03  0.00000000000E+00 0. -1.
         -3    1    6    6    0  503  0.94120336230E+02 -0.10898154000E+03  0.85831120675E+02  0.16763828628E+03  0.00000000000E+00 0.  1.
<mgrwt>
<rscale>  0 0.18076742E+04</rscale>
<asrwt>0</asrwt>
<pdfrwt beam="1">  1        2 0.21891229E+00 0.18076742E+04</pdfrwt>
<pdfrwt beam="2">  1       -1 0.88324968E-01 0.18076742E+04</pdfrwt>
<totfact> 0.19007176E+01</totfact>
</mgrwt>
</event>
<event>
12    7  0.1625631E-007  0.2035534E+04  0.7818608E-02  0.8590185E-01
         -1   -1    0    0    0  501 -0.00000000000E+00  0.00000000000E+00  0.16114107758E+04  0.16114107758E+04  0.00000000000E+00 0.  1.
          2   -1    0    0  501    0  0.00000000000E+00 -0.00000000000E+00 -0.64282134898E+03  0.64282134898E+03  0.00000000000E+00 0. -1.
         24    2    1    2    0    0 -0.69837189032E+03  0.70146694448E+02 -0.66478264938E+02  0.70935235834E+03  0.78214785318E+02 0.  0.
        254    2    1    2    0    0  0.69837189032E+03 -0.70146694448E+02  0.10350676917E+04  0.15448797664E+04  0.90699752496E+03 0.  0.
         23    2    4    4    0    0  0.63523781983E+03 -0.39036522990E+03  0.47294449017E+03  0.88832604231E+03  0.97645103357E+02 0.  0.
         23    2    4    4    0    0  0.63134070490E+02  0.32021853545E+03  0.56212320154E+03  0.65655372409E+03  0.92490418984E+02 0.  0.
          2    1    3    3  502    0 -0.22849312449E+03  0.39297109450E+02 -0.55193094714E+02  0.23832676823E+03  0.00000000000E+00 0. -1.
         -1    1    3    3    0  502 -0.46987876583E+03  0.30849584998E+02 -0.11285170224E+02  0.47102559011E+03  0.00000000000E+00 0.  1.
         13    1    5    5    0    0  0.63467638524E+03 -0.37706711140E+03  0.46823766406E+03  0.87420834503E+03  0.00000000000E+00 0.  1.
        -13    1    5    5    0    0  0.56143458697E+00 -0.13298118496E+02  0.47068261127E+01  0.14117697276E+02  0.00000000000E+00 0. -1.
          4    1    6    6  503    0  0.10873287279E+01  0.11968626823E+03  0.13356173764E+03  0.17934526157E+03  0.00000000000E+00 0. -1.
         -4    1    6    6    0  503  0.62046741762E+02  0.20053226722E+03  0.42856146390E+03  0.47720846252E+03  0.00000000000E+00 0.  1.
<mgrwt>
<rscale>  0 0.20355336E+04</rscale>
<asrwt>0</asrwt>
<pdfrwt beam="1">  1        2 0.98895593E-01 0.20355336E+04</pdfrwt>
<pdfrwt beam="2">  1       -1 0.24790935E+00 0.20355336E+04</pdfrwt>
<totfact> 0.34688982E+00</totfact>
</mgrwt>
</event>
<event>
12    7  0.1625631E-007  0.2204589E+04  0.7818608E-02  0.8516520E-01
         -1   -1    0    0    0  501 -0.00000000000E+00  0.00000000000E+00  0.71848345237E+03  0.71848345237E+03  0.00000000000E+00 0.  1.
          2   -1    0    0  501    0  0.00000000000E+00 -0.00000000000E+00 -0.16911366402E+04  0.16911366402E+04  0.00000000000E+00 0. -1.
         24    2    1    2    0    0 -0.79239739656E+03 -0.37767613926E+03 -0.87344335898E+02  0.88573578329E+03  0.79786869513E+02 0.  0.
        254    2    1    2    0    0  0.79239739656E+03  0.37767613926E+03 -0.88530885196E+03  0.15238843093E+04  0.87630971956E+03 0.  0.
         23    2    4    4    0    0  0.60669099194E+03  0.35936685944E+03 -0.10434201839E+04  0.12626785458E+04  0.91722029100E+02 0.  0.
         23    2    4    4    0    0  0.18570640462E+03  0.18309279819E+02  0.15811133192E+03  0.26120576348E+03  0.91690561952E+02 0.  0.
          4    1    3    3  502    0 -0.11205311988E+03 -0.66987432936E+02  0.12615951944E+02  0.13115784417E+03  0.00000000000E+00 0. -1.
         -3    1    3    3    0  502 -0.68034427668E+03 -0.31068870632E+03 -0.99960287841E+02  0.75457793911E+03  0.00000000000E+00 0.  1.
         13    1    5    5    0    0  0.18123612723E+03  0.62461453574E+02 -0.30432861884E+03  0.35967189943E+03  0.00000000000E+00 0. -1.
        -13    1    5    5    0    0  0.42545486472E+03  0.29690540586E+03 -0.73909156505E+03  0.90300664642E+03  0.00000000000E+00 0.  1.
          4    1    6    6  503    0 -0.10514022671E+02  0.15160263088E+01  0.49441723470E+01  0.11716989746E+02  0.00000000000E+00 0. -1.
         -4    1    6    6    0  503  0.19622042729E+03  0.16793253511E+02  0.15316715957E+03  0.24948877373E+03  0.00000000000E+00 0.  1.
<mgrwt>
<rscale>  0 0.22045895E+04</rscale>
<asrwt>0</asrwt>
<pdfrwt beam="1">  1        2 0.26017486E+00 0.22045895E+04</pdfrwt>
<pdfrwt beam="2">  1       -1 0.11053592E+00 0.22045895E+04</pdfrwt>
<totfact> 0.77861897E+00</totfact>
</mgrwt>
</event>
<event>
12    7  0.1625631E-007  0.1952724E+04  0.7818608E-02  0.8629048E-01
          2   -1    0    0  501    0  0.00000000000E+00  0.00000000000E+00  0.13206408546E+04  0.13206408546E+04  0.00000000000E+00 0. -1.
         -1   -1    0    0    0  501 -0.00000000000E+00 -0.00000000000E+00 -0.72183354179E+03  0.72183354179E+03  0.00000000000E+00 0.  1.
         24    2    1    2    0    0  0.63380892382E+03 -0.28030744595E+03  0.57828791118E+03  0.90640354329E+03  0.82852030205E+02 0.  0.
        254    2    1    2    0    0 -0.63380892382E+03  0.28030744595E+03  0.20519401624E+02  0.11360708531E+04  0.89997217803E+03 0.  0.
         23    2    4    4    0    0 -0.59104128403E+03 -0.19742980491E+03 -0.90336507257E+02  0.63499610161E+03  0.82164695709E+02 0.  0.
         23    2    4    4    0    0 -0.42767639786E+02  0.47773725086E+03  0.11085590888E+03  0.50107475147E+03  0.93407291798E+02 0.  0.
          4    1    3    3  502    0  0.60832324899E+03 -0.28515332043E+03  0.55276229981E+03  0.87000905254E+03  0.00000000000E+00 0. -1.
         -3    1    3    3    0  502  0.25485674826E+02  0.48458744859E+01  0.25525611376E+02  0.36394490751E+02  0.00000000000E+00 0.  1.
         13    1    5    5    0    0 -0.49101508584E+03 -0.13223154982E+03 -0.61940058398E+02  0.51226708671E+03  0.00000000000E+00 0.  1.
        -13    1    5    5    0    0 -0.10002619820E+03 -0.65198255088E+02 -0.28396448859E+02  0.12272901491E+03  0.00000000000E+00 0. -1.
          4    1    6    6  503    0 -0.38266656861E+02  0.68541260613E+02  0.65669778529E+01  0.78774149515E+02  0.00000000000E+00 0. -1.
         -4    1    6    6    0  503 -0.45009829250E+01  0.40919599024E+03  0.10428893103E+03  0.42230060196E+03  0.00000000000E+00 0.  1.
<mgrwt>
<rscale>  0 0.19527241E+04</rscale>
<asrwt>0</asrwt>
<pdfrwt beam="1">  1        2 0.20317552E+00 0.19527241E+04</pdfrwt>
<pdfrwt beam="2">  1       -1 0.11105131E+00 0.19527241E+04</pdfrwt>
<totfact> 0.12755358E+01</totfact>
</mgrwt>
</event>
<event>
12    7  0.1625631E-007  0.1965067E+04  0.7818608E-02  0.8623130E-01
         -1   -1    0    0    0  501 -0.00000000000E+00  0.00000000000E+00  0.46401329289E+03  0.46401329289E+03  0.00000000000E+00 0.  1.
          2   -1    0    0  501    0  0.00000000000E+00 -0.00000000000E+00 -0.20804827809E+04  0.20804827809E+04  0.00000000000E+00 0. -1.
         24    2    1    2    0    0  0.17746885443E+03  0.38522494163E+03  0.16951646254E+03  0.46395516267E+03  0.81394790645E+02 0.  0.
        254    2    1    2    0    0 -0.17746885443E+03 -0.38522494163E+03 -0.17859859505E+04  0.20805409111E+04  0.97929118105E+03 0.  0.
         23    2    4    4    0    0  0.79593395094E+02 -0.17714007931E+03 -0.17171700646E+04  0.17304831305E+04  0.90471640611E+02 0.  0.
         23    2    4    4    0    0 -0.25706224952E+03 -0.20808486232E+03 -0.68815885909E+02  0.35005778063E+03  0.91785148944E+02 0.  0.
          2    1    3    3  502    0  0.11340379248E+03  0.22961766587E+03  0.59538185265E+02  0.26292487165E+03  0.00000000000E+00 0. -1.
         -1    1    3    3    0  502  0.64065061950E+02  0.15560727576E+03  0.10997827728E+03  0.20103029102E+03  0.00000000000E+00 0.  1.
         13    1    5    5    0    0  0.53179953173E+02 -0.11759433254E+03 -0.14395193103E+04  0.14452931810E+04  0.00000000000E+00 0. -1.
        -13    1    5    5    0    0  0.26413441921E+02 -0.59545746773E+02 -0.27765075435E+03  0.28518994945E+03  0.00000000000E+00 0.  1.
          1    1    6    6  503    0 -0.13614771921E+03 -0.16589389253E+03 -0.52690276655E+02  0.22098246600E+03  0.00000000000E+00 0. -1.
         -1    1    6    6    0  503 -0.12091453031E+03 -0.42190969791E+02 -0.16125609253E+02  0.12907531463E+03  0.00000000000E+00 0.  1.
<mgrwt>
<rscale>  0 0.19650666E+04</rscale>
<asrwt>0</asrwt>
<pdfrwt beam="1">  1        2 0.32007428E+00 0.19650666E+04</pdfrwt>
<pdfrwt beam="2">  1       -1 0.71386660E-01 0.19650666E+04</pdfrwt>
<totfact> 0.12664110E+01</totfact>
</mgrwt>
</event>
<event>
12    7  0.1625631E-007  0.1965946E+04  0.7818608E-02  0.8622710E-01
         -1   -1    0    0    0  501 -0.00000000000E+00  0.00000000000E+00  0.76706973453E+03  0.76706973453E+03  0.00000000000E+00 0.  1.
          2   -1    0    0  501    0  0.00000000000E+00 -0.00000000000E+00 -0.12596456356E+04  0.12596456356E+04  0.00000000000E+00 0. -1.
         24    2    1    2    0    0  0.67219008602E+03  0.20422445541E+03  0.13334578695E+03  0.71955261927E+03  0.80173144310E+02 0.  0.
        254    2    1    2    0    0 -0.67219008602E+03 -0.20422445541E+03 -0.62592168799E+03  0.13071627508E+04  0.90738600260E+03 0.  0.
         23    2    4    4    0    0  0.19767412967E+03  0.50617518124E+02 -0.46459619254E+02  0.22750710360E+03  0.89240076692E+02 0.  0.
         23    2    4    4    0    0 -0.86986421569E+03 -0.25484197353E+03 -0.57946206873E+03  0.10796556472E+04  0.90949668829E+02 0.  0.
          2    1    3    3  502    0  0.34699582950E+03  0.12990538771E+03  0.10317612909E+03  0.38461257008E+03  0.00000000000E+00 0. -1.
         -1    1    3    3    0  502  0.32519425652E+03  0.74319067693E+02  0.30169657857E+02  0.33494004919E+03  0.00000000000E+00 0.  1.
         13    1    5    5    0    0  0.19177895244E+03  0.42925694859E+02 -0.64659412416E+02  0.20688794429E+03  0.00000000000E+00 0.  1.
        -13    1    5    5    0    0  0.58951772286E+01  0.76918232655E+01  0.18199793163E+02  0.20619159315E+02  0.00000000000E+00 0. -1.
          4    1    6    6  503    0 -0.11323040975E+03 -0.42040501445E+02 -0.11454003506E+03  0.16645704877E+03  0.00000000000E+00 0. -1.
         -4    1    6    6    0  503 -0.75663380594E+03 -0.21280147209E+03 -0.46492203367E+03  0.91319859845E+03  0.00000000000E+00 0.  1.
<mgrwt>
<rscale>  0 0.19659461E+04</rscale>
<asrwt>0</asrwt>
<pdfrwt beam="1">  1        2 0.19379164E+00 0.19659461E+04</pdfrwt>
<pdfrwt beam="2">  1       -1 0.11801073E+00 0.19659461E+04</pdfrwt>
<totfact> 0.11957904E+01</totfact>
</mgrwt>
</event>
<event>
12    7  0.2576334E-007  0.3126961E+04  0.7818608E-02  0.8208377E-01
         -1   -1    0    0    0  501 -0.00000000000E+00  0.00000000000E+00  0.12903249802E+04  0.12903249802E+04  0.00000000000E+00 0.  1.
          2   -1    0    0  501    0  0.00000000000E+00 -0.00000000000E+00 -0.18944615189E+04  0.18944615189E+04  0.00000000000E+00 0. -1.
         24    2    1    2    0    0 -0.10856642514E+04 -0.22991064070E+03 -0.11981353964E+04  0.16351445720E+04  0.81508119977E+02 0.  0.
        254    2    1    2    0    0  0.10856642514E+04  0.22991064070E+03  0.59399885775E+03  0.15496419271E+04  0.90389694643E+03 0.  0.
         23    2    4    4    0    0  0.34618077766E+03  0.65313154858E+02  0.68995663514E+03  0.78013484861E+03  0.91996112012E+02 0.  0.
         23    2    4    4    0    0  0.73948347371E+03  0.16459748584E+03 -0.95957777388E+02  0.76950707847E+03  0.94895250393E+02 0.  0.
          2    1    3    3  502    0 -0.90244594394E+03 -0.16400579393E+03 -0.96432349203E+03  0.13308742914E+04  0.00000000000E+00 0. -1.
         -3    1    3    3    0  502 -0.18321830743E+03 -0.65904846766E+02 -0.23381190439E+03  0.30427028057E+03  0.00000000000E+00 0.  1.
         13    1    5    5    0    0  0.29526184559E+03  0.75280828548E+02  0.63629441870E+03  0.70549085599E+03  0.00000000000E+00 0. -1.
        -13    1    5    5    0    0  0.50918932073E+02 -0.99676736897E+01  0.53662216437E+02  0.74643992626E+02  0.00000000000E+00 0.  1.
          4    1    6    6  503    0  0.71089586876E+03  0.13897578497E+03 -0.83513433214E+02  0.72915135504E+03  0.00000000000E+00 0. -1.
         -4    1    6    6    0  503  0.28587604948E+02  0.25621700866E+02 -0.12444344174E+02  0.40355723433E+02  0.00000000000E+00 0.  1.
<mgrwt>
<rscale>  0 0.31269608E+04</rscale>
<asrwt>0</asrwt>
<pdfrwt beam="1">  1        2 0.29145562E+00 0.31269608E+04</pdfrwt>
<pdfrwt beam="2">  1       -1 0.19851154E+00 0.31269608E+04</pdfrwt>
<totfact> 0.11359385E+00</totfact>
</mgrwt>
</event>
<event>
12    7  0.1625631E-007  0.1721719E+04  0.7818608E-02  0.8749073E-01
          2   -1    0    0  501    0  0.00000000000E+00  0.00000000000E+00  0.12103490505E+04  0.12103490505E+04  0.00000000000E+00 0. -1.
         -1   -1    0    0    0  501 -0.00000000000E+00 -0.00000000000E+00 -0.61228521164E+03  0.61228521164E+03  0.00000000000E+00 0.  1.
         24    2    1    2    0    0 -0.62194262635E+03  0.34428621743E+02  0.29544514991E+03  0.69407429637E+03  0.80332632248E+02 0.  0.
        254    2    1    2    0    0  0.62194262635E+03 -0.34428621743E+02  0.30261868894E+03  0.11285599658E+04  0.89110693239E+03 0.  0.
         23    2    4    4    0    0  0.14614841030E+02 -0.14282425070E+03 -0.24640810479E+03  0.29772534202E+03  0.85504765987E+02 0.  0.
         23    2    4    4    0    0  0.60732778533E+03  0.10839562895E+03  0.54902679374E+03  0.83083462374E+03  0.90879593778E+02 0.  0.
          2    1    3    3  502    0 -0.61471253827E+03  0.32551423933E+02  0.27867362880E+03  0.67571450428E+03  0.00000000000E+00 0. -1.
         -1    1    3    3    0  502 -0.72300880845E+01  0.18771978100E+01  0.16771521104E+02  0.18359792087E+02  0.00000000000E+00 0.  1.
         13    1    5    5    0    0  0.21170577409E+01 -0.14046499765E+03 -0.24788199394E+03  0.28492170928E+03  0.00000000000E+00 0. -1.
        -13    1    5    5    0    0  0.12497783289E+02 -0.23592530510E+01  0.14738891500E+01  0.12803632739E+02  0.00000000000E+00 0.  1.
          2    1    6    6  503    0  0.25834183130E+03  0.91975497767E+01  0.26365481010E+03  0.36924105353E+03  0.00000000000E+00 0. -1.
         -2    1    6    6    0  503  0.34898595402E+03  0.99198079178E+02  0.28537198364E+03  0.46159357021E+03  0.00000000000E+00 0.  1.
<mgrwt>
<rscale>  0 0.17217187E+04</rscale>
<asrwt>0</asrwt>
<pdfrwt beam="1">  1        2 0.18620755E+00 0.17217187E+04</pdfrwt>
<pdfrwt beam="2">  1       -1 0.94197725E-01 0.17217187E+04</pdfrwt>
<totfact> 0.22075872E+01</totfact>
</mgrwt>
</event>
<event>
12    7  0.1625631E-007  0.1947575E+04  0.7818608E-02  0.8631531E-01
          2   -1    0    0  501    0  0.00000000000E+00  0.00000000000E+00  0.32847236260E+04  0.32847236260E+04  0.00000000000E+00 0. -1.
         -1   -1    0    0    0  501 -0.00000000000E+00 -0.00000000000E+00 -0.28868860326E+03  0.28868860326E+03  0.00000000000E+00 0.  1.
         24    2    1    2    0    0 -0.34048866282E+03  0.14179193516E+03  0.24072401339E+04  0.24367496546E+04  0.83104359903E+02 0.  0.
        254    2    1    2    0    0  0.34048866282E+03 -0.14179193516E+03  0.58879488893E+03  0.11366625747E+04  0.89960263738E+03 0.  0.
         23    2    4    4    0    0  0.13404722207E+03  0.22601327729E+03  0.64278809830E+03  0.70033662653E+03  0.90797532434E+02 0.  0.
         23    2    4    4    0    0  0.20644144075E+03 -0.36780521244E+03 -0.53993209369E+02  0.43632594819E+03  0.97807584825E+02 0.  0.
          4    1    3    3  502    0 -0.30632235473E+03  0.15216499889E+03  0.21477403123E+04  0.21748048237E+04  0.00000000000E+00 0. -1.
         -1    1    3    3    0  502 -0.34166308090E+02 -0.10373063739E+02  0.25949982152E+03  0.26194483089E+03  0.00000000000E+00 0.  1.
         13    1    5    5    0    0  0.69897011643E+01  0.62089769716E+02  0.23054575105E+03  0.23886259387E+03  0.00000000000E+00 0. -1.
        -13    1    5    5    0    0  0.12705752091E+03  0.16392350757E+03  0.41224234725E+03  0.46147403266E+03  0.00000000000E+00 0.  1.
          2    1    6    6  503    0  0.20061990273E+02 -0.10284360455E+01  0.50037640975E+01  0.20702144564E+02  0.00000000000E+00 0. -1.
         -2    1    6    6    0  503  0.18637945048E+03 -0.36677677640E+03 -0.58996973467E+02  0.41562380363E+03  0.00000000000E+00 0.  1.
<mgrwt>
<rscale>  0 0.19475752E+04</rscale>
<asrwt>0</asrwt>
<pdfrwt beam="1">  1        2 0.50534207E+00 0.19475752E+04</pdfrwt>
<pdfrwt beam="2">  1       -1 0.44413633E-01 0.19475752E+04</pdfrwt>
<totfact> 0.61054859E+00</totfact>
</mgrwt>
</event>
<event>
12    7  0.1625631E-007  0.3110128E+04  0.7818608E-02  0.8212964E-01
         -1   -1    0    0    0  501 -0.00000000000E+00  0.00000000000E+00  0.15631776972E+04  0.15631776972E+04  0.00000000000E+00 0.  1.
          2   -1    0    0  501    0  0.00000000000E+00 -0.00000000000E+00 -0.15469925328E+04  0.15469925328E+04  0.00000000000E+00 0. -1.
         24    2    1    2    0    0  0.45831566106E+03 -0.82499988366E+03  0.10718230311E+04  0.14303108366E+04  0.79413008156E+02 0.  0.
        254    2    1    2    0    0 -0.45831566106E+03  0.82499988366E+03 -0.10556378668E+04  0.16798593935E+04  0.90381315713E+03 0.  0.
         23    2    4    4    0    0 -0.60266143959E+03  0.91993697490E+03 -0.93644885937E+03  0.14471835972E+04  0.88989039585E+02 0.  0.
         23    2    4    4    0    0  0.14434577853E+03 -0.94937091233E+02 -0.11918900738E+03  0.23267579633E+03  0.10041539546E+03 0.  0.
          4    1    3    3  502    0  0.69518864392E+02 -0.19230658824E+03  0.23106662595E+03  0.30855547639E+03  0.00000000000E+00 0. -1.
         -3    1    3    3    0  502  0.38879679667E+03 -0.63269329543E+03  0.84075640520E+03  0.11217553602E+04  0.00000000000E+00 0.  1.
         13    1    5    5    0    0 -0.32841396002E+03  0.57148105510E+03 -0.58673155881E+03  0.88243993993E+03  0.00000000000E+00 0.  1.
        -13    1    5    5    0    0 -0.27424747957E+03  0.34845591980E+03 -0.34971730057E+03  0.56474365725E+03  0.00000000000E+00 0. -1.
          3    1    6    6  503    0  0.14825077652E+03 -0.54274176239E+02 -0.84389786009E+02  0.17901289039E+03  0.00000000000E+00 0. -1.
         -3    1    6    6    0  503 -0.39049979880E+01 -0.40662914994E+02 -0.34799221371E+02  0.53662905933E+02  0.00000000000E+00 0.  1.
<mgrwt>
<rscale>  0 0.31101281E+04</rscale>
<asrwt>0</asrwt>
<pdfrwt beam="1">  1        2 0.23799885E+00 0.31101281E+04</pdfrwt>
<pdfrwt beam="2">  1       -1 0.24048888E+00 0.31101281E+04</pdfrwt>
<totfact> 0.92821284E-01</totfact>
</mgrwt>
</event>
<event>
12    7  0.1625631E-007  0.1564679E+04  0.7818608E-02  0.8842546E-01
         -1   -1    0    0    0  501 -0.00000000000E+00  0.00000000000E+00  0.81945809774E+03  0.81945809774E+03  0.00000000000E+00 0.  1.
          2   -1    0    0  501    0  0.00000000000E+00 -0.00000000000E+00 -0.74690242706E+03  0.74690242706E+03  0.00000000000E+00 0. -1.
         24    2    1    2    0    0  0.64881968759E+02  0.99724171860E+01 -0.49027024241E+03  0.50113703184E+03  0.80400840252E+02 0.  0.
        254    2    1    2    0    0 -0.64881968759E+02 -0.99724171860E+01  0.56282591310E+03  0.10652234930E+04  0.90200829405E+03 0.  0.
         23    2    4    4    0    0  0.79112530923E+01  0.42689641707E+03  0.17970931286E+03  0.47231124547E+03  0.92083313526E+02 0.  0.
         23    2    4    4    0    0 -0.72793221851E+02 -0.43686883426E+03  0.38311660024E+03  0.59291224750E+03  0.92808255913E+02 0.  0.
          2    1    3    3  502    0  0.74725908671E+02  0.26034476710E+02 -0.44690498150E+03  0.45385660499E+03  0.00000000000E+00 0. -1.
         -1    1    3    3    0  502 -0.98439399126E+01 -0.16062059524E+02 -0.43365260911E+02  0.47280426850E+02  0.00000000000E+00 0.  1.
         13    1    5    5    0    0  0.27257093992E+02  0.27245667219E+03  0.72300163322E+02  0.28320116703E+03  0.00000000000E+00 0.  1.
        -13    1    5    5    0    0 -0.19345840900E+02  0.15443974488E+03  0.10740914954E+03  0.18911007843E+03  0.00000000000E+00 0. -1.
          2    1    6    6  503    0 -0.10439597183E+02 -0.39221808625E+02  0.54215773198E+01  0.40947881042E+02  0.00000000000E+00 0. -1.
         -2    1    6    6    0  503 -0.62353624668E+02 -0.39764702563E+03  0.37769502292E+03  0.55196436646E+03  0.00000000000E+00 0.  1.
<mgrwt>
<rscale>  0 0.15646792E+04</rscale>
<asrwt>0</asrwt>
<pdfrwt beam="1">  1        2 0.11490807E+00 0.15646792E+04</pdfrwt>
<pdfrwt beam="2">  1       -1 0.12607048E+00 0.15646792E+04</pdfrwt>
<totfact> 0.22683442E+01</totfact>
</mgrwt>
</event>
<event>
12    7  0.1625631E-007  0.1524472E+04  0.7818608E-02  0.8868340E-01
          2   -1    0    0  501    0  0.00000000000E+00  0.00000000000E+00  0.47077346849E+03  0.47077346849E+03  0.00000000000E+00 0. -1.
         -1   -1    0    0    0  501 -0.00000000000E+00 -0.00000000000E+00 -0.12341472689E+04  0.12341472689E+04  0.00000000000E+00 0.  1.
         24    2    1    2    0    0  0.46315860273E+02 -0.42490344137E+03  0.58548167562E+02  0.43729622874E+03  0.71498324120E+02 0.  0.
        254    2    1    2    0    0 -0.46315860273E+02  0.42490344137E+03 -0.82192196795E+03  0.12676245086E+04  0.86523296290E+03 0.  0.
         23    2    4    4    0    0  0.27069179581E+03 -0.50340551378E+02 -0.35284367437E+02  0.29050158240E+03  0.85661913103E+02 0.  0.
         23    2    4    4    0    0 -0.31700765608E+03  0.47524399274E+03 -0.78663760052E+03  0.97712292624E+03  0.98080537186E+02 0.  0.
          4    1    3    3  502    0  0.24518898567E+02 -0.22200323846E+03 -0.54777852643E+01  0.22342027751E+03  0.00000000000E+00 0. -1.
         -3    1    3    3    0  502  0.21796961705E+02 -0.20290020291E+03  0.64025952827E+02  0.21387595123E+03  0.00000000000E+00 0.  1.
         13    1    5    5    0    0  0.12609803763E+03  0.69628407150E+01 -0.46462326352E+02  0.13456576093E+03  0.00000000000E+00 0.  1.
        -13    1    5    5    0    0  0.14459375818E+03 -0.57303392093E+02  0.11177958915E+02  0.15593582146E+03  0.00000000000E+00 0. -1.
          1    1    6    6  503    0 -0.14060299094E+02  0.20537416296E+02 -0.80632478582E+02  0.84386456739E+02  0.00000000000E+00 0. -1.
         -1    1    6    6    0  503 -0.30294735699E+03  0.45470657645E+03 -0.70600512194E+03  0.89273646950E+03  0.00000000000E+00 0.  1.
<mgrwt>
<rscale>  0 0.15244721E+04</rscale>
<asrwt>0</asrwt>
<pdfrwt beam="1">  1        2 0.72426688E-01 0.15244721E+04</pdfrwt>
<pdfrwt beam="2">  1       -1 0.18986881E+00 0.15244721E+04</pdfrwt>
<totfact> 0.12891923E+01</totfact>
</mgrwt>
</event>
<event>
12    7  0.1625631E-007  0.1374800E+04  0.7818608E-02  0.8972264E-01
          2   -1    0    0  501    0  0.00000000000E+00  0.00000000000E+00  0.86509818559E+03  0.86509818559E+03  0.00000000000E+00 0. -1.
         -1   -1    0    0    0  501 -0.00000000000E+00 -0.00000000000E+00 -0.54620267378E+03  0.54620267378E+03  0.00000000000E+00 0.  1.
         24    2    1    2    0    0  0.44577319933E+02 -0.25434923577E+03 -0.20193122899E+03  0.33705537204E+03  0.78418310300E+02 0.  0.
        254    2    1    2    0    0 -0.44577319933E+02  0.25434923577E+03  0.52082674080E+03  0.10742454873E+04  0.90336161194E+03 0.  0.
         23    2    4    4    0    0 -0.20797112729E+03 -0.22240152593E+03  0.45898338107E+03  0.55809643404E+03  0.89952526759E+02 0.  0.
         23    2    4    4    0    0  0.16339380736E+03  0.47675076170E+03  0.61843359733E+02  0.51614905329E+03  0.92716875518E+02 0.  0.
          4    1    3    3  502    0  0.20031206293E+02 -0.51231011587E+02 -0.88083117395E+01  0.55708636040E+02  0.00000000000E+00 0. -1.
         -3    1    3    3    0  502  0.24546113640E+02 -0.20311822418E+03 -0.19312291725E+03  0.28134673600E+03  0.00000000000E+00 0.  1.
         13    1    5    5    0    0 -0.40610399111E+02 -0.10164725889E+03  0.13263933726E+03  0.17197256626E+03  0.00000000000E+00 0.  1.
        -13    1    5    5    0    0 -0.16736072818E+03 -0.12075426704E+03  0.32634404380E+03  0.38612386778E+03  0.00000000000E+00 0. -1.
          3    1    6    6  503    0  0.15932610868E+03  0.47749547020E+03  0.52715447251E+02  0.50612809777E+03  0.00000000000E+00 0. -1.
         -3    1    6    6    0  503  0.40676986784E+01 -0.74470850460E+00  0.91279124816E+01  0.10020955522E+02  0.00000000000E+00 0.  1.
<mgrwt>
<rscale>  0 0.13748003E+04</rscale>
<asrwt>0</asrwt>
<pdfrwt beam="1">  1        2 0.13309203E+00 0.13748003E+04</pdfrwt>
<pdfrwt beam="2">  1       -1 0.84031181E-01 0.13748003E+04</pdfrwt>
<totfact> 0.48411995E+01</totfact>
</mgrwt>
</event>
<event>
12    7  0.1625631E-007  0.1068225E+04  0.7818608E-02  0.9236727E-01
          2   -1    0    0  501    0  0.00000000000E+00  0.00000000000E+00  0.69165104551E+03  0.69165104551E+03  0.00000000000E+00 0. -1.
         -1   -1    0    0    0  501 -0.00000000000E+00 -0.00000000000E+00 -0.41245684762E+03  0.41245684762E+03  0.00000000000E+00 0.  1.
         24    2    1    2    0    0  0.60894141626E+02  0.12444334170E+03  0.44235749976E+02  0.16619453643E+03  0.80433703046E+02 0.  0.
        254    2    1    2    0    0 -0.60894141626E+02 -0.12444334170E+03  0.23495844791E+03  0.93791335670E+03  0.89737492201E+03 0.  0.
         23    2    4    4    0    0  0.90070657344E+02 -0.19576987779E+03 -0.29417380260E+03  0.37558058232E+03  0.89910952125E+02 0.  0.
         23    2    4    4    0    0 -0.15096479897E+03  0.71326536091E+02  0.52913225051E+03  0.56233277438E+03  0.91429564887E+02 0.  0.
          2    1    3    3  502    0  0.47333337884E+02  0.12606474225E+03  0.58168412253E+02  0.14668445145E+03  0.00000000000E+00 0. -1.
         -3    1    3    3    0  502  0.13560803743E+02 -0.16214005457E+01 -0.13932662277E+02  0.19510084982E+02  0.00000000000E+00 0.  1.
         13    1    5    5    0    0  0.68671423084E+01 -0.56496732561E+02 -0.26963546645E+02  0.62976751911E+02  0.00000000000E+00 0. -1.
        -13    1    5    5    0    0  0.83203515035E+02 -0.13927314523E+03 -0.26721025595E+03  0.31260383040E+03  0.00000000000E+00 0.  1.
          3    1    6    6  503    0 -0.10867634304E+03  0.54435153582E+02  0.48080781734E+03  0.49593335308E+03  0.00000000000E+00 0. -1.
         -3    1    6    6    0  503 -0.42288455931E+02  0.16891382509E+02  0.48324433172E+02  0.66399421304E+02  0.00000000000E+00 0.  1.
<mgrwt>
<rscale>  0 0.10682251E+04</rscale>
<asrwt>0</asrwt>
<pdfrwt beam="1">  1        2 0.10640785E+00 0.10682251E+04</pdfrwt>
<pdfrwt beam="2">  1       -1 0.63454900E-01 0.10682251E+04</pdfrwt>
<totfact> 0.11906587E+02</totfact>
</mgrwt>
</event>
<event>
12    7  0.1625631E-007  0.1599439E+04  0.7818608E-02  0.8820893E-01
         -1   -1    0    0    0  501 -0.00000000000E+00  0.00000000000E+00  0.26783138953E+04  0.26783138953E+04  0.00000000000E+00 0.  1.
          2   -1    0    0  501    0  0.00000000000E+00 -0.00000000000E+00 -0.23878865860E+03  0.23878865860E+03  0.00000000000E+00 0. -1.
         24    2    1    2    0    0  0.48508908311E+02  0.17698297181E+03 -0.90891058246E+02  0.21945719364E+03  0.78893528710E+02 0.  0.
        254    2    1    2    0    0 -0.48508908311E+02 -0.17698297181E+03  0.25304162950E+04  0.26976453603E+04  0.91684664885E+03 0.  0.
         23    2    4    4    0    0  0.25870517792E+03  0.25030204683E+03  0.13712542044E+04  0.14205858508E+04  0.90258422626E+02 0.  0.
         23    2    4    4    0    0 -0.30721408623E+03 -0.42728501864E+03  0.11591620906E+04  0.12770595095E+04  0.10134720742E+03 0.  0.
          4    1    3    3  502    0  0.39599772293E+02  0.14559106518E+03 -0.10508843198E+03  0.18387082085E+03  0.00000000000E+00 0. -1.
         -3    1    3    3    0  502  0.89091360181E+01  0.31391906638E+02  0.14197373735E+02  0.35586372785E+02  0.00000000000E+00 0.  1.
         13    1    5    5    0    0  0.58669765736E+02  0.11624803220E+03  0.49714649896E+03  0.51391671293E+03  0.00000000000E+00 0.  1.
        -13    1    5    5    0    0  0.20003541219E+03  0.13405401463E+03  0.87410770542E+03  0.90666913791E+03  0.00000000000E+00 0. -1.
          3    1    6    6  503    0 -0.24294717389E+03 -0.26461035548E+03  0.72914375161E+03  0.81282998224E+03  0.00000000000E+00 0. -1.
         -3    1    6    6    0  503 -0.64266912344E+02 -0.16267466317E+03  0.43001833901E+03  0.46422952722E+03  0.00000000000E+00 0.  1.
<mgrwt>
<rscale>  0 0.15994386E+04</rscale>
<asrwt>0</asrwt>
<pdfrwt beam="1">  1        2 0.36736719E-01 0.15994386E+04</pdfrwt>
<pdfrwt beam="2">  1       -1 0.41204827E+00 0.15994386E+04</pdfrwt>
<totfact> 0.92559648E-01</totfact>
</mgrwt>
</event>
<event>
12    7  0.1625631E-007  0.2703637E+04  0.7818608E-02  0.8333826E-01
          2   -1    0    0  501    0  0.00000000000E+00  0.00000000000E+00  0.36419984481E+04  0.36419984481E+04  0.00000000000E+00 0. -1.
         -1   -1    0    0    0  501 -0.00000000000E+00 -0.00000000000E+00 -0.50176100669E+03  0.50176100669E+03  0.00000000000E+00 0.  1.
         24    2    1    2    0    0 -0.38794468016E+03  0.68930460096E+03  0.27845615901E+04  0.28957370166E+04  0.76600997037E+02 0.  0.
        254    2    1    2    0    0  0.38794468016E+03 -0.68930460096E+03  0.35567585131E+03  0.12480224381E+04  0.89744793003E+03 0.  0.
         23    2    4    4    0    0  0.45958945213E+03 -0.19580279257E+03  0.50785619150E+03  0.71857298699E+03  0.94170209148E+02 0.  0.
         23    2    4    4    0    0 -0.71644771977E+02 -0.49350180839E+03 -0.15218034019E+03  0.52944945115E+03  0.92091569352E+02 0.  0.
          2    1    3    3  502    0 -0.30019104254E+03  0.50102259040E+03  0.21576732803E+04  0.22353282270E+04  0.00000000000E+00 0. -1.
         -1    1    3    3    0  502 -0.87753637621E+02  0.18828201056E+03  0.62688830980E+03  0.66040878960E+03  0.00000000000E+00 0.  1.
         13    1    5    5    0    0  0.37527345098E+03 -0.13862633150E+03  0.44711102854E+03  0.59996307773E+03  0.00000000000E+00 0.  1.
        -13    1    5    5    0    0  0.84316001156E+02 -0.57176461071E+02  0.60745162961E+02  0.11860990926E+03  0.00000000000E+00 0. -1.
          1    1    6    6  503    0 -0.25968175860E+02 -0.40193123583E+02 -0.34200505471E+02  0.58817581686E+02  0.00000000000E+00 0. -1.
         -1    1    6    6    0  503 -0.45676596117E+02 -0.45330868480E+03 -0.11797983472E+03  0.47063186946E+03  0.00000000000E+00 0.  1.
<mgrwt>
<rscale>  0 0.27036367E+04</rscale>
<asrwt>0</asrwt>
<pdfrwt beam="1">  1        2 0.56030744E+00 0.27036367E+04</pdfrwt>
<pdfrwt beam="2">  1       -1 0.77194003E-01 0.27036367E+04</pdfrwt>
<totfact> 0.10804703E+00</totfact>
</mgrwt>
</event>
<event>
12    7  0.1625631E-007  0.2055231E+04  0.7818608E-02  0.8581225E-01
         -1   -1    0    0    0  501 -0.00000000000E+00  0.00000000000E+00  0.12424654675E+04  0.12424654675E+04  0.00000000000E+00 0.  1.
          2   -1    0    0  501    0  0.00000000000E+00 -0.00000000000E+00 -0.84991760205E+03  0.84991760205E+03  0.00000000000E+00 0. -1.
         24    2    1    2    0    0 -0.32603897919E+03 -0.75647252974E+03  0.98521509841E+02  0.83344090533E+03  0.79781893771E+02 0.  0.
        254    2    1    2    0    0  0.32603897919E+03  0.75647252974E+03  0.29402635566E+03  0.12589421643E+04  0.90550083984E+03 0.  0.
         23    2    4    4    0    0  0.52605154173E+03  0.38354676957E+03 -0.10957346607E+03  0.66666218095E+03  0.92702589191E+02 0.  0.
         23    2    4    4    0    0 -0.20001256254E+03  0.37292576017E+03  0.40359982173E+03  0.59227998332E+03  0.93936759450E+02 0.  0.
          4    1    3    3  502    0 -0.23611666420E+03 -0.53977125645E+03  0.34109503303E+02  0.59014197158E+03  0.00000000000E+00 0. -1.
         -3    1    3    3    0  502 -0.89922314991E+02 -0.21670127329E+03  0.64412006538E+02  0.24329893375E+03  0.00000000000E+00 0.  1.
         13    1    5    5    0    0  0.69197713332E+02  0.42482675233E+02  0.16279169373E+02  0.82813722177E+02  0.00000000000E+00 0.  1.
        -13    1    5    5    0    0  0.45685382839E+03  0.34106409434E+03 -0.12585263544E+03  0.58384845877E+03  0.00000000000E+00 0. -1.
          1    1    6    6  503    0 -0.19355922755E+03  0.30877185321E+03  0.30898165952E+03  0.47778122381E+03  0.00000000000E+00 0. -1.
         -1    1    6    6    0  503 -0.64533349874E+01  0.64153906957E+02  0.94618162210E+02  0.11449875951E+03  0.00000000000E+00 0.  1.
<mgrwt>
<rscale>  0 0.20552307E+04</rscale>
<asrwt>0</asrwt>
<pdfrwt beam="1">  1        2 0.13075655E+00 0.20552307E+04</pdfrwt>
<pdfrwt beam="2">  1       -1 0.19114853E+00 0.20552307E+04</pdfrwt>
<totfact> 0.58102238E+00</totfact>
</mgrwt>
</event>
<event>
12    7  0.1625631E-007  0.1354539E+04  0.7818608E-02  0.8987399E-01
         -1   -1    0    0    0  501 -0.00000000000E+00  0.00000000000E+00  0.44475206697E+03  0.44475206697E+03  0.00000000000E+00 0.  1.
          2   -1    0    0  501    0  0.00000000000E+00 -0.00000000000E+00 -0.10313473668E+04  0.10313473668E+04  0.00000000000E+00 0. -1.
         24    2    1    2    0    0  0.34852383550E+03  0.12198160374E+03 -0.10536332191E+03  0.39205957981E+03  0.79125905672E+02 0.  0.
        254    2    1    2    0    0 -0.34852383550E+03 -0.12198160374E+03 -0.48123197788E+03  0.10840398539E+04  0.89844855880E+03 0.  0.
         23    2    4    4    0    0 -0.26677222705E+03  0.37014948384E+02  0.21694675403E+03  0.35756039283E+03  0.90807559757E+02 0.  0.
         23    2    4    4    0    0 -0.81751608458E+02 -0.15899655213E+03 -0.69817873191E+03  0.72647946110E+03  0.91409171552E+02 0.  0.
          4    1    3    3  502    0  0.17561665315E+03  0.28684279039E+02 -0.24602877571E+02  0.17963657287E+03  0.00000000000E+00 0. -1.
         -3    1    3    3    0  502  0.17290718235E+03  0.93297324702E+02 -0.80760444341E+02  0.21242300694E+03  0.00000000000E+00 0.  1.
         13    1    5    5    0    0 -0.97696376557E+01  0.90328262129E+01 -0.74368085560E+01  0.15242830801E+02  0.00000000000E+00 0. -1.
        -13    1    5    5    0    0 -0.25700258939E+03  0.27982122171E+02  0.22438356258E+03  0.34231756203E+03  0.00000000000E+00 0.  1.
          1    1    6    6  503    0 -0.47553258054E+02 -0.11332393873E+02 -0.15275690821E+03  0.16038830540E+03  0.00000000000E+00 0. -1.
         -1    1    6    6    0  503 -0.34198350404E+02 -0.14766415825E+03 -0.54542182369E+03  0.56609115570E+03  0.00000000000E+00 0.  1.
<mgrwt>
<rscale>  0 0.13545388E+04</rscale>
<asrwt>0</asrwt>
<pdfrwt beam="1">  1        2 0.15866882E+00 0.13545388E+04</pdfrwt>
<pdfrwt beam="2">  1       -1 0.68423395E-01 0.13545388E+04</pdfrwt>
<totfact> 0.57931526E+01</totfact>
</mgrwt>
</event>
<event>
12    7  0.1625631E-007  0.1551499E+04  0.7818608E-02  0.8850911E-01
          2   -1    0    0  501    0  0.00000000000E+00  0.00000000000E+00  0.11836625611E+04  0.11836625611E+04  0.00000000000E+00 0. -1.
         -1   -1    0    0    0  501 -0.00000000000E+00 -0.00000000000E+00 -0.50841120691E+03  0.50841120691E+03  0.00000000000E+00 0.  1.
         24    2    1    2    0    0  0.21726879837E+03  0.46289872108E+03  0.20311581793E+03  0.55619090720E+03  0.81310104101E+02 0.  0.
        254    2    1    2    0    0 -0.21726879837E+03 -0.46289872108E+03  0.47213553630E+03  0.11358828609E+04  0.89768421632E+03 0.  0.
         23    2    4    4    0    0  0.14660045594E+03 -0.59430745959E+03  0.38501258024E+03  0.72914469626E+03  0.93403698705E+02 0.  0.
         23    2    4    4    0    0 -0.36386925431E+03  0.13140873851E+03  0.87122956060E+02  0.40673816460E+03  0.90423637864E+02 0.  0.
          4    1    3    3  502    0  0.21852630861E+03  0.44700868692E+03  0.20833275161E+03  0.53941917757E+03  0.00000000000E+00 0. -1.
         -1    1    3    3    0  502 -0.12575102428E+01  0.15890034159E+02 -0.52169336759E+01  0.16771729623E+02  0.00000000000E+00 0.  1.
         13    1    5    5    0    0  0.90527520657E+02 -0.22390229010E+03  0.11591171077E+03  0.26788615530E+03  0.00000000000E+00 0. -1.
        -13    1    5    5    0    0  0.56072935285E+02 -0.37040516949E+03  0.26910086947E+03  0.46125854095E+03  0.00000000000E+00 0.  1.
          3    1    6    6  503    0 -0.64513617283E+02  0.26775631763E+02  0.53224039417E+02  0.87816511222E+02  0.00000000000E+00 0. -1.
         -3    1    6    6    0  503 -0.29935563703E+03  0.10463310674E+03  0.33898916643E+02  0.31892165338E+03  0.00000000000E+00 0.  1.
<mgrwt>
<rscale>  0 0.15514990E+04</rscale>
<asrwt>0</asrwt>
<pdfrwt beam="1">  1        2 0.18210193E+00 0.15514990E+04</pdfrwt>
<pdfrwt beam="2">  1       -1 0.78217109E-01 0.15514990E+04</pdfrwt>
<totfact> 0.34799250E+01</totfact>
</mgrwt>
</event>
<event>
12    7  0.1625631E-007  0.1477310E+04  0.7818608E-02  0.8899683E-01
         -1   -1    0    0    0  501 -0.00000000000E+00  0.00000000000E+00  0.62143602463E+03  0.62143602463E+03  0.00000000000E+00 0.  1.
          2   -1    0    0  501    0  0.00000000000E+00 -0.00000000000E+00 -0.87798483020E+03  0.87798483020E+03  0.00000000000E+00 0. -1.
         24    2    1    2    0    0  0.12263354154E+03  0.41637742263E+03 -0.23811038633E+03  0.50156527090E+03  0.80386698566E+02 0.  0.
        254    2    1    2    0    0 -0.12263354154E+03 -0.41637742263E+03 -0.18438419239E+02  0.99785558392E+03  0.89831322348E+03 0.  0.
         23    2    4    4    0    0 -0.76571873025E+02 -0.42201300874E+03  0.38316243463E+03  0.58398359527E+03  0.10131711084E+03 0.  0.
         23    2    4    4    0    0 -0.46061668518E+02  0.56355861084E+01 -0.40160085387E+03  0.41387198865E+03  0.88619072600E+02 0.  0.
          4    1    3    3  502    0  0.26350002025E+02  0.13570968053E+03 -0.11688141558E+03  0.18103233221E+03  0.00000000000E+00 0. -1.
         -3    1    3    3    0  502  0.96283539518E+02  0.28066774210E+03 -0.12122897075E+03  0.32053293870E+03  0.00000000000E+00 0.  1.
         13    1    5    5    0    0  0.59552653960E+01 -0.11117196786E+03  0.53818175714E+02  0.12365705666E+03  0.00000000000E+00 0. -1.
        -13    1    5    5    0    0 -0.82527138421E+02 -0.31084104088E+03  0.32934425891E+03  0.46032653861E+03  0.00000000000E+00 0.  1.
          4    1    6    6  503    0  0.20704851750E+02 -0.10783959177E+02 -0.18883676834E+03  0.19027430131E+03  0.00000000000E+00 0. -1.
         -4    1    6    6    0  503 -0.66766520268E+02  0.16419545285E+02 -0.21276408553E+03  0.22359768735E+03  0.00000000000E+00 0.  1.
<mgrwt>
<rscale>  0 0.14773103E+04</rscale>
<asrwt>0</asrwt>
<pdfrwt beam="1">  1        2 0.13507459E+00 0.14773103E+04</pdfrwt>
<pdfrwt beam="2">  1       -1 0.95605542E-01 0.14773103E+04</pdfrwt>
<totfact> 0.35404514E+01</totfact>
</mgrwt>
</event>
<event>
12    7  0.1625631E-007  0.1397640E+04  0.7818608E-02  0.8955529E-01
          2   -1    0    0  501    0  0.00000000000E+00  0.00000000000E+00  0.66052027358E+03  0.66052027358E+03  0.00000000000E+00 0. -1.
         -1   -1    0    0    0  501 -0.00000000000E+00 -0.00000000000E+00 -0.73934033913E+03  0.73934033913E+03  0.00000000000E+00 0.  1.
         24    2    1    2    0    0  0.96313955598E+02 -0.38657358126E+03 -0.36112842481E+02  0.40792794479E+03  0.79909692647E+02 0.  0.
        254    2    1    2    0    0 -0.96313955598E+02  0.38657358126E+03 -0.42707223073E+02  0.99193266792E+03  0.90740894805E+03 0.  0.
         23    2    4    4    0    0 -0.11247892331E+03 -0.16837656731E+03  0.26953392701E+03  0.34890919128E+03  0.89927244679E+02 0.  0.
         23    2    4    4    0    0  0.16164967714E+02  0.55495014857E+03 -0.31224115009E+03  0.64302347664E+03  0.88054994882E+02 0.  0.
          4    1    3    3  502    0 -0.65233035244E+01 -0.11737519784E+03 -0.44905842435E+00  0.11755718698E+03  0.00000000000E+00 0. -1.
         -3    1    3    3    0  502  0.10283725912E+03 -0.26919838342E+03 -0.35663784057E+02  0.29037075781E+03  0.00000000000E+00 0.  1.
         13    1    5    5    0    0 -0.81234744359E+02 -0.78632180160E+02  0.85354481841E+02  0.14165977205E+03  0.00000000000E+00 0.  1.
        -13    1    5    5    0    0 -0.31244178953E+02 -0.89744387154E+02  0.18417944517E+03  0.20724941922E+03  0.00000000000E+00 0. -1.
          2    1    6    6  503    0 -0.20232498246E+02  0.30027026841E+03 -0.20589210270E+03  0.36464111950E+03  0.00000000000E+00 0. -1.
         -2    1    6    6    0  503  0.36397465960E+02  0.25467988016E+03 -0.10634904739E+03  0.27838235714E+03  0.00000000000E+00 0.  1.
<mgrwt>
<rscale>  0 0.13976398E+04</rscale>
<asrwt>0</asrwt>
<pdfrwt beam="1">  1        2 0.10161850E+00 0.13976398E+04</pdfrwt>
<pdfrwt beam="2">  1       -1 0.11374467E+00 0.13976398E+04</pdfrwt>
<totfact> 0.34556059E+01</totfact>
</mgrwt>
</event>
<event>
12    7  0.1625631E-007  0.2131463E+04  0.7818608E-02  0.8547509E-01
          2   -1    0    0  501    0  0.00000000000E+00  0.00000000000E+00  0.14905713076E+04  0.14905713076E+04  0.00000000000E+00 0. -1.
         -1   -1    0    0    0  501 -0.00000000000E+00 -0.00000000000E+00 -0.76197893006E+03  0.76197893006E+03  0.00000000000E+00 0.  1.
         24    2    1    2    0    0  0.39958715889E+03  0.75923369474E+03  0.13491578206E+03  0.87228973437E+03  0.81125900029E+02 0.  0.
        254    2    1    2    0    0 -0.39958715889E+03 -0.75923369474E+03  0.59367659553E+03  0.13802605033E+04  0.90363790105E+03 0.  0.
         23    2    4    4    0    0 -0.65882886544E+03 -0.68404203515E+03  0.51421994718E+03  0.10841198775E+04  0.94471027007E+02 0.  0.
         23    2    4    4    0    0  0.25924170655E+03 -0.75191659592E+02  0.79456648357E+02  0.29614062583E+03  0.92335600991E+02 0.  0.
          4    1    3    3  502    0  0.16905100888E+01  0.46443159769E+01 -0.58784253144E+01  0.76800637647E+01  0.00000000000E+00 0. -1.
         -3    1    3    3    0  502  0.39789664880E+03  0.75458937877E+03  0.14079420737E+03  0.86460967060E+03  0.00000000000E+00 0.  1.
         13    1    5    5    0    0 -0.63361155531E+03 -0.65976607068E+03  0.51369478441E+03  0.10491125786E+04  0.00000000000E+00 0. -1.
        -13    1    5    5    0    0 -0.25217310122E+02 -0.24275964474E+02  0.52516276925E+00  0.35007298908E+02  0.00000000000E+00 0.  1.
          4    1    6    6  503    0  0.10988424218E+03 -0.20525686995E+02 -0.12404706109E+02  0.11247100622E+03  0.00000000000E+00 0. -1.
         -4    1    6    6    0  503  0.14935746437E+03 -0.54665972598E+02  0.91861354466E+02  0.18366961961E+03  0.00000000000E+00 0.  1.
<mgrwt>
<rscale>  0 0.21314633E+04</rscale>
<asrwt>0</asrwt>
<pdfrwt beam="1">  1        2 0.22931866E+00 0.21314633E+04</pdfrwt>
<pdfrwt beam="2">  1       -1 0.11722753E+00 0.21314633E+04</pdfrwt>
<totfact> 0.88201248E+00</totfact>
</mgrwt>
</event>
<event>
12    7  0.1625631E-007  0.2658469E+04  0.7818608E-02  0.8348608E-01
         -1   -1    0    0    0  501 -0.00000000000E+00  0.00000000000E+00  0.94488289467E+03  0.94488289467E+03  0.00000000000E+00 0.  1.
          2   -1    0    0  501    0  0.00000000000E+00 -0.00000000000E+00 -0.18699290730E+04  0.18699290730E+04  0.00000000000E+00 0. -1.
         24    2    1    2    0    0 -0.84050223317E+03 -0.48499905021E+03 -0.10952462353E+04  0.14654769714E+04  0.79939696964E+02 0.  0.
        254    2    1    2    0    0  0.84050223317E+03  0.48499905021E+03  0.17020005698E+03  0.13493349963E+04  0.92199175162E+03 0.  0.
         23    2    4    4    0    0 -0.12509856922E+03 -0.44406041047E+01  0.21152953767E+03  0.26203083905E+03  0.90807732701E+02 0.  0.
         23    2    4    4    0    0  0.96560080238E+03  0.48943965432E+03 -0.41329480698E+02  0.10873041572E+04  0.92661316198E+02 0.  0.
          4    1    3    3  502    0 -0.55515664815E+03 -0.35786548368E+03 -0.71565832191E+03  0.97387547567E+03  0.00000000000E+00 0. -1.
         -3    1    3    3    0  502 -0.28534558501E+03 -0.12713356653E+03 -0.37958791340E+03  0.49160149575E+03  0.00000000000E+00 0.  1.
         13    1    5    5    0    0 -0.11023079550E+03  0.32372003037E+02  0.16031525511E+03  0.19723021036E+03  0.00000000000E+00 0. -1.
        -13    1    5    5    0    0 -0.14867773718E+02 -0.36812607142E+02  0.51214282559E+02  0.64800628685E+02  0.00000000000E+00 0.  1.
          4    1    6    6  503    0  0.34332022217E+03  0.21954293337E+03  0.35672155790E+01  0.40752987567E+03  0.00000000000E+00 0.  1.
         -4    1    6    6    0  503  0.62228058022E+03  0.26989672095E+03 -0.44896696277E+02  0.67977428153E+03  0.00000000000E+00 0. -1.
<mgrwt>
<rscale>  0 0.26584687E+04</rscale>
<asrwt>0</asrwt>
<pdfrwt beam="1">  1        2 0.28768140E+00 0.26584687E+04</pdfrwt>
<pdfrwt beam="2">  1       -1 0.14536660E+00 0.26584687E+04</pdfrwt>
<totfact> 0.30001685E+00</totfact>
</mgrwt>
</event>
<event>
12    7  0.1625631E-007  0.1464046E+04  0.7818608E-02  0.8908720E-01
          2   -1    0    0  501    0  0.00000000000E+00  0.00000000000E+00  0.26453258119E+04  0.26453258119E+04  0.00000000000E+00 0. -1.
         -1   -1    0    0    0  501 -0.00000000000E+00 -0.00000000000E+00 -0.20256786083E+03  0.20256786083E+03  0.00000000000E+00 0.  1.
         24    2    1    2    0    0  0.11661033076E+03 -0.39066480877E+03  0.12329667696E+04  0.13010473427E+04  0.79373616546E+02 0.  0.
        254    2    1    2    0    0 -0.11661033076E+03  0.39066480877E+03  0.12097911814E+04  0.15468463300E+04  0.87345400785E+03 0.  0.
         23    2    4    4    0    0 -0.26445999771E+03 -0.20007823160E+03  0.50174281478E+03  0.60846568825E+03  0.92272706944E+02 0.  0.
         23    2    4    4    0    0  0.14784966695E+03  0.59074304037E+03  0.70804836663E+03  0.93838064170E+03  0.91590804578E+02 0.  0.
          2    1    3    3  502    0  0.90222608688E+02 -0.31758685231E+03  0.10821584655E+04  0.11314011103E+04  0.00000000000E+00 0. -1.
         -1    1    3    3    0  502  0.26387722075E+02 -0.73077956459E+02  0.15080830411E+03  0.16964623245E+03  0.00000000000E+00 0.  1.
         13    1    5    5    0    0 -0.17930823337E+03 -0.18256942796E+03  0.34975508807E+03  0.43337242668E+03  0.00000000000E+00 0.  1.
        -13    1    5    5    0    0 -0.85151764338E+02 -0.17508803637E+02  0.15198772671E+03  0.17509326157E+03  0.00000000000E+00 0. -1.
          1    1    6    6  503    0  0.12567226983E+01  0.15484862854E+03  0.20304669864E+03  0.25535786446E+03  0.00000000000E+00 0. -1.
         -1    1    6    6    0  503  0.14659294425E+03  0.43589441182E+03  0.50500166799E+03  0.68302277724E+03  0.00000000000E+00 0.  1.
<mgrwt>
<rscale>  0 0.14640464E+04</rscale>
<asrwt>0</asrwt>
<pdfrwt beam="1">  1        2 0.40697318E+00 0.14640464E+04</pdfrwt>
<pdfrwt beam="2">  1       -1 0.31164288E-01 0.14640464E+04</pdfrwt>
<totfact> 0.30253656E+01</totfact>
</mgrwt>
</event>
<event>
12    7  0.1688658E-007  0.1360717E+04  0.7818608E-02  0.8982755E-01
         -1   -1    0    0    0  501 -0.00000000000E+00  0.00000000000E+00  0.35286736486E+03  0.35286736486E+03  0.00000000000E+00 0.  1.
          2   -1    0    0  501    0  0.00000000000E+00 -0.00000000000E+00 -0.13117899044E+04  0.13117899044E+04  0.00000000000E+00 0. -1.
         24    2    1    2    0    0  0.32122063306E+03  0.86346445583E+02 -0.34556832090E+02  0.34472550694E+03  0.83684507070E+02 0.  0.
        254    2    1    2    0    0 -0.32122063306E+03 -0.86346445583E+02 -0.92436570743E+03  0.13199317623E+04  0.88154948375E+03 0.  0.
         23    2    4    4    0    0 -0.56531339444E+03 -0.19812744081E+03 -0.81877801077E+03  0.10182642150E+04  0.87354816426E+02 0.  0.
         23    2    4    4    0    0  0.24409276138E+03  0.11178099523E+03 -0.10558769666E+03  0.30166754728E+03  0.88194559588E+02 0.  0.
          4    1    3    3  502    0  0.16709600197E+02  0.23990697091E+02  0.96059293777E+01  0.30773985196E+02  0.00000000000E+00 0. -1.
         -3    1    3    3    0  502  0.30451103286E+03  0.62355748492E+02 -0.44162761468E+02  0.31395152175E+03  0.00000000000E+00 0.  1.
         13    1    5    5    0    0 -0.55398957219E+03 -0.19866211379E+03 -0.81681965734E+03  0.10067598692E+04  0.00000000000E+00 0.  1.
        -13    1    5    5    0    0 -0.11323822256E+02  0.53467297625E+00 -0.19583534341E+01  0.11504345868E+02  0.00000000000E+00 0. -1.
          3    1    6    6  503    0  0.17277111321E+03  0.49203423050E+02 -0.34052403085E+02  0.18283982212E+03  0.00000000000E+00 0. -1.
         -3    1    6    6    0  503  0.71321648176E+02  0.62577572177E+02 -0.71535293577E+02  0.11882772515E+03  0.00000000000E+00 0.  1.
<mgrwt>
<rscale>  0 0.13607172E+04</rscale>
<asrwt>0</asrwt>
<pdfrwt beam="1">  1        2 0.20181383E+00 0.13607172E+04</pdfrwt>
<pdfrwt beam="2">  1       -1 0.54287288E-01 0.13607172E+04</pdfrwt>
<totfact> 0.62026950E+01</totfact>
</mgrwt>
</event>
<event>
12    7  0.1625631E-007  0.1823821E+04  0.7818608E-02  0.8693733E-01
          2   -1    0    0  501    0  0.00000000000E+00  0.00000000000E+00  0.16202194458E+04  0.16202194458E+04  0.00000000000E+00 0. -1.
         -1   -1    0    0    0  501 -0.00000000000E+00 -0.00000000000E+00 -0.51325192062E+03  0.51325192062E+03  0.00000000000E+00 0.  1.
         24    2    1    2    0    0  0.13135319950E+03  0.78988035941E+02  0.11923995157E+04  0.12047938155E+04  0.78859114144E+02 0.  0.
        254    2    1    2    0    0 -0.13135319950E+03 -0.78988035941E+02 -0.85431990568E+02  0.92867755092E+03  0.91194879008E+03 0.  0.
         23    2    4    4    0    0 -0.36960198642E+03 -0.23354931210E+03  0.22364589671E+03  0.49910445513E+03  0.89089059194E+02 0.  0.
         23    2    4    4    0    0  0.23824878692E+03  0.15456127615E+03 -0.30907788728E+03  0.42957309579E+03  0.91390544748E+02 0.  0.
          2    1    3    3  502    0  0.12633998165E+03  0.63349539020E+02  0.82433012450E+03  0.83635824215E+03  0.00000000000E+00 0. -1.
         -1    1    3    3    0  502  0.50132178518E+01  0.15638496921E+02  0.36806939120E+03  0.36843557331E+03  0.00000000000E+00 0.  1.
         13    1    5    5    0    0 -0.48648035480E+01 -0.24348720879E+02  0.20144936078E+02  0.31974129724E+02  0.00000000000E+00 0.  1.
        -13    1    5    5    0    0 -0.36473718287E+03 -0.20920059122E+03  0.20350096063E+03  0.46713032540E+03  0.00000000000E+00 0. -1.
          2    1    6    6  503    0  0.24069272912E+03  0.14469951355E+03 -0.27140038304E+03  0.39054974970E+03  0.00000000000E+00 0. -1.
         -2    1    6    6    0  503 -0.24439421983E+01  0.98617626021E+01 -0.37677504236E+02  0.39023346097E+02  0.00000000000E+00 0.  1.
<mgrwt>
<rscale>  0 0.18238210E+04</rscale>
<asrwt>0</asrwt>
<pdfrwt beam="1">  1        2 0.24926453E+00 0.18238210E+04</pdfrwt>
<pdfrwt beam="2">  1       -1 0.78961835E-01 0.18238210E+04</pdfrwt>
<totfact> 0.18705875E+01</totfact>
</mgrwt>
</event>
<event>
12    7  0.1625631E-007  0.1709509E+04  0.7818608E-02  0.8755960E-01
          2   -1    0    0  501    0  0.00000000000E+00  0.00000000000E+00  0.14228712914E+04  0.14228712914E+04  0.00000000000E+00 0. -1.
         -1   -1    0    0    0  501 -0.00000000000E+00 -0.00000000000E+00 -0.51347243538E+03  0.51347243538E+03  0.00000000000E+00 0.  1.
         24    2    1    2    0    0  0.45705209844E+03  0.39893272604E+03  0.42975824664E+03  0.74788167149E+03  0.81184379103E+02 0.  0.
        254    2    1    2    0    0 -0.45705209844E+03 -0.39893272604E+03  0.47964060941E+03  0.11884620553E+04  0.90240955345E+03 0.  0.
         23    2    4    4    0    0 -0.18368789481E+03 -0.64684315221E+03  0.43682509505E+03  0.80681196546E+03  0.89342474089E+02 0.  0.
         23    2    4    4    0    0 -0.27336420363E+03  0.24791042617E+03  0.42815514354E+02  0.38165008987E+03  0.87384527206E+02 0.  0.
          4    1    3    3  502    0  0.12625629081E+03  0.10280738934E+03  0.16054947608E+03  0.22866163766E+03  0.00000000000E+00 0. -1.
         -3    1    3    3    0  502  0.33079580763E+03  0.29612533669E+03  0.26920877056E+03  0.51922003383E+03  0.00000000000E+00 0.  1.
         13    1    5    5    0    0 -0.15409571133E+03 -0.61818398135E+03  0.40838249952E+03  0.75675173535E+03  0.00000000000E+00 0.  1.
        -13    1    5    5    0    0 -0.29592183476E+02 -0.28659170863E+02  0.28442595535E+02  0.50060230105E+02  0.00000000000E+00 0. -1.
          2    1    6    6  503    0 -0.82322708093E+02  0.12816408246E+03  0.95440077970E+00  0.15232849760E+03  0.00000000000E+00 0. -1.
         -2    1    6    6    0  503 -0.19104149553E+03  0.11974634371E+03  0.41861113574E+02  0.22932159226E+03  0.00000000000E+00 0.  1.
<mgrwt>
<rscale>  0 0.17095089E+04</rscale>
<asrwt>0</asrwt>
<pdfrwt beam="1">  1        2 0.21890327E+00 0.17095089E+04</pdfrwt>
<pdfrwt beam="2">  1       -1 0.78995760E-01 0.17095089E+04</pdfrwt>
<totfact> 0.24382514E+01</totfact>
</mgrwt>
</event>
<event>
12    7  0.1625631E-007  0.1672337E+04  0.7818608E-02  0.8777300E-01
          2   -1    0    0  501    0  0.00000000000E+00  0.00000000000E+00  0.11677713766E+04  0.11677713766E+04  0.00000000000E+00 0. -1.
         -1   -1    0    0    0  501 -0.00000000000E+00 -0.00000000000E+00 -0.59872860521E+03  0.59872860521E+03  0.00000000000E+00 0.  1.
         24    2    1    2    0    0 -0.40124216506E+03  0.15691659168E+02  0.65435772940E+03  0.77180860690E+03  0.79139019887E+02 0.  0.
        254    2    1    2    0    0  0.40124216506E+03 -0.15691659168E+02 -0.85314958028E+02  0.99469137489E+03  0.90603023461E+03 0.  0.
         23    2    4    4    0    0  0.27025097448E+03  0.89313124637E+01 -0.48521988086E+03  0.56311627826E+03  0.92445943748E+02 0.  0.
         23    2    4    4    0    0  0.13099119058E+03 -0.24622971632E+02  0.39990492283E+03  0.43157509663E+03  0.92564215440E+02 0.  0.
          2    1    3    3  502    0 -0.27400603480E+03 -0.11947308009E+02  0.49616981952E+03  0.56692727495E+03  0.00000000000E+00 0. -1.
         -1    1    3    3    0  502 -0.12723613027E+03  0.27638967177E+02  0.15818790988E+03  0.20488133195E+03  0.00000000000E+00 0.  1.
         13    1    5    5    0    0  0.22202671245E+03  0.21405107733E+02 -0.44956435661E+03  0.50185869566E+03  0.00000000000E+00 0.  1.
        -13    1    5    5    0    0  0.48224262032E+02 -0.12473795270E+02 -0.35655524254E+02  0.61257582607E+02  0.00000000000E+00 0. -1.
          3    1    6    6  503    0  0.56244001442E+02 -0.22845604247E+02  0.30382700462E+03  0.30983246774E+03  0.00000000000E+00 0.  1.
         -3    1    6    6    0  503  0.74747189143E+02 -0.17773673847E+01  0.96077918216E+02  0.12174262889E+03  0.00000000000E+00 0. -1.
<mgrwt>
<rscale>  0 0.16723374E+04</rscale>
<asrwt>0</asrwt>
<pdfrwt beam="1">  1        2 0.17965713E+00 0.16723374E+04</pdfrwt>
<pdfrwt beam="2">  1       -1 0.92112094E-01 0.16723374E+04</pdfrwt>
<totfact> 0.24714460E+01</totfact>
</mgrwt>
</event>
<event>
12    7  0.1625631E-007  0.1596707E+04  0.7818608E-02  0.8822574E-01
          2   -1    0    0  501    0  0.00000000000E+00  0.00000000000E+00  0.15817665410E+04  0.15817665410E+04  0.00000000000E+00 0. -1.
         -1   -1    0    0    0  501 -0.00000000000E+00 -0.00000000000E+00 -0.40294691923E+03  0.40294691923E+03  0.00000000000E+00 0.  1.
         24    2    1    2    0    0 -0.27331969629E+03  0.93839307082E+02  0.96157632472E+03  0.10072005848E+04  0.79463939874E+02 0.  0.
        254    2    1    2    0    0  0.27331969629E+03 -0.93839307082E+02  0.21724329709E+03  0.97751287551E+03  0.90820003288E+03 0.  0.
         23    2    4    4    0    0  0.94269899714E+02  0.31760711335E+03  0.36235088469E+03  0.49935608028E+03  0.91089180692E+02 0.  0.
         23    2    4    4    0    0  0.17904979658E+03 -0.41144642044E+03 -0.14510758760E+03  0.47815679523E+03  0.78934924467E+02 0.  0.
          2    1    3    3  502    0 -0.27591983230E+03  0.90741027922E+02  0.90475299962E+03  0.95023348621E+03  0.00000000000E+00 0. -1.
         -1    1    3    3    0  502  0.26001360047E+01  0.30982791604E+01  0.56823325100E+02  0.56967098543E+02  0.00000000000E+00 0.  1.
         13    1    5    5    0    0 -0.41875935144E-01  0.43458441093E+02  0.12970119104E+02  0.45352638792E+02  0.00000000000E+00 0. -1.
        -13    1    5    5    0    0  0.94311775649E+02  0.27414867226E+03  0.34938076558E+03  0.45400344149E+03  0.00000000000E+00 0.  1.
          1    1    6    6  503    0  0.32337627698E+02 -0.16802034023E+03 -0.46382401463E+02  0.17727911343E+03  0.00000000000E+00 0. -1.
         -1    1    6    6    0  503  0.14671216888E+03 -0.24342608021E+03 -0.98725186134E+02  0.30087768179E+03  0.00000000000E+00 0.  1.
<mgrwt>
<rscale>  0 0.15967066E+04</rscale>
<asrwt>0</asrwt>
<pdfrwt beam="1">  1        2 0.24334870E+00 0.15967066E+04</pdfrwt>
<pdfrwt beam="2">  1       -1 0.61991834E-01 0.15967066E+04</pdfrwt>
<totfact> 0.32930519E+01</totfact>
</mgrwt>
</event>
<event>
12    7  0.1625631E-007  0.1610007E+04  0.7818608E-02  0.8814424E-01
          2   -1    0    0  501    0  0.00000000000E+00  0.00000000000E+00  0.84967562121E+03  0.84967562121E+03  0.00000000000E+00 0. -1.
         -1   -1    0    0    0  501 -0.00000000000E+00 -0.00000000000E+00 -0.76268034813E+03  0.76268034813E+03  0.00000000000E+00 0.  1.
         24    2    1    2    0    0  0.22368468431E+03  0.40989271416E+03  0.32219062568E+03  0.57289380434E+03  0.79709702434E+02 0.  0.
        254    2    1    2    0    0 -0.22368468431E+03 -0.40989271416E+03 -0.23519535260E+03  0.10394621650E+04  0.89839738616E+03 0.  0.
         23    2    4    4    0    0 -0.33879138706E+03 -0.29047405523E+03  0.24911631073E+03  0.51931046590E+03  0.92030663472E+02 0.  0.
         23    2    4    4    0    0  0.11510670275E+03 -0.11941865893E+03 -0.48431166333E+03  0.52015169910E+03  0.92139208345E+02 0.  0.
          2    1    3    3  502    0  0.20544972440E+02  0.77063537585E+02  0.84692926589E+02  0.11633476063E+03  0.00000000000E+00 0. -1.
         -1    1    3    3    0  502  0.20313971187E+03  0.33282917657E+03  0.23749769909E+03  0.45655904371E+03  0.00000000000E+00 0.  1.
         13    1    5    5    0    0 -0.12340558391E+03 -0.81862052286E+02  0.38900907870E+02  0.15311307710E+03  0.00000000000E+00 0. -1.
        -13    1    5    5    0    0 -0.21538580315E+03 -0.20861200294E+03  0.21021540286E+03  0.36619738881E+03  0.00000000000E+00 0.  1.
          2    1    6    6  503    0  0.14724534897E+02 -0.16214881176E+02 -0.92896334112E+01  0.23791418377E+02  0.00000000000E+00 0. -1.
         -2    1    6    6    0  503  0.10038216785E+03 -0.10320377776E+03 -0.47502202992E+03  0.49636028072E+03  0.00000000000E+00 0.  1.
<mgrwt>
<rscale>  0 0.16100073E+04</rscale>
<asrwt>0</asrwt>
<pdfrwt beam="1">  1        2 0.13071933E+00 0.16100073E+04</pdfrwt>
<pdfrwt beam="2">  1       -1 0.11733544E+00 0.16100073E+04</pdfrwt>
<totfact> 0.22717901E+01</totfact>
</mgrwt>
</event>
<event>
12    7  0.1625631E-007  0.1525006E+04  0.7818608E-02  0.8867993E-01
          2   -1    0    0  501    0  0.00000000000E+00  0.00000000000E+00  0.73947535481E+03  0.73947535481E+03  0.00000000000E+00 0. -1.
         -1   -1    0    0    0  501 -0.00000000000E+00 -0.00000000000E+00 -0.78624742642E+03  0.78624742642E+03  0.00000000000E+00 0.  1.
         24    2    1    2    0    0 -0.12609046409E+03  0.34115845769E+03  0.27253528927E+03  0.46111916650E+03  0.77894180960E+02 0.  0.
        254    2    1    2    0    0  0.12609046409E+03 -0.34115845769E+03 -0.31930736089E+03  0.10646036147E+04  0.94822769807E+03 0.  0.
         23    2    4    4    0    0  0.34348566565E+03 -0.46107273300E+03  0.78225904730E+02  0.58717578906E+03  0.89920228334E+02 0.  0.
         23    2    4    4    0    0 -0.21739520156E+03  0.11991427531E+03 -0.39753326562E+03  0.47742782566E+03  0.90909429414E+02 0.  0.
          2    1    3    3  502    0 -0.62049568649E+02  0.21217355796E+03  0.20719453165E+03  0.30298076112E+03  0.00000000000E+00 0. -1.
         -1    1    3    3    0  502 -0.64040895442E+02  0.12898489973E+03  0.65340757621E+02  0.15813840538E+03  0.00000000000E+00 0.  1.
         13    1    5    5    0    0  0.35245140234E+02 -0.82299875339E+02 -0.12737883932E+02  0.90430874583E+02  0.00000000000E+00 0.  1.
        -13    1    5    5    0    0  0.30824052542E+03 -0.37877285766E+03  0.90963788663E+02  0.49674491448E+03  0.00000000000E+00 0. -1.
          4    1    6    6  503    0 -0.21781369937E+03  0.97576765714E+02 -0.38119990639E+03  0.44975260029E+03  0.00000000000E+00 0. -1.
         -4    1    6    6    0  503  0.41849780686E+00  0.22337509599E+02 -0.16333359234E+02  0.27675225371E+02  0.00000000000E+00 0.  1.
<mgrwt>
<rscale>  0 0.15250057E+04</rscale>
<asrwt>0</asrwt>
<pdfrwt beam="1">  1        2 0.11376544E+00 0.15250057E+04</pdfrwt>
<pdfrwt beam="2">  1       -1 0.12096114E+00 0.15250057E+04</pdfrwt>
<totfact> 0.25541344E+01</totfact>
</mgrwt>
</event>
<event>
12    7  0.1625631E-007  0.1259823E+04  0.7818608E-02  0.9062047E-01
         -1   -1    0    0    0  501 -0.00000000000E+00  0.00000000000E+00  0.20125222327E+03  0.20125222327E+03  0.00000000000E+00 0.  1.
          2   -1    0    0  501    0  0.00000000000E+00 -0.00000000000E+00 -0.19715967172E+04  0.19715967172E+04  0.00000000000E+00 0. -1.
         24    2    1    2    0    0  0.54360705782E+02  0.12999942562E+03  0.49010408125E+02  0.17138862811E+03  0.84362934677E+02 0.  0.
        254    2    1    2    0    0 -0.54360705782E+02 -0.12999942562E+03 -0.18193549021E+04  0.20014603124E+04  0.82215338307E+03 0.  0.
         23    2    4    4    0    0 -0.19385598859E+03 -0.39306660375E+03 -0.63330884180E+03  0.77525122279E+03  0.88616420739E+02 0.  0.
         23    2    4    4    0    0  0.13949528281E+03  0.26306717814E+03 -0.11860460603E+04  0.12262090896E+04  0.90665319468E+02 0.  0.
          4    1    3    3  502    0  0.13640250523E+02 -0.56578527781E+01 -0.10122339401E+02  0.17903337324E+02  0.00000000000E+00 0. -1.
         -3    1    3    3    0  502  0.40720455259E+02  0.13565727840E+03  0.59132747526E+02  0.15348529079E+03  0.00000000000E+00 0.  1.
         13    1    5    5    0    0 -0.30202703014E+02 -0.18186704594E+02 -0.77565836977E+02  0.85202221563E+02  0.00000000000E+00 0. -1.
        -13    1    5    5    0    0 -0.16365328558E+03 -0.37487989916E+03 -0.55574300483E+03  0.69004900122E+03  0.00000000000E+00 0.  1.
          2    1    6    6  503    0  0.77432896586E+02  0.87440273158E+02 -0.32792372045E+03  0.34810288892E+03  0.00000000000E+00 0. -1.
         -2    1    6    6    0  503  0.62062386222E+02  0.17562690498E+03 -0.85812233983E+03  0.87810620067E+03  0.00000000000E+00 0.  1.
<mgrwt>
<rscale>  0 0.12598226E+04</rscale>
<asrwt>0</asrwt>
<pdfrwt beam="1">  1        2 0.30332257E+00 0.12598226E+04</pdfrwt>
<pdfrwt beam="2">  1       -1 0.30961881E-01 0.12598226E+04</pdfrwt>
<totfact> 0.74942648E+01</totfact>
</mgrwt>
</event>
<event>
12    7  0.1625631E-007  0.2927105E+04  0.7818608E-02  0.8264858E-01
         -1   -1    0    0    0  501 -0.00000000000E+00  0.00000000000E+00  0.80617800267E+03  0.80617800267E+03  0.00000000000E+00 0.  1.
          2   -1    0    0  501    0  0.00000000000E+00 -0.00000000000E+00 -0.26569646258E+04  0.26569646258E+04  0.00000000000E+00 0. -1.
         24    2    1    2    0    0  0.76168292150E+02 -0.13042974144E+04 -0.57362097474E+03  0.14290871025E+04  0.79092161353E+02 0.  0.
        254    2    1    2    0    0 -0.76168292150E+02  0.13042974144E+04 -0.12771656484E+04  0.20340555259E+04  0.89400024346E+03 0.  0.
         23    2    4    4    0    0 -0.42173911115E+03  0.85469898788E+03 -0.53943174895E+03  0.10990428221E+04  0.92381141025E+02 0.  0.
         23    2    4    4    0    0  0.34557081900E+03  0.44959842652E+03 -0.73773389943E+03  0.93501270388E+03  0.91866827361E+02 0.  0.
          4    1    3    3  502    0  0.67667841186E+02 -0.10662318922E+04 -0.43553714563E+03  0.11537426012E+04  0.00000000000E+00 0. -1.
         -3    1    3    3    0  502  0.85004509640E+01 -0.23806552219E+03 -0.13808382911E+03  0.27534450128E+03  0.00000000000E+00 0.  1.
         13    1    5    5    0    0 -0.36938335491E+03  0.71131839659E+03 -0.48587500906E+03  0.93727927996E+03  0.00000000000E+00 0. -1.
        -13    1    5    5    0    0 -0.52355756245E+02  0.14338059128E+03 -0.53556739897E+02  0.16176354211E+03  0.00000000000E+00 0.  1.
          2    1    6    6  503    0  0.77523641080E+02  0.48210419967E+02 -0.10348530391E+03  0.13799770884E+03  0.00000000000E+00 0. -1.
         -2    1    6    6    0  503  0.26804717792E+03  0.40138800655E+03 -0.63424859552E+03  0.79701499503E+03  0.00000000000E+00 0.  1.
<mgrwt>
<rscale>  0 0.29271054E+04</rscale>
<asrwt>0</asrwt>
<pdfrwt beam="1">  1        2 0.40876378E+00 0.29271054E+04</pdfrwt>
<pdfrwt beam="2">  1       -1 0.12402739E+00 0.29271054E+04</pdfrwt>
<totfact> 0.15724634E+00</totfact>
</mgrwt>
</event>
<event>
12    7  0.1625631E-007  0.2327543E+04  0.7818608E-02  0.8467140E-01
          2   -1    0    0  501    0  0.00000000000E+00  0.00000000000E+00  0.86172574553E+03  0.86172574553E+03  0.00000000000E+00 0. -1.
         -1   -1    0    0    0  501 -0.00000000000E+00 -0.00000000000E+00 -0.15716874932E+04  0.15716874932E+04  0.00000000000E+00 0.  1.
         24    2    1    2    0    0  0.95662299346E+03 -0.25086918155E+03 -0.34188272705E+03  0.10493493071E+04  0.78659210425E+02 0.  0.
        254    2    1    2    0    0 -0.95662299346E+03  0.25086918155E+03 -0.36807902063E+03  0.13840639316E+04  0.89559360403E+03 0.  0.
         23    2    4    4    0    0 -0.10928980749E+04  0.33162218733E+03 -0.35835464660E+03  0.12005840520E+04  0.92652771423E+02 0.  0.
         23    2    4    4    0    0  0.13627508142E+03 -0.80753005788E+02 -0.97243740342E+01  0.18347987961E+03  0.92077994179E+02 0.  0.
          2    1    3    3  502    0  0.81521341149E+03 -0.24016584175E+03 -0.28212636091E+03  0.89545955874E+03  0.00000000000E+00 0. -1.
         -1    1    3    3    0  502  0.14140958197E+03 -0.10703339797E+02 -0.59756366135E+02  0.15388974836E+03  0.00000000000E+00 0.  1.
         13    1    5    5    0    0 -0.51619387966E+03  0.12816925419E+03 -0.12762637499E+03  0.54696615134E+03  0.00000000000E+00 0.  1.
        -13    1    5    5    0    0 -0.57670419521E+03  0.20345293314E+03 -0.23072827161E+03  0.65361790069E+03  0.00000000000E+00 0. -1.
          1    1    6    6  503    0  0.80631100709E+02 -0.45642707839E+02  0.40089744192E+02  0.10095453813E+03  0.00000000000E+00 0. -1.
         -1    1    6    6    0  503  0.55643980710E+02 -0.35110297948E+02 -0.49814118226E+02  0.82525341477E+02  0.00000000000E+00 0.  1.
<mgrwt>
<rscale>  0 0.23275425E+04</rscale>
<asrwt>0</asrwt>
<pdfrwt beam="1">  1        2 0.13257319E+00 0.23275425E+04</pdfrwt>
<pdfrwt beam="2">  1       -1 0.24179807E+00 0.23275425E+04</pdfrwt>
<totfact> 0.25354711E+00</totfact>
</mgrwt>
</event>
<event>
12    7  0.1625631E-007  0.2023383E+04  0.7818608E-02  0.8595766E-01
          2   -1    0    0  501    0  0.00000000000E+00  0.00000000000E+00  0.15401979142E+04  0.15401979142E+04  0.00000000000E+00 0. -1.
         -1   -1    0    0    0  501 -0.00000000000E+00 -0.00000000000E+00 -0.66453750255E+03  0.66453750255E+03  0.00000000000E+00 0.  1.
         24    2    1    2    0    0 -0.60543301986E+03 -0.49977742058E+03  0.13470566970E+03  0.80040743355E+03  0.78611898370E+02 0.  0.
        254    2    1    2    0    0  0.60543301986E+03  0.49977742058E+03  0.74095474193E+03  0.14043279832E+04  0.89821853860E+03 0.  0.
         23    2    4    4    0    0  0.10379161246E+03  0.33243871290E+03 -0.12968725050E+03  0.38103309512E+03  0.84138219514E+02 0.  0.
         23    2    4    4    0    0  0.50164140741E+03  0.16733870768E+03  0.87064199243E+03  0.10232948881E+04  0.97306753215E+02 0.  0.
          4    1    3    3  502    0 -0.34316348459E+03 -0.30851848594E+03  0.11293464606E+03  0.47507795950E+03  0.00000000000E+00 0. -1.
         -3    1    3    3    0  502 -0.26226953528E+03 -0.19125893464E+03  0.21771023634E+02  0.32532947405E+03  0.00000000000E+00 0.  1.
         13    1    5    5    0    0 -0.99616558845E+01  0.57961907664E+01  0.30488673242E+00  0.11529239840E+02  0.00000000000E+00 0. -1.
        -13    1    5    5    0    0  0.11375326834E+03  0.32664252214E+03 -0.12999213723E+03  0.36950385528E+03  0.00000000000E+00 0.  1.
          2    1    6    6  503    0  0.36314311018E+02  0.73778239900E+01  0.24310070410E+02  0.44318630336E+02  0.00000000000E+00 0. -1.
         -2    1    6    6    0  503  0.46532709639E+03  0.15996088369E+03  0.84633192202E+03  0.97897625772E+03  0.00000000000E+00 0.  1.
<mgrwt>
<rscale>  0 0.20233826E+04</rscale>
<asrwt>0</asrwt>
<pdfrwt beam="1">  1        2 0.23695352E+00 0.20233826E+04</pdfrwt>
<pdfrwt beam="2">  1       -1 0.10223654E+00 0.20233826E+04</pdfrwt>
<totfact> 0.11528906E+01</totfact>
</mgrwt>
</event>
<event>
12    7  0.1625631E-007  0.1402603E+04  0.7818608E-02  0.8951937E-01
         -1   -1    0    0    0  501 -0.00000000000E+00  0.00000000000E+00  0.43760884072E+03  0.43760884072E+03  0.00000000000E+00 0.  1.
          2   -1    0    0  501    0  0.00000000000E+00 -0.00000000000E+00 -0.11238886004E+04  0.11238886004E+04  0.00000000000E+00 0. -1.
         24    2    1    2    0    0  0.11550240986E+03  0.45850598138E+02 -0.63254036919E+03  0.64988179368E+03  0.82437510072E+02 0.  0.
        254    2    1    2    0    0 -0.11550240986E+03 -0.45850598138E+02 -0.53739390494E+02  0.91161564745E+03  0.90150545343E+03 0.  0.
         23    2    4    4    0    0  0.37945032417E+03  0.40804578701E+02 -0.76657633893E+02  0.39966425874E+03  0.90595610945E+02 0.  0.
         23    2    4    4    0    0 -0.49495273403E+03 -0.86655176839E+02  0.22918243399E+02  0.51195138871E+03  0.95297691070E+02 0.  0.
          4    1    3    3  502    0  0.88181947303E+02  0.69028727024E+02 -0.51335708252E+03  0.52542983847E+03  0.00000000000E+00 0. -1.
         -3    1    3    3    0  502  0.27320462555E+02 -0.23178128886E+02 -0.11918328668E+03  0.12445195521E+03  0.00000000000E+00 0.  1.
         13    1    5    5    0    0  0.15970013667E+03 -0.10622204610E+02  0.37049682664E+01  0.16009588275E+03  0.00000000000E+00 0. -1.
        -13    1    5    5    0    0  0.21975018750E+03  0.51426783311E+02 -0.80362602160E+02  0.23956837599E+03  0.00000000000E+00 0.  1.
          1    1    6    6  503    0 -0.26670684187E+03 -0.65975752406E+02 -0.31070829155E+02  0.27649726189E+03  0.00000000000E+00 0. -1.
         -1    1    6    6    0  503 -0.22824589216E+03 -0.20679424434E+02  0.53989072554E+02  0.23545412682E+03  0.00000000000E+00 0.  1.
<mgrwt>
<rscale>  0 0.14026027E+04</rscale>
<asrwt>0</asrwt>
<pdfrwt beam="1">  1        2 0.17290594E+00 0.14026027E+04</pdfrwt>
<pdfrwt beam="2">  1       -1 0.67324438E-01 0.14026027E+04</pdfrwt>
<totfact> 0.52234933E+01</totfact>
</mgrwt>
</event>
<event>
12    7  0.1625631E-007  0.1763763E+04  0.7818608E-02  0.8725811E-01
         -1   -1    0    0    0  501 -0.00000000000E+00  0.00000000000E+00  0.75588357795E+03  0.75588357795E+03  0.00000000000E+00 0.  1.
          2   -1    0    0  501    0  0.00000000000E+00 -0.00000000000E+00 -0.10288818476E+04  0.10288818476E+04  0.00000000000E+00 0. -1.
         24    2    1    2    0    0 -0.60622422644E+03  0.26618028492E+03 -0.97329187768E+02  0.67341133244E+03  0.75167114221E+02 0.  0.
        254    2    1    2    0    0  0.60622422644E+03 -0.26618028492E+03 -0.17566908189E+03  0.11113540931E+04  0.87515057971E+03 0.  0.
         23    2    4    4    0    0  0.79469249930E+02 -0.44868374452E+03  0.10811505701E+03  0.47910316574E+03  0.10108666377E+03 0.  0.
         23    2    4    4    0    0  0.52675497651E+03  0.18250345960E+03 -0.28378413890E+03  0.63225092738E+03  0.91812197648E+02 0.  0.
          4    1    3    3  502    0 -0.45803640663E+03  0.17056798617E+03 -0.89430138923E+02  0.49687879553E+03  0.00000000000E+00 0. -1.
         -3    1    3    3    0  502 -0.14818781981E+03  0.95612298751E+02 -0.78990488442E+01  0.17653253690E+03  0.00000000000E+00 0.  1.
         13    1    5    5    0    0  0.83350862977E+02 -0.40346717276E+03  0.66096333729E+02  0.41725513920E+03  0.00000000000E+00 0. -1.
        -13    1    5    5    0    0 -0.38816130476E+01 -0.45216571760E+02  0.42018723279E+02  0.61848026546E+02  0.00000000000E+00 0.  1.
          1    1    6    6  503    0  0.48963302097E+03  0.19150007996E+03 -0.25443222688E+03  0.58407921888E+03  0.00000000000E+00 0. -1.
         -1    1    6    6    0  503  0.37121955540E+02 -0.89966203553E+01 -0.29351912021E+02  0.48171708504E+02  0.00000000000E+00 0.  1.
<mgrwt>
<rscale>  0 0.17637629E+04</rscale>
<asrwt>0</asrwt>
<pdfrwt beam="1">  1        2 0.15828952E+00 0.17637629E+04</pdfrwt>
<pdfrwt beam="2">  1       -1 0.11628978E+00 0.17637629E+04</pdfrwt>
<totfact> 0.17425055E+01</totfact>
</mgrwt>
</event>
<event>
12    7  0.1625631E-007  0.2209079E+04  0.7818608E-02  0.8514659E-01
         -1   -1    0    0    0  501 -0.00000000000E+00  0.00000000000E+00  0.91287136351E+03  0.91287136351E+03  0.00000000000E+00 0.  1.
          2   -1    0    0  501    0  0.00000000000E+00 -0.00000000000E+00 -0.13364506542E+04  0.13364506542E+04  0.00000000000E+00 0. -1.
         24    2    1    2    0    0 -0.27622084939E+03 -0.23501023320E+03 -0.10367496523E+04  0.11012494661E+04  0.79829679652E+02 0.  0.
        254    2    1    2    0    0  0.27622084939E+03  0.23501023320E+03  0.61317036158E+03  0.11480725516E+04  0.90031379202E+03 0.  0.
         23    2    4    4    0    0  0.21456584963E+03  0.57132088673E+03  0.39289745368E+03  0.73141262757E+03  0.90277146701E+02 0.  0.
         23    2    4    4    0    0  0.61654999756E+02 -0.33631065353E+03  0.22027290790E+03  0.41665992404E+03  0.90438618262E+02 0.  0.
          2    1    3    3  502    0 -0.25302223940E+03 -0.17996595330E+03 -0.89888444143E+03  0.95100012462E+03  0.00000000000E+00 0. -1.
         -1    1    3    3    0  502 -0.23198609989E+02 -0.55044279904E+02 -0.13786521084E+03  0.15024934148E+03  0.00000000000E+00 0.  1.
         13    1    5    5    0    0  0.18179991084E+03  0.53927264296E+03  0.37811319499E+03  0.68325381759E+03  0.00000000000E+00 0. -1.
        -13    1    5    5    0    0  0.32765938789E+02  0.32048243771E+02  0.14784258691E+02  0.48158809979E+02  0.00000000000E+00 0.  1.
          3    1    6    6  503    0  0.43277796057E+02 -0.19756871079E+03  0.77111649410E+02  0.21645454393E+03  0.00000000000E+00 0. -1.
         -3    1    6    6    0  503  0.18377203699E+02 -0.13874194275E+03  0.14316125849E+03  0.20020538011E+03  0.00000000000E+00 0.  1.
<mgrwt>
<rscale>  0 0.22090790E+04</rscale>
<asrwt>0</asrwt>
<pdfrwt beam="1">  1        2 0.20560779E+00 0.22090790E+04</pdfrwt>
<pdfrwt beam="2">  1       -1 0.14044175E+00 0.22090790E+04</pdfrwt>
<totfact> 0.68129015E+00</totfact>
</mgrwt>
</event>
<event>
12    7  0.1625631E-007  0.3675362E+04  0.7818608E-02  0.8073444E-01
         -1   -1    0    0    0  501 -0.00000000000E+00  0.00000000000E+00  0.23277246453E+04  0.23277246453E+04  0.00000000000E+00 0.  1.
          2   -1    0    0  501    0  0.00000000000E+00 -0.00000000000E+00 -0.14508039775E+04  0.14508039775E+04  0.00000000000E+00 0. -1.
         24    2    1    2    0    0  0.12505206839E+04 -0.11329964886E+04  0.12479400751E+02  0.16892682999E+04  0.77386236158E+02 0.  0.
        254    2    1    2    0    0 -0.12505206839E+04  0.11329964886E+04  0.86444126700E+03  0.20892603230E+04  0.87764854535E+03 0.  0.
         23    2    4    4    0    0 -0.18023162967E+03  0.46821809952E+03  0.61991810270E+03  0.80254332428E+03  0.89809265879E+02 0.  0.
         23    2    4    4    0    0 -0.10702890542E+04  0.66477838909E+03  0.24452316430E+03  0.12867169987E+04  0.91652009082E+02 0.  0.
          4    1    3    3  502    0  0.41695568920E+03 -0.40745648854E+03 -0.25184729052E+02  0.58352986846E+03  0.00000000000E+00 0. -1.
         -3    1    3    3    0  502  0.83356499466E+03 -0.72554000006E+03  0.37664129803E+02  0.11057384314E+04  0.00000000000E+00 0.  1.
         13    1    5    5    0    0 -0.22606295429E+02  0.38525205579E+02  0.22676577252E+02  0.50094542754E+02  0.00000000000E+00 0. -1.
        -13    1    5    5    0    0 -0.15762533424E+03  0.42969289394E+03  0.59724152545E+03  0.75244878152E+03  0.00000000000E+00 0.  1.
          3    1    6    6  503    0 -0.10790146657E+03  0.54103965431E+02  0.49043989893E+02  0.13028921102E+03  0.00000000000E+00 0. -1.
         -3    1    6    6    0  503 -0.96238758762E+03  0.61067442365E+03  0.19547917441E+03  0.11564277877E+04  0.00000000000E+00 0.  1.
<mgrwt>
<rscale>  0 0.36753624E+04</rscale>
<asrwt>0</asrwt>
<pdfrwt beam="1">  1        2 0.22320061E+00 0.36753624E+04</pdfrwt>
<pdfrwt beam="2">  1       -1 0.35811148E+00 0.36753624E+04</pdfrwt>
<totfact> 0.17126204E-01</totfact>
</mgrwt>
</event>
<event>
12    7  0.1625631E-007  0.1853967E+04  0.7818608E-02  0.8678115E-01
          2   -1    0    0  501    0  0.00000000000E+00  0.00000000000E+00  0.37147017086E+04  0.37147017086E+04  0.00000000000E+00 0. -1.
         -1   -1    0    0    0  501 -0.00000000000E+00 -0.00000000000E+00 -0.23132371437E+03  0.23132371437E+03  0.00000000000E+00 0.  1.
         24    2    1    2    0    0  0.18858476976E+02  0.22186594250E+03 -0.93015013644E+02  0.25433283742E+03  0.80332190522E+02 0.  0.
        254    2    1    2    0    0 -0.18858476976E+02 -0.22186594250E+03  0.35763930079E+04  0.36916925856E+04  0.88793415343E+03 0.  0.
         23    2    4    4    0    0 -0.11868461439E+03 -0.53613204010E+02  0.34239118987E+04  0.34276848584E+04  0.94288836606E+02 0.  0.
         23    2    4    4    0    0  0.99826137418E+02 -0.16825273849E+03  0.15248110919E+03  0.26400772722E+03  0.90417640155E+02 0.  0.
          2    1    3    3  502    0  0.17737008336E+01  0.21050839947E+02 -0.41102880671E+02  0.46213966251E+02  0.00000000000E+00 0. -1.
         -1    1    3    3    0  502  0.17084776142E+02  0.20081510255E+03 -0.51912132973E+02  0.20811887117E+03  0.00000000000E+00 0.  1.
         13    1    5    5    0    0 -0.11384810525E+03 -0.71812063601E+01  0.24564363719E+04  0.24590836932E+04  0.00000000000E+00 0. -1.
        -13    1    5    5    0    0 -0.48365091472E+01 -0.46431997650E+02  0.96747552683E+03  0.96860116521E+03  0.00000000000E+00 0.  1.
          2    1    6    6  503    0  0.89367376682E+02 -0.74915225018E+02  0.11215511019E+03  0.16179489391E+03  0.00000000000E+00 0. -1.
         -2    1    6    6    0  503  0.10458760736E+02 -0.93337513472E+02  0.40325998997E+02  0.10221283331E+03  0.00000000000E+00 0.  1.
<mgrwt>
<rscale>  0 0.18539672E+04</rscale>
<asrwt>0</asrwt>
<pdfrwt beam="1">  1        2 0.57149253E+00 0.18539672E+04</pdfrwt>
<pdfrwt beam="2">  1       -1 0.35588266E-01 0.18539672E+04</pdfrwt>
<totfact> 0.46321558E+00</totfact>
</mgrwt>
</event>
<event>
12    7  0.1625631E-007  0.1217604E+04  0.7818608E-02  0.9097586E-01
         -1   -1    0    0    0  501 -0.00000000000E+00  0.00000000000E+00  0.26874072236E+03  0.26874072236E+03  0.00000000000E+00 0.  1.
          2   -1    0    0  501    0  0.00000000000E+00 -0.00000000000E+00 -0.13791719214E+04  0.13791719214E+04  0.00000000000E+00 0. -1.
         24    2    1    2    0    0 -0.74497195041E+02  0.11798041769E+03 -0.56606492618E+03  0.58658130026E+03  0.64644490393E+02 0.  0.
        254    2    1    2    0    0  0.74497195041E+02 -0.11798041769E+03 -0.54436627286E+03  0.10613313435E+04  0.90034458439E+03 0.  0.
         23    2    4    4    0    0  0.15142282523E+03  0.22277441080E+03 -0.62909804508E+03  0.69043389648E+03  0.91527618670E+02 0.  0.
         23    2    4    4    0    0 -0.76925630190E+02 -0.34075482849E+03  0.84731772226E+02  0.37089744702E+03  0.91400422635E+02 0.  0.
          4    1    3    3  502    0 -0.84636597298E+02  0.11500261150E+03 -0.51463517954E+03  0.53407707522E+03  0.00000000000E+00 0. -1.
         -3    1    3    3    0  502  0.10139402257E+02  0.29778061844E+01 -0.51429746637E+02  0.52504225039E+02  0.00000000000E+00 0.  1.
         13    1    5    5    0    0  0.65283580449E+02  0.80887575640E+02 -0.14307309237E+03  0.17684641791E+03  0.00000000000E+00 0.  1.
        -13    1    5    5    0    0  0.86139244782E+02  0.14188683516E+03 -0.48602495271E+03  0.51358747857E+03  0.00000000000E+00 0. -1.
          3    1    6    6  503    0  0.45056738110E+01 -0.17141848318E+03  0.58472324047E+02  0.18117287367E+03  0.00000000000E+00 0. -1.
         -3    1    6    6    0  503 -0.81431304001E+02 -0.16933634531E+03  0.26259448178E+02  0.18972457335E+03  0.00000000000E+00 0.  1.
<mgrwt>
<rscale>  0 0.12176036E+04</rscale>
<asrwt>0</asrwt>
<pdfrwt beam="1">  1        2 0.21218029E+00 0.12176036E+04</pdfrwt>
<pdfrwt beam="2">  1       -1 0.41344727E-01 0.12176036E+04</pdfrwt>
<totfact> 0.95714145E+01</totfact>
</mgrwt>
</event>
<event>
12    7  0.1625631E-007  0.1255382E+04  0.7818608E-02  0.9065716E-01
          2   -1    0    0  501    0  0.00000000000E+00  0.00000000000E+00  0.15386128221E+04  0.15386128221E+04  0.00000000000E+00 0. -1.
         -1   -1    0    0    0  501 -0.00000000000E+00 -0.00000000000E+00 -0.25607230692E+03  0.25607230692E+03  0.00000000000E+00 0.  1.
         24    2    1    2    0    0  0.22046429053E+03  0.20010826289E+03  0.24602096880E+03  0.39402425072E+03  0.77980592393E+02 0.  0.
        254    2    1    2    0    0 -0.22046429053E+03 -0.20010826289E+03  0.10365195464E+04  0.14006608783E+04  0.89377307283E+03 0.  0.
         23    2    4    4    0    0 -0.33224148489E+03 -0.63148509950E+02  0.59398495624E+01  0.35128593771E+03  0.94838755946E+02 0.  0.
         23    2    4    4    0    0  0.11177719436E+03 -0.13695975294E+03  0.10305796968E+04  0.10493749406E+04  0.88550208023E+02 0.  0.
          4    1    3    3  502    0  0.15721241581E+03  0.12205449783E+03  0.20435687952E+03  0.28526264798E+03  0.00000000000E+00 0. -1.
         -3    1    3    3    0  502  0.63251874718E+02  0.78053765056E+02  0.41664089287E+02  0.10876160274E+03  0.00000000000E+00 0.  1.
         13    1    5    5    0    0 -0.20570946000E+03 -0.73989720387E+02  0.33967216909E+02  0.22123433838E+03  0.00000000000E+00 0.  1.
        -13    1    5    5    0    0 -0.12653202489E+03  0.10841210437E+02 -0.28027367346E+02  0.13005159933E+03  0.00000000000E+00 0. -1.
          1    1    6    6  503    0 -0.13095831494E+02 -0.17837837272E+01  0.89545689951E+02  0.90515817820E+02  0.00000000000E+00 0. -1.
         -1    1    6    6    0  503  0.12487302586E+03 -0.13517596921E+03  0.94103400689E+03  0.95885912280E+03  0.00000000000E+00 0.  1.
<mgrwt>
<rscale>  0 0.12553822E+04</rscale>
<asrwt>0</asrwt>
<pdfrwt beam="1">  1        2 0.23670966E+00 0.12553822E+04</pdfrwt>
<pdfrwt beam="2">  1       -1 0.39395740E-01 0.12553822E+04</pdfrwt>
<totfact> 0.84672236E+01</totfact>
</mgrwt>
</event>
<event>
12    7  0.1625631E-007  0.1566973E+04  0.7818608E-02  0.8841099E-01
         -1   -1    0    0    0  501 -0.00000000000E+00  0.00000000000E+00  0.36033818262E+03  0.36033818262E+03  0.00000000000E+00 0.  1.
          2   -1    0    0  501    0  0.00000000000E+00 -0.00000000000E+00 -0.17035410911E+04  0.17035410911E+04  0.00000000000E+00 0. -1.
         24    2    1    2    0    0 -0.49193521595E+03  0.57987205257E+02 -0.63547957751E+03  0.80982188712E+03  0.81329101568E+02 0.  0.
        254    2    1    2    0    0  0.49193521595E+03 -0.57987205257E+02 -0.70772333095E+03  0.12540573866E+04  0.90907911811E+03 0.  0.
         23    2    4    4    0    0 -0.25123354968E+03  0.53431349730E+02 -0.24881874627E+03  0.36862426003E+03  0.89441997804E+02 0.  0.
         23    2    4    4    0    0  0.74316876563E+03 -0.11141855499E+03 -0.45890458468E+03  0.88543312655E+03  0.93190638669E+02 0.  0.
          4    1    3    3  502    0 -0.37506167158E+03  0.60136287288E+02 -0.53210286860E+03  0.65377449729E+03  0.00000000000E+00 0. -1.
         -3    1    3    3    0  502 -0.11687354437E+03 -0.21490820305E+01 -0.10337670891E+03  0.15604738983E+03  0.00000000000E+00 0.  1.
         13    1    5    5    0    0 -0.17462366219E+03  0.63912471206E+02 -0.13010245790E+03  0.22694685925E+03  0.00000000000E+00 0.  1.
        -13    1    5    5    0    0 -0.76609887490E+02 -0.10481121476E+02 -0.11871628836E+03  0.14167740078E+03  0.00000000000E+00 0. -1.
          3    1    6    6  503    0  0.61567365302E+02  0.14180296169E+02 -0.51291918528E+02  0.81378634641E+02  0.00000000000E+00 0. -1.
         -3    1    6    6    0  503  0.68160140033E+03 -0.12559885116E+03 -0.40761266615E+03  0.80405449191E+03  0.00000000000E+00 0.  1.
<mgrwt>
<rscale>  0 0.15669728E+04</rscale>
<asrwt>0</asrwt>
<pdfrwt beam="1">  1        2 0.26208325E+00 0.15669728E+04</pdfrwt>
<pdfrwt beam="2">  1       -1 0.55436643E-01 0.15669728E+04</pdfrwt>
<totfact> 0.35175279E+01</totfact>
</mgrwt>
</event>
<event>
12    7  0.1625631E-007  0.1195124E+04  0.7818608E-02  0.9117136E-01
          2   -1    0    0  501    0  0.00000000000E+00  0.00000000000E+00  0.28792722019E+04  0.28792722019E+04  0.00000000000E+00 0. -1.
         -1   -1    0    0    0  501 -0.00000000000E+00 -0.00000000000E+00 -0.12401747815E+03  0.12401747815E+03  0.00000000000E+00 0.  1.
         24    2    1    2    0    0 -0.52790705969E+02 -0.20340826788E+03  0.26720476290E+03  0.34666213290E+03  0.67929868210E+02 0.  0.
        254    2    1    2    0    0  0.52790705969E+02  0.20340826788E+03  0.24880499608E+04  0.26566275471E+04  0.90725714901E+03 0.  0.
         23    2    4    4    0    0  0.13057527099E+03 -0.31985959812E+03  0.13719411686E+04  0.14176860284E+04  0.90835241830E+02 0.  0.
         23    2    4    4    0    0 -0.77784565024E+02  0.52326786600E+03  0.11161087922E+04  0.12389415187E+04  0.97044075165E+02 0.  0.
          4    1    3    3  502    0 -0.36524716428E+02 -0.51829678475E+02  0.11451120801E+03  0.13089380139E+03  0.00000000000E+00 0. -1.
         -3    1    3    3    0  502 -0.16265989541E+02 -0.15157858941E+03  0.15269355488E+03  0.21576833152E+03  0.00000000000E+00 0.  1.
         13    1    5    5    0    0  0.39727490737E+02 -0.22594393887E+02  0.20725421303E+03  0.21223357174E+03  0.00000000000E+00 0. -1.
        -13    1    5    5    0    0  0.90847780256E+02 -0.29726520423E+03  0.11646869556E+04  0.12054524567E+04  0.00000000000E+00 0.  1.
          2    1    6    6  503    0 -0.20089772323E+02  0.29060906789E+03  0.70891236858E+03  0.76642936767E+03  0.00000000000E+00 0. -1.
         -2    1    6    6    0  503 -0.57694792702E+02  0.23265879811E+03  0.40719642361E+03  0.47251215100E+03  0.00000000000E+00 0.  1.
<mgrwt>
<rscale>  0 0.11951236E+04</rscale>
<asrwt>0</asrwt>
<pdfrwt beam="1">  1        2 0.44296490E+00 0.11951236E+04</pdfrwt>
<pdfrwt beam="2">  1       -1 0.19079614E-01 0.11951236E+04</pdfrwt>
<totfact> 0.52122159E+01</totfact>
</mgrwt>
</event>
<event>
12    7  0.1625631E-007  0.1721987E+04  0.7818608E-02  0.8748923E-01
          2   -1    0    0  501    0  0.00000000000E+00  0.00000000000E+00  0.18591140770E+04  0.18591140770E+04  0.00000000000E+00 0. -1.
         -1   -1    0    0    0  501 -0.00000000000E+00 -0.00000000000E+00 -0.39874336674E+03  0.39874336674E+03  0.00000000000E+00 0.  1.
         24    2    1    2    0    0 -0.23380056703E+03  0.28838209695E+02 -0.16880755287E+03  0.30074247644E+03  0.80347369281E+02 0.  0.
        254    2    1    2    0    0  0.23380056703E+03 -0.28838209695E+02  0.16291782631E+04  0.19571149673E+04  0.10585758521E+04 0.  0.
         23    2    4    4    0    0 -0.25565863457E+03 -0.37818463948E+03  0.57302614271E+03  0.73828124268E+03  0.91188124778E+02 0.  0.
         23    2    4    4    0    0  0.48945920160E+03  0.34934642979E+03  0.10561521204E+04  0.12188337246E+04  0.92114650076E+02 0.  0.
          2    1    3    3  502    0 -0.20078583249E+03  0.10249231965E+02 -0.10571267888E+03  0.22714569721E+03  0.00000000000E+00 0. -1.
         -1    1    3    3    0  502 -0.33014734534E+02  0.18588977730E+02 -0.63094873988E+02  0.73596779230E+02  0.00000000000E+00 0.  1.
         13    1    5    5    0    0 -0.26107332024E+03 -0.37329118462E+03  0.55011261468E+03  0.71423348835E+03  0.00000000000E+00 0. -1.
        -13    1    5    5    0    0  0.54146856740E+01 -0.48934548585E+01  0.22913528031E+02  0.24047754329E+02  0.00000000000E+00 0.  1.
          3    1    6    6  503    0  0.31515137644E+03  0.20530345614E+03  0.57348605925E+03  0.68582516673E+03  0.00000000000E+00 0. -1.
         -3    1    6    6    0  503  0.17430782516E+03  0.14404297365E+03  0.48266606113E+03  0.53300855784E+03  0.00000000000E+00 0.  1.
<mgrwt>
<rscale>  0 0.17219865E+04</rscale>
<asrwt>0</asrwt>
<pdfrwt beam="1">  1        2 0.28601755E+00 0.17219865E+04</pdfrwt>
<pdfrwt beam="2">  1       -1 0.61345134E-01 0.17219865E+04</pdfrwt>
<totfact> 0.23329965E+01</totfact>
</mgrwt>
</event>
<event>
12    7  0.1625631E-007  0.1516548E+04  0.7818608E-02  0.8873523E-01
          2   -1    0    0  501    0  0.00000000000E+00  0.00000000000E+00  0.92255984527E+03  0.92255984527E+03  0.00000000000E+00 0. -1.
         -1   -1    0    0    0  501 -0.00000000000E+00 -0.00000000000E+00 -0.62324333734E+03  0.62324333734E+03  0.00000000000E+00 0.  1.
         24    2    1    2    0    0 -0.12122947869E+03 -0.46457260757E+03  0.17865455718E+03  0.51854357238E+03  0.80285063685E+02 0.  0.
        254    2    1    2    0    0  0.12122947869E+03  0.46457260757E+03  0.12066195074E+03  0.10272596102E+04  0.90009927578E+03 0.  0.
         23    2    4    4    0    0  0.11481160875E+03 -0.11221200959E+03 -0.26888512283E+03  0.32511087415E+03  0.87319130849E+02 0.  0.
         23    2    4    4    0    0  0.64178699446E+01  0.57678461716E+03  0.38954707358E+03  0.70214873608E+03  0.92435065859E+02 0.  0.
          2    1    3    3  502    0 -0.81202494707E+02 -0.31096498686E+03  0.15906875822E+03  0.35860275800E+03  0.00000000000E+00 0. -1.
         -1    1    3    3    0  502 -0.40026983987E+02 -0.15360762070E+03  0.19585798964E+02  0.15994081438E+03  0.00000000000E+00 0.  1.
         13    1    5    5    0    0  0.84549487928E+02 -0.12393587583E+03 -0.21407340226E+03  0.26141181837E+03  0.00000000000E+00 0. -1.
        -13    1    5    5    0    0  0.30262120822E+02  0.11723866236E+02 -0.54811720572E+02  0.63699055788E+02  0.00000000000E+00 0.  1.
          4    1    6    6  503    0  0.11429006366E+02  0.56813388042E+03  0.39371612608E+03  0.69131694338E+03  0.00000000000E+00 0. -1.
         -4    1    6    6    0  503 -0.50111364211E+01  0.86507367418E+01 -0.41690525023E+01  0.10831792704E+02  0.00000000000E+00 0.  1.
<mgrwt>
<rscale>  0 0.15165478E+04</rscale>
<asrwt>0</asrwt>
<pdfrwt beam="1">  1        2 0.14193228E+00 0.15165478E+04</pdfrwt>
<pdfrwt beam="2">  1       -1 0.95883591E-01 0.15165478E+04</pdfrwt>
<totfact> 0.32707533E+01</totfact>
</mgrwt>
</event>
<event>
12    7  0.1625631E-007  0.1425241E+04  0.7818608E-02  0.8935748E-01
          2   -1    0    0  501    0  0.00000000000E+00  0.00000000000E+00  0.14681515035E+04  0.14681515035E+04  0.00000000000E+00 0. -1.
         -1   -1    0    0    0  501 -0.00000000000E+00 -0.00000000000E+00 -0.34589615619E+03  0.34589615619E+03  0.00000000000E+00 0.  1.
         24    2    1    2    0    0 -0.23530055892E+03 -0.31742378688E+03  0.51962574467E+03  0.65750595150E+03  0.78606286178E+02 0.  0.
        254    2    1    2    0    0  0.23530055892E+03  0.31742378688E+03  0.60262960264E+03  0.11565417082E+04  0.90460050371E+03 0.  0.
         23    2    4    4    0    0  0.41085537294E+03 -0.14532284150E+03  0.12721718057E+03  0.46409345944E+03  0.96320622531E+02 0.  0.
         23    2    4    4    0    0 -0.17555481402E+03  0.46274662838E+03  0.47541242207E+03  0.69244824875E+03  0.92269558006E+02 0.  0.
          2    1    3    3  502    0 -0.13200571123E+03 -0.21792489077E+03  0.28289244506E+03  0.38071630027E+03  0.00000000000E+00 0. -1.
         -1    1    3    3    0  502 -0.10329484769E+03 -0.99498896112E+02  0.23673329961E+03  0.27678965124E+03  0.00000000000E+00 0.  1.
         13    1    5    5    0    0  0.13500628688E+03 -0.93963970595E+02  0.30415510419E+02  0.16727530762E+03  0.00000000000E+00 0.  1.
        -13    1    5    5    0    0  0.27584908607E+03 -0.51358870906E+02  0.96801670150E+02  0.29681815182E+03  0.00000000000E+00 0. -1.
          3    1    6    6  503    0 -0.14583457978E+03  0.28953652292E+03  0.34638216100E+03  0.47442567830E+03  0.00000000000E+00 0. -1.
         -3    1    6    6    0  503 -0.29720234246E+02  0.17321010546E+03  0.12903026107E+03  0.21802257046E+03  0.00000000000E+00 0.  1.
<mgrwt>
<rscale>  0 0.14252410E+04</rscale>
<asrwt>0</asrwt>
<pdfrwt beam="1">  1        2 0.22586946E+00 0.14252410E+04</pdfrwt>
<pdfrwt beam="2">  1       -1 0.53214794E-01 0.14252410E+04</pdfrwt>
<totfact> 0.52169841E+01</totfact>
</mgrwt>
</event>
<event>
12    7  0.1625631E-007  0.3889154E+04  0.7818608E-02  0.8027289E-01
          2   -1    0    0  501    0  0.00000000000E+00  0.00000000000E+00  0.21343353186E+04  0.21343353186E+04  0.00000000000E+00 0. -1.
         -1   -1    0    0    0  501 -0.00000000000E+00 -0.00000000000E+00 -0.17716895434E+04  0.17716895434E+04  0.00000000000E+00 0.  1.
         24    2    1    2    0    0  0.67990594691E+03 -0.73973965243E+03 -0.13662411551E+04  0.16977536058E+04  0.79155303163E+02 0.  0.
        254    2    1    2    0    0 -0.67990594691E+03  0.73973965243E+03  0.17288869303E+04  0.22082712562E+04  0.93697655950E+03 0.  0.
         23    2    4    4    0    0 -0.30886671304E+03 -0.18511747300E+03  0.51323813751E+03  0.63371751569E+03  0.92289645521E+02 0.  0.
         23    2    4    4    0    0 -0.37103923387E+03  0.92485712543E+03  0.12156487928E+04  0.15745537405E+04  0.91578811381E+02 0.  0.
          4    1    3    3  502    0  0.48408084502E+02 -0.86932770530E+02 -0.12868549032E+03  0.16266715912E+03  0.00000000000E+00 0. -1.
         -3    1    3    3    0  502  0.63149786241E+03 -0.65280688190E+03 -0.12375556648E+04  0.15350864467E+04  0.00000000000E+00 0.  1.
         13    1    5    5    0    0 -0.28820722025E+02 -0.55059728098E+02  0.71074059814E+02  0.94412550303E+02  0.00000000000E+00 0. -1.
        -13    1    5    5    0    0 -0.28004599102E+03 -0.13005774491E+03  0.44216407769E+03  0.53930496539E+03  0.00000000000E+00 0.  1.
          4    1    6    6  503    0 -0.23423932217E+03  0.68135447523E+03  0.84533872265E+03  0.11107247800E+04  0.00000000000E+00 0.  1.
         -4    1    6    6    0  503 -0.13679991169E+03  0.24350265021E+03  0.37031007018E+03  0.46382896047E+03  0.00000000000E+00 0. -1.
<mgrwt>
<rscale>  0 0.38891539E+04</rscale>
<asrwt>0</asrwt>
<pdfrwt beam="1">  1        2 0.32835928E+00 0.38891539E+04</pdfrwt>
<pdfrwt beam="2">  1       -1 0.27256762E+00 0.38891539E+04</pdfrwt>
<totfact> 0.25306825E-01</totfact>
</mgrwt>
</event>
<event>
12    7  0.1625631E-007  0.1391290E+04  0.7818608E-02  0.8960147E-01
         -1   -1    0    0    0  501 -0.00000000000E+00  0.00000000000E+00  0.54738035311E+03  0.54738035311E+03  0.00000000000E+00 0.  1.
          2   -1    0    0  501    0  0.00000000000E+00 -0.00000000000E+00 -0.88406911091E+03  0.88406911091E+03  0.00000000000E+00 0. -1.
         24    2    1    2    0    0 -0.28140715499E+03  0.27710920667E+03  0.12814331196E+03  0.42281197146E+03  0.79810748119E+02 0.  0.
        254    2    1    2    0    0  0.28140715499E+03 -0.27710920667E+03 -0.46483206976E+03  0.10086374926E+04  0.80330644154E+03 0.  0.
         23    2    4    4    0    0  0.15877789260E+03 -0.38892144797E+01 -0.62957674099E+03  0.65560596680E+03  0.90701520031E+02 0.  0.
         23    2    4    4    0    0  0.12262926239E+03 -0.27321999219E+03  0.16474467123E+03  0.35303152576E+03  0.88336579923E+02 0.  0.
          2    1    3    3  502    0 -0.35987815587E+02  0.58939345906E+02 -0.32332825617E+01  0.69133374594E+02  0.00000000000E+00 0. -1.
         -1    1    3    3    0  502 -0.24541933940E+03  0.21816986076E+03  0.13137659452E+03  0.35367859687E+03  0.00000000000E+00 0.  1.
         13    1    5    5    0    0  0.14728931017E+03  0.19137102625E+02 -0.58992933213E+03  0.60833953225E+03  0.00000000000E+00 0.  1.
        -13    1    5    5    0    0  0.11488582429E+02 -0.23026317105E+02 -0.39647408857E+02  0.47266434546E+02  0.00000000000E+00 0. -1.
          3    1    6    6  503    0  0.78226546746E+02 -0.77512714177E+02  0.42453872760E+02  0.11802518709E+03  0.00000000000E+00 0. -1.
         -3    1    6    6    0  503  0.44402715646E+02 -0.19570727801E+03  0.12229079847E+03  0.23500633867E+03  0.00000000000E+00 0.  1.
<mgrwt>
<rscale>  0 0.13912901E+04</rscale>
<asrwt>0</asrwt>
<pdfrwt beam="1">  1        2 0.13601063E+00 0.13912901E+04</pdfrwt>
<pdfrwt beam="2">  1       -1 0.84212362E-01 0.13912901E+04</pdfrwt>
<totfact> 0.46700979E+01</totfact>
</mgrwt>
</event>
<event>
12    7  0.1625631E-007  0.1190765E+04  0.7818608E-02  0.9120979E-01
         -1   -1    0    0    0  501 -0.00000000000E+00  0.00000000000E+00  0.92643877892E+03  0.92643877892E+03  0.00000000000E+00 0.  1.
          2   -1    0    0  501    0  0.00000000000E+00 -0.00000000000E+00 -0.38262682017E+03  0.38262682017E+03  0.00000000000E+00 0. -1.
         24    2    1    2    0    0  0.44607412871E+02 -0.23743884719E+03  0.12627696109E+03  0.28417802677E+03  0.80276102045E+02 0.  0.
        254    2    1    2    0    0 -0.44607412871E+02  0.23743884719E+03  0.41753499765E+03  0.10248875723E+04  0.90426325492E+03 0.  0.
         23    2    4    4    0    0  0.25542716350E+03  0.31670791835E+03 -0.86634941282E+02  0.42586586646E+03  0.91154713373E+02 0.  0.
         23    2    4    4    0    0 -0.30003457637E+03 -0.79269071157E+02  0.50416993893E+03  0.59902170585E+03  0.91298105655E+02 0.  0.
          2    1    3    3  502    0  0.16864415882E+02 -0.15894406501E+03  0.41022285366E+02  0.16501652106E+03  0.00000000000E+00 0. -1.
         -3    1    3    3    0  502  0.27742996988E+02 -0.78494782180E+02  0.85254675725E+02  0.11916150572E+03  0.00000000000E+00 0.  1.
         13    1    5    5    0    0  0.54255038550E+02  0.43107201054E+02  0.15956647273E+02  0.71108751803E+02  0.00000000000E+00 0. -1.
        -13    1    5    5    0    0  0.20117212495E+03  0.27360071729E+03 -0.10259158855E+03  0.35475711466E+03  0.00000000000E+00 0.  1.
          3    1    6    6  503    0 -0.33238851475E+02 -0.27380518026E+02  0.12715997134E+03  0.13425413336E+03  0.00000000000E+00 0. -1.
         -3    1    6    6    0  503 -0.26679572490E+03 -0.51888553131E+02  0.37700996760E+03  0.46476757249E+03  0.00000000000E+00 0.  1.
<mgrwt>
<rscale>  0 0.11907650E+04</rscale>
<asrwt>0</asrwt>
<pdfrwt beam="1">  1        2 0.58865665E-01 0.11907650E+04</pdfrwt>
<pdfrwt beam="2">  1       -1 0.14252904E+00 0.11907650E+04</pdfrwt>
<totfact> 0.37791618E+01</totfact>
</mgrwt>
</event>
<event>
12    7  0.1625631E-007  0.1304355E+04  0.7818608E-02  0.9026119E-01
          2   -1    0    0  501    0  0.00000000000E+00  0.00000000000E+00  0.11239484057E+04  0.11239484057E+04  0.00000000000E+00 0. -1.
         -1   -1    0    0    0  501 -0.00000000000E+00 -0.00000000000E+00 -0.37842977593E+03  0.37842977593E+03  0.00000000000E+00 0.  1.
         24    2    1    2    0    0 -0.27789702423E+03  0.17982384007E+03  0.24112754447E+03  0.41739709613E+03  0.80712289155E+02 0.  0.
        254    2    1    2    0    0  0.27789702423E+03 -0.17982384007E+03  0.50439108531E+03  0.10849810855E+04  0.90178169166E+03 0.  0.
         23    2    4    4    0    0  0.31336772081E+03 -0.50887032365E+03  0.40108613580E+03  0.72640316768E+03  0.98199485466E+02 0.  0.
         23    2    4    4    0    0 -0.35470696581E+02  0.32904648357E+03  0.10330494951E+03  0.35857791782E+03  0.91522958252E+02 0.  0.
          2    1    3    3  502    0 -0.21556017495E+03  0.12923994816E+03  0.22089149522E+03  0.33460754009E+03  0.00000000000E+00 0. -1.
         -1    1    3    3    0  502 -0.62336849287E+02  0.50583891912E+02  0.20236049241E+02  0.82789556038E+02  0.00000000000E+00 0.  1.
         13    1    5    5    0    0  0.23175864492E+03 -0.33573868072E+03  0.32019080245E+03  0.51860840834E+03  0.00000000000E+00 0. -1.
        -13    1    5    5    0    0  0.81609075890E+02 -0.17313164293E+03  0.80895333350E+02  0.20779475934E+03  0.00000000000E+00 0.  1.
          4    1    6    6  503    0  0.20945876823E+02  0.12558724538E+03  0.99083874411E+01  0.12770693834E+03  0.00000000000E+00 0.  1.
         -4    1    6    6    0  503 -0.56416573404E+02  0.20345923819E+03  0.93396562068E+02  0.23087097948E+03  0.00000000000E+00 0. -1.
<mgrwt>
<rscale>  0 0.13043551E+04</rscale>
<asrwt>0</asrwt>
<pdfrwt beam="1">  1        2 0.17291514E+00 0.13043551E+04</pdfrwt>
<pdfrwt beam="2">  1       -1 0.58219966E-01 0.13043551E+04</pdfrwt>
<totfact> 0.70338829E+01</totfact>
</mgrwt>
</event>
<event>
12    7  0.1625631E-007  0.2017847E+04  0.7818608E-02  0.8598322E-01
          2   -1    0    0  501    0  0.00000000000E+00  0.00000000000E+00  0.17954724794E+04  0.17954724794E+04  0.00000000000E+00 0. -1.
         -1   -1    0    0    0  501 -0.00000000000E+00 -0.00000000000E+00 -0.56694056551E+03  0.56694056551E+03  0.00000000000E+00 0.  1.
         24    2    1    2    0    0 -0.14597238078E+03 -0.61171414738E+03  0.10798565631E+04  0.12522295692E+04  0.80539201156E+02 0.  0.
        254    2    1    2    0    0  0.14597238078E+03  0.61171414738E+03  0.14867535077E+03  0.11101834757E+04  0.90271859172E+03 0.  0.
         23    2    4    4    0    0 -0.92564345317E+02 -0.16105958684E+03  0.20799951546E+03  0.29534760021E+03  0.97252547437E+02 0.  0.
         23    2    4    4    0    0  0.23853672610E+03  0.77277373422E+03 -0.59324164686E+02  0.81483587553E+03  0.79744175610E+02 0.  0.
          2    1    3    3  502    0 -0.14749000513E+03 -0.59612539425E+03  0.10221794217E+04  0.11924636504E+04  0.00000000000E+00 0. -1.
         -1    1    3    3    0  502  0.15176243481E+01 -0.15588753127E+02  0.57677141450E+02  0.59765918830E+02  0.00000000000E+00 0.  1.
         13    1    5    5    0    0 -0.74708428228E+02 -0.56590773036E+02  0.53277543441E+02  0.10780705671E+03  0.00000000000E+00 0.  1.
        -13    1    5    5    0    0 -0.17855917089E+02 -0.10446881380E+03  0.15472197201E+03  0.18754054350E+03  0.00000000000E+00 0. -1.
          1    1    6    6  503    0  0.15175492949E+03  0.59352265498E+03 -0.61274739508E+02  0.61567304172E+03  0.00000000000E+00 0. -1.
         -1    1    6    6    0  503  0.86781796603E+02  0.17925107925E+03  0.19505748215E+01  0.19916283382E+03  0.00000000000E+00 0.  1.
<mgrwt>
<rscale>  0 0.20178466E+04</rscale>
<asrwt>0</asrwt>
<pdfrwt beam="1">  1        2 0.27622653E+00 0.20178466E+04</pdfrwt>
<pdfrwt beam="2">  1       -1 0.87221627E-01 0.20178466E+04</pdfrwt>
<totfact> 0.11865854E+01</totfact>
</mgrwt>
</event>
<event>
12    7  0.1625631E-007  0.2272317E+04  0.7818608E-02  0.8488917E-01
          2   -1    0    0  501    0  0.00000000000E+00  0.00000000000E+00  0.60866347971E+03  0.60866347971E+03  0.00000000000E+00 0. -1.
         -1   -1    0    0    0  501 -0.00000000000E+00 -0.00000000000E+00 -0.21208040551E+04  0.21208040551E+04  0.00000000000E+00 0.  1.
         24    2    1    2    0    0  0.43935418234E+03  0.82087837465E+03 -0.38890794032E+03  0.10120820481E+04  0.78659280819E+02 0.  0.
        254    2    1    2    0    0 -0.43935418234E+03 -0.82087837465E+03 -0.11232326351E+04  0.17173854868E+04  0.90602867184E+03 0.  0.
         23    2    4    4    0    0 -0.41776880642E+03 -0.86000674984E+03 -0.49456616159E+03  0.10808283866E+04  0.97221024729E+02 0.  0.
         23    2    4    4    0    0 -0.21585375917E+02  0.39128375198E+02 -0.62866647352E+03  0.63655710022E+03  0.89366933002E+02 0.  0.
          4    1    3    3  502    0  0.18199840959E+03  0.31177882132E+03 -0.11208222249E+03  0.37801042196E+03  0.00000000000E+00 0. -1.
         -3    1    3    3    0  502  0.25735577275E+03  0.50909955333E+03 -0.27682571783E+03  0.63407162609E+03  0.00000000000E+00 0.  1.
         13    1    5    5    0    0 -0.35861608453E+03 -0.70848390354E+03 -0.37051212644E+03  0.87626147553E+03  0.00000000000E+00 0. -1.
        -13    1    5    5    0    0 -0.59152721892E+02 -0.15152284630E+03 -0.12405403515E+03  0.20456691105E+03  0.00000000000E+00 0.  1.
          3    1    6    6  503    0 -0.45408848816E+02  0.36193378297E+02 -0.57301417586E+03  0.57594892996E+03  0.00000000000E+00 0. -1.
         -3    1    6    6    0  503  0.23823472898E+02  0.29349969007E+01 -0.55652297660E+02  0.60608170262E+02  0.00000000000E+00 0.  1.
<mgrwt>
<rscale>  0 0.22723169E+04</rscale>
<asrwt>0</asrwt>
<pdfrwt beam="1">  1        2 0.93640538E-01 0.22723169E+04</pdfrwt>
<pdfrwt beam="2">  1       -1 0.32627754E+00 0.22723169E+04</pdfrwt>
<totfact> 0.11262680E+00</totfact>
</mgrwt>
</event>
<event>
12    7  0.1625631E-007  0.1607924E+04  0.7818608E-02  0.8815695E-01
         -1   -1    0    0    0  501 -0.00000000000E+00  0.00000000000E+00  0.81675888808E+03  0.81675888808E+03  0.00000000000E+00 0.  1.
          2   -1    0    0  501    0  0.00000000000E+00 -0.00000000000E+00 -0.79136567636E+03  0.79136567636E+03  0.00000000000E+00 0. -1.
         24    2    1    2    0    0  0.50813423098E+02 -0.35446903894E+03  0.41039162385E+03  0.55043669866E+03  0.79554828778E+02 0.  0.
        254    2    1    2    0    0 -0.50813423098E+02  0.35446903894E+03 -0.38499841213E+03  0.10576878658E+04  0.91774154343E+03 0.  0.
         23    2    4    4    0    0  0.41417734861E+03  0.70619883460E+02 -0.19883045723E+03  0.47483373911E+03  0.96971568168E+02 0.  0.
         23    2    4    4    0    0 -0.46499077171E+03  0.28384915548E+03 -0.18616795489E+03  0.58285412667E+03  0.90959687256E+02 0.  0.
          2    1    3    3  502    0  0.27478620913E+02 -0.27194269805E+02  0.46303396594E+02  0.60320870797E+02  0.00000000000E+00 0. -1.
         -1    1    3    3    0  502  0.23334802185E+02 -0.32727476913E+03  0.36408822725E+03  0.49011582787E+03  0.00000000000E+00 0.  1.
         13    1    5    5    0    0  0.20407427620E+03  0.87795221152E+01 -0.50802439950E+02  0.21048581453E+03  0.00000000000E+00 0. -1.
        -13    1    5    5    0    0  0.21010307241E+03  0.61840361345E+02 -0.14802801728E+03  0.26434792458E+03  0.00000000000E+00 0.  1.
          2    1    6    6  503    0 -0.13883399948E+03  0.12624747292E+03 -0.37870337038E+02  0.19143527955E+03  0.00000000000E+00 0. -1.
         -2    1    6    6    0  503 -0.32615677223E+03  0.15760168256E+03 -0.14829761786E+03  0.39141884712E+03  0.00000000000E+00 0.  1.
<mgrwt>
<rscale>  0 0.16079241E+04</rscale>
<asrwt>0</asrwt>
<pdfrwt beam="1">  1        2 0.12174857E+00 0.16079241E+04</pdfrwt>
<pdfrwt beam="2">  1       -1 0.12565521E+00 0.16079241E+04</pdfrwt>
<totfact> 0.21126021E+01</totfact>
</mgrwt>
</event>
<event>
12    7  0.1625631E-007  0.4244482E+04  0.7818608E-02  0.7956964E-01
          2   -1    0    0  501    0  0.00000000000E+00  0.00000000000E+00  0.24327956580E+04  0.24327956580E+04  0.00000000000E+00 0. -1.
         -1   -1    0    0    0  501 -0.00000000000E+00 -0.00000000000E+00 -0.18513294462E+04  0.18513294462E+04  0.00000000000E+00 0.  1.
         24    2    1    2    0    0 -0.10582685925E+04  0.12347725852E+04 -0.93714875234E+03  0.18781796687E+04  0.68668280537E+02 0.  0.
        254    2    1    2    0    0  0.10582685925E+04 -0.12347725852E+04  0.15186149641E+04  0.24059454356E+04  0.91530665837E+03 0.  0.
         23    2    4    4    0    0  0.37772944680E+03 -0.40114774667E+03  0.17747928261E+02  0.55690392098E+03  0.78917289639E+02 0.  0.
         23    2    4    4    0    0  0.68053914571E+03 -0.83362483852E+03  0.15008670359E+04  0.18490415146E+04  0.91042645213E+02 0.  0.
          2    1    3    3  502    0 -0.38273700383E+02  0.61848317767E+02 -0.32131596235E+02  0.79514338507E+02  0.00000000000E+00 0. -1.
         -1    1    3    3    0  502 -0.10199948921E+04  0.11729242674E+04 -0.90501715610E+03  0.17986653302E+04  0.00000000000E+00 0.  1.
         13    1    5    5    0    0  0.78342154784E+02 -0.53031086797E+02 -0.18243318197E+02  0.96346292310E+02  0.00000000000E+00 0. -1.
        -13    1    5    5    0    0  0.29938729202E+03 -0.34811665988E+03  0.35991246458E+02  0.46055762867E+03  0.00000000000E+00 0.  1.
          4    1    6    6  503    0  0.54130459537E+03 -0.67779397439E+03  0.11467667593E+04  0.14378766765E+04  0.00000000000E+00 0. -1.
         -4    1    6    6    0  503  0.13923455034E+03 -0.15583086413E+03  0.35410027657E+03  0.41116483810E+03  0.00000000000E+00 0.  1.
<mgrwt>
<rscale>  0 0.42444817E+04</rscale>
<asrwt>0</asrwt>
<pdfrwt beam="1">  1        2 0.37427626E+00 0.42444817E+04</pdfrwt>
<pdfrwt beam="2">  1       -1 0.28481991E+00 0.42444817E+04</pdfrwt>
<totfact> 0.13867015E-01</totfact>
</mgrwt>
</event>
<event>
12    7  0.1625631E-007  0.1603721E+04  0.7818608E-02  0.8818265E-01
         -3   -1    0    0    0  501 -0.00000000000E+00  0.00000000000E+00  0.56923589360E+03  0.56923589360E+03  0.00000000000E+00 0.  1.
          2   -1    0    0  501    0  0.00000000000E+00 -0.00000000000E+00 -0.11295495054E+04  0.11295495054E+04  0.00000000000E+00 0. -1.
         24    2    1    2    0    0 -0.39169906304E+03  0.20050878359E+03 -0.53386177986E+03  0.69682881033E+03  0.83246997699E+02 0.  0.
        254    2    1    2    0    0  0.39169906304E+03 -0.20050878359E+03 -0.26451831906E+02  0.10019565886E+04  0.89976962487E+03 0.  0.
         23    2    4    4    0    0  0.52677304435E+02  0.28812910874E+03  0.19126555990E+03  0.36214683917E+03  0.93672498691E+02 0.  0.
         23    2    4    4    0    0  0.33902175860E+03 -0.48863789232E+03 -0.21771739181E+03  0.63980974948E+03  0.90845529416E+02 0.  0.
          4    1    3    3  502    0 -0.28861143758E+03  0.18605727034E+03 -0.39763721807E+03  0.52538483699E+03  0.00000000000E+00 0. -1.
         -3    1    3    3    0  502 -0.10308762546E+03  0.14451513251E+02 -0.13622456180E+03  0.17144397334E+03  0.00000000000E+00 0.  1.
         13    1    5    5    0    0  0.64639412141E+02  0.10206965569E+03  0.67976790985E+02  0.13862652101E+03  0.00000000000E+00 0. -1.
        -13    1    5    5    0    0 -0.11962107707E+02  0.18605945304E+03  0.12328876892E+03  0.22352031816E+03  0.00000000000E+00 0.  1.
          3    1    6    6  503    0  0.25303769860E+02 -0.57483031045E+02 -0.51711773843E+02  0.81355314400E+02  0.00000000000E+00 0. -1.
         -3    1    6    6    0  503  0.31371798874E+03 -0.43115486128E+03 -0.16600561796E+03  0.55845443508E+03  0.00000000000E+00 0.  1.
<mgrwt>
<rscale>  0 0.16037208E+04</rscale>
<asrwt>0</asrwt>
<pdfrwt beam="1">  1        2 0.17377685E+00 0.16037208E+04</pdfrwt>
<pdfrwt beam="2">  1       -3 0.87574754E-01 0.16037208E+04</pdfrwt>
<totfact> 0.15097379E+01</totfact>
</mgrwt>
</event>
<event>
12    7  0.1625631E-007  0.1682830E+04  0.7818608E-02  0.8771218E-01
         -1   -1    0    0    0  501 -0.00000000000E+00  0.00000000000E+00  0.87357484115E+03  0.87357484115E+03  0.00000000000E+00 0.  1.
          2   -1    0    0  501    0  0.00000000000E+00 -0.00000000000E+00 -0.81043926641E+03  0.81043926641E+03  0.00000000000E+00 0. -1.
         24    2    1    2    0    0 -0.32155946761E+03  0.68407109046E+02 -0.48584525521E+03  0.59184899130E+03  0.78483072836E+02 0.  0.
        254    2    1    2    0    0  0.32155946761E+03 -0.68407109046E+02  0.54898082995E+03  0.10921651163E+04  0.88507890368E+03 0.  0.
         23    2    4    4    0    0  0.49310154349E+03  0.10539414360E+03  0.32032534645E+02  0.51292189923E+03  0.88350063600E+02 0.  0.
         23    2    4    4    0    0 -0.17154207588E+03 -0.17380125265E+03  0.51694829531E+03  0.57924321703E+03  0.93024756053E+02 0.  0.
          2    1    3    3  502    0 -0.30229130909E+03  0.67906138155E+02 -0.41179515114E+03  0.51533147163E+03  0.00000000000E+00 0. -1.
         -1    1    3    3    0  502 -0.19268158523E+02  0.50097089065E+00 -0.74050104071E+02  0.76517519678E+02  0.00000000000E+00 0.  1.
         13    1    5    5    0    0  0.21203726726E+03  0.12943767064E+02 -0.16572891282E+02  0.21307746136E+03  0.00000000000E+00 0. -1.
        -13    1    5    5    0    0  0.28106427623E+03  0.92450376539E+02  0.48605425928E+02  0.29984443787E+03  0.00000000000E+00 0.  1.
          3    1    6    6  503    0 -0.10119305432E+03 -0.14979979055E+03  0.41858534537E+03  0.45595361918E+03  0.00000000000E+00 0.  1.
         -3    1    6    6    0  503 -0.70349021555E+02 -0.24001462102E+02  0.98362949940E+02  0.12328959785E+03  0.00000000000E+00 0. -1.
<mgrwt>
<rscale>  0 0.16828302E+04</rscale>
<asrwt>0</asrwt>
<pdfrwt beam="1">  1        2 0.12468296E+00 0.16828302E+04</pdfrwt>
<pdfrwt beam="2">  1       -1 0.13439613E+00 0.16828302E+04</pdfrwt>
<totfact> 0.17161471E+01</totfact>
</mgrwt>
</event>
<event>
12    7  0.1625631E-007  0.1578575E+04  0.7818608E-02  0.8833819E-01
         -1   -1    0    0    0  501 -0.00000000000E+00  0.00000000000E+00  0.55586639370E+03  0.55586639370E+03  0.00000000000E+00 0.  1.
          2   -1    0    0  501    0  0.00000000000E+00 -0.00000000000E+00 -0.11207274058E+04  0.11207274058E+04  0.00000000000E+00 0. -1.
         24    2    1    2    0    0  0.21769188885E+03 -0.98593691876E+02  0.31374112513E+03  0.40224996550E+03  0.79126901872E+02 0.  0.
        254    2    1    2    0    0 -0.21769188885E+03  0.98593691876E+02 -0.87860213719E+03  0.12743438340E+04  0.89157165563E+03 0.  0.
         23    2    4    4    0    0  0.15300092161E+03 -0.13778493249E+03 -0.78422290038E+03  0.81568715609E+03  0.89140392047E+02 0.  0.
         23    2    4    4    0    0 -0.37069281047E+03  0.23637862437E+03 -0.94379236815E+02  0.45865667787E+03  0.90390785071E+02 0.  0.
          2    1    3    3  502    0  0.57900286047E+01  0.61796044728E+01 -0.11043840057E+01  0.85400003932E+01  0.00000000000E+00 0. -1.
         -1    1    3    3    0  502  0.21190186025E+03 -0.10477329635E+03  0.31484550913E+03  0.39370996511E+03  0.00000000000E+00 0.  1.
         13    1    5    5    0    0  0.46387167928E+02 -0.33700353189E+02 -0.98579195638E+02  0.11404096179E+03  0.00000000000E+00 0. -1.
        -13    1    5    5    0    0  0.10661375369E+03 -0.10408457930E+03 -0.68564370474E+03  0.70164619430E+03  0.00000000000E+00 0.  1.
          3    1    6    6  503    0 -0.25156745916E+03  0.17719147106E+03 -0.25231508706E+02  0.30873877787E+03  0.00000000000E+00 0. -1.
         -3    1    6    6    0  503 -0.11912535130E+03  0.59187153307E+02 -0.69147728109E+02  0.14991790001E+03  0.00000000000E+00 0.  1.
<mgrwt>
<rscale>  0 0.15785749E+04</rscale>
<asrwt>0</asrwt>
<pdfrwt beam="1">  1        2 0.17241960E+00 0.15785749E+04</pdfrwt>
<pdfrwt beam="2">  1       -1 0.85517907E-01 0.15785749E+04</pdfrwt>
<totfact> 0.31317352E+01</totfact>
</mgrwt>
</event>
<event>
12    7  0.1625631E-007  0.1636979E+04  0.7818608E-02  0.8798147E-01
         -1   -1    0    0    0  501 -0.00000000000E+00  0.00000000000E+00  0.99039527161E+03  0.99039527161E+03  0.00000000000E+00 0.  1.
          2   -1    0    0  501    0  0.00000000000E+00 -0.00000000000E+00 -0.67642173091E+03  0.67642173091E+03  0.00000000000E+00 0. -1.
         24    2    1    2    0    0 -0.23210731577E+03  0.70973819502E+02 -0.41847949688E+03  0.49064997457E+03  0.81860974462E+02 0.  0.
        254    2    1    2    0    0  0.23210731577E+03 -0.70973819502E+02  0.73245303759E+03  0.11761670279E+04  0.88767693238E+03 0.  0.
         23    2    4    4    0    0  0.49566987030E+03  0.12681809194E+03  0.63683143718E+03  0.82111520278E+03  0.83093008686E+02 0.  0.
         23    2    4    4    0    0 -0.26356255453E+03 -0.19779191144E+03  0.95621600405E+02  0.35505182517E+03  0.91276764349E+02 0.  0.
          2    1    3    3  502    0 -0.16093123157E+03  0.86848562918E+02 -0.28728426625E+03  0.34054923845E+03  0.00000000000E+00 0. -1.
         -1    1    3    3    0  502 -0.71176084206E+02 -0.15874743416E+02 -0.13119523063E+03  0.15010073611E+03  0.00000000000E+00 0.  1.
         13    1    5    5    0    0  0.87583957028E+02  0.56206487217E+02  0.12084456338E+03  0.15947892410E+03  0.00000000000E+00 0. -1.
        -13    1    5    5    0    0  0.40808591327E+03  0.70611604719E+02  0.51598687380E+03  0.66163627868E+03  0.00000000000E+00 0.  1.
          3    1    6    6  503    0 -0.78394702083E+01 -0.28854126915E+02  0.28487401503E+02  0.41298304778E+02  0.00000000000E+00 0. -1.
         -3    1    6    6    0  503 -0.25572308432E+03 -0.16893778452E+03  0.67134198902E+02  0.31375352039E+03  0.00000000000E+00 0.  1.
<mgrwt>
<rscale>  0 0.16369788E+04</rscale>
<asrwt>0</asrwt>
<pdfrwt beam="1">  1        2 0.10406488E+00 0.16369788E+04</pdfrwt>
<pdfrwt beam="2">  1       -1 0.15236850E+00 0.16369788E+04</pdfrwt>
<totfact> 0.15625650E+01</totfact>
</mgrwt>
</event>
<event>
12    7  0.1625631E-007  0.1668011E+04  0.7818608E-02  0.8779822E-01
          2   -1    0    0  501    0  0.00000000000E+00  0.00000000000E+00  0.62566662799E+03  0.62566662799E+03  0.00000000000E+00 0. -1.
         -1   -1    0    0    0  501 -0.00000000000E+00 -0.00000000000E+00 -0.11117181837E+04  0.11117181837E+04  0.00000000000E+00 0.  1.
         24    2    1    2    0    0 -0.28846282994E+03 -0.41712397459E+03 -0.50222417140E+03  0.71826326660E+03  0.80434988466E+02 0.  0.
        254    2    1    2    0    0  0.28846282994E+03  0.41712397459E+03  0.16172615694E+02  0.10191215451E+04  0.88382348674E+03 0.  0.
         23    2    4    4    0    0  0.54263833490E+03  0.18137416709E+03 -0.18398872411E+03  0.60748399623E+03  0.88498610631E+02 0.  0.
         23    2    4    4    0    0 -0.25417550496E+03  0.23574980751E+03  0.20016133980E+03  0.41163754885E+03  0.95904903999E+02 0.  0.
          2    1    3    3  502    0 -0.15610778323E+02 -0.30445839072E+01 -0.27510499255E+02  0.31777247525E+02  0.00000000000E+00 0. -1.
         -1    1    3    3    0  502 -0.27285205162E+03 -0.41407939068E+03 -0.47471367215E+03  0.68648601907E+03  0.00000000000E+00 0.  1.
         13    1    5    5    0    0  0.37426917416E+03  0.14674990792E+03 -0.16496668345E+03  0.43454223828E+03  0.00000000000E+00 0.  1.
        -13    1    5    5    0    0  0.16836916074E+03  0.34624259167E+02 -0.19022040661E+02  0.17294175795E+03  0.00000000000E+00 0. -1.
          2    1    6    6  503    0 -0.18249612800E+03  0.11152636886E+03  0.96280830223E+02  0.23454842987E+03  0.00000000000E+00 0. -1.
         -2    1    6    6    0  503 -0.71679376958E+02  0.12422343864E+03  0.10388050958E+03  0.17708911898E+03  0.00000000000E+00 0.  1.
<mgrwt>
<rscale>  0 0.16680108E+04</rscale>
<asrwt>0</asrwt>
<pdfrwt beam="1">  1        2 0.96256406E-01 0.16680108E+04</pdfrwt>
<pdfrwt beam="2">  1       -1 0.17103356E+00 0.16680108E+04</pdfrwt>
<totfact> 0.12416598E+01</totfact>
</mgrwt>
</event>
<event>
12    7  0.1625631E-007  0.1710427E+04  0.7818608E-02  0.8755440E-01
          2   -1    0    0  501    0  0.00000000000E+00  0.00000000000E+00  0.27573831982E+04  0.27573831982E+04  0.00000000000E+00 0. -1.
         -1   -1    0    0    0  501 -0.00000000000E+00 -0.00000000000E+00 -0.26524786008E+03  0.26524786008E+03  0.00000000000E+00 0.  1.
         24    2    1    2    0    0 -0.15832153895E+03 -0.17873972465E+03  0.18758562873E+04  0.18926994866E+04  0.80379956548E+02 0.  0.
        254    2    1    2    0    0  0.15832153895E+03  0.17873972465E+03  0.61627905085E+03  0.11299315716E+04  0.91647798074E+03 0.  0.
         23    2    4    4    0    0  0.67358011834E+02 -0.76448525856E+02 -0.21310330078E+03  0.25267918626E+03  0.89734472226E+02 0.  0.
         23    2    4    4    0    0  0.90963527121E+02  0.25518825051E+03  0.82938235163E+03  0.87725238537E+03  0.91111228570E+02 0.  0.
          4    1    3    3  502    0 -0.19045633711E+02 -0.52329414395E+02  0.66431646149E+03  0.66664643161E+03  0.00000000000E+00 0. -1.
         -3    1    3    3    0  502 -0.13927590524E+03 -0.12641031026E+03  0.12115398258E+04  0.12260530550E+04  0.00000000000E+00 0.  1.
         13    1    5    5    0    0  0.42473799579E+02 -0.80035914078E+02 -0.20820323806E+03  0.22706465936E+03  0.00000000000E+00 0. -1.
        -13    1    5    5    0    0  0.24884212255E+02  0.35873882220E+01 -0.49000627173E+01  0.25614526902E+02  0.00000000000E+00 0.  1.
          3    1    6    6  503    0  0.10042494453E+03  0.15425863937E+03  0.55633599588E+03  0.58599542457E+03  0.00000000000E+00 0. -1.
         -3    1    6    6    0  503 -0.94614174125E+01  0.10092961114E+03  0.27304635575E+03  0.29125696080E+03  0.00000000000E+00 0.  1.
<mgrwt>
<rscale>  0 0.17104268E+04</rscale>
<asrwt>0</asrwt>
<pdfrwt beam="1">  1        2 0.42421278E+00 0.17104268E+04</pdfrwt>
<pdfrwt beam="2">  1       -1 0.40807365E-01 0.17104268E+04</pdfrwt>
<totfact> 0.15641925E+01</totfact>
</mgrwt>
</event>
<event>
12    7  0.1625631E-007  0.1406192E+04  0.7818608E-02  0.8949349E-01
          2   -1    0    0  501    0  0.00000000000E+00  0.00000000000E+00  0.36147119131E+03  0.36147119131E+03  0.00000000000E+00 0. -1.
         -1   -1    0    0    0  501 -0.00000000000E+00 -0.00000000000E+00 -0.13675886683E+04  0.13675886683E+04  0.00000000000E+00 0.  1.
         24    2    1    2    0    0 -0.22654816216E+03  0.28687691166E+03 -0.40747886878E+03  0.55311137976E+03  0.79187989581E+02 0.  0.
        254    2    1    2    0    0  0.22654816216E+03 -0.28687691166E+03 -0.59863860824E+03  0.11759484799E+04  0.94385603342E+03 0.  0.
         23    2    4    4    0    0  0.45331589807E+03 -0.13457104799E+03 -0.71798844332E+03  0.86428835202E+03  0.88782207178E+02 0.  0.
         23    2    4    4    0    0 -0.22676773590E+03 -0.15230586367E+03  0.11934983508E+03  0.31166012785E+03  0.90922879422E+02 0.  0.
          4    1    3    3  502    0 -0.10712498276E+03  0.92966254135E+02 -0.11611767414E+03  0.18330793924E+03  0.00000000000E+00 0. -1.
         -3    1    3    3    0  502 -0.11942317940E+03  0.19391065753E+03 -0.29136119464E+03  0.36980344052E+03  0.00000000000E+00 0.  1.
         13    1    5    5    0    0  0.20175977423E+03 -0.88034700595E+02 -0.39569532996E+03  0.45280449331E+03  0.00000000000E+00 0. -1.
        -13    1    5    5    0    0  0.25155612383E+03 -0.46536347394E+02 -0.32229311336E+03  0.41148385872E+03  0.00000000000E+00 0.  1.
          3    1    6    6  503    0  0.67319541883E+01 -0.14479684773E+02  0.15813154260E+01  0.16046215654E+02  0.00000000000E+00 0. -1.
         -3    1    6    6    0  503 -0.23349969009E+03 -0.13782617890E+03  0.11776851965E+03  0.29561391220E+03  0.00000000000E+00 0.  1.
<mgrwt>
<rscale>  0 0.14061919E+04</rscale>
<asrwt>0</asrwt>
<pdfrwt beam="1">  1        2 0.55610953E-01 0.14061919E+04</pdfrwt>
<pdfrwt beam="2">  1       -1 0.21039825E+00 0.14061919E+04</pdfrwt>
<totfact> 0.12680270E+01</totfact>
</mgrwt>
</event>
<event>
12    7  0.1625631E-007  0.1222401E+04  0.7818608E-02  0.9093472E-01
          2   -1    0    0  501    0  0.00000000000E+00  0.00000000000E+00  0.13243777772E+04  0.13243777772E+04  0.00000000000E+00 0. -1.
         -1   -1    0    0    0  501 -0.00000000000E+00 -0.00000000000E+00 -0.28206912211E+03  0.28206912211E+03  0.00000000000E+00 0.  1.
         24    2    1    2    0    0  0.11642373724E+03  0.18421263561E+03  0.46957954905E+03  0.52379833104E+03  0.79818274815E+02 0.  0.
        254    2    1    2    0    0 -0.11642373724E+03 -0.18421263561E+03  0.57272910606E+03  0.10826485683E+04  0.89253600029E+03 0.  0.
         23    2    4    4    0    0  0.28702587187E+03 -0.67648959435E+02  0.57539911324E+03  0.65291394582E+03  0.90841886218E+02 0.  0.
         23    2    4    4    0    0 -0.40344960910E+03 -0.11656367618E+03 -0.26700071843E+01  0.42973462248E+03  0.91137473814E+02 0.  0.
          2    1    3    3  502    0  0.95471624015E+02  0.11502941471E+03  0.38219977465E+03  0.41039403625E+03  0.00000000000E+00 0. -1.
         -1    1    3    3    0  502  0.20952113222E+02  0.69183220898E+02  0.87379774401E+02  0.11340429479E+03  0.00000000000E+00 0.  1.
         13    1    5    5    0    0  0.55195386770E+02 -0.42663724065E+02  0.85459832869E+02  0.11031820841E+03  0.00000000000E+00 0. -1.
        -13    1    5    5    0    0  0.23183048509E+03 -0.24985235369E+02  0.48993928037E+03  0.54259573741E+03  0.00000000000E+00 0.  1.
          4    1    6    6  503    0 -0.23334599880E+03 -0.11030233042E+03 -0.18600529948E+02  0.25877198257E+03  0.00000000000E+00 0.  1.
         -4    1    6    6    0  503 -0.17010361031E+03 -0.62613457600E+01  0.15930522764E+02  0.17096263991E+03  0.00000000000E+00 0. -1.
<mgrwt>
<rscale>  0 0.12224010E+04</rscale>
<asrwt>0</asrwt>
<pdfrwt beam="1">  1        2 0.20375042E+00 0.12224010E+04</pdfrwt>
<pdfrwt beam="2">  1       -1 0.43395250E-01 0.12224010E+04</pdfrwt>
<totfact> 0.94113567E+01</totfact>
</mgrwt>
</event>
<event>
12    7  0.1625631E-007  0.1978581E+04  0.7818608E-02  0.8616700E-01
         -1   -1    0    0    0  501 -0.00000000000E+00  0.00000000000E+00  0.54800663799E+03  0.54800663799E+03  0.00000000000E+00 0.  1.
          2   -1    0    0  501    0  0.00000000000E+00 -0.00000000000E+00 -0.17859202146E+04  0.17859202146E+04  0.00000000000E+00 0. -1.
         24    2    1    2    0    0  0.79575392477E+03 -0.11092881530E+02 -0.49740591322E+03  0.94186725287E+03  0.79711471695E+02 0.  0.
        254    2    1    2    0    0 -0.79575392477E+03  0.11092881530E+02 -0.74050766342E+03  0.13920595998E+04  0.86955791576E+03 0.  0.
         23    2    4    4    0    0 -0.86067823114E+03 -0.29166002755E+01 -0.86692235728E+03  0.12251499129E+04  0.93072076504E+02 0.  0.
         23    2    4    4    0    0  0.64924306373E+02  0.14009481806E+02  0.12641469386E+03  0.16690968684E+03  0.86410286416E+02 0.  0.
          2    1    3    3  502    0  0.65374475398E+03 -0.11272005210E+02 -0.44304484463E+03  0.78980883498E+03  0.00000000000E+00 0. -1.
         -1    1    3    3    0  502  0.14200917079E+03  0.17912367985E+00 -0.54361068586E+02  0.15205841789E+03  0.00000000000E+00 0.  1.
         13    1    5    5    0    0 -0.65755498690E+03  0.36252300757E+02 -0.67288711204E+03  0.94152528147E+03  0.00000000000E+00 0. -1.
        -13    1    5    5    0    0 -0.20312324424E+03 -0.39168901033E+02 -0.19403524525E+03  0.28362463144E+03  0.00000000000E+00 0.  1.
          2    1    6    6  503    0  0.75340054102E+02 -0.11489905394E+02  0.11293371305E+03  0.13624303734E+03  0.00000000000E+00 0. -1.
         -2    1    6    6    0  503 -0.10415747729E+02  0.25499387200E+02  0.13480980808E+02  0.30666649505E+02  0.00000000000E+00 0.  1.
<mgrwt>
<rscale>  0 0.19785814E+04</rscale>
<asrwt>0</asrwt>
<pdfrwt beam="1">  1        2 0.27475696E+00 0.19785814E+04</pdfrwt>
<pdfrwt beam="2">  1       -1 0.84308713E-01 0.19785814E+04</pdfrwt>
<totfact> 0.12975553E+01</totfact>
</mgrwt>
</event>
<event>
12    7  0.1625631E-007  0.1865011E+04  0.7818608E-02  0.8672471E-01
         -1   -1    0    0    0  501 -0.00000000000E+00  0.00000000000E+00  0.10750048369E+04  0.10750048369E+04  0.00000000000E+00 0.  1.
          2   -1    0    0  501    0  0.00000000000E+00 -0.00000000000E+00 -0.80889547231E+03  0.80889547231E+03  0.00000000000E+00 0. -1.
         24    2    1    2    0    0 -0.26008618954E+03  0.63969960868E+03 -0.74867823514E+02  0.69924530423E+03  0.80488441122E+02 0.  0.
        254    2    1    2    0    0  0.26008618954E+03 -0.63969960868E+03  0.34097718814E+03  0.11846550050E+04  0.90015644350E+03 0.  0.
         23    2    4    4    0    0 -0.28982946108E+03 -0.45162448673E+03  0.13051457297E+03  0.55992295548E+03  0.92270627992E+02 0.  0.
         23    2    4    4    0    0  0.54991565062E+03 -0.18807512195E+03  0.21046261516E+03  0.62473204955E+03  0.90642964764E+02 0.  0.
          4    1    3    3  502    0 -0.63373675761E+02  0.19461485081E+03 -0.56293902962E+02  0.21227380066E+03  0.00000000000E+00 0. -1.
         -3    1    3    3    0  502 -0.19671251378E+03  0.44508475786E+03 -0.18573920552E+02  0.48697150356E+03  0.00000000000E+00 0.  1.
         13    1    5    5    0    0 -0.32399884345E+02 -0.11118995511E+02  0.66999845551E+01  0.34903787184E+02  0.00000000000E+00 0. -1.
        -13    1    5    5    0    0 -0.25742957673E+03 -0.44050549122E+03  0.12381458842E+03  0.52501916829E+03  0.00000000000E+00 0.  1.
          4    1    6    6  503    0  0.57306501146E+02 -0.48642080147E+02  0.14533946901E+02  0.76559275383E+02  0.00000000000E+00 0. -1.
         -4    1    6    6    0  503  0.49260914947E+03 -0.13943304180E+03  0.19592866826E+03  0.54817277417E+03  0.00000000000E+00 0.  1.
<mgrwt>
<rscale>  0 0.18650110E+04</rscale>
<asrwt>0</asrwt>
<pdfrwt beam="1">  1        2 0.12444546E+00 0.18650110E+04</pdfrwt>
<pdfrwt beam="2">  1       -1 0.16538536E+00 0.18650110E+04</pdfrwt>
<totfact> 0.96859537E+00</totfact>
</mgrwt>
</event>
<event>
12    7  0.1625631E-007  0.2284843E+04  0.7818608E-02  0.8483921E-01
          2   -1    0    0  501    0  0.00000000000E+00  0.00000000000E+00  0.26976275747E+04  0.26976275747E+04  0.00000000000E+00 0. -1.
         -1   -1    0    0    0  501 -0.00000000000E+00 -0.00000000000E+00 -0.48380544492E+03  0.48380544492E+03  0.00000000000E+00 0.  1.
         24    2    1    2    0    0  0.13623132443E+03 -0.32071128412E+03  0.21843825317E+04  0.22134556651E+04  0.80275993098E+02 0.  0.
        254    2    1    2    0    0 -0.13623132443E+03  0.32071128412E+03  0.29439598067E+02  0.96797735450E+03  0.90260665152E+03 0.  0.
         23    2    4    4    0    0 -0.19665211383E+03  0.48925508645E+02  0.42299470889E+03  0.47745244765E+03  0.89277974604E+02 0.  0.
         23    2    4    4    0    0  0.60420789401E+02  0.27178577547E+03 -0.39355511083E+03  0.49052490685E+03  0.90613903117E+02 0.  0.
          2    1    3    3  502    0  0.73370446797E+02 -0.19185811555E+03  0.15172937572E+04  0.15311345808E+04  0.00000000000E+00 0. -1.
         -1    1    3    3    0  502  0.62860877632E+02 -0.12885316856E+03  0.66708877459E+03  0.68232108436E+03  0.00000000000E+00 0.  1.
         13    1    5    5    0    0 -0.76156666291E+02 -0.18795734807E+02  0.20312393061E+03  0.21774399797E+03  0.00000000000E+00 0. -1.
        -13    1    5    5    0    0 -0.12049544754E+03  0.67721243453E+02  0.21987077829E+03  0.25970844968E+03  0.00000000000E+00 0.  1.
          1    1    6    6  503    0  0.47175979787E+01  0.32138403982E+02 -0.84987359272E+01  0.33576200702E+02  0.00000000000E+00 0. -1.
         -1    1    6    6    0  503  0.55703191422E+02  0.23964737149E+03 -0.38505637490E+03  0.45694870614E+03  0.00000000000E+00 0.  1.
<mgrwt>
<rscale>  0 0.22848430E+04</rscale>
<asrwt>0</asrwt>
<pdfrwt beam="1">  1        2 0.41501962E+00 0.22848430E+04</pdfrwt>
<pdfrwt beam="2">  1       -1 0.74431608E-01 0.22848430E+04</pdfrwt>
<totfact> 0.49994674E+00</totfact>
</mgrwt>
</event>
<event>
12    7  0.1625631E-007  0.1668444E+04  0.7818608E-02  0.8779569E-01
          2   -1    0    0  501    0  0.00000000000E+00  0.00000000000E+00  0.16012341229E+04  0.16012341229E+04  0.00000000000E+00 0. -1.
         -1   -1    0    0    0  501 -0.00000000000E+00 -0.00000000000E+00 -0.43461865454E+03  0.43461865454E+03  0.00000000000E+00 0.  1.
         24    2    1    2    0    0  0.34730744893E+03 -0.45814707246E+03  0.63325019216E+03  0.85906787872E+03  0.80440103718E+02 0.  0.
        254    2    1    2    0    0 -0.34730744893E+03  0.45814707246E+03  0.53336527623E+03  0.11767848988E+04  0.87739556415E+03 0.  0.
         23    2    4    4    0    0 -0.49246582797E+02  0.15882462534E+03 -0.23175147851E+03  0.29837580695E+03  0.87572180799E+02 0.  0.
         23    2    4    4    0    0 -0.29806086613E+03  0.29932244711E+03  0.76511675474E+03  0.87840909181E+03  0.88117404203E+02 0.  0.
          4    1    3    3  502    0  0.32981368100E+03 -0.41444659699E+03  0.60531212049E+03  0.80432941581E+03  0.00000000000E+00 0. -1.
         -3    1    3    3    0  502  0.17493767934E+02 -0.43700475462E+02  0.27938071674E+02  0.54738462903E+02  0.00000000000E+00 0.  1.
         13    1    5    5    0    0  0.22628108340E+02  0.52818812471E+02 -0.94907217788E+02  0.11094700639E+03  0.00000000000E+00 0.  1.
        -13    1    5    5    0    0 -0.71874691137E+02  0.10600581287E+03 -0.13684426072E+03  0.18742880057E+03  0.00000000000E+00 0. -1.
          3    1    6    6  503    0 -0.17057677912E+03  0.22206048923E+03  0.54230581785E+03  0.61033015535E+03  0.00000000000E+00 0. -1.
         -3    1    6    6    0  503 -0.12748408701E+03  0.77261957884E+02  0.22281093689E+03  0.26807893646E+03  0.00000000000E+00 0.  1.
<mgrwt>
<rscale>  0 0.16684438E+04</rscale>
<asrwt>0</asrwt>
<pdfrwt beam="1">  1        2 0.24634371E+00 0.16684438E+04</pdfrwt>
<pdfrwt beam="2">  1       -1 0.66864409E-01 0.16684438E+04</pdfrwt>
<totfact> 0.27418843E+01</totfact>
</mgrwt>
</event>
<event>
12    7  0.1625631E-007  0.1212621E+04  0.7818608E-02  0.9101881E-01
         -1   -1    0    0    0  501 -0.00000000000E+00  0.00000000000E+00  0.54044530722E+03  0.54044530722E+03  0.00000000000E+00 0.  1.
          2   -1    0    0  501    0  0.00000000000E+00 -0.00000000000E+00 -0.68020277967E+03  0.68020277967E+03  0.00000000000E+00 0. -1.
         24    2    1    2    0    0 -0.26044299360E+02  0.12202358142E+03  0.19223543640E+03  0.24221576690E+03  0.78396140046E+02 0.  0.
        254    2    1    2    0    0  0.26044299360E+02 -0.12202358142E+03 -0.33199290886E+03  0.97843231999E+03  0.91188949622E+03 0.  0.
         23    2    4    4    0    0  0.40127874663E+03 -0.20069458703E+03 -0.36053246940E+03  0.58264164665E+03  0.90469205565E+02 0.  0.
         23    2    4    4    0    0 -0.37523444727E+03  0.78671005617E+02  0.28539560546E+02  0.39579067334E+03  0.94051757246E+02 0.  0.
          2    1    3    3  502    0  0.55351164503E+01 -0.96934622868E+01  0.89254065827E+01  0.14292082000E+02  0.00000000000E+00 0. -1.
         -1    1    3    3    0  502 -0.31579415811E+02  0.13171704370E+03  0.18331002982E+03  0.22792368490E+03  0.00000000000E+00 0.  1.
         13    1    5    5    0    0  0.31530743310E+03 -0.19550150682E+03 -0.30371964115E+03  0.47946348866E+03  0.00000000000E+00 0. -1.
        -13    1    5    5    0    0  0.85971313532E+02 -0.51930802139E+01 -0.56812828252E+02  0.10317815799E+03  0.00000000000E+00 0.  1.
          1    1    6    6  503    0 -0.22681334600E+03  0.81466059632E+02  0.49026651729E+02  0.24593622217E+03  0.00000000000E+00 0. -1.
         -1    1    6    6    0  503 -0.14842110127E+03 -0.27950540158E+01 -0.20487091183E+02  0.14985445116E+03  0.00000000000E+00 0.  1.
<mgrwt>
<rscale>  0 0.12126210E+04</rscale>
<asrwt>0</asrwt>
<pdfrwt beam="1">  1        2 0.10464658E+00 0.12126210E+04</pdfrwt>
<pdfrwt beam="2">  1       -1 0.83145432E-01 0.12126210E+04</pdfrwt>
<totfact> 0.68747854E+01</totfact>
</mgrwt>
</event>
<event>
12    7  0.1625631E-007  0.2192359E+04  0.7818608E-02  0.8521615E-01
          2   -1    0    0  501    0  0.00000000000E+00  0.00000000000E+00  0.10879639469E+04  0.10879639469E+04  0.00000000000E+00 0. -1.
         -1   -1    0    0    0  501 -0.00000000000E+00 -0.00000000000E+00 -0.11044574925E+04  0.11044574925E+04  0.00000000000E+00 0.  1.
         24    2    1    2    0    0  0.47229922805E+03  0.52725283756E+03  0.56181099902E+03  0.90724647887E+03  0.80015368968E+02 0.  0.
        254    2    1    2    0    0 -0.47229922805E+03 -0.52725283756E+03 -0.57830454467E+03  0.12851749606E+04  0.90342482660E+03 0.  0.
         23    2    4    4    0    0  0.77384340367E+02 -0.39505456033E+03  0.70976635761E+02  0.41915336192E+03  0.92711467541E+02 0.  0.
         23    2    4    4    0    0 -0.54968356842E+03 -0.13219827723E+03 -0.64928118043E+03  0.86602159864E+03  0.93802708628E+02 0.  0.
          4    1    3    3  502    0  0.44069973267E+03  0.50743285013E+03  0.51138086678E+03  0.84452042170E+03  0.00000000000E+00 0. -1.
         -3    1    3    3    0  502  0.31599495383E+02  0.19819987433E+02  0.50430132240E+02  0.62726057170E+02  0.00000000000E+00 0.  1.
         13    1    5    5    0    0  0.11746908185E+01 -0.23450958759E+03  0.53844543415E+02  0.24061454949E+03  0.00000000000E+00 0.  1.
        -13    1    5    5    0    0  0.76209649549E+02 -0.16054497275E+03  0.17132092346E+02  0.17853881244E+03  0.00000000000E+00 0. -1.
          1    1    6    6  503    0 -0.51330471844E+03 -0.13499972602E+03 -0.57058080017E+03  0.77927473302E+03  0.00000000000E+00 0. -1.
         -1    1    6    6    0  503 -0.36378849985E+02  0.28014487925E+01 -0.78700380259E+02  0.86746865618E+02  0.00000000000E+00 0.  1.
<mgrwt>
<rscale>  0 0.21923594E+04</rscale>
<asrwt>0</asrwt>
<pdfrwt beam="1">  1        2 0.16737907E+00 0.21923594E+04</pdfrwt>
<pdfrwt beam="2">  1       -1 0.16991654E+00 0.21923594E+04</pdfrwt>
<totfact> 0.56957749E+00</totfact>
</mgrwt>
</event>
<event>
12    7  0.1625631E-007  0.1840491E+04  0.7818608E-02  0.8685058E-01
          2   -1    0    0  501    0  0.00000000000E+00  0.00000000000E+00  0.10290369553E+04  0.10290369553E+04  0.00000000000E+00 0. -1.
         -1   -1    0    0    0  501 -0.00000000000E+00 -0.00000000000E+00 -0.82295570057E+03  0.82295570057E+03  0.00000000000E+00 0.  1.
         24    2    1    2    0    0 -0.47135707144E+03 -0.25261573623E+03  0.52981696435E+03  0.75706121658E+03  0.80271233715E+02 0.  0.
        254    2    1    2    0    0  0.47135707144E+03  0.25261573623E+03 -0.32373570964E+03  0.10949314393E+04  0.89893150351E+03 0.  0.
         23    2    4    4    0    0  0.51950266488E+02 -0.31632670075E+03 -0.10321501402E+03  0.34911777660E+03  0.92024295814E+02 0.  0.
         23    2    4    4    0    0  0.41940680495E+03  0.56894243698E+03 -0.22052069562E+03  0.74581366266E+03  0.89504623238E+02 0.  0.
          4    1    3    3  502    0 -0.42833557181E+03 -0.20014212192E+03  0.46873173178E+03  0.66576096868E+03  0.00000000000E+00 0. -1.
         -3    1    3    3    0  502 -0.43021499624E+02 -0.52473614312E+02  0.61085232570E+02  0.91300247902E+02  0.00000000000E+00 0.  1.
         13    1    5    5    0    0  0.36665383018E+02 -0.31683663640E+02 -0.14940504449E+02  0.50709205542E+02  0.00000000000E+00 0. -1.
        -13    1    5    5    0    0  0.15284883470E+02 -0.28464303711E+03 -0.88274509568E+02  0.29840857106E+03  0.00000000000E+00 0.  1.
          4    1    6    6  503    0 -0.13288930178E+01  0.50375793522E+01 -0.10248205237E+02  0.11496472197E+02  0.00000000000E+00 0. -1.
         -4    1    6    6    0  503  0.42073569797E+03  0.56390485763E+03 -0.21027249038E+03  0.73431719047E+03  0.00000000000E+00 0.  1.
<mgrwt>
<rscale>  0 0.18404911E+04</rscale>
<asrwt>0</asrwt>
<pdfrwt beam="1">  1        2 0.15831338E+00 0.18404911E+04</pdfrwt>
<pdfrwt beam="2">  1       -1 0.12660857E+00 0.18404911E+04</pdfrwt>
<totfact> 0.14044224E+01</totfact>
</mgrwt>
</event>
<event>
12    7  0.1625631E-007  0.1056646E+04  0.7818608E-02  0.9248509E-01
          2   -1    0    0  501    0  0.00000000000E+00  0.00000000000E+00  0.37861642749E+03  0.37861642749E+03  0.00000000000E+00 0. -1.
         -1   -1    0    0    0  501 -0.00000000000E+00 -0.00000000000E+00 -0.73722446901E+03  0.73722446901E+03  0.00000000000E+00 0.  1.
         24    2    1    2    0    0 -0.68146428701E+01 -0.96575357834E+02  0.49596356314E+02  0.13561318150E+03  0.80980845498E+02 0.  0.
        254    2    1    2    0    0  0.68146428701E+01  0.96575357834E+02 -0.40820439783E+03  0.98022771501E+03  0.88591325973E+03 0.  0.
         23    2    4    4    0    0  0.29903224870E+02  0.19395042803E+03  0.23677583158E+03  0.32043288505E+03  0.90019264650E+02 0.  0.
         23    2    4    4    0    0 -0.23088581999E+02 -0.97375070199E+02 -0.64498022941E+03  0.65979482996E+03  0.96512871676E+02 0.  0.
          2    1    3    3  502    0 -0.22797414315E+02 -0.58861276373E+02  0.66149662887E+02  0.91433855086E+02  0.00000000000E+00 0. -1.
         -1    1    3    3    0  502  0.15982771445E+02 -0.37714081461E+02 -0.16553306573E+02  0.44179326410E+02  0.00000000000E+00 0.  1.
         13    1    5    5    0    0  0.36250341346E+02  0.69021227872E+02  0.14722259691E+03  0.16659084664E+03  0.00000000000E+00 0.  1.
        -13    1    5    5    0    0 -0.63471164763E+01  0.12492920016E+03  0.89553234667E+02  0.15384203840E+03  0.00000000000E+00 0. -1.
          4    1    6    6  503    0  0.23738742202E+02 -0.79187260208E+02 -0.30022250925E+03  0.31139637943E+03  0.00000000000E+00 0. -1.
         -4    1    6    6    0  503 -0.46827324202E+02 -0.18187809992E+02 -0.34475772016E+03  0.34839845053E+03  0.00000000000E+00 0.  1.
<mgrwt>
<rscale>  0 0.10566462E+04</rscale>
<asrwt>0</asrwt>
<pdfrwt beam="1">  1        2 0.58248682E-01 0.10566462E+04</pdfrwt>
<pdfrwt beam="2">  1       -1 0.11341915E+00 0.10566462E+04</pdfrwt>
<totfact> 0.68440360E+01</totfact>
</mgrwt>
</event>
<event>
12    7  0.1625631E-007  0.2921785E+04  0.7818608E-02  0.8266425E-01
         -1   -1    0    0    0  501 -0.00000000000E+00  0.00000000000E+00  0.82874615282E+03  0.82874615282E+03  0.00000000000E+00 0.  1.
          2   -1    0    0  501    0  0.00000000000E+00 -0.00000000000E+00 -0.25752237141E+04  0.25752237141E+04  0.00000000000E+00 0. -1.
         24    2    1    2    0    0  0.10444640611E+04 -0.79646724800E+03 -0.97353060547E+03  0.16367226451E+04  0.76380135500E+02 0.  0.
        254    2    1    2    0    0 -0.10444640611E+04  0.79646724800E+03 -0.77294695579E+03  0.17672472218E+04  0.89467898956E+03 0.  0.
         23    2    4    4    0    0 -0.92548679181E+02 -0.89231802381E+02  0.11404827509E+03  0.19122063014E+03  0.83849554360E+02 0.  0.
         23    2    4    4    0    0 -0.95191538194E+03  0.88569905038E+03 -0.88699523089E+03  0.15760265916E+04  0.80582726151E+02 0.  0.
          2    1    3    3  502    0  0.85867358895E+03 -0.67314044130E+03 -0.83824763204E+03  0.13758987894E+04  0.00000000000E+00 0. -1.
         -1    1    3    3    0  502  0.18579047217E+03 -0.12332680670E+03 -0.13528297343E+03  0.26082385570E+03  0.00000000000E+00 0.  1.
         13    1    5    5    0    0 -0.10818508635E+03 -0.70714213725E+02  0.96596922766E+02  0.16135513137E+03  0.00000000000E+00 0.  1.
        -13    1    5    5    0    0  0.15636407172E+02 -0.18517588656E+02  0.17451352328E+02  0.29865498773E+02  0.00000000000E+00 0. -1.
          2    1    6    6  503    0 -0.20720599392E+03  0.18868587111E+03 -0.15217481415E+03  0.31889474116E+03  0.00000000000E+00 0. -1.
         -2    1    6    6    0  503 -0.74470938802E+03  0.69701317926E+03 -0.73482041674E+03  0.12571318505E+04  0.00000000000E+00 0.  1.
<mgrwt>
<rscale>  0 0.29217849E+04</rscale>
<asrwt>0</asrwt>
<pdfrwt beam="1">  1        2 0.39618826E+00 0.29217849E+04</pdfrwt>
<pdfrwt beam="2">  1       -1 0.12749941E+00 0.29217849E+04</pdfrwt>
<totfact> 0.16406687E+00</totfact>
</mgrwt>
</event>
<event>
12    7  0.1625631E-007  0.1813050E+04  0.7818608E-02  0.8699390E-01
          2   -1    0    0  501    0  0.00000000000E+00  0.00000000000E+00  0.16089789345E+04  0.16089789345E+04  0.00000000000E+00 0. -1.
         -1   -1    0    0    0  501 -0.00000000000E+00 -0.00000000000E+00 -0.51075074171E+03  0.51075074171E+03  0.00000000000E+00 0.  1.
         24    2    1    2    0    0  0.23133255015E+03 -0.56283772787E+03  0.81645601634E+02  0.61909468760E+03  0.79442880628E+02 0.  0.
        254    2    1    2    0    0 -0.23133255015E+03  0.56283772787E+03  0.10165825912E+04  0.15006349886E+04  0.92095827687E+03 0.  0.
         23    2    4    4    0    0  0.25785232097E+02  0.32717671437E+03  0.10843735862E+04  0.11362196493E+04  0.86136731805E+02 0.  0.
         23    2    4    4    0    0 -0.25711778224E+03  0.23566101350E+03 -0.67790994969E+02  0.36441533930E+03  0.80976868829E+02 0.  0.
          2    1    3    3  502    0  0.37493686260E+02 -0.12714116071E+03  0.48227761455E+02  0.14105519569E+03  0.00000000000E+00 0. -1.
         -1    1    3    3    0  502  0.19383886389E+03 -0.43569656715E+03  0.33417840179E+02  0.47803949191E+03  0.00000000000E+00 0.  1.
         13    1    5    5    0    0 -0.21259385738E+02  0.79992361833E+02  0.35986162064E+03  0.36925753268E+03  0.00000000000E+00 0. -1.
        -13    1    5    5    0    0  0.47044617835E+02  0.24718435253E+03  0.72451196552E+03  0.76696211666E+03  0.00000000000E+00 0.  1.
          4    1    6    6  503    0 -0.44874797542E+02  0.77312428194E+01  0.63556176428E+00  0.45540350336E+02  0.00000000000E+00 0. -1.
         -4    1    6    6    0  503 -0.21224298470E+03  0.22792977068E+03 -0.68426556733E+02  0.31887498896E+03  0.00000000000E+00 0.  1.
<mgrwt>
<rscale>  0 0.18130496E+04</rscale>
<asrwt>0</asrwt>
<pdfrwt beam="1">  1        2 0.24753522E+00 0.18130496E+04</pdfrwt>
<pdfrwt beam="2">  1       -1 0.78577038E-01 0.18130496E+04</pdfrwt>
<totfact> 0.19193582E+01</totfact>
</mgrwt>
</event>
<event>
12    7  0.1625631E-007  0.2202615E+04  0.7818608E-02  0.8517341E-01
         -1   -1    0    0    0  501 -0.00000000000E+00  0.00000000000E+00  0.83959390979E+03  0.83959390979E+03  0.00000000000E+00 0.  1.
          2   -1    0    0  501    0  0.00000000000E+00 -0.00000000000E+00 -0.14446007615E+04  0.14446007615E+04  0.00000000000E+00 0. -1.
         24    2    1    2    0    0 -0.84400477782E+03 -0.23872158973E+03 -0.50813892970E+03  0.10173905671E+04  0.86869625258E+02 0.  0.
        254    2    1    2    0    0  0.84400477782E+03  0.23872158973E+03 -0.96867922017E+02  0.12668041042E+04  0.90888788179E+03 0.  0.
         23    2    4    4    0    0  0.60744600125E+03  0.36046522933E+03  0.30624382517E+03  0.77524319286E+03  0.91054388326E+02 0.  0.
         23    2    4    4    0    0  0.23655877657E+03 -0.12174363960E+03 -0.40311174719E+03  0.49156091132E+03  0.91386433706E+02 0.  0.
          2    1    3    3  502    0 -0.81114554775E+03 -0.23996974303E+03 -0.47256962654E+03  0.96895027175E+03  0.00000000000E+00 0. -1.
         -1    1    3    3    0  502 -0.32859230075E+02  0.12481533050E+01 -0.35569303154E+02  0.48440295361E+02  0.00000000000E+00 0.  1.
         13    1    5    5    0    0  0.52910408982E+03  0.29071552194E+03  0.23209131735E+03  0.64678669757E+03  0.00000000000E+00 0. -1.
        -13    1    5    5    0    0  0.78341911432E+02  0.69749707383E+02  0.74152507821E+02  0.12845649529E+03  0.00000000000E+00 0.  1.
          2    1    6    6  503    0  0.22662690513E+03 -0.12987720301E+03 -0.34885923980E+03  0.43581029265E+03  0.00000000000E+00 0. -1.
         -2    1    6    6    0  503  0.99318714435E+01  0.81335634141E+01 -0.54252507386E+02  0.55750618667E+02  0.00000000000E+00 0.  1.
<mgrwt>
<rscale>  0 0.22026148E+04</rscale>
<asrwt>0</asrwt>
<pdfrwt beam="1">  1        2 0.22224627E+00 0.22026148E+04</pdfrwt>
<pdfrwt beam="2">  1       -1 0.12916830E+00 0.22026148E+04</pdfrwt>
<totfact> 0.73238865E+00</totfact>
</mgrwt>
</event>
<event>
12    7  0.1625631E-007  0.1282613E+04  0.7818608E-02  0.9043468E-01
         -1   -1    0    0    0  501 -0.00000000000E+00  0.00000000000E+00  0.37613050252E+03  0.37613050252E+03  0.00000000000E+00 0.  1.
          2   -1    0    0  501    0  0.00000000000E+00 -0.00000000000E+00 -0.10934335883E+04  0.10934335883E+04  0.00000000000E+00 0. -1.
         24    2    1    2    0    0 -0.26736410875E+02  0.86749749994E+02  0.18106813745E+03  0.21789831836E+03  0.80334624871E+02 0.  0.
        254    2    1    2    0    0  0.26736410875E+02 -0.86749749994E+02 -0.89837122321E+03  0.12516657725E+04  0.86680793515E+03 0.  0.
         23    2    4    4    0    0  0.10202206410E+03  0.26701398121E+03 -0.81620018212E+03  0.86956585012E+03  0.90868381093E+02 0.  0.
         23    2    4    4    0    0 -0.75285653220E+02 -0.35376373121E+03 -0.82171041092E+02  0.38209992233E+03  0.91823545755E+02 0.  0.
          4    1    3    3  502    0  0.17751754999E+02  0.72200276650E+02  0.10771838284E+03  0.13088641929E+03  0.00000000000E+00 0. -1.
         -3    1    3    3    0  502 -0.44488165874E+02  0.14549473344E+02  0.73349754610E+02  0.87011899064E+02  0.00000000000E+00 0.  1.
         13    1    5    5    0    0  0.31992024879E+01 -0.71999306244E+01 -0.31776605399E+02  0.32738762167E+02  0.00000000000E+00 0. -1.
        -13    1    5    5    0    0  0.98822861607E+02  0.27421391184E+03 -0.78442357672E+03  0.83682708795E+03  0.00000000000E+00 0.  1.
          2    1    6    6  503    0  0.13704832096E+02 -0.48156648407E+02 -0.33146657236E+02  0.60046532743E+02  0.00000000000E+00 0. -1.
         -2    1    6    6    0  503 -0.88990485316E+02 -0.30560708280E+03 -0.49024383856E+02  0.32205338959E+03  0.00000000000E+00 0.  1.
<mgrwt>
<rscale>  0 0.12826125E+04</rscale>
<asrwt>0</asrwt>
<pdfrwt beam="1">  1        2 0.16822055E+00 0.12826125E+04</pdfrwt>
<pdfrwt beam="2">  1       -1 0.57866232E-01 0.12826125E+04</pdfrwt>
<totfact> 0.74452246E+01</totfact>
</mgrwt>
</event>
<event>
12    7  0.1625631E-007  0.2052211E+04  0.7818608E-02  0.8582592E-01
          2   -1    0    0  501    0  0.00000000000E+00  0.00000000000E+00  0.77780205251E+03  0.77780205251E+03  0.00000000000E+00 0. -1.
         -1   -1    0    0    0  501 -0.00000000000E+00 -0.00000000000E+00 -0.13536763611E+04  0.13536763611E+04  0.00000000000E+00 0.  1.
         24    2    1    2    0    0  0.42612054363E+02 -0.30641695925E+03 -0.10271047317E+04  0.10757828705E+04  0.81593592343E+02 0.  0.
        254    2    1    2    0    0 -0.42612054363E+02  0.30641695925E+03  0.45123042310E+03  0.10556955432E+04  0.90287155514E+03 0.  0.
         23    2    4    4    0    0 -0.36804002695E+02 -0.24583202756E+03 -0.87240099250E+02  0.27897832224E+03  0.91815842703E+02 0.  0.
         23    2    4    4    0    0 -0.58080516674E+01  0.55224898681E+03  0.53847052235E+03  0.77671722096E+03  0.91249443764E+02 0.  0.
          4    1    3    3  502    0  0.18215828387E+02 -0.14812299053E+02 -0.41786288688E+02  0.47930309089E+02  0.00000000000E+00 0. -1.
         -3    1    3    3    0  502  0.24396225975E+02 -0.29160466020E+03 -0.98531844305E+03  0.10278525614E+04  0.00000000000E+00 0.  1.
         13    1    5    5    0    0  0.29679150459E+02 -0.67942493324E+02 -0.14083866662E+02  0.75467805528E+02  0.00000000000E+00 0. -1.
        -13    1    5    5    0    0 -0.66483153154E+02 -0.17788953424E+03 -0.73156232588E+02  0.20351051671E+03  0.00000000000E+00 0.  1.
          3    1    6    6  503    0 -0.24561589374E+02  0.25935905908E+03  0.19807776365E+03  0.32726929837E+03  0.00000000000E+00 0. -1.
         -3    1    6    6    0  503  0.18753537707E+02  0.29288992773E+03  0.34039275871E+03  0.44944792259E+03  0.00000000000E+00 0.  1.
<mgrwt>
<rscale>  0 0.20522108E+04</rscale>
<asrwt>0</asrwt>
<pdfrwt beam="1">  1        2 0.11966186E+00 0.20522108E+04</pdfrwt>
<pdfrwt beam="2">  1       -1 0.20825790E+00 0.20522108E+04</pdfrwt>
<totfact> 0.49868764E+00</totfact>
</mgrwt>
</event>
<event>
12    7  0.1625631E-007  0.3380164E+04  0.7818608E-02  0.8142792E-01
          2   -1    0    0  501    0  0.00000000000E+00  0.00000000000E+00  0.25075239471E+04  0.25075239471E+04  0.00000000000E+00 0. -1.
         -1   -1    0    0    0  501 -0.00000000000E+00 -0.00000000000E+00 -0.11391226106E+04  0.11391226106E+04  0.00000000000E+00 0.  1.
         24    2    1    2    0    0  0.27552671035E+03 -0.84119841831E+03 -0.76134337193E+03  0.11701037738E+04  0.77261662358E+02 0.  0.
        254    2    1    2    0    0 -0.27552671035E+03  0.84119841831E+03  0.21297447084E+04  0.24765427839E+04  0.90217619699E+03 0.  0.
         23    2    4    4    0    0 -0.26845637634E+03  0.24849814134E+02  0.12144488671E+04  0.12468119719E+04  0.83472769247E+02 0.  0.
         23    2    4    4    0    0 -0.70703340011E+01  0.81634860417E+03  0.91529584133E+03  0.12297308120E+04  0.89422367001E+02 0.  0.
          2    1    3    3  502    0  0.10278772832E+03 -0.28775661249E+03 -0.21642229511E+03  0.37444331339E+03  0.00000000000E+00 0. -1.
         -3    1    3    3    0  502  0.17273898203E+03 -0.55344180582E+03 -0.54492107682E+03  0.79566046044E+03  0.00000000000E+00 0.  1.
         13    1    5    5    0    0 -0.24944516740E+03  0.60101819740E+01  0.99820311749E+03  0.10289161665E+04  0.00000000000E+00 0. -1.
        -13    1    5    5    0    0 -0.19011208945E+02  0.18839632160E+02  0.21624574958E+03  0.21789580541E+03  0.00000000000E+00 0.  1.
          2    1    6    6  503    0 -0.46840938802E+02  0.33354195132E+03  0.37322730468E+03  0.50273544514E+03  0.00000000000E+00 0.  1.
         -2    1    6    6    0  503  0.39770604801E+02  0.48280665285E+03  0.54206853665E+03  0.72699536689E+03  0.00000000000E+00 0. -1.
<mgrwt>
<rscale>  0 0.33801640E+04</rscale>
<asrwt>0</asrwt>
<pdfrwt beam="1">  1        2 0.38577291E+00 0.33801640E+04</pdfrwt>
<pdfrwt beam="2">  1       -1 0.17524963E+00 0.33801640E+04</pdfrwt>
<totfact> 0.73185651E-01</totfact>
</mgrwt>
</event>
<event>
12    7  0.1625631E-007  0.1416677E+04  0.7818608E-02  0.8941834E-01
         -1   -1    0    0    0  501 -0.00000000000E+00  0.00000000000E+00  0.46948958263E+03  0.46948958263E+03  0.00000000000E+00 0.  1.
          4   -1    0    0  501    0  0.00000000000E+00 -0.00000000000E+00 -0.10687003213E+04  0.10687003213E+04  0.00000000000E+00 0. -1.
         24    2    1    2    0    0  0.24155321238E+03  0.22524937170E+03  0.89551510750E+02  0.35006068040E+03  0.73741257280E+02 0.  0.
        254    2    1    2    0    0 -0.24155321238E+03 -0.22524937170E+03 -0.68876224941E+03  0.11881292235E+04  0.91003976929E+03 0.  0.
         23    2    4    4    0    0 -0.46219139324E+03  0.34326313546E+02 -0.68702043068E+03  0.83362871773E+03  0.90225201983E+02 0.  0.
         23    2    4    4    0    0  0.22063818087E+03 -0.25957568525E+03 -0.17418187308E+01  0.35450050577E+03  0.98014445019E+02 0.  0.
          4    1    3    3  502    0  0.16941004053E+03  0.14515816221E+03  0.25179274578E+02  0.22450979880E+03  0.00000000000E+00 0. -1.
         -3    1    3    3    0  502  0.72143171851E+02  0.80091209494E+02  0.64372236172E+02  0.12555088161E+03  0.00000000000E+00 0.  1.
         13    1    5    5    0    0 -0.44346814574E+03  0.48357701885E+02 -0.66901979300E+03  0.80410816875E+03  0.00000000000E+00 0.  1.
        -13    1    5    5    0    0 -0.18723247504E+02 -0.14031388338E+02 -0.18000637677E+02  0.29520548988E+02  0.00000000000E+00 0. -1.
          1    1    6    6  503    0  0.51499013312E+02 -0.21428599081E+02  0.25107644529E+02  0.61169657874E+02  0.00000000000E+00 0. -1.
         -1    1    6    6    0  503  0.16913916755E+03 -0.23814708617E+03 -0.26849463260E+02  0.29333084790E+03  0.00000000000E+00 0.  1.
<mgrwt>
<rscale>  0 0.14166773E+04</rscale>
<asrwt>0</asrwt>
<pdfrwt beam="1">  1        4 0.16441543E+00 0.14166773E+04</pdfrwt>
<pdfrwt beam="2">  1       -1 0.72229168E-01 0.14166773E+04</pdfrwt>
<totfact> 0.17889641E+00</totfact>
</mgrwt>
</event>
<event>
12    7  0.1625631E-007  0.1265555E+04  0.7818608E-02  0.9057335E-01
          2   -1    0    0  501    0  0.00000000000E+00  0.00000000000E+00  0.36763754452E+04  0.36763754452E+04  0.00000000000E+00 0. -1.
         -1   -1    0    0    0  501 -0.00000000000E+00 -0.00000000000E+00 -0.10891366611E+03  0.10891366611E+03  0.00000000000E+00 0.  1.
         24    2    1    2    0    0  0.44507525946E+02 -0.11259650080E+03  0.50533529154E+02  0.15439499148E+03  0.81395847370E+02 0.  0.
        254    2    1    2    0    0 -0.44507525946E+02  0.11259650080E+03  0.35169282499E+04  0.36308941198E+04  0.89439862609E+03 0.  0.
         23    2    4    4    0    0  0.22008322272E+02 -0.24538671356E+03  0.33002406886E+03  0.42201722091E+03  0.92106695052E+02 0.  0.
         23    2    4    4    0    0 -0.66515848218E+02  0.35798321435E+03  0.31869041811E+04  0.32088768989E+04  0.89198392711E+02 0.  0.
          4    1    3    3  502    0  0.29272270143E+01 -0.42254092514E+02  0.58578612441E+02  0.72287141510E+02  0.00000000000E+00 0. -1.
         -3    1    3    3    0  502  0.41580298932E+02 -0.70342408282E+02 -0.80450832869E+01  0.82107849973E+02  0.00000000000E+00 0.  1.
         13    1    5    5    0    0 -0.33448178526E+02 -0.12273505364E+03  0.14019765400E+03  0.18930941927E+03  0.00000000000E+00 0.  1.
        -13    1    5    5    0    0  0.55456500798E+02 -0.12265165992E+03  0.18982641486E+03  0.23270780163E+03  0.00000000000E+00 0. -1.
          1    1    6    6  503    0 -0.89792960030E+01  0.31236366218E+02  0.58550388220E+03  0.58640526465E+03  0.00000000000E+00 0. -1.
         -1    1    6    6    0  503 -0.57536552215E+02  0.32674684813E+03  0.26014002989E+04  0.26224716343E+04  0.00000000000E+00 0.  1.
<mgrwt>
<rscale>  0 0.12655553E+04</rscale>
<asrwt>0</asrwt>
<pdfrwt beam="1">  1        2 0.56559613E+00 0.12655553E+04</pdfrwt>
<pdfrwt beam="2">  1       -1 0.16755951E-01 0.12655553E+04</pdfrwt>
<totfact> 0.19162809E+01</totfact>
</mgrwt>
</event>
<event>
12    7  0.1625631E-007  0.2230674E+04  0.7818608E-02  0.8505768E-01
          2   -1    0    0  501    0  0.00000000000E+00  0.00000000000E+00  0.16196936479E+04  0.16196936479E+04  0.00000000000E+00 0. -1.
         -1   -1    0    0    0  501 -0.00000000000E+00 -0.00000000000E+00 -0.76803234249E+03  0.76803234249E+03  0.00000000000E+00 0.  1.
         24    2    1    2    0    0  0.39436613427E+03  0.81036630467E+03  0.92434518071E+02  0.90953558703E+03  0.80576971530E+02 0.  0.
        254    2    1    2    0    0 -0.39436613427E+03 -0.81036630467E+03  0.75922678731E+03  0.14781904033E+04  0.89241434229E+03 0.  0.
         23    2    4    4    0    0 -0.51551458883E+03 -0.93512932476E+03  0.62930815905E+03  0.12424656137E+04  0.86428564667E+02 0.  0.
         23    2    4    4    0    0  0.12114845456E+03  0.12476302009E+03  0.12991862825E+03  0.23572478966E+03  0.91894326646E+02 0.  0.
          2    1    3    3  502    0  0.11837928923E+03  0.21575251678E+03  0.59401155757E+02  0.25316259977E+03  0.00000000000E+00 0. -1.
         -1    1    3    3    0  502  0.27598684504E+03  0.59461378789E+03  0.33033362314E+02  0.65637298726E+03  0.00000000000E+00 0.  1.
         13    1    5    5    0    0 -0.61169664033E+02 -0.75698844201E+02  0.79176388164E+02  0.12546291585E+03  0.00000000000E+00 0. -1.
        -13    1    5    5    0    0 -0.45434492479E+03 -0.85943048055E+03  0.55013177089E+03  0.11170026978E+04  0.00000000000E+00 0.  1.
          1    1    6    6  503    0  0.24834882455E+02 -0.98525079070E+01  0.24908372951E+01  0.26833702112E+02  0.00000000000E+00 0. -1.
         -1    1    6    6    0  503  0.96313572106E+02  0.13461552799E+03  0.12742779096E+03  0.20889108755E+03  0.00000000000E+00 0.  1.
<mgrwt>
<rscale>  0 0.22306744E+04</rscale>
<asrwt>0</asrwt>
<pdfrwt beam="1">  1        2 0.24918364E+00 0.22306744E+04</pdfrwt>
<pdfrwt beam="2">  1       -1 0.11815882E+00 0.22306744E+04</pdfrwt>
<totfact> 0.72588384E+00</totfact>
</mgrwt>
</event>
<event>
12    7  0.1625631E-007  0.2957451E+04  0.7818608E-02  0.8255986E-01
         -1   -1    0    0    0  501 -0.00000000000E+00  0.00000000000E+00  0.80616400892E+03  0.80616400892E+03  0.00000000000E+00 0.  1.
          2   -1    0    0  501    0  0.00000000000E+00 -0.00000000000E+00 -0.27123881143E+04  0.27123881143E+04  0.00000000000E+00 0. -1.
         24    2    1    2    0    0  0.49821760722E+03 -0.10537364742E+04 -0.16528464770E+04  0.20240845003E+04  0.80219988141E+02 0.  0.
        254    2    1    2    0    0 -0.49821760722E+03  0.10537364742E+04 -0.25337762835E+03  0.14944676229E+04  0.90036210068E+03 0.  0.
         23    2    4    4    0    0 -0.16971951124E+03  0.31172496773E+02  0.24036803835E+03  0.30950829968E+03  0.90786324166E+02 0.  0.
         23    2    4    4    0    0 -0.32849809598E+03  0.10225639774E+04 -0.49374566670E+03  0.11849593233E+04  0.82436202532E+02 0.  0.
          4    1    3    3  502    0  0.46352560812E+03 -0.10167515057E+04 -0.15885571914E+04  0.19422032757E+04  0.00000000000E+00 0. -1.
         -3    1    3    3    0  502  0.34691999100E+02 -0.36984968458E+02 -0.64289285631E+02  0.81881224590E+02  0.00000000000E+00 0.  1.
         13    1    5    5    0    0 -0.59192621720E+02  0.53610895139E+02  0.76574632497E+02  0.11064162366E+03  0.00000000000E+00 0. -1.
        -13    1    5    5    0    0 -0.11052688953E+03 -0.22438398366E+02  0.16379340585E+03  0.19886667602E+03  0.00000000000E+00 0.  1.
          3    1    6    6  503    0 -0.74563524533E+01  0.41243257228E+01 -0.84991601237E+01  0.12035072803E+02  0.00000000000E+00 0. -1.
         -3    1    6    6    0  503 -0.32104174352E+03  0.10184396517E+04 -0.48524650658E+03  0.11729242505E+04  0.00000000000E+00 0.  1.
<mgrwt>
<rscale>  0 0.29574514E+04</rscale>
<asrwt>0</asrwt>
<pdfrwt beam="1">  1        2 0.41729048E+00 0.29574514E+04</pdfrwt>
<pdfrwt beam="2">  1       -1 0.12402523E+00 0.29574514E+04</pdfrwt>
<totfact> 0.14537772E+00</totfact>
</mgrwt>
</event>
<event>
12    7  0.1625631E-007  0.1883494E+04  0.7818608E-02  0.8663116E-01
          2   -1    0    0  501    0  0.00000000000E+00  0.00000000000E+00  0.85203205436E+03  0.85203205436E+03  0.00000000000E+00 0. -1.
         -1   -1    0    0    0  501 -0.00000000000E+00 -0.00000000000E+00 -0.10409085028E+04  0.10409085028E+04  0.00000000000E+00 0.  1.
         24    2    1    2    0    0 -0.37270174682E+03 -0.30073038199E+03  0.47481450965E+03  0.67893393749E+03  0.78467306358E+02 0.  0.
        254    2    1    2    0    0  0.37270174682E+03  0.30073038199E+03 -0.66369095806E+03  0.12140066196E+04  0.89664989264E+03 0.  0.
         23    2    4    4    0    0  0.22330025519E+03  0.17486687338E+03 -0.86801927382E+03  0.91763486994E+03  0.90304304631E+02 0.  0.
         23    2    4    4    0    0  0.14940149163E+03  0.12586350861E+03  0.20432831576E+03  0.29637174969E+03  0.89015307073E+02 0.  0.
          4    1    3    3  502    0 -0.34295611031E+03 -0.24431686360E+03  0.42170956502E+03  0.59594343747E+03  0.00000000000E+00 0. -1.
         -3    1    3    3    0  502 -0.29745636508E+02 -0.56413518398E+02  0.53104944636E+02  0.82990500023E+02  0.00000000000E+00 0.  1.
         13    1    5    5    0    0  0.50020477127E+02  0.89668005278E+02 -0.35209308588E+03  0.36675869510E+03  0.00000000000E+00 0.  1.
        -13    1    5    5    0    0  0.17327977807E+03  0.85198868104E+02 -0.51592618794E+03  0.55087617485E+03  0.00000000000E+00 0. -1.
          3    1    6    6  503    0  0.10864870957E+03  0.64882492756E+02  0.17809451584E+03  0.21847639811E+03  0.00000000000E+00 0. -1.
         -3    1    6    6    0  503  0.40752782053E+02  0.60981015856E+02  0.26233799920E+02  0.77895351582E+02  0.00000000000E+00 0.  1.
<mgrwt>
<rscale>  0 0.18834940E+04</rscale>
<asrwt>0</asrwt>
<pdfrwt beam="1">  1        2 0.13108185E+00 0.18834940E+04</pdfrwt>
<pdfrwt beam="2">  1       -1 0.16013977E+00 0.18834940E+04</pdfrwt>
<totfact> 0.98706488E+00</totfact>
</mgrwt>
</event>
<event>
12    7  0.1708170E-007  0.1670025E+04  0.7818608E-02  0.8778647E-01
          4   -1    0    0  501    0  0.00000000000E+00  0.00000000000E+00  0.93326166188E+03  0.93326166188E+03  0.00000000000E+00 0. -1.
         -3   -1    0    0    0  501 -0.00000000000E+00 -0.00000000000E+00 -0.74710681296E+03  0.74710681296E+03  0.00000000000E+00 0.  1.
         24    2    1    2    0    0 -0.57014638005E+03  0.17990734748E+02  0.21611326038E+03  0.61534533114E+03  0.80959088544E+02 0.  0.
        254    2    1    2    0    0  0.57014638005E+03 -0.17990734748E+02 -0.29958411458E+02  0.10650231437E+04  0.89888054211E+03 0.  0.
         23    2    4    4    0    0  0.58071712465E+03 -0.35744062006E+03  0.89455517063E+02  0.69394018525E+03  0.92490623581E+02 0.  0.
         23    2    4    4    0    0 -0.10570744599E+02  0.33944988531E+03 -0.11941392852E+03  0.37108295845E+03  0.90027276149E+02 0.  0.
          4    1    3    3  502    0 -0.55437387250E+03  0.29429879910E+02  0.20006757463E+03  0.59010468797E+03  0.00000000000E+00 0. -1.
         -3    1    3    3    0  502 -0.15772507551E+02 -0.11439145162E+02  0.16045685747E+02  0.25240643169E+02  0.00000000000E+00 0.  1.
         13    1    5    5    0    0  0.86869251307E+02 -0.38169370461E+02 -0.16778632079E+02  0.96357097084E+02  0.00000000000E+00 0.  1.
        -13    1    5    5    0    0  0.49384787334E+03 -0.31927124960E+03  0.10623414914E+03  0.59758308817E+03  0.00000000000E+00 0. -1.
          1    1    6    6  503    0 -0.21320734982E+02  0.33758908380E+03 -0.10750964277E+03  0.35493560899E+03  0.00000000000E+00 0. -1.
         -1    1    6    6    0  503  0.10749990382E+02  0.18608015129E+01 -0.11904285752E+02  0.16147349465E+02  0.00000000000E+00 0.  1.
<mgrwt>
<rscale>  0 0.16700253E+04</rscale>
<asrwt>0</asrwt>
<pdfrwt beam="1">  1        4 0.14357872E+00 0.16700253E+04</pdfrwt>
<pdfrwt beam="2">  1       -3 0.11493951E+00 0.16700253E+04</pdfrwt>
<totfact> 0.45784693E-01</totfact>
</mgrwt>
</event>
<event>
12    7  0.1625631E-007  0.2432313E+04  0.7818608E-02  0.8427504E-01
          2   -1    0    0  501    0  0.00000000000E+00  0.00000000000E+00  0.10535126488E+04  0.10535126488E+04  0.00000000000E+00 0. -1.
         -1   -1    0    0    0  501 -0.00000000000E+00 -0.00000000000E+00 -0.14039100800E+04  0.14039100800E+04  0.00000000000E+00 0.  1.
         24    2    1    2    0    0 -0.52675155793E+03  0.66157036629E+03  0.47715993595E+03  0.97404610772E+03  0.77082177846E+02 0.  0.
        254    2    1    2    0    0  0.52675155793E+03 -0.66157036629E+03 -0.82755736722E+03  0.14833766211E+04  0.89465772820E+03 0.  0.
         23    2    4    4    0    0  0.10392650675E+03 -0.61213262082E+02 -0.72007350369E+03  0.73618112527E+03  0.94387585144E+02 0.  0.
         23    2    4    4    0    0  0.42282505118E+03 -0.60035710421E+03 -0.10748386353E+03  0.74719549582E+03  0.86825408614E+02 0.  0.
          4    1    3    3  502    0 -0.17944413303E+03  0.21345330253E+03  0.19866388546E+03  0.34238844698E+03  0.00000000000E+00 0. -1.
         -3    1    3    3    0  502 -0.34730742491E+03  0.44811706376E+03  0.27849605049E+03  0.63165766074E+03  0.00000000000E+00 0.  1.
         13    1    5    5    0    0 -0.47601024829E+01 -0.22680762014E+02 -0.28973465765E+03  0.29066002027E+03  0.00000000000E+00 0.  1.
        -13    1    5    5    0    0  0.10868660924E+03 -0.38532500067E+02 -0.43033884604E+03  0.44552110500E+03  0.00000000000E+00 0. -1.
          1    1    6    6  503    0  0.19901389730E+02 -0.44193105835E+02  0.12406385051E+02  0.50030133985E+02  0.00000000000E+00 0. -1.
         -1    1    6    6    0  503  0.40292366145E+03 -0.55616399837E+03 -0.11989024858E+03  0.69716536184E+03  0.00000000000E+00 0.  1.
<mgrwt>
<rscale>  0 0.24323133E+04</rscale>
<asrwt>0</asrwt>
<pdfrwt beam="1">  1        2 0.16207887E+00 0.24323133E+04</pdfrwt>
<pdfrwt beam="2">  1       -1 0.21598617E+00 0.24323133E+04</pdfrwt>
<totfact> 0.27885350E+00</totfact>
</mgrwt>
</event>
<event>
12    7  0.1625631E-007  0.1519678E+04  0.7818608E-02  0.8871472E-01
         -1   -1    0    0    0  501 -0.00000000000E+00  0.00000000000E+00  0.22650149012E+03  0.22650149012E+03  0.00000000000E+00 0.  1.
          2   -1    0    0  501    0  0.00000000000E+00 -0.00000000000E+00 -0.25490129904E+04  0.25490129904E+04  0.00000000000E+00 0. -1.
         24    2    1    2    0    0  0.31052853636E+03  0.26538942779E+03 -0.26430665985E+03  0.49324450051E+03  0.81071613824E+02 0.  0.
        254    2    1    2    0    0 -0.31052853636E+03 -0.26538942779E+03 -0.20582048404E+04  0.22822699800E+04  0.89760212579E+03 0.  0.
         23    2    4    4    0    0 -0.92415226282E+02 -0.48790875356E+03 -0.57925177441E+03  0.76809472407E+03  0.88551460379E+02 0.  0.
         23    2    4    4    0    0 -0.21811331008E+03  0.22251932577E+03 -0.14789530660E+04  0.15141752559E+04  0.91303164506E+02 0.  0.
          4    1    3    3  502    0  0.18956459222E+03  0.13105229954E+03 -0.18638489051E+03  0.29639292712E+03  0.00000000000E+00 0. -1.
         -3    1    3    3    0  502  0.12096394415E+03  0.13433712825E+03 -0.77921769336E+02  0.19685157339E+03  0.00000000000E+00 0.  1.
         13    1    5    5    0    0 -0.17982838842E+02 -0.28159525158E+03 -0.28456312346E+03  0.40074360811E+03  0.00000000000E+00 0. -1.
        -13    1    5    5    0    0 -0.74432387441E+02 -0.20631350198E+03 -0.29468865095E+03  0.36735111596E+03  0.00000000000E+00 0.  1.
          3    1    6    6  503    0 -0.85795834267E+02  0.42425458687E+02 -0.32583256737E+03  0.33959933257E+03  0.00000000000E+00 0. -1.
         -3    1    6    6    0  503 -0.13231747582E+03  0.18009386709E+03 -0.11531204986E+04  0.11745759234E+04  0.00000000000E+00 0.  1.
<mgrwt>
<rscale>  0 0.15196779E+04</rscale>
<asrwt>0</asrwt>
<pdfrwt beam="1">  1        2 0.39215584E+00 0.15196779E+04</pdfrwt>
<pdfrwt beam="2">  1       -1 0.34846384E-01 0.15196779E+04</pdfrwt>
<totfact> 0.28096494E+01</totfact>
</mgrwt>
</event>
<event>
12    7  0.1747010E-007  0.2439341E+04  0.7818608E-02  0.8424920E-01
         -1   -1    0    0    0  501 -0.00000000000E+00  0.00000000000E+00  0.12645881593E+04  0.12645881593E+04  0.00000000000E+00 0.  1.
          2   -1    0    0  501    0  0.00000000000E+00 -0.00000000000E+00 -0.11763485961E+04  0.11763485961E+04  0.00000000000E+00 0. -1.
         24    2    1    2    0    0 -0.78166848954E+03  0.67778081097E+03  0.23211110133E+03  0.10632817317E+04  0.79372680206E+02 0.  0.
        254    2    1    2    0    0  0.78166848954E+03 -0.67778081097E+03 -0.14387153815E+03  0.13776550237E+04  0.89824378078E+03 0.  0.
         23    2    4    4    0    0  0.24122997849E+03 -0.58566130707E+03  0.25836692119E+03  0.69161263585E+03  0.10189947488E+03 0.  0.
         23    2    4    4    0    0  0.54043851105E+03 -0.92119503893E+02 -0.40223845935E+03  0.68604238789E+03  0.91096611277E+02 0.  0.
          4    1    3    3  502    0 -0.14149695534E+03  0.11101942934E+03  0.70267818884E+02  0.19309134738E+03  0.00000000000E+00 0. -1.
         -3    1    3    3    0  502 -0.64017153420E+03  0.56676138162E+03  0.16184328245E+03  0.87019038433E+03  0.00000000000E+00 0.  1.
         13    1    5    5    0    0  0.14485256795E+03 -0.45403085486E+03  0.21483976376E+03  0.52276419894E+03  0.00000000000E+00 0.  1.
        -13    1    5    5    0    0  0.96377410539E+02 -0.13163045221E+03  0.43527157436E+02  0.16884843691E+03  0.00000000000E+00 0. -1.
          1    1    6    6  503    0  0.36446959283E+03 -0.62787166573E+02 -0.21668332781E+03  0.42863968194E+03  0.00000000000E+00 0. -1.
         -1    1    6    6    0  503  0.17596891822E+03 -0.29332337320E+02 -0.18555513153E+03  0.25740270595E+03  0.00000000000E+00 0.  1.
<mgrwt>
<rscale>  0 0.24393413E+04</rscale>
<asrwt>0</asrwt>
<pdfrwt beam="1">  1        2 0.18097671E+00 0.24393413E+04</pdfrwt>
<pdfrwt beam="2">  1       -1 0.19455203E+00 0.24393413E+04</pdfrwt>
<totfact> 0.32829652E+00</totfact>
</mgrwt>
</event>
<event>
12    7  0.1625631E-007  0.4030944E+04  0.7818608E-02  0.7998333E-01
         -1   -1    0    0    0  501 -0.00000000000E+00  0.00000000000E+00  0.16695483350E+04  0.16695483350E+04  0.00000000000E+00 0.  1.
          2   -1    0    0  501    0  0.00000000000E+00 -0.00000000000E+00 -0.24330700308E+04  0.24330700308E+04  0.00000000000E+00 0. -1.
         24    2    1    2    0    0 -0.13478599300E+04  0.12772884277E+04 -0.83427441630E+03  0.20372644467E+04  0.78996871847E+02 0.  0.
        254    2    1    2    0    0  0.13478599300E+04 -0.12772884277E+04  0.70752720474E+02  0.20653539190E+04  0.90138157573E+03 0.  0.
         23    2    4    4    0    0  0.90702628650E+03 -0.97835944553E+03 -0.34781012629E+03  0.13816930382E+04  0.90663546868E+02 0.  0.
         23    2    4    4    0    0  0.44083364350E+03 -0.29892898214E+03  0.41856284676E+03  0.68366088087E+03  0.92219877080E+02 0.  0.
          2    1    3    3  502    0 -0.12252791450E+04  0.11896113737E+04 -0.76001076684E+03  0.18692513393E+04  0.00000000000E+00 0. -1.
         -1    1    3    3    0  502 -0.12258078498E+03  0.87677053982E+02 -0.74263649462E+02  0.16801310744E+03  0.00000000000E+00 0.  1.
         13    1    5    5    0    0  0.69735473483E+03 -0.72290615996E+03 -0.22658271089E+03  0.10296779434E+04  0.00000000000E+00 0. -1.
        -13    1    5    5    0    0  0.20967155167E+03 -0.25545328557E+03 -0.12122741540E+03  0.35201509476E+03  0.00000000000E+00 0.  1.
          1    1    6    6  503    0  0.41222789735E+03 -0.28740374793E+03  0.36233836753E+03  0.61953357154E+03  0.00000000000E+00 0. -1.
         -1    1    6    6    0  503  0.28605746151E+02 -0.11525234213E+02  0.56224479237E+02  0.64127309331E+02  0.00000000000E+00 0.  1.
<mgrwt>
<rscale>  0 0.40309443E+04</rscale>
<asrwt>0</asrwt>
<pdfrwt beam="1">  1        2 0.37431847E+00 0.40309443E+04</pdfrwt>
<pdfrwt beam="2">  1       -1 0.25685359E+00 0.40309443E+04</pdfrwt>
<totfact> 0.21411330E-01</totfact>
</mgrwt>
</event>
<event>
12    7  0.1625631E-007  0.1364942E+04  0.7818608E-02  0.8979594E-01
          2   -1    0    0  501    0  0.00000000000E+00  0.00000000000E+00  0.99339722775E+03  0.99339722775E+03  0.00000000000E+00 0. -1.
         -1   -1    0    0    0  501 -0.00000000000E+00 -0.00000000000E+00 -0.46886213478E+03  0.46886213478E+03  0.00000000000E+00 0.  1.
         24    2    1    2    0    0  0.12696793388E+03 -0.28140387001E+03 -0.98313216919E+02  0.33363305843E+03  0.79602353993E+02 0.  0.
        254    2    1    2    0    0 -0.12696793388E+03  0.28140387001E+03  0.62284830990E+03  0.11286263041E+04  0.88912784395E+03 0.  0.
         23    2    4    4    0    0  0.14981997534E+03 -0.69342562632E+02 -0.14333572130E+03  0.23688078719E+03  0.91175448109E+02 0.  0.
         23    2    4    4    0    0 -0.27678790922E+03  0.35074643265E+03  0.76618403120E+03  0.89174551691E+03  0.92398541970E+02 0.  0.
          4    1    3    3  502    0  0.63592989966E+01 -0.18513825252E+02  0.13237445108E+02  0.23631173525E+02  0.00000000000E+00 0. -1.
         -3    1    3    3    0  502  0.12060863488E+03 -0.26289004476E+03 -0.11155066203E+03  0.31000188490E+03  0.00000000000E+00 0.  1.
         13    1    5    5    0    0  0.14629506867E+03 -0.73533579603E+02 -0.15407234630E+03  0.22482820628E+03  0.00000000000E+00 0.  1.
        -13    1    5    5    0    0  0.35249066680E+01  0.41910169705E+01  0.10736624998E+02  0.12052580911E+02  0.00000000000E+00 0. -1.
          1    1    6    6  503    0 -0.36720575030E+02  0.58740314804E+02  0.64195280525E+02  0.94445006514E+02  0.00000000000E+00 0. -1.
         -1    1    6    6    0  503 -0.24006733419E+03  0.29200611784E+03  0.70198875068E+03  0.79730051039E+03  0.00000000000E+00 0.  1.
<mgrwt>
<rscale>  0 0.13649415E+04</rscale>
<asrwt>0</asrwt>
<pdfrwt beam="1">  1        2 0.15283034E+00 0.13649415E+04</pdfrwt>
<pdfrwt beam="2">  1       -1 0.72132636E-01 0.13649415E+04</pdfrwt>
<totfact> 0.54923118E+01</totfact>
</mgrwt>
</event>
<event>
12    7  0.1625631E-007  0.1393522E+04  0.7818608E-02  0.8958521E-01
          2   -1    0    0  501    0  0.00000000000E+00  0.00000000000E+00  0.11101344749E+04  0.11101344749E+04  0.00000000000E+00 0. -1.
         -1   -1    0    0    0  501 -0.00000000000E+00 -0.00000000000E+00 -0.43731283832E+03  0.43731283832E+03  0.00000000000E+00 0.  1.
         24    2    1    2    0    0  0.88975668694E+02 -0.38273021495E+03  0.32027969867E+03  0.51298416828E+03  0.78578524226E+02 0.  0.
        254    2    1    2    0    0 -0.88975668694E+02  0.38273021495E+03  0.35254193791E+03  0.10344631449E+04  0.88962300621E+03 0.  0.
         23    2    4    4    0    0 -0.87867157983E+02 -0.24784262127E+03 -0.48460703841E+02  0.28217681413E+03  0.90159371364E+02 0.  0.
         23    2    4    4    0    0 -0.11085107102E+01  0.63057283622E+03  0.40100264175E+03  0.75228633081E+03  0.86650298657E+02 0.  0.
          2    1    3    3  502    0  0.44490256226E+02 -0.32237606625E+03  0.25230809143E+03  0.41178281167E+03  0.00000000000E+00 0. -1.
         -1    1    3    3    0  502  0.44485412468E+02 -0.60354148703E+02  0.67971607244E+02  0.10120135661E+03  0.00000000000E+00 0.  1.
         13    1    5    5    0    0 -0.34391836539E+01 -0.87054358660E+02 -0.50223137488E+02  0.10056168696E+03  0.00000000000E+00 0. -1.
        -13    1    5    5    0    0 -0.84427974329E+02 -0.16078826261E+03  0.17624336474E+01  0.18161512716E+03  0.00000000000E+00 0.  1.
          4    1    6    6  503    0  0.35136532282E+02  0.28487661439E+03  0.15277724821E+03  0.32516172730E+03  0.00000000000E+00 0.  1.
         -4    1    6    6    0  503 -0.36245042992E+02  0.34569622183E+03  0.24822539354E+03  0.42712460351E+03  0.00000000000E+00 0. -1.
<mgrwt>
<rscale>  0 0.13935222E+04</rscale>
<asrwt>0</asrwt>
<pdfrwt beam="1">  1        2 0.17078992E+00 0.13935222E+04</pdfrwt>
<pdfrwt beam="2">  1       -1 0.67278898E-01 0.13935222E+04</pdfrwt>
<totfact> 0.53371580E+01</totfact>
</mgrwt>
</event>
<event>
12    7  0.1625631E-007  0.1200949E+04  0.7818608E-02  0.9112026E-01
         -1   -1    0    0    0  501 -0.00000000000E+00  0.00000000000E+00  0.41004994218E+03  0.41004994218E+03  0.00000000000E+00 0.  1.
          2   -1    0    0  501    0  0.00000000000E+00 -0.00000000000E+00 -0.87933104721E+03  0.87933104721E+03  0.00000000000E+00 0. -1.
         24    2    1    2    0    0  0.15340633036E+03  0.19476444918E+03 -0.48053370120E+02  0.26382289998E+03  0.76332845589E+02 0.  0.
        254    2    1    2    0    0 -0.15340633036E+03 -0.19476444918E+03 -0.42122773491E+03  0.10255580894E+04  0.90159297758E+03 0.  0.
         23    2    4    4    0    0 -0.14723615468E+03  0.36575719195E+02 -0.65842716007E+03  0.68177782218E+03  0.90985741816E+02 0.  0.
         23    2    4    4    0    0 -0.61701756749E+01 -0.23134016838E+03  0.23719942516E+03  0.34378026722E+03  0.91460156688E+02 0.  0.
          2    1    3    3  502    0  0.15607477753E+03  0.15674646131E+03 -0.43567878416E+02  0.22544832966E+03  0.00000000000E+00 0. -1.
         -1    1    3    3    0  502 -0.26684471702E+01  0.38017987868E+02 -0.44854917032E+01  0.38374570325E+02  0.00000000000E+00 0.  1.
         13    1    5    5    0    0 -0.14574711540E+03  0.31088339883E+02 -0.65938161982E+03  0.67601244595E+03  0.00000000000E+00 0. -1.
        -13    1    5    5    0    0 -0.14890392834E+01  0.54873793122E+01  0.95445974300E+00  0.57653762327E+01  0.00000000000E+00 0.  1.
          2    1    6    6  503    0 -0.32516053708E+02 -0.21097257919E+03  0.18846926765E+03  0.28475847269E+03  0.00000000000E+00 0. -1.
         -2    1    6    6    0  503  0.26345878034E+02 -0.20367589184E+02  0.48730157516E+02  0.59021794534E+02  0.00000000000E+00 0.  1.
<mgrwt>
<rscale>  0 0.12009490E+04</rscale>
<asrwt>0</asrwt>
<pdfrwt beam="1">  1        2 0.13528170E+00 0.12009490E+04</pdfrwt>
<pdfrwt beam="2">  1       -1 0.63084607E-01 0.12009490E+04</pdfrwt>
<totfact> 0.86933353E+01</totfact>
</mgrwt>
</event>
<event>
12    7  0.1625631E-007  0.1678478E+04  0.7818608E-02  0.8773735E-01
         -1   -1    0    0    0  501 -0.00000000000E+00  0.00000000000E+00  0.51984340294E+03  0.51984340294E+03  0.00000000000E+00 0.  1.
          2   -1    0    0  501    0  0.00000000000E+00 -0.00000000000E+00 -0.13548729858E+04  0.13548729858E+04  0.00000000000E+00 0. -1.
         24    2    1    2    0    0 -0.22784984055E+03 -0.41754858840E+03  0.10466770868E+03  0.49372998550E+03  0.80941928711E+02 0.  0.
        254    2    1    2    0    0  0.22784984055E+03  0.41754858840E+03 -0.93969729158E+03  0.13809864033E+04  0.89321334113E+03 0.  0.
         23    2    4    4    0    0 -0.21442434572E+03  0.14409136256E+03 -0.78463579748E+03  0.83087506770E+03  0.89218398533E+02 0.  0.
         23    2    4    4    0    0  0.44227418627E+03  0.27345722584E+03 -0.15506149410E+03  0.55011133560E+03  0.90515768743E+02 0.  0.
          2    1    3    3  502    0 -0.18166223054E+03 -0.29342541049E+03  0.43466620911E+02  0.34783470882E+03  0.00000000000E+00 0. -1.
         -1    1    3    3    0  502 -0.46187610019E+02 -0.12412317791E+03  0.61201087766E+02  0.14589527668E+03  0.00000000000E+00 0.  1.
         13    1    5    5    0    0  0.39852676915E+01 -0.62922490125E+01 -0.33122278447E+02  0.33949375336E+02  0.00000000000E+00 0. -1.
        -13    1    5    5    0    0 -0.21840961341E+03  0.15038361157E+03 -0.75151351903E+03  0.79692569236E+03  0.00000000000E+00 0.  1.
          3    1    6    6  503    0  0.16311504196E+03  0.54047278009E+02 -0.35562202926E+02  0.17547733600E+03  0.00000000000E+00 0. -1.
         -3    1    6    6    0  503  0.27915914432E+03  0.21940994783E+03 -0.11949929117E+03  0.37463399960E+03  0.00000000000E+00 0.  1.
<mgrwt>
<rscale>  0 0.16784776E+04</rscale>
<asrwt>0</asrwt>
<pdfrwt beam="1">  1        2 0.20844200E+00 0.16784776E+04</pdfrwt>
<pdfrwt beam="2">  1       -1 0.79975909E-01 0.16784776E+04</pdfrwt>
<totfact> 0.26052414E+01</totfact>
</mgrwt>
</event>
<event>
12    7  0.1625631E-007  0.1618886E+04  0.7818608E-02  0.8809029E-01
          2   -1    0    0  501    0  0.00000000000E+00  0.00000000000E+00  0.46262360066E+03  0.46262360066E+03  0.00000000000E+00 0. -1.
         -1   -1    0    0    0  501 -0.00000000000E+00 -0.00000000000E+00 -0.14162650647E+04  0.14162650647E+04  0.00000000000E+00 0.  1.
         24    2    1    2    0    0  0.58326301981E+02 -0.17142444917E+03 -0.93686376450E+03  0.95746299040E+03  0.78951665348E+02 0.  0.
        254    2    1    2    0    0 -0.58326301981E+02  0.17142444917E+03 -0.16777699583E+02  0.92142567500E+03  0.90330254294E+03 0.  0.
         23    2    4    4    0    0 -0.36967707071E+03 -0.17871272355E+03 -0.11054235015E+03  0.43510439364E+03  0.92178348954E+02 0.  0.
         23    2    4    4    0    0  0.31135076873E+03  0.35013717272E+03  0.93764650566E+02  0.48632128137E+03  0.90450196801E+02 0.  0.
          4    1    3    3  502    0 -0.12348512520E+02 -0.30050088415E+02 -0.83738204272E+02  0.89819710698E+02  0.00000000000E+00 0. -1.
         -3    1    3    3    0  502  0.70674814501E+02 -0.14137436076E+03 -0.85312556023E+03  0.86764327970E+03  0.00000000000E+00 0.  1.
         13    1    5    5    0    0 -0.22395808819E+03 -0.10101556485E+03 -0.19317601388E+02  0.24644378534E+03  0.00000000000E+00 0. -1.
        -13    1    5    5    0    0 -0.14571898252E+03 -0.77697158698E+02 -0.91224748761E+02  0.18866060830E+03  0.00000000000E+00 0.  1.
          2    1    6    6  503    0  0.23497830236E+03  0.29410117023E+03  0.43114673955E+02  0.37890523357E+03  0.00000000000E+00 0. -1.
         -2    1    6    6    0  503  0.76372466368E+02  0.56036002492E+02  0.50649976610E+02  0.10741604780E+03  0.00000000000E+00 0.  1.
<mgrwt>
<rscale>  0 0.16188856E+04</rscale>
<asrwt>0</asrwt>
<pdfrwt beam="1">  1        2 0.71172861E-01 0.16188856E+04</pdfrwt>
<pdfrwt beam="2">  1       -1 0.21788693E+00 0.16188856E+04</pdfrwt>
<totfact> 0.83861182E+00</totfact>
</mgrwt>
</event>
<event>
12    7  0.1625631E-007  0.1490538E+04  0.7818608E-02  0.8890769E-01
          2   -1    0    0  501    0  0.00000000000E+00  0.00000000000E+00  0.38478213882E+04  0.38478213882E+04  0.00000000000E+00 0. -1.
         -1   -1    0    0    0  501 -0.00000000000E+00 -0.00000000000E+00 -0.14434815589E+03  0.14434815589E+03  0.00000000000E+00 0.  1.
         24    2    1    2    0    0  0.34783812960E+03 -0.30965268626E+03  0.10570205304E+04  0.11577719450E+04  0.79166435953E+02 0.  0.
        254    2    1    2    0    0 -0.34783812960E+03  0.30965268626E+03  0.26464527019E+04  0.28343975990E+04  0.90178805458E+03 0.  0.
         23    2    4    4    0    0 -0.19860689462E+03 -0.13043478619E+03  0.15140119573E+03  0.29476120210E+03  0.86625124291E+02 0.  0.
         23    2    4    4    0    0 -0.14923123499E+03  0.44008747245E+03  0.24950515062E+04  0.25396363969E+04  0.92325864052E+02 0.  0.
          4    1    3    3  502    0  0.35060428435E+03 -0.30043434638E+03  0.10220959110E+04  0.11215454569E+04  0.00000000000E+00 0. -1.
         -3    1    3    3    0  502 -0.27661547436E+01 -0.92183398730E+01  0.34924619379E+02  0.36226488111E+02  0.00000000000E+00 0.  1.
         13    1    5    5    0    0 -0.17855990407E+03 -0.81577259013E+02  0.13892619559E+03  0.24049735207E+03  0.00000000000E+00 0. -1.
        -13    1    5    5    0    0 -0.20046990544E+02 -0.48857527178E+02  0.12475000131E+02  0.54263850030E+02  0.00000000000E+00 0.  1.
          4    1    6    6  503    0 -0.86070320376E+02  0.29231155451E+03  0.18462374651E+04  0.18712153597E+04  0.00000000000E+00 0. -1.
         -4    1    6    6    0  503 -0.63160914611E+02  0.14777591794E+03  0.64881404109E+03  0.66842103720E+03  0.00000000000E+00 0.  1.
<mgrwt>
<rscale>  0 0.14905381E+04</rscale>
<asrwt>0</asrwt>
<pdfrwt beam="1">  1        2 0.59197244E+00 0.14905381E+04</pdfrwt>
<pdfrwt beam="2">  1       -1 0.22207411E-01 0.14905381E+04</pdfrwt>
<totfact> 0.87004786E+00</totfact>
</mgrwt>
</event>
<event>
12    7  0.1625631E-007  0.1563487E+04  0.7818608E-02  0.8843299E-01
          2   -1    0    0  501    0  0.00000000000E+00  0.00000000000E+00  0.84260308727E+03  0.84260308727E+03  0.00000000000E+00 0. -1.
         -1   -1    0    0    0  501 -0.00000000000E+00 -0.00000000000E+00 -0.72527999517E+03  0.72527999517E+03  0.00000000000E+00 0.  1.
         24    2    1    2    0    0 -0.34550600965E+03  0.20985155453E+03  0.36420149040E+03  0.54974485494E+03  0.78514981266E+02 0.  0.
        254    2    1    2    0    0  0.34550600965E+03 -0.20985155453E+03 -0.24687839831E+03  0.10181382275E+04  0.90124604249E+03 0.  0.
         23    2    4    4    0    0 -0.29092136817E+03 -0.62506683912E+02 -0.17144316743E+03  0.35463900675E+03  0.88508403331E+02 0.  0.
         23    2    4    4    0    0  0.63642737782E+03 -0.14734487062E+03 -0.75435230874E+02  0.66349922074E+03  0.88263377096E+02 0.  0.
          4    1    3    3  502    0 -0.10176206476E+03  0.67135534642E+02  0.16026478778E+03  0.20136409818E+03  0.00000000000E+00 0. -1.
         -3    1    3    3    0  502 -0.24374394489E+03  0.14271601989E+03  0.20393670262E+03  0.34838075676E+03  0.00000000000E+00 0.  1.
         13    1    5    5    0    0  0.24932808911E+01 -0.11824073620E+02 -0.26752011210E+01  0.12376666256E+02  0.00000000000E+00 0. -1.
        -13    1    5    5    0    0 -0.29341464906E+03 -0.50682610292E+02 -0.16876796631E+03  0.34226234050E+03  0.00000000000E+00 0.  1.
          1    1    6    6  503    0  0.86542665997E+02  0.35118904144E+01  0.89950911247E+01  0.87079722534E+02  0.00000000000E+00 0. -1.
         -1    1    6    6    0  503  0.54988471182E+03 -0.15085676104E+03 -0.84430321998E+02  0.57641949821E+03  0.00000000000E+00 0.  1.
<mgrwt>
<rscale>  0 0.15634873E+04</rscale>
<asrwt>0</asrwt>
<pdfrwt beam="1">  1        2 0.12963124E+00 0.15634873E+04</pdfrwt>
<pdfrwt beam="2">  1       -1 0.11158154E+00 0.15634873E+04</pdfrwt>
<totfact> 0.26018541E+01</totfact>
</mgrwt>
</event>
<event>
12    7  0.1625631E-007  0.1475750E+04  0.7818608E-02  0.8900741E-01
          2   -1    0    0  501    0  0.00000000000E+00  0.00000000000E+00  0.11474114609E+04  0.11474114609E+04  0.00000000000E+00 0. -1.
         -1   -1    0    0    0  501 -0.00000000000E+00 -0.00000000000E+00 -0.47451110606E+03  0.47451110606E+03  0.00000000000E+00 0.  1.
         24    2    1    2    0    0  0.30586006178E+03  0.28130573877E+03  0.42019957026E+03  0.59639655333E+03  0.80236362810E+02 0.  0.
        254    2    1    2    0    0 -0.30586006178E+03 -0.28130573877E+03  0.25270078453E+03  0.10255260136E+04  0.90286356776E+03 0.  0.
         23    2    4    4    0    0 -0.39710489916E+03 -0.40053903654E+03 -0.14568180580E+03  0.59004605072E+03  0.93847390480E+02 0.  0.
         23    2    4    4    0    0  0.91244837380E+02  0.11923329777E+03  0.39838259033E+03  0.43547996287E+03  0.91607369462E+02 0.  0.
          4    1    3    3  502    0  0.27693467714E+03  0.28058452772E+03  0.39392494372E+03  0.55731261773E+03  0.00000000000E+00 0. -1.
         -3    1    3    3    0  502  0.28925384641E+02  0.72121105426E+00  0.26274626545E+02  0.39083935601E+02  0.00000000000E+00 0.  1.
         13    1    5    5    0    0 -0.39643647069E+03 -0.37336105059E+03 -0.13977922714E+03  0.56222645058E+03  0.00000000000E+00 0.  1.
        -13    1    5    5    0    0 -0.66842846455E+00 -0.27177985952E+02 -0.59025786543E+01  0.27819600137E+02  0.00000000000E+00 0. -1.
          3    1    6    6  503    0  0.23964563689E+02  0.99789602046E+02  0.27618784594E+03  0.29463874700E+03  0.00000000000E+00 0. -1.
         -3    1    6    6    0  503  0.67280273691E+02  0.19443695719E+02  0.12219474439E+03  0.14084121587E+03  0.00000000000E+00 0.  1.
<mgrwt>
<rscale>  0 0.14757500E+04</rscale>
<asrwt>0</asrwt>
<pdfrwt beam="1">  1        2 0.17652484E+00 0.14757500E+04</pdfrwt>
<pdfrwt beam="2">  1       -1 0.73001709E-01 0.14757500E+04</pdfrwt>
<totfact> 0.42550610E+01</totfact>
</mgrwt>
</event>
<event>
12    7  0.1625631E-007  0.2997968E+04  0.7818608E-02  0.8244311E-01
          2   -1    0    0  501    0  0.00000000000E+00  0.00000000000E+00  0.36638279461E+04  0.36638279461E+04  0.00000000000E+00 0. -1.
         -1   -1    0    0    0  501 -0.00000000000E+00 -0.00000000000E+00 -0.61328014860E+03  0.61328014860E+03  0.00000000000E+00 0.  1.
         24    2    1    2    0    0  0.12671925607E+04 -0.50099623055E+03  0.13349203194E+04  0.19092748524E+04  0.80894955157E+02 0.  0.
        254    2    1    2    0    0 -0.12671925607E+04  0.50099623055E+03  0.17156274781E+04  0.23678332423E+04  0.89804365775E+03 0.  0.
         23    2    4    4    0    0 -0.88122293731E+03  0.21874677621E+03  0.46314763995E+03  0.10240029337E+04  0.98347620851E+02 0.  0.
         23    2    4    4    0    0 -0.38596962335E+03  0.28224945434E+03  0.12524798381E+04  0.13438303086E+04  0.92395069565E+02 0.  0.
          2    1    3    3  502    0  0.29485141358E+03 -0.11537726531E+03  0.35922960390E+03  0.47884776053E+03  0.00000000000E+00 0. -1.
         -1    1    3    3    0  502  0.97234114708E+03 -0.38561896524E+03  0.97569071554E+03  0.14304270918E+04  0.00000000000E+00 0.  1.
         13    1    5    5    0    0 -0.49964631803E+03  0.77151875492E+02  0.23649596949E+03  0.55814800779E+03  0.00000000000E+00 0. -1.
        -13    1    5    5    0    0 -0.38157661928E+03  0.14159490072E+03  0.22665167046E+03  0.46585492593E+03  0.00000000000E+00 0.  1.
          2    1    6    6  503    0 -0.14947810433E+03  0.15775789565E+03  0.62891089427E+03  0.66540226198E+03  0.00000000000E+00 0. -1.
         -2    1    6    6    0  503 -0.23649151902E+03  0.12449155868E+03  0.62356894383E+03  0.67842804664E+03  0.00000000000E+00 0.  1.
<mgrwt>
<rscale>  0 0.29979679E+04</rscale>
<asrwt>0</asrwt>
<pdfrwt beam="1">  1        2 0.56366582E+00 0.29979679E+04</pdfrwt>
<pdfrwt beam="2">  1       -1 0.94350795E-01 0.29979679E+04</pdfrwt>
<totfact> 0.65582934E-01</totfact>
</mgrwt>
</event>
<event>
12    7  0.1625631E-007  0.1735252E+04  0.7818608E-02  0.8741511E-01
         -1   -1    0    0    0  501 -0.00000000000E+00  0.00000000000E+00  0.31380250896E+03  0.31380250896E+03  0.00000000000E+00 0.  1.
          2   -1    0    0  501    0  0.00000000000E+00 -0.00000000000E+00 -0.23988802073E+04  0.23988802073E+04  0.00000000000E+00 0. -1.
         24    2    1    2    0    0 -0.27287247574E+03  0.46185693338E+02 -0.16593619163E+04  0.16842026117E+04  0.80398766219E+02 0.  0.
        254    2    1    2    0    0  0.27287247574E+03 -0.46185693338E+02 -0.42571578203E+03  0.10284801046E+04  0.89439638425E+03 0.  0.
         23    2    4    4    0    0 -0.14884249183E+03  0.32241470684E+03 -0.14901474003E+03  0.39564869765E+03  0.90703741076E+02 0.  0.
         23    2    4    4    0    0  0.42171496757E+03 -0.36860040017E+03 -0.27670104200E+03  0.63283140693E+03  0.10100670313E+03 0.  0.
          2    1    3    3  502    0 -0.22821022799E+03  0.64624114074E+01 -0.12947976004E+04  0.13147708914E+04  0.00000000000E+00 0. -1.
         -1    1    3    3    0  502 -0.44662247750E+02  0.39723281930E+02 -0.36456431593E+03  0.36943172028E+03  0.00000000000E+00 0.  1.
         13    1    5    5    0    0 -0.13395561961E+03  0.27590692310E+03 -0.15950397857E+03  0.34570255628E+03  0.00000000000E+00 0. -1.
        -13    1    5    5    0    0 -0.14886872227E+02  0.46507783732E+02  0.10489238537E+02  0.49946141367E+02  0.00000000000E+00 0.  1.
          3    1    6    6  503    0  0.41062161191E+03 -0.33840252581E+03 -0.23910664922E+03  0.58335098127E+03  0.00000000000E+00 0. -1.
         -3    1    6    6    0  503  0.11093355660E+02 -0.30197874360E+02 -0.37594392780E+02  0.49480425666E+02  0.00000000000E+00 0.  1.
<mgrwt>
<rscale>  0 0.17352517E+04</rscale>
<asrwt>0</asrwt>
<pdfrwt beam="1">  1        2 0.36905850E+00 0.17352517E+04</pdfrwt>
<pdfrwt beam="2">  1       -1 0.48277308E-01 0.17352517E+04</pdfrwt>
<totfact> 0.18477331E+01</totfact>
</mgrwt>
</event>
<event>
12    7  0.1625631E-007  0.1182205E+04  0.7818608E-02  0.9128576E-01
          2   -1    0    0  501    0  0.00000000000E+00  0.00000000000E+00  0.35642911967E+03  0.35642911967E+03  0.00000000000E+00 0. -1.
         -1   -1    0    0    0  501 -0.00000000000E+00 -0.00000000000E+00 -0.98028582026E+03  0.98028582026E+03  0.00000000000E+00 0.  1.
         24    2    1    2    0    0  0.27430516928E+02 -0.22943725793E+03 -0.19412812175E+03  0.31353500917E+03  0.84997563104E+02 0.  0.
        254    2    1    2    0    0 -0.27430516928E+02  0.22943725793E+03 -0.42972857884E+03  0.10231799308E+04  0.89935345146E+03 0.  0.
         23    2    4    4    0    0 -0.45654958379E+02 -0.18087236683E+03  0.18472427428E+03  0.27829714647E+03  0.92342059302E+02 0.  0.
         23    2    4    4    0    0  0.18224441451E+02  0.41030962476E+03 -0.61445285312E+03  0.74488278430E+03  0.92800512920E+02 0.  0.
          4    1    3    3  502    0 -0.10242977574E+02 -0.26820621656E+02 -0.63087138514E+02  0.69312707216E+02  0.00000000000E+00 0. -1.
         -3    1    3    3    0  502  0.37673494503E+02 -0.20261663627E+03 -0.13104098323E+03  0.24422230195E+03  0.00000000000E+00 0.  1.
         13    1    5    5    0    0 -0.56780697320E+02 -0.18457362618E+03  0.15943394508E+03  0.25042095343E+03  0.00000000000E+00 0. -1.
        -13    1    5    5    0    0  0.11125738941E+02  0.37012593485E+01  0.25290329193E+02  0.27876193040E+02  0.00000000000E+00 0.  1.
          4    1    6    6  503    0 -0.12354267884E+02  0.33930383766E+03 -0.45543314716E+03  0.56806608217E+03  0.00000000000E+00 0. -1.
         -4    1    6    6    0  503  0.30578709335E+02  0.71005787108E+02 -0.15901970596E+03  0.17681670212E+03  0.00000000000E+00 0.  1.
<mgrwt>
<rscale>  0 0.11822054E+04</rscale>
<asrwt>0</asrwt>
<pdfrwt beam="1">  1        2 0.54835250E-01 0.11822054E+04</pdfrwt>
<pdfrwt beam="2">  1       -1 0.15081320E+00 0.11822054E+04</pdfrwt>
<totfact> 0.35218452E+01</totfact>
</mgrwt>
</event>
<event>
12    7  0.1625631E-007  0.1697369E+04  0.7818608E-02  0.8762866E-01
          2   -1    0    0  501    0  0.00000000000E+00  0.00000000000E+00  0.21166439859E+04  0.21166439859E+04  0.00000000000E+00 0. -1.
         -1   -1    0    0    0  501 -0.00000000000E+00 -0.00000000000E+00 -0.34028653664E+03  0.34028653664E+03  0.00000000000E+00 0.  1.
         24    2    1    2    0    0  0.26346795971E+03 -0.18602834917E+02  0.14329485847E+04  0.14592639338E+04  0.79675282585E+02 0.  0.
        254    2    1    2    0    0 -0.26346795971E+03  0.18602834917E+02  0.34340886451E+03  0.99766658876E+03  0.89869212906E+03 0.  0.
         23    2    4    4    0    0  0.11419658703E+03 -0.21655390362E+02 -0.24814435845E+03  0.28889397575E+03  0.91511147817E+02 0.  0.
         23    2    4    4    0    0 -0.37766454674E+03  0.40258225280E+02  0.59155322295E+03  0.70877261301E+03  0.90400037620E+02 0.  0.
          2    1    3    3  502    0  0.76991552432E+02  0.31388771680E+01  0.62811457378E+03  0.63282341099E+03  0.00000000000E+00 0. -1.
         -1    1    3    3    0  502  0.18647640728E+03 -0.21741712085E+02  0.80483401095E+03  0.82644052278E+03  0.00000000000E+00 0.  1.
         13    1    5    5    0    0  0.86343615395E+02  0.23611693769E+02 -0.11644856078E+03  0.14687749763E+03  0.00000000000E+00 0.  1.
        -13    1    5    5    0    0  0.27852971632E+02 -0.45267084132E+02 -0.13169579766E+03  0.14201647812E+03  0.00000000000E+00 0. -1.
          1    1    6    6  503    0 -0.18477590977E+03  0.51773878599E+02  0.35291566275E+03  0.40171150886E+03  0.00000000000E+00 0. -1.
         -1    1    6    6    0  503 -0.19288863696E+03 -0.11515653319E+02  0.23863756020E+03  0.30706110415E+03  0.00000000000E+00 0.  1.
<mgrwt>
<rscale>  0 0.16973691E+04</rscale>
<asrwt>0</asrwt>
<pdfrwt beam="1">  1        2 0.32563753E+00 0.16973691E+04</pdfrwt>
<pdfrwt beam="2">  1       -1 0.52351776E-01 0.16973691E+04</pdfrwt>
<totfact> 0.22920746E+01</totfact>
</mgrwt>
</event>
<event>
12    7  0.1625631E-007  0.4798611E+04  0.7818608E-02  0.7860347E-01
         -1   -1    0    0    0  501 -0.00000000000E+00  0.00000000000E+00  0.18626826611E+04  0.18626826611E+04  0.00000000000E+00 0.  1.
          2   -1    0    0  501    0  0.00000000000E+00 -0.00000000000E+00 -0.30905252724E+04  0.30905252724E+04  0.00000000000E+00 0. -1.
         24    2    1    2    0    0  0.61982445500E+03 -0.11454444663E+04  0.13785712538E+04  0.18981514008E+04  0.79338881730E+02 0.  0.
        254    2    1    2    0    0 -0.61982445500E+03  0.11454444663E+04 -0.26064138650E+04  0.30550565327E+04  0.91855963442E+03 0.  0.
         23    2    4    4    0    0 -0.55640273542E+03  0.16720387153E+03 -0.74290696397E+03  0.94758094269E+03  0.91966011104E+02 0.  0.
         23    2    4    4    0    0 -0.63421719583E+02  0.97824059475E+03 -0.18635069011E+04  0.21074755900E+04  0.88421810475E+02 0.  0.
          4    1    3    3  502    0  0.23231357740E+03 -0.51072397750E+03  0.60224428086E+03  0.82310798397E+03  0.00000000000E+00 0. -1.
         -3    1    3    3    0  502  0.38751087760E+03 -0.63472048878E+03  0.77632697290E+03  0.10750434168E+04  0.00000000000E+00 0.  1.
         13    1    5    5    0    0 -0.32936150670E+03  0.77366136833E+02 -0.36526228485E+03  0.49787654892E+03  0.00000000000E+00 0.  1.
        -13    1    5    5    0    0 -0.22704122871E+03  0.89837734698E+02 -0.37764467912E+03  0.44970439377E+03  0.00000000000E+00 0. -1.
          1    1    6    6  503    0  0.10165541045E+02  0.11207946182E+03 -0.26471907423E+03  0.28764793107E+03  0.00000000000E+00 0. -1.
         -1    1    6    6    0  503 -0.73587260629E+02  0.86616113293E+03 -0.15987878268E+04  0.18198276590E+04  0.00000000000E+00 0.  1.
<mgrwt>
<rscale>  0 0.47986114E+04</rscale>
<asrwt>0</asrwt>
<pdfrwt beam="1">  1        2 0.47546542E+00 0.47986114E+04</pdfrwt>
<pdfrwt beam="2">  1       -1 0.28656657E+00 0.47986114E+04</pdfrwt>
<totfact> 0.51725077E-02</totfact>
</mgrwt>
</event>
<event>
12    7  0.1625631E-007  0.2561881E+04  0.7818608E-02  0.8381266E-01
          2   -1    0    0  501    0  0.00000000000E+00  0.00000000000E+00  0.30603805291E+04  0.30603805291E+04  0.00000000000E+00 0. -1.
         -1   -1    0    0    0  501 -0.00000000000E+00 -0.00000000000E+00 -0.53614530812E+03  0.53614530812E+03  0.00000000000E+00 0.  1.
         24    2    1    2    0    0 -0.10406049781E+04 -0.31031465382E+03  0.16037857764E+04  0.19383494248E+04  0.76914051333E+02 0.  0.
        254    2    1    2    0    0  0.10406049781E+04  0.31031465382E+03  0.92044944466E+03  0.16581764125E+04  0.85039280912E+03 0.  0.
         23    2    4    4    0    0  0.49417324458E+03 -0.26944912580E+03  0.30123050296E+03  0.64504548455E+03  0.92378753872E+02 0.  0.
         23    2    4    4    0    0  0.54643173354E+03  0.57976377962E+03  0.61921894170E+03  0.10131309279E+04  0.91041198134E+02 0.  0.
          4    1    3    3  502    0 -0.82338663095E+03 -0.26431810752E+03  0.13195604914E+04  0.15776785149E+04  0.00000000000E+00 0. -1.
         -3    1    3    3    0  502 -0.21721834717E+03 -0.45996546302E+02  0.28422528499E+03  0.36067090989E+03  0.00000000000E+00 0.  1.
         13    1    5    5    0    0  0.21309739715E+03 -0.13644144200E+03  0.18340858987E+03  0.31251476542E+03  0.00000000000E+00 0.  1.
        -13    1    5    5    0    0  0.28107584743E+03 -0.13300768380E+03  0.11782191309E+03  0.33253071913E+03  0.00000000000E+00 0. -1.
          4    1    6    6  503    0  0.39847009391E+03  0.44727700576E+03  0.50845549926E+03  0.78572395302E+03  0.00000000000E+00 0. -1.
         -4    1    6    6    0  503  0.14796163962E+03  0.13248677386E+03  0.11076344244E+03  0.22740697490E+03  0.00000000000E+00 0.  1.
<mgrwt>
<rscale>  0 0.25618811E+04</rscale>
<asrwt>0</asrwt>
<pdfrwt beam="1">  1        2 0.47082776E+00 0.25618811E+04</pdfrwt>
<pdfrwt beam="2">  1       -1 0.82483895E-01 0.25618811E+04</pdfrwt>
<totfact> 0.23512709E+00</totfact>
</mgrwt>
</event>
<event>
12    7  0.1625631E-007  0.1040176E+04  0.7818608E-02  0.9265546E-01
         -1   -1    0    0    0  501 -0.00000000000E+00  0.00000000000E+00  0.32462039199E+03  0.32462039199E+03  0.00000000000E+00 0.  1.
          2   -1    0    0  501    0  0.00000000000E+00 -0.00000000000E+00 -0.83325522825E+03  0.83325522825E+03  0.00000000000E+00 0. -1.
         24    2    1    2    0    0 -0.88174137131E+02 -0.15883190765E+02 -0.12557797847E+03  0.17353770992E+03  0.79489331859E+02 0.  0.
        254    2    1    2    0    0  0.88174137131E+02  0.15883190765E+02 -0.38305685778E+03  0.98433791032E+03  0.90230904417E+03 0.  0.
         23    2    4    4    0    0 -0.37844601975E+03  0.14372078460E+03 -0.16862438715E+03  0.44758762018E+03  0.89573656887E+02 0.  0.
         23    2    4    4    0    0  0.46662015688E+03 -0.12783759384E+03 -0.21443247064E+03  0.53675029014E+03  0.89681482485E+02 0.  0.
          2    1    3    3  502    0 -0.28431463982E+02  0.28412046166E+02 -0.69901667325E+02  0.80633960627E+02  0.00000000000E+00 0. -1.
         -1    1    3    3    0  502 -0.59742673149E+02 -0.44295236931E+02 -0.55676311149E+02  0.92903749295E+02  0.00000000000E+00 0.  1.
         13    1    5    5    0    0 -0.34863153793E+03  0.15486752785E+03 -0.16470002917E+03  0.41551654604E+03  0.00000000000E+00 0. -1.
        -13    1    5    5    0    0 -0.29814481813E+02 -0.11146743249E+02 -0.39243579740E+01  0.32071074138E+02  0.00000000000E+00 0.  1.
          1    1    6    6  503    0  0.11757704312E+03 -0.73182844889E+02 -0.52468568208E+02  0.14809807732E+03  0.00000000000E+00 0. -1.
         -1    1    6    6    0  503  0.34904311375E+03 -0.54654748948E+02 -0.16196390243E+03  0.38865221282E+03  0.00000000000E+00 0.  1.
<mgrwt>
<rscale>  0 0.10401762E+04</rscale>
<asrwt>0</asrwt>
<pdfrwt beam="1">  1        2 0.12819311E+00 0.10401762E+04</pdfrwt>
<pdfrwt beam="2">  1       -1 0.49941599E-01 0.10401762E+04</pdfrwt>
<totfact> 0.14909133E+02</totfact>
</mgrwt>
</event>
<event>
12    7  0.1625631E-007  0.2218701E+04  0.7818608E-02  0.8510684E-01
          2   -1    0    0  501    0  0.00000000000E+00  0.00000000000E+00  0.29820184943E+04  0.29820184943E+04  0.00000000000E+00 0. -1.
         -1   -1    0    0    0  501 -0.00000000000E+00 -0.00000000000E+00 -0.41269330465E+03  0.41269330465E+03  0.00000000000E+00 0.  1.
         24    2    1    2    0    0  0.90546043680E+03  0.88932806040E+01  0.13957831818E+04  0.16656552977E+04  0.79115025486E+02 0.  0.
        254    2    1    2    0    0 -0.90546043680E+03 -0.88932806040E+01  0.11735420078E+04  0.17290565012E+04  0.89022348154E+03 0.  0.
         23    2    4    4    0    0 -0.30236916519E+02  0.31433088262E+03  0.25848169325E+03  0.41918684488E+03  0.95847015017E+02 0.  0.
         23    2    4    4    0    0 -0.87522352028E+03 -0.32322416322E+03  0.91506031456E+03  0.13098696563E+04  0.89067766510E+02 0.  0.
          2    1    3    3  502    0  0.43482599029E+02 -0.82714522097E+00  0.40359003025E+02  0.59331860856E+02  0.00000000000E+00 0. -1.
         -1    1    3    3    0  502  0.86197783777E+03  0.97204258250E+01  0.13554241788E+04  0.16063234369E+04  0.00000000000E+00 0.  1.
         13    1    5    5    0    0 -0.17901250544E+02  0.31119167579E+03  0.22811566698E+03  0.38626088512E+03  0.00000000000E+00 0.  1.
        -13    1    5    5    0    0 -0.12335665975E+02  0.31392068251E+01  0.30366026272E+02  0.32925959760E+02  0.00000000000E+00 0. -1.
          1    1    6    6  503    0 -0.30021857256E+03 -0.73187989625E+02  0.33386165531E+03  0.45491897963E+03  0.00000000000E+00 0. -1.
         -1    1    6    6    0  503 -0.57500494772E+03 -0.25003617360E+03  0.58119865925E+03  0.85495067666E+03  0.00000000000E+00 0.  1.
<mgrwt>
<rscale>  0 0.22187015E+04</rscale>
<asrwt>0</asrwt>
<pdfrwt beam="1">  1        2 0.45877206E+00 0.22187015E+04</pdfrwt>
<pdfrwt beam="2">  1       -1 0.63491279E-01 0.22187015E+04</pdfrwt>
<totfact> 0.46735025E+00</totfact>
</mgrwt>
</event>
<event>
12    7  0.1625631E-007  0.1710782E+04  0.7818608E-02  0.8755239E-01
          2   -1    0    0  501    0  0.00000000000E+00  0.00000000000E+00  0.86674482037E+03  0.86674482037E+03  0.00000000000E+00 0. -1.
         -1   -1    0    0    0  501 -0.00000000000E+00 -0.00000000000E+00 -0.84418556240E+03  0.84418556240E+03  0.00000000000E+00 0.  1.
         24    2    1    2    0    0 -0.22083224277E+03  0.32044360954E+03  0.48168150244E+03  0.62442502243E+03  0.80240591323E+02 0.  0.
        254    2    1    2    0    0  0.22083224277E+03 -0.32044360954E+03 -0.45912224447E+03  0.10865053603E+04  0.90457154298E+03 0.  0.
         23    2    4    4    0    0  0.13531322798E+03 -0.36982242259E+03  0.17165650663E+03  0.44039695820E+03  0.96980568207E+02 0.  0.
         23    2    4    4    0    0  0.85519014788E+02  0.49378813048E+02 -0.63077875110E+03  0.64610840215E+03  0.99108351889E+02 0.  0.
          2    1    3    3  502    0 -0.20043435289E+03  0.24554472946E+03  0.35556119592E+03  0.47632962120E+03  0.00000000000E+00 0. -1.
         -1    1    3    3    0  502 -0.20397889879E+02  0.74898880078E+02  0.12612030652E+03  0.14809540123E+03  0.00000000000E+00 0.  1.
         13    1    5    5    0    0 -0.15019732603E+02 -0.22235086964E+02  0.10065345477E+02  0.28658378171E+02  0.00000000000E+00 0. -1.
        -13    1    5    5    0    0  0.15033296058E+03 -0.34758733563E+03  0.16159116116E+03  0.41173858003E+03  0.00000000000E+00 0.  1.
          2    1    6    6  503    0  0.57659714698E+02  0.65253259597E+02 -0.26528765855E+03  0.27921348887E+03  0.00000000000E+00 0.  1.
         -2    1    6    6    0  503  0.27859300090E+02 -0.15874446548E+02 -0.36549109255E+03  0.36689491328E+03  0.00000000000E+00 0. -1.
<mgrwt>
<rscale>  0 0.17107817E+04</rscale>
<asrwt>0</asrwt>
<pdfrwt beam="1">  1        2 0.13334536E+00 0.17107817E+04</pdfrwt>
<pdfrwt beam="2">  1       -1 0.12987470E+00 0.17107817E+04</pdfrwt>
<totfact> 0.17048797E+01</totfact>
</mgrwt>
</event>
<event>
12    7  0.1625631E-007  0.1172052E+04  0.7818608E-02  0.9137677E-01
          2   -1    0    0  501    0  0.00000000000E+00  0.00000000000E+00  0.11945019379E+04  0.11945019379E+04  0.00000000000E+00 0. -1.
         -1   -1    0    0    0  501 -0.00000000000E+00 -0.00000000000E+00 -0.28750594527E+03  0.28750594527E+03  0.00000000000E+00 0.  1.
         24    2    1    2    0    0  0.79868940235E+02  0.15734455246E+03 -0.26422731543E+02  0.19504978970E+03  0.78802943583E+02 0.  0.
        254    2    1    2    0    0 -0.79868940235E+02 -0.15734455246E+03  0.93341872415E+03  0.12869580934E+04  0.86824781247E+03 0.  0.
         23    2    4    4    0    0  0.27440862021E+02  0.34740550510E+03  0.37323967484E+03  0.51965772315E+03  0.96398695372E+02 0.  0.
         23    2    4    4    0    0 -0.10730980226E+03 -0.50475005756E+03  0.56017904931E+03  0.76730037029E+03  0.93065980332E+02 0.  0.
          2    1    3    3  502    0  0.37554796883E+02  0.80978837764E+02  0.26303752497E+02  0.93058166379E+02  0.00000000000E+00 0. -1.
         -1    1    3    3    0  502  0.42314143353E+02  0.76365714700E+02 -0.52726484040E+02  0.10199162333E+03  0.00000000000E+00 0.  1.
         13    1    5    5    0    0  0.42890104745E+02  0.11170664866E+03  0.17096527258E+03  0.20867932544E+03  0.00000000000E+00 0. -1.
        -13    1    5    5    0    0 -0.15449242724E+02  0.23569885644E+03  0.20227440227E+03  0.31097839771E+03  0.00000000000E+00 0.  1.
          2    1    6    6  503    0 -0.29699750462E+02 -0.32494065204E+02  0.66224660761E+02  0.79521350240E+02  0.00000000000E+00 0. -1.
         -2    1    6    6    0  503 -0.77610051794E+02 -0.47225599236E+03  0.49395438854E+03  0.68777902005E+03  0.00000000000E+00 0.  1.
<mgrwt>
<rscale>  0 0.11720519E+04</rscale>
<asrwt>0</asrwt>
<pdfrwt beam="1">  1        2 0.18376953E+00 0.11720519E+04</pdfrwt>
<pdfrwt beam="2">  1       -1 0.44231685E-01 0.11720519E+04</pdfrwt>
<totfact> 0.10871180E+02</totfact>
</mgrwt>
</event>
<event>
12    7  0.1625631E-007  0.2220703E+04  0.7818608E-02  0.8509860E-01
         -1   -1    0    0    0  501 -0.00000000000E+00  0.00000000000E+00  0.71916518492E+03  0.71916518492E+03  0.00000000000E+00 0.  1.
          2   -1    0    0  501    0  0.00000000000E+00 -0.00000000000E+00 -0.17143213108E+04  0.17143213108E+04  0.00000000000E+00 0. -1.
         24    2    1    2    0    0 -0.52888865615E+03 -0.10319883969E+02  0.42646971577E+03  0.68419866611E+03  0.80135420577E+02 0.  0.
        254    2    1    2    0    0  0.52888865615E+03  0.10319883969E+02 -0.14216258416E+04  0.17492878296E+04  0.87129683033E+03 0.  0.
         23    2    4    4    0    0  0.44840244471E+03  0.28236041646E+03 -0.13338635991E+04  0.14382675482E+04  0.92893929296E+02 0.  0.
         23    2    4    4    0    0  0.80486211444E+02 -0.27204053249E+03 -0.87762242540E+02  0.31102028136E+03  0.92451731483E+02 0.  0.
          4    1    3    3  502    0 -0.12420636703E+03  0.23028972260E+02  0.73325187300E+02  0.14606210414E+03  0.00000000000E+00 0. -1.
         -3    1    3    3    0  502 -0.40468228912E+03 -0.33348856229E+02  0.35314452847E+03  0.53813656197E+03  0.00000000000E+00 0.  1.
         13    1    5    5    0    0  0.38260482375E+03  0.19902351541E+03 -0.10442544548E+04  0.11298071416E+04  0.00000000000E+00 0. -1.
        -13    1    5    5    0    0  0.65797620964E+02  0.83336901041E+02 -0.28960914424E+03  0.30846040658E+03  0.00000000000E+00 0.  1.
          1    1    6    6  503    0  0.54837912534E+02 -0.23913156083E+03 -0.41676698688E+02  0.24885346542E+03  0.00000000000E+00 0. -1.
         -1    1    6    6    0  503  0.25648298910E+02 -0.32908971654E+02 -0.46085543852E+02  0.62166815943E+02  0.00000000000E+00 0.  1.
<mgrwt>
<rscale>  0 0.22207028E+04</rscale>
<asrwt>0</asrwt>
<pdfrwt beam="1">  1        2 0.26374174E+00 0.22207028E+04</pdfrwt>
<pdfrwt beam="2">  1       -1 0.11064080E+00 0.22207028E+04</pdfrwt>
<totfact> 0.75307813E+00</totfact>
</mgrwt>
</event>
<event>
12    7  0.1625631E-007  0.2705693E+04  0.7818608E-02  0.8333160E-01
         -1   -1    0    0    0  501 -0.00000000000E+00  0.00000000000E+00  0.10682378925E+04  0.10682378925E+04  0.00000000000E+00 0.  1.
          2   -1    0    0  501    0  0.00000000000E+00 -0.00000000000E+00 -0.17132822323E+04  0.17132822323E+04  0.00000000000E+00 0. -1.
         24    2    1    2    0    0 -0.40508179095E+03  0.11269988577E+04 -0.34693061223E+03  0.12495676649E+04  0.82709229773E+02 0.  0.
        254    2    1    2    0    0  0.40508179095E+03 -0.11269988577E+04 -0.29811372757E+03  0.15319524598E+04  0.90762815177E+03 0.  0.
         23    2    4    4    0    0  0.98510601790E+02 -0.10259903704E+04 -0.48975797609E+03  0.11447734245E+04  0.91009556387E+02 0.  0.
         23    2    4    4    0    0  0.30657118916E+03 -0.10100848734E+03  0.19164424852E+03  0.38717903538E+03  0.94823409065E+02 0.  0.
          2    1    3    3  502    0 -0.45758767220E+02  0.22002169638E+03 -0.72679365085E+02  0.23618996965E+03  0.00000000000E+00 0. -1.
         -3    1    3    3    0  502 -0.35932302373E+03  0.90697716137E+03 -0.27425124714E+03  0.10133776952E+04  0.00000000000E+00 0.  1.
         13    1    5    5    0    0  0.76589106722E+02 -0.87245061807E+03 -0.37957313872E+03  0.95452173358E+03  0.00000000000E+00 0.  1.
        -13    1    5    5    0    0  0.21921495069E+02 -0.15353975234E+03 -0.11018483736E+03  0.19025169087E+03  0.00000000000E+00 0. -1.
          4    1    6    6  503    0  0.50557157773E+02 -0.51754670373E+02  0.65333196041E+02  0.97483324792E+02  0.00000000000E+00 0. -1.
         -4    1    6    6    0  503  0.25601403139E+03 -0.49253816968E+02  0.12631105248E+03  0.28969571059E+03  0.00000000000E+00 0.  1.
<mgrwt>
<rscale>  0 0.27056925E+04</rscale>
<asrwt>0</asrwt>
<pdfrwt beam="1">  1        2 0.26358188E+00 0.27056925E+04</pdfrwt>
<pdfrwt beam="2">  1       -1 0.16434429E+00 0.27056925E+04</pdfrwt>
<totfact> 0.26084600E+00</totfact>
</mgrwt>
</event>
<event>
12    7  0.1625631E-007  0.1221070E+04  0.7818608E-02  0.9094611E-01
          2   -1    0    0  501    0  0.00000000000E+00  0.00000000000E+00  0.30647875322E+04  0.30647875322E+04  0.00000000000E+00 0. -1.
         -1   -1    0    0    0  501 -0.00000000000E+00 -0.00000000000E+00 -0.12162449732E+03  0.12162449732E+03  0.00000000000E+00 0.  1.
         24    2    1    2    0    0  0.12675741594E+03  0.21496832871E+03  0.69690610135E+03  0.74445470855E+03  0.79094084021E+02 0.  0.
        254    2    1    2    0    0 -0.12675741594E+03 -0.21496832871E+03  0.22462569335E+04  0.24419573209E+04  0.92477376756E+03 0.  0.
         23    2    4    4    0    0 -0.42038194400E+02 -0.45003627660E+03  0.52241464003E+03  0.69769404720E+03  0.97775596831E+02 0.  0.
         23    2    4    4    0    0 -0.84719221541E+02  0.23506794788E+03  0.17238422935E+04  0.17442632737E+04  0.91585090337E+02 0.  0.
          4    1    3    3  502    0  0.23240453259E+02  0.44923675601E+02  0.67705781554E+02  0.84512295869E+02  0.00000000000E+00 0. -1.
         -3    1    3    3    0  502  0.10351696268E+03  0.17004465311E+03  0.62920031980E+03  0.65994241268E+03  0.00000000000E+00 0.  1.
         13    1    5    5    0    0 -0.32271022148E+02 -0.41964448547E+03  0.51465769406E+03  0.66484242878E+03  0.00000000000E+00 0.  1.
        -13    1    5    5    0    0 -0.97671722518E+01 -0.30391791130E+02  0.77569459740E+01  0.32851618419E+02  0.00000000000E+00 0. -1.
          4    1    6    6  503    0  0.20680636292E+01  0.28392401335E+02  0.74419393005E+02  0.79678424909E+02  0.00000000000E+00 0. -1.
         -4    1    6    6    0  503 -0.86787285171E+02  0.20667554655E+03  0.16494229004E+04  0.16645848488E+04  0.00000000000E+00 0.  1.
<mgrwt>
<rscale>  0 0.12210704E+04</rscale>
<asrwt>0</asrwt>
<pdfrwt beam="1">  1        2 0.47150571E+00 0.12210704E+04</pdfrwt>
<pdfrwt beam="2">  1       -1 0.18711463E-01 0.12210704E+04</pdfrwt>
<totfact> 0.41275835E+01</totfact>
</mgrwt>
</event>
<event>
12    7  0.1625631E-007  0.1906243E+04  0.7818608E-02  0.8651755E-01
         -1   -1    0    0    0  501 -0.00000000000E+00  0.00000000000E+00  0.32093152153E+03  0.32093152153E+03  0.00000000000E+00 0.  1.
          2   -1    0    0  501    0  0.00000000000E+00 -0.00000000000E+00 -0.28306356685E+04  0.28306356685E+04  0.00000000000E+00 0. -1.
         24    2    1    2    0    0  0.91730358356E+02  0.46317649184E+03 -0.19151951580E+04  0.19740770029E+04  0.77849849049E+02 0.  0.
        254    2    1    2    0    0 -0.91730358356E+02 -0.46317649184E+03 -0.59450898892E+03  0.11774901870E+04  0.90005293258E+03 0.  0.
         23    2    4    4    0    0  0.15961623484E+03  0.20507291280E+03 -0.27801860651E+03  0.39116162137E+03  0.90447921376E+02 0.  0.
         23    2    4    4    0    0 -0.25134659319E+03 -0.66824940464E+03 -0.31649038241E+03  0.78632856568E+03  0.91728263545E+02 0.  0.
          2    1    3    3  502    0  0.25566874790E+02  0.30957508885E+03 -0.12940348041E+04  0.13307954294E+04  0.00000000000E+00 0. -1.
         -1    1    3    3    0  502  0.66163483566E+02  0.15360140299E+03 -0.62116035389E+03  0.64328157350E+03  0.00000000000E+00 0.  1.
         13    1    5    5    0    0  0.12562551051E+03  0.11285655968E+03 -0.12836998460E+03  0.21212549328E+03  0.00000000000E+00 0. -1.
        -13    1    5    5    0    0  0.33990724331E+02  0.92216353120E+02 -0.14964862191E+03  0.17903612809E+03  0.00000000000E+00 0.  1.
          1    1    6    6  503    0 -0.37983132865E+02 -0.86982154631E+02 -0.77802363467E+02  0.12272661230E+03  0.00000000000E+00 0. -1.
         -1    1    6    6    0  503 -0.21336346033E+03 -0.58126725001E+03 -0.23868801894E+03  0.66360195337E+03  0.00000000000E+00 0.  1.
<mgrwt>
<rscale>  0 0.19062426E+04</rscale>
<asrwt>0</asrwt>
<pdfrwt beam="1">  1        2 0.43548242E+00 0.19062426E+04</pdfrwt>
<pdfrwt beam="2">  1       -1 0.49374079E-01 0.19062426E+04</pdfrwt>
<totfact> 0.97269256E+00</totfact>
</mgrwt>
</event>
<event>
12    7  0.1625631E-007  0.2647157E+04  0.7818608E-02  0.8352357E-01
          2   -1    0    0  501    0  0.00000000000E+00  0.00000000000E+00  0.18337626936E+04  0.18337626936E+04  0.00000000000E+00 0. -1.
         -1   -1    0    0    0  501 -0.00000000000E+00 -0.00000000000E+00 -0.95533614672E+03  0.95533614672E+03  0.00000000000E+00 0.  1.
         24    2    1    2    0    0  0.73837942741E+03  0.12677930992E+03 -0.55801208427E+03  0.93772810205E+03  0.81727198203E+02 0.  0.
        254    2    1    2    0    0 -0.73837942741E+03 -0.12677930992E+03  0.14364386312E+04  0.18513707383E+04  0.89606947120E+03 0.  0.
         23    2    4    4    0    0 -0.66202497348E+03 -0.39971382649E+03  0.13176097204E+04  0.15302739477E+04  0.87147983115E+02 0.  0.
         23    2    4    4    0    0 -0.76354453936E+02  0.27293451657E+03  0.11882891073E+03  0.32109679060E+03  0.93056896257E+02 0.  0.
          2    1    3    3  502    0  0.20888530973E+03  0.12043815267E+02 -0.12130284271E+03  0.24185223951E+03  0.00000000000E+00 0. -1.
         -1    1    3    3    0  502  0.52949411768E+03  0.11473549465E+03 -0.43670924157E+03  0.69587586254E+03  0.00000000000E+00 0.  1.
         13    1    5    5    0    0 -0.38628189451E+02 -0.29209004583E+01  0.78732951372E+02  0.87747058705E+02  0.00000000000E+00 0. -1.
        -13    1    5    5    0    0 -0.62339678402E+03 -0.39679292603E+03  0.12388767691E+04  0.14425268890E+04  0.00000000000E+00 0.  1.
          1    1    6    6  503    0 -0.81482900151E+02  0.13014799191E+03  0.79464793093E+02  0.17289481240E+03  0.00000000000E+00 0. -1.
         -1    1    6    6    0  503  0.51284462156E+01  0.14278652466E+03  0.39364117632E+02  0.14820197820E+03  0.00000000000E+00 0.  1.
<mgrwt>
<rscale>  0 0.26471568E+04</rscale>
<asrwt>0</asrwt>
<pdfrwt beam="1">  1        2 0.28211734E+00 0.26471568E+04</pdfrwt>
<pdfrwt beam="2">  1       -1 0.14697479E+00 0.26471568E+04</pdfrwt>
<totfact> 0.30542862E+00</totfact>
</mgrwt>
</event>
<event>
12    7  0.1625631E-007  0.1162258E+04  0.7818608E-02  0.9146549E-01
          2   -1    0    0  501    0  0.00000000000E+00  0.00000000000E+00  0.21749617319E+03  0.21749617319E+03  0.00000000000E+00 0. -1.
         -1   -1    0    0    0  501 -0.00000000000E+00 -0.00000000000E+00 -0.15527207002E+04  0.15527207002E+04  0.00000000000E+00 0.  1.
         24    2    1    2    0    0  0.13185190470E+03  0.54755966068E+01  0.12198415298E+01  0.15570102337E+03  0.82622114081E+02 0.  0.
        254    2    1    2    0    0 -0.13185190470E+03 -0.54755966068E+01 -0.13364443685E+04  0.16145158500E+04  0.89619360233E+03 0.  0.
         23    2    4    4    0    0 -0.38076490041E+03  0.19150537082E+03 -0.11616738974E+04  0.12406397712E+04  0.89691591232E+02 0.  0.
         23    2    4    4    0    0  0.24891299572E+03 -0.19698096742E+03 -0.17477047112E+03  0.37387607882E+03  0.92083786683E+02 0.  0.
          4    1    3    3  502    0  0.51970700411E+02  0.39023809824E+02  0.18029637069E+02  0.67445379732E+02  0.00000000000E+00 0. -1.
         -3    1    3    3    0  502  0.79881204284E+02 -0.33548213217E+02 -0.16809795539E+02  0.88255643638E+02  0.00000000000E+00 0.  1.
         13    1    5    5    0    0 -0.32113820926E+03  0.15994149908E+03 -0.86611560923E+03  0.93747921637E+03  0.00000000000E+00 0. -1.
        -13    1    5    5    0    0 -0.59626691154E+02  0.31563871737E+02 -0.29555828818E+03  0.30316055483E+03  0.00000000000E+00 0.  1.
          4    1    6    6  503    0  0.21129894629E+03 -0.15893718521E+03 -0.18039964085E+03  0.32008171451E+03  0.00000000000E+00 0. -1.
         -4    1    6    6    0  503  0.37614049430E+02 -0.38043782210E+02  0.56291697226E+01  0.53794364307E+02  0.00000000000E+00 0.  1.
<mgrwt>
<rscale>  0 0.11622578E+04</rscale>
<asrwt>0</asrwt>
<pdfrwt beam="1">  1        2 0.33460949E-01 0.11622578E+04</pdfrwt>
<pdfrwt beam="2">  1       -1 0.23888012E+00 0.11622578E+04</pdfrwt>
<totfact> 0.14760121E+01</totfact>
</mgrwt>
</event>
<event>
12    7  0.1625631E-007  0.2592904E+04  0.7818608E-02  0.8370616E-01
          2   -1    0    0  501    0  0.00000000000E+00  0.00000000000E+00  0.16399477687E+04  0.16399477687E+04  0.00000000000E+00 0. -1.
         -1   -1    0    0    0  501 -0.00000000000E+00 -0.00000000000E+00 -0.10249029429E+04  0.10249029429E+04  0.00000000000E+00 0.  1.
         24    2    1    2    0    0  0.52293585098E+03 -0.78936676752E+03 -0.38808249177E+03  0.10265380956E+04  0.81305863107E+02 0.  0.
        254    2    1    2    0    0 -0.52293585098E+03  0.78936676752E+03  0.10031273176E+04  0.16383126160E+04  0.88387895913E+03 0.  0.
         23    2    4    4    0    0 -0.35643299226E+03  0.82428863531E+02  0.79111240394E+03  0.87617934728E+03  0.89400321139E+02 0.  0.
         23    2    4    4    0    0 -0.16650285872E+03  0.70693790399E+03  0.21201491370E+03  0.76213326870E+03  0.91719101471E+02 0.  0.
          4    1    3    3  502    0  0.11206451617E+03 -0.11976648540E+03 -0.52048064069E+02  0.17207982968E+03  0.00000000000E+00 0. -1.
         -3    1    3    3    0  502  0.41087133482E+03 -0.66960028212E+03 -0.33603442770E+03  0.85445826591E+03  0.00000000000E+00 0.  1.
         13    1    5    5    0    0 -0.13513039084E+03  0.21443410379E+02  0.20250295648E+03  0.24439208204E+03  0.00000000000E+00 0. -1.
        -13    1    5    5    0    0 -0.22130260142E+03  0.60985453152E+02  0.58860944745E+03  0.63178726524E+03  0.00000000000E+00 0.  1.
          3    1    6    6  503    0 -0.65020695465E+01  0.12092319494E+03  0.63677792025E+02  0.13681943276E+03  0.00000000000E+00 0. -1.
         -3    1    6    6    0  503 -0.16000078918E+03  0.58601470905E+03  0.14833712167E+03  0.62531383595E+03  0.00000000000E+00 0.  1.
<mgrwt>
<rscale>  0 0.25929036E+04</rscale>
<asrwt>0</asrwt>
<pdfrwt beam="1">  1        2 0.25229966E+00 0.25929036E+04</pdfrwt>
<pdfrwt beam="2">  1       -1 0.15767738E+00 0.25929036E+04</pdfrwt>
<totfact> 0.32493565E+00</totfact>
</mgrwt>
</event>
<event>
12    7  0.1625631E-007  0.1487789E+04  0.7818608E-02  0.8892614E-01
         -1   -1    0    0    0  501 -0.00000000000E+00  0.00000000000E+00  0.47715544875E+03  0.47715544875E+03  0.00000000000E+00 0.  1.
          2   -1    0    0  501    0  0.00000000000E+00 -0.00000000000E+00 -0.11597464122E+04  0.11597464122E+04  0.00000000000E+00 0. -1.
         24    2    1    2    0    0  0.40844861106E+03 -0.15789214767E+02 -0.47182895731E+03  0.62968276870E+03  0.82451543712E+02 0.  0.
        254    2    1    2    0    0 -0.40844861106E+03  0.15789214767E+02 -0.21076200610E+03  0.10072190922E+04  0.89609715395E+03 0.  0.
         23    2    4    4    0    0  0.43260132299E+02  0.16085447600E+03 -0.43485474922E+03  0.47451245140E+03  0.91202040108E+02 0.  0.
         23    2    4    4    0    0 -0.45170874336E+03 -0.14506526123E+03  0.22409274312E+03  0.53270664082E+03  0.92054814169E+02 0.  0.
          2    1    3    3  502    0  0.33682640435E+03  0.95398043990E+01 -0.34797250738E+03  0.48438404230E+03  0.00000000000E+00 0. -1.
         -1    1    3    3    0  502  0.71622206705E+02 -0.25329019166E+02 -0.12385644993E+03  0.14529872640E+03  0.00000000000E+00 0.  1.
         13    1    5    5    0    0  0.70432377300E+02  0.92193045553E+02 -0.27061080653E+03  0.29443248128E+03  0.00000000000E+00 0.  1.
        -13    1    5    5    0    0 -0.27172245001E+02  0.68661430444E+02 -0.16424394269E+03  0.18007997012E+03  0.00000000000E+00 0. -1.
          2    1    6    6  503    0 -0.10905165951E+03 -0.13192057094E+02  0.89379914867E+02  0.14161590304E+03  0.00000000000E+00 0. -1.
         -2    1    6    6    0  503 -0.34265708385E+03 -0.13187320414E+03  0.13471282825E+03  0.39109073778E+03  0.00000000000E+00 0.  1.
<mgrwt>
<rscale>  0 0.14877894E+04</rscale>
<asrwt>0</asrwt>
<pdfrwt beam="1">  1        2 0.17842252E+00 0.14877894E+04</pdfrwt>
<pdfrwt beam="2">  1       -1 0.73408532E-01 0.14877894E+04</pdfrwt>
<totfact> 0.41304027E+01</totfact>
</mgrwt>
</event>
<event>
12    7  0.1625631E-007  0.1531582E+04  0.7818608E-02  0.8863719E-01
          2   -1    0    0  501    0  0.00000000000E+00  0.00000000000E+00  0.16813737463E+04  0.16813737463E+04  0.00000000000E+00 0. -1.
         -1   -1    0    0    0  501 -0.00000000000E+00 -0.00000000000E+00 -0.34878387616E+03  0.34878387616E+03  0.00000000000E+00 0.  1.
         24    2    1    2    0    0 -0.34606516508E+03  0.12499675086E+03 -0.38733136304E+01  0.37732574992E+03  0.83513069574E+02 0.  0.
        254    2    1    2    0    0  0.34606516508E+03 -0.12499675086E+03  0.13364631838E+04  0.16528318725E+04  0.90018557591E+03 0.  0.
         23    2    4    4    0    0  0.15521116827E+03  0.34293734051E+03  0.27816400505E+03  0.47659779012E+03  0.89853845643E+02 0.  0.
         23    2    4    4    0    0  0.19085399681E+03 -0.46793409137E+03  0.10582991787E+04  0.11762340824E+04  0.90232494050E+02 0.  0.
          2    1    3    3  502    0 -0.21336004720E+03  0.59578742009E+02  0.35196226758E+02  0.22430093762E+03  0.00000000000E+00 0. -1.
         -1    1    3    3    0  502 -0.13270511788E+03  0.65418008853E+02 -0.39069540388E+02  0.15302481230E+03  0.00000000000E+00 0.  1.
         13    1    5    5    0    0  0.12503512256E+03  0.20021736949E+03  0.13366286516E+03  0.27126838821E+03  0.00000000000E+00 0.  1.
        -13    1    5    5    0    0  0.30176045709E+02  0.14271997102E+03  0.14450113989E+03  0.20532940191E+03  0.00000000000E+00 0. -1.
          4    1    6    6  503    0  0.19704195501E+02 -0.10380906250E+02  0.75526534429E+02  0.78741830927E+02  0.00000000000E+00 0. -1.
         -4    1    6    6    0  503  0.17114980131E+03 -0.45755318512E+03  0.98277264429E+03  0.10974922515E+04  0.00000000000E+00 0.  1.
<mgrwt>
<rscale>  0 0.15315823E+04</rscale>
<asrwt>0</asrwt>
<pdfrwt beam="1">  1        2 0.25867288E+00 0.15315823E+04</pdfrwt>
<pdfrwt beam="2">  1       -1 0.53659059E-01 0.15315823E+04</pdfrwt>
<totfact> 0.38655140E+01</totfact>
</mgrwt>
</event>
<event>
12    7  0.1625631E-007  0.2669291E+04  0.7818608E-02  0.8345038E-01
         -1   -1    0    0    0  501 -0.00000000000E+00  0.00000000000E+00  0.56116832786E+03  0.56116832786E+03  0.00000000000E+00 0.  1.
          2   -1    0    0  501    0  0.00000000000E+00 -0.00000000000E+00 -0.31742315702E+04  0.31742315702E+04  0.00000000000E+00 0. -1.
         24    2    1    2    0    0  0.10686815424E+04  0.49684161631E+03 -0.10802392229E+04  0.16007074613E+04  0.80098484001E+02 0.  0.
        254    2    1    2    0    0 -0.10686815424E+04 -0.49684161631E+03 -0.15328240194E+04  0.21346924368E+04  0.90467148427E+03 0.  0.
         23    2    4    4    0    0 -0.55736398993E+03 -0.35250916388E+02 -0.14721595595E+03  0.58466315816E+03  0.90891289208E+02 0.  0.
         23    2    4    4    0    0 -0.51131755245E+03 -0.46159069992E+03 -0.13856080635E+04  0.15500292786E+04  0.90384984026E+02 0.  0.
          2    1    3    3  502    0  0.36305538142E+03  0.16405637286E+03 -0.41698561515E+03  0.57671544690E+03  0.00000000000E+00 0. -1.
         -1    1    3    3    0  502  0.70562616096E+03  0.33278524344E+03 -0.66325360779E+03  0.10239920144E+04  0.00000000000E+00 0.  1.
         13    1    5    5    0    0 -0.10596050941E+03  0.43413755415E+00 -0.65400884057E+02  0.12451945095E+03  0.00000000000E+00 0. -1.
        -13    1    5    5    0    0 -0.45140348052E+03 -0.35685053942E+02 -0.81815071898E+02  0.46014370722E+03  0.00000000000E+00 0.  1.
          2    1    6    6  503    0 -0.42810349240E+03 -0.34445414996E+03 -0.10539461554E+04  0.11885805652E+04  0.00000000000E+00 0.  1.
         -2    1    6    6    0  503 -0.83214060055E+02 -0.11713654996E+03 -0.33166190812E+03  0.36144871341E+03  0.00000000000E+00 0. -1.
<mgrwt>
<rscale>  0 0.26692907E+04</rscale>
<asrwt>0</asrwt>
<pdfrwt beam="1">  1        2 0.48834332E+00 0.26692907E+04</pdfrwt>
<pdfrwt beam="2">  1       -1 0.86333589E-01 0.26692907E+04</pdfrwt>
<totfact> 0.17833855E+00</totfact>
</mgrwt>
</event>
<event>
12    7  0.1625631E-007  0.1564348E+04  0.7818608E-02  0.8842755E-01
         -1   -1    0    0    0  501 -0.00000000000E+00  0.00000000000E+00  0.14497232886E+03  0.14497232886E+03  0.00000000000E+00 0.  1.
          2   -1    0    0  501    0  0.00000000000E+00 -0.00000000000E+00 -0.42200896061E+04  0.42200896061E+04  0.00000000000E+00 0. -1.
         24    2    1    2    0    0  0.41379583046E+03 -0.14684615383E+03 -0.59969386600E+03  0.74768485081E+03  0.81296500617E+02 0.  0.
        254    2    1    2    0    0 -0.41379583046E+03  0.14684615383E+03 -0.34754234112E+04  0.36173770841E+04  0.90225179376E+03 0.  0.
         23    2    4    4    0    0  0.17232290649E+03  0.99559926399E+02 -0.21881675524E+04  0.21990494777E+04  0.90188719810E+02 0.  0.
         23    2    4    4    0    0 -0.58611873695E+03  0.47286227434E+02 -0.12872558588E+04  0.14183276064E+04  0.94097778118E+02 0.  0.
          4    1    3    3  502    0  0.81696359693E+02  0.37281474809E+01 -0.10324774609E+03  0.13171291259E+03  0.00000000000E+00 0. -1.
         -3    1    3    3    0  502  0.33209947077E+03 -0.15057430131E+03 -0.49644611991E+03  0.61597193822E+03  0.00000000000E+00 0.  1.
         13    1    5    5    0    0  0.28939673370E+02 -0.11200061244E+02 -0.17365263933E+03  0.17640347279E+03  0.00000000000E+00 0.  1.
        -13    1    5    5    0    0  0.14338323312E+03  0.11075998764E+03 -0.20145149131E+04  0.20226460049E+04  0.00000000000E+00 0. -1.
          1    1    6    6  503    0 -0.25191131174E+03  0.65002624779E+02 -0.59642506548E+03  0.65069770934E+03  0.00000000000E+00 0. -1.
         -1    1    6    6    0  503 -0.33420742521E+03 -0.17716397345E+02 -0.69083079332E+03  0.76762989702E+03  0.00000000000E+00 0.  1.
<mgrwt>
<rscale>  0 0.15643481E+04</rscale>
<asrwt>0</asrwt>
<pdfrwt beam="1">  1        2 0.64924442E+00 0.15643481E+04</pdfrwt>
<pdfrwt beam="2">  1       -1 0.22303440E-01 0.15643481E+04</pdfrwt>
<totfact> 0.42712206E+00</totfact>
</mgrwt>
</event>
<event>
12    7  0.1625631E-007  0.1498506E+04  0.7818608E-02  0.8885447E-01
         -3   -1    0    0    0  501 -0.00000000000E+00  0.00000000000E+00  0.65006790342E+03  0.65006790342E+03  0.00000000000E+00 0.  1.
          4   -1    0    0  501    0  0.00000000000E+00 -0.00000000000E+00 -0.86357133972E+03  0.86357133972E+03  0.00000000000E+00 0. -1.
         24    2    1    2    0    0 -0.20606067595E+03  0.95919497757E+02 -0.49368033163E+03  0.54924971066E+03  0.79331094761E+02 0.  0.
        254    2    1    2    0    0  0.20606067595E+03 -0.95919497757E+02  0.28017689534E+03  0.96438953248E+03  0.89436375455E+03 0.  0.
         23    2    4    4    0    0  0.23393281638E+03  0.32692614913E+03 -0.55083422223E+02  0.41621650966E+03  0.92718552310E+02 0.  0.
         23    2    4    4    0    0 -0.27872140428E+02 -0.42284564689E+03  0.33526031756E+03  0.54817302283E+03  0.92297806682E+02 0.  0.
          2    1    3    3  502    0 -0.15053734892E+03  0.51202465513E+02 -0.40737681733E+03  0.43730888076E+03  0.00000000000E+00 0. -1.
         -1    1    3    3    0  502 -0.55523327035E+02  0.44717032244E+02 -0.86303514299E+02  0.11194082990E+03  0.00000000000E+00 0.  1.
         13    1    5    5    0    0  0.38997123263E+02  0.56634589908E+02  0.25535882403E+02  0.73350757917E+02  0.00000000000E+00 0.  1.
        -13    1    5    5    0    0  0.19493569312E+03  0.27029155922E+03 -0.80619304627E+02  0.34286575174E+03  0.00000000000E+00 0. -1.
          1    1    6    6  503    0 -0.56595000685E+02 -0.31674582262E+03  0.27216933100E+03  0.42143452040E+03  0.00000000000E+00 0. -1.
         -1    1    6    6    0  503  0.28722860257E+02 -0.10609982427E+03  0.63090986560E+02  0.12673850243E+03  0.00000000000E+00 0.  1.
<mgrwt>
<rscale>  0 0.14985059E+04</rscale>
<asrwt>0</asrwt>
<pdfrwt beam="1">  1        4 0.13285713E+00 0.14985059E+04</pdfrwt>
<pdfrwt beam="2">  1       -3 0.10001045E+00 0.14985059E+04</pdfrwt>
<totfact> 0.79003852E-01</totfact>
</mgrwt>
</event>
<event>
12    7  0.1625631E-007  0.1626640E+04  0.7818608E-02  0.8804347E-01
         -1   -1    0    0    0  501 -0.00000000000E+00  0.00000000000E+00  0.24427503752E+03  0.24427503752E+03  0.00000000000E+00 0.  1.
          2   -1    0    0  501    0  0.00000000000E+00 -0.00000000000E+00 -0.27079707027E+04  0.27079707027E+04  0.00000000000E+00 0. -1.
         24    2    1    2    0    0 -0.18897018467E+03 -0.21691185145E+02 -0.18166062921E+04  0.18283416705E+04  0.81207176163E+02 0.  0.
        254    2    1    2    0    0  0.18897018467E+03  0.21691185145E+02 -0.64708937303E+03  0.11239040696E+04  0.89903029030E+03 0.  0.
         23    2    4    4    0    0 -0.55670788816E+02  0.37846929983E+03 -0.53917591761E+03  0.66738932875E+03  0.91430839169E+02 0.  0.
         23    2    4    4    0    0  0.24464097349E+03 -0.35677811469E+03 -0.10791345541E+03  0.45651474090E+03  0.98084482798E+02 0.  0.
          4    1    3    3  502    0 -0.19058512884E+03 -0.32401116775E+02 -0.17683031413E+04  0.17788390943E+04  0.00000000000E+00 0. -1.
         -3    1    3    3    0  502  0.16149441673E+01  0.10709931630E+02 -0.48303150764E+02  0.49502576235E+02  0.00000000000E+00 0.  1.
         13    1    5    5    0    0 -0.73478336161E+02  0.18543785014E+03 -0.27294242176E+03  0.33805891165E+03  0.00000000000E+00 0.  1.
        -13    1    5    5    0    0  0.17807547345E+02  0.19303144969E+03 -0.26623349585E+03  0.32933041710E+03  0.00000000000E+00 0. -1.
          1    1    6    6  503    0 -0.11048483568E+01 -0.51996674178E+02 -0.10350805004E+02  0.53028426147E+02  0.00000000000E+00 0. -1.
         -1    1    6    6    0  503  0.24574582185E+03 -0.30478144051E+03 -0.97562650410E+02  0.40348631475E+03  0.00000000000E+00 0.  1.
<mgrwt>
<rscale>  0 0.16266403E+04</rscale>
<asrwt>0</asrwt>
<pdfrwt beam="1">  1        2 0.41661088E+00 0.16266403E+04</pdfrwt>
<pdfrwt beam="2">  1       -1 0.37580775E-01 0.16266403E+04</pdfrwt>
<totfact> 0.19598809E+01</totfact>
</mgrwt>
</event>
<event>
12    7  0.1625631E-007  0.1875418E+04  0.7818608E-02  0.8667190E-01
         -1   -1    0    0    0  501 -0.00000000000E+00  0.00000000000E+00  0.63836652681E+03  0.63836652681E+03  0.00000000000E+00 0.  1.
          2   -1    0    0  501    0  0.00000000000E+00 -0.00000000000E+00 -0.13774193008E+04  0.13774193008E+04  0.00000000000E+00 0. -1.
         24    2    1    2    0    0  0.24867854336E+03  0.67162976220E+03 -0.26436065911E+03  0.76757327351E+03  0.79715849947E+02 0.  0.
        254    2    1    2    0    0 -0.24867854336E+03 -0.67162976220E+03 -0.47469211488E+03  0.12482125541E+04  0.90541395003E+03 0.  0.
         23    2    4    4    0    0  0.33199006871E+03 -0.18862191909E+03 -0.18997552947E+03  0.43652556165E+03  0.93103330169E+02 0.  0.
         23    2    4    4    0    0 -0.58066861207E+03 -0.48300784310E+03 -0.28471658542E+03  0.81168699246E+03  0.85437849810E+02 0.  0.
          2    1    3    3  502    0  0.73900265776E+02  0.18260529746E+03 -0.11085617958E+03  0.22604211221E+03  0.00000000000E+00 0. -1.
         -1    1    3    3    0  502  0.17477827758E+03  0.48902446474E+03 -0.15350447954E+03  0.54153116131E+03  0.00000000000E+00 0.  1.
         13    1    5    5    0    0  0.95586979309E+01 -0.34148811419E+02 -0.18771609120E+02  0.40123351511E+02  0.00000000000E+00 0.  1.
        -13    1    5    5    0    0  0.32243137078E+03 -0.15447310767E+03 -0.17120392035E+03  0.39640221014E+03  0.00000000000E+00 0. -1.
          2    1    6    6  503    0 -0.52569017724E+03 -0.42472655283E+03 -0.22696122455E+03  0.71291949375E+03  0.00000000000E+00 0. -1.
         -2    1    6    6    0  503 -0.54978434828E+02 -0.58281290276E+02 -0.57755360868E+02  0.98767498709E+02  0.00000000000E+00 0.  1.
<mgrwt>
<rscale>  0 0.18754182E+04</rscale>
<asrwt>0</asrwt>
<pdfrwt beam="1">  1        2 0.21191066E+00 0.18754182E+04</pdfrwt>
<pdfrwt beam="2">  1       -1 0.98210236E-01 0.18754182E+04</pdfrwt>
<totfact> 0.15838502E+01</totfact>
</mgrwt>
</event>
<event>
12    7  0.1625631E-007  0.1580429E+04  0.7818608E-02  0.8832662E-01
          2   -1    0    0  501    0  0.00000000000E+00  0.00000000000E+00  0.83549212519E+03  0.83549212519E+03  0.00000000000E+00 0. -1.
         -1   -1    0    0    0  501 -0.00000000000E+00 -0.00000000000E+00 -0.74739019782E+03  0.74739019782E+03  0.00000000000E+00 0.  1.
         24    2    1    2    0    0  0.30623056715E+03  0.42429416212E+03 -0.29818041233E+02  0.53008789569E+03  0.79381139509E+02 0.  0.
        254    2    1    2    0    0 -0.30623056715E+03 -0.42429416212E+03  0.11791996860E+03  0.10527944273E+04  0.90590744060E+03 0.  0.
         23    2    4    4    0    0 -0.48252299528E+03  0.26472344880E+02  0.23888786528E+03  0.54700115614E+03  0.92809625725E+02 0.  0.
         23    2    4    4    0    0  0.17629242813E+03 -0.45076650700E+03 -0.12096789668E+03  0.50579327118E+03  0.83211400008E+02 0.  0.
          4    1    3    3  502    0  0.39331267187E+02  0.18454754982E+02 -0.16169811437E+00  0.43445974569E+02  0.00000000000E+00 0. -1.
         -3    1    3    3    0  502  0.26689929996E+03  0.40583940714E+03 -0.29656343118E+02  0.48664192112E+03  0.00000000000E+00 0.  1.
         13    1    5    5    0    0 -0.70452653675E+01 -0.10112390504E+02 -0.23914727693E+01  0.12554495124E+02  0.00000000000E+00 0. -1.
        -13    1    5    5    0    0 -0.47547772991E+03  0.36584735384E+02  0.24127933805E+03  0.53444666102E+03  0.00000000000E+00 0.  1.
          3    1    6    6  503    0 -0.48550456556E+01 -0.18583832997E+01 -0.65740212495E+01  0.83810985077E+01  0.00000000000E+00 0. -1.
         -3    1    6    6    0  503  0.18114747379E+03 -0.44890812370E+03 -0.11439387543E+03  0.49741217267E+03  0.00000000000E+00 0.  1.
<mgrwt>
<rscale>  0 0.15804286E+04</rscale>
<asrwt>0</asrwt>
<pdfrwt beam="1">  1        2 0.12853725E+00 0.15804286E+04</pdfrwt>
<pdfrwt beam="2">  1       -1 0.11498311E+00 0.15804286E+04</pdfrwt>
<totfact> 0.24465428E+01</totfact>
</mgrwt>
</event>
<event>
12    7  0.1625631E-007  0.1704359E+04  0.7818608E-02  0.8758882E-01
          2   -1    0    0  501    0  0.00000000000E+00  0.00000000000E+00  0.60040039198E+03  0.60040039198E+03  0.00000000000E+00 0. -1.
         -1   -1    0    0    0  501 -0.00000000000E+00 -0.00000000000E+00 -0.12095428965E+04  0.12095428965E+04  0.00000000000E+00 0.  1.
         24    2    1    2    0    0  0.23903486138E+03  0.24800133518E+03 -0.76158143063E+03  0.83959013519E+03  0.79139070101E+02 0.  0.
        254    2    1    2    0    0 -0.23903486138E+03 -0.24800133518E+03  0.15243892614E+03  0.97035315327E+03  0.89426242717E+03 0.  0.
         23    2    4    4    0    0 -0.33923725280E+02 -0.42798369401E+03 -0.22689659799E+03  0.49417567860E+03  0.91687914502E+02 0.  0.
         23    2    4    4    0    0 -0.20511113610E+03  0.17998235883E+03  0.37933552413E+03  0.47617747467E+03  0.91571392228E+02 0.  0.
          2    1    3    3  502    0  0.25574323705E+02  0.42100645926E+02 -0.18179692314E+03  0.18835241354E+03  0.00000000000E+00 0. -1.
         -1    1    3    3    0  502  0.21346053767E+03  0.20590068926E+03 -0.57978450749E+03  0.65123772165E+03  0.00000000000E+00 0.  1.
         13    1    5    5    0    0  0.69301106922E+01 -0.31426848398E+01 -0.16849507257E+02  0.18488071750E+02  0.00000000000E+00 0.  1.
        -13    1    5    5    0    0 -0.40853835972E+02 -0.42484100917E+03 -0.21004709073E+03  0.47568760685E+03  0.00000000000E+00 0. -1.
          1    1    6    6  503    0 -0.15663529519E+03  0.15013212925E+03  0.35085644853E+03  0.41252214414E+03  0.00000000000E+00 0. -1.
         -1    1    6    6    0  503 -0.48475840902E+02  0.29850229578E+02  0.28479075597E+02  0.63655330522E+02  0.00000000000E+00 0.  1.
<mgrwt>
<rscale>  0 0.17043592E+04</rscale>
<asrwt>0</asrwt>
<pdfrwt beam="1">  1        2 0.92369291E-01 0.17043592E+04</pdfrwt>
<pdfrwt beam="2">  1       -1 0.18608352E+00 0.17043592E+04</pdfrwt>
<totfact> 0.10139342E+01</totfact>
</mgrwt>
</event>
<event>
12    7  0.1625631E-007  0.1521491E+04  0.7818608E-02  0.8870286E-01
         -1   -1    0    0    0  501 -0.00000000000E+00  0.00000000000E+00  0.26789366834E+03  0.26789366834E+03  0.00000000000E+00 0.  1.
          2   -1    0    0  501    0  0.00000000000E+00 -0.00000000000E+00 -0.21603106842E+04  0.21603106842E+04  0.00000000000E+00 0. -1.
         24    2    1    2    0    0  0.35758363732E+03  0.31377817974E+03 -0.81199874898E+03  0.94430956315E+03  0.77818885568E+02 0.  0.
        254    2    1    2    0    0 -0.35758363732E+03 -0.31377817974E+03 -0.10804182669E+04  0.14838947894E+04  0.89906468665E+03 0.  0.
         23    2    4    4    0    0 -0.44367878883E+03 -0.56452766820E+03 -0.67050756527E+03  0.98737858476E+03  0.98963219083E+02 0.  0.
         23    2    4    4    0    0  0.86095151505E+02  0.25074948846E+03 -0.40991070160E+03  0.49651620462E+03  0.90630442394E+02 0.  0.
          4    1    3    3  502    0  0.31036846243E+03  0.26556047735E+03 -0.63663982065E+03  0.75641338621E+03  0.00000000000E+00 0. -1.
         -3    1    3    3    0  502  0.47215174896E+02  0.48217702390E+02 -0.17535892833E+03  0.18789617694E+03  0.00000000000E+00 0.  1.
         13    1    5    5    0    0 -0.43951733440E+03 -0.53103066737E+03 -0.62326310722E+03  0.92931477861E+03  0.00000000000E+00 0.  1.
        -13    1    5    5    0    0 -0.41614544299E+01 -0.33497000827E+02 -0.47244458050E+02  0.58063806143E+02  0.00000000000E+00 0. -1.
          3    1    6    6  503    0  0.77783255244E+01  0.15732558880E+03 -0.24900618723E+03  0.29464542169E+03  0.00000000000E+00 0. -1.
         -3    1    6    6    0  503  0.78316825981E+02  0.93423899656E+02 -0.16090451437E+03  0.20187078293E+03  0.00000000000E+00 0.  1.
<mgrwt>
<rscale>  0 0.15214908E+04</rscale>
<asrwt>0</asrwt>
<pdfrwt beam="1">  1        2 0.33235550E+00 0.15214908E+04</pdfrwt>
<pdfrwt beam="2">  1       -1 0.41214410E-01 0.15214908E+04</pdfrwt>
<totfact> 0.34461820E+01</totfact>
</mgrwt>
</event>
<event>
12    7  0.1625631E-007  0.1391074E+04  0.7818608E-02  0.8960305E-01
          2   -1    0    0  501    0  0.00000000000E+00  0.00000000000E+00  0.20169225329E+04  0.20169225329E+04  0.00000000000E+00 0. -1.
         -3   -1    0    0    0  501 -0.00000000000E+00 -0.00000000000E+00 -0.23985651255E+03  0.23985651255E+03  0.00000000000E+00 0.  1.
         24    2    1    2    0    0  0.22268132265E+03 -0.22913377380E+03  0.14233459829E+03  0.35875552550E+03  0.79731621417E+02 0.  0.
        254    2    1    2    0    0 -0.22268132265E+03  0.22913377380E+03  0.16347314220E+04  0.18980235199E+04  0.90997648447E+03 0.  0.
         23    2    4    4    0    0  0.86619082719E+01 -0.84638863577E+02 -0.73489133498E+02  0.14350051648E+03  0.89179479732E+02 0.  0.
         23    2    4    4    0    0 -0.23134323092E+03  0.31377263738E+03  0.17082205555E+04  0.17545230035E+04  0.91436015038E+02 0.  0.
          2    1    3    3  502    0 -0.53969061372E+01  0.54895350595E+00  0.40324555804E+01  0.67593375277E+01  0.00000000000E+00 0. -1.
         -1    1    3    3    0  502  0.22807822878E+03 -0.22968272731E+03  0.13830214271E+03  0.35199618797E+03  0.00000000000E+00 0.  1.
         13    1    5    5    0    0  0.43968936757E+02 -0.74397188080E+02 -0.53807436582E+02  0.10180102762E+03  0.00000000000E+00 0.  1.
        -13    1    5    5    0    0 -0.35307028485E+02 -0.10241675498E+02 -0.19681696916E+02  0.41699488857E+02  0.00000000000E+00 0. -1.
          4    1    6    6  503    0 -0.86263914943E+02  0.11036607535E+03  0.81798382195E+03  0.82989135831E+03  0.00000000000E+00 0. -1.
         -4    1    6    6    0  503 -0.14507931597E+03  0.20340656203E+03  0.89023673359E+03  0.92463164516E+03  0.00000000000E+00 0.  1.
<mgrwt>
<rscale>  0 0.13910744E+04</rscale>
<asrwt>0</asrwt>
<pdfrwt beam="1">  1        2 0.31029576E+00 0.13910744E+04</pdfrwt>
<pdfrwt beam="2">  1       -3 0.36901003E-01 0.13910744E+04</pdfrwt>
<totfact> 0.29928770E+01</totfact>
</mgrwt>
</event>
<event>
12    7  0.1625631E-007  0.2605384E+04  0.7818608E-02  0.8366375E-01
          2   -1    0    0  501    0  0.00000000000E+00  0.00000000000E+00  0.24999181846E+04  0.24999181846E+04  0.00000000000E+00 0. -1.
         -1   -1    0    0    0  501 -0.00000000000E+00 -0.00000000000E+00 -0.67882468087E+03  0.67882468087E+03  0.00000000000E+00 0.  1.
         24    2    1    2    0    0  0.56623558325E+03 -0.36575987878E+03 -0.33141817324E+03  0.75514983441E+03  0.77525751806E+02 0.  0.
        254    2    1    2    0    0 -0.56623558325E+03  0.36575987878E+03  0.21525116770E+04  0.24235930311E+04  0.88661921704E+03 0.  0.
         23    2    4    4    0    0 -0.64754538324E+03  0.15757506135E+03  0.78079831660E+03  0.10305873822E+04  0.91210842152E+02 0.  0.
         23    2    4    4    0    0  0.81309799990E+02  0.20818481743E+03  0.13717133604E+04  0.13930056489E+04  0.94419241055E+02 0.  0.
          2    1    3    3  502    0  0.13006025006E+03 -0.47122738769E+02 -0.64337590213E+02  0.15256325465E+03  0.00000000000E+00 0. -1.
         -1    1    3    3    0  502  0.43617533319E+03 -0.31863714001E+03 -0.26708058302E+03  0.60258657976E+03  0.00000000000E+00 0.  1.
         13    1    5    5    0    0 -0.13984293503E+02  0.18123772567E+02  0.38213652595E+02  0.44545648962E+02  0.00000000000E+00 0. -1.
        -13    1    5    5    0    0 -0.63356108974E+03  0.13945128879E+03  0.74258466401E+03  0.98604173319E+03  0.00000000000E+00 0.  1.
          2    1    6    6  503    0  0.43961288512E+02  0.32543456442E+02  0.18961194642E+03  0.19734325849E+03  0.00000000000E+00 0. -1.
         -2    1    6    6    0  503  0.37348511478E+02  0.17564136099E+03  0.11821014140E+04  0.11956623904E+04  0.00000000000E+00 0.  1.
<mgrwt>
<rscale>  0 0.26053838E+04</rscale>
<asrwt>0</asrwt>
<pdfrwt beam="1">  1        2 0.38460279E+00 0.26053838E+04</pdfrwt>
<pdfrwt beam="2">  1       -1 0.10443457E+00 0.26053838E+04</pdfrwt>
<totfact> 0.30172165E+00</totfact>
</mgrwt>
</event>
<event>
12    7  0.1625631E-007  0.2686440E+04  0.7818608E-02  0.8339418E-01
         -1   -1    0    0    0  501 -0.00000000000E+00  0.00000000000E+00  0.51512633349E+03  0.51512633349E+03  0.00000000000E+00 0.  1.
          2   -1    0    0  501    0  0.00000000000E+00 -0.00000000000E+00 -0.35025203175E+04  0.35025203175E+04  0.00000000000E+00 0. -1.
         24    2    1    2    0    0 -0.82740846745E+03  0.68862641822E+03 -0.56276592355E+03  0.12173812667E+04  0.80625975540E+02 0.  0.
        254    2    1    2    0    0  0.82740846745E+03 -0.68862641822E+03 -0.24246280604E+04  0.28002653843E+04  0.89657898423E+03 0.  0.
         23    2    4    4    0    0  0.82741813078E+03 -0.52005712244E+03 -0.11527280579E+04  0.15139882673E+04  0.91095139612E+02 0.  0.
         23    2    4    4    0    0 -0.96633246550E-02 -0.16856929579E+03 -0.12719000026E+04  0.12862771169E+04  0.91452706104E+02 0.  0.
          4    1    3    3  502    0 -0.22481383898E+03  0.21280989433E+03 -0.12757040307E+03  0.33481863906E+03  0.00000000000E+00 0. -1.
         -3    1    3    3    0  502 -0.60259462848E+03  0.47581652389E+03 -0.43519552048E+03  0.88256262764E+03  0.00000000000E+00 0.  1.
         13    1    5    5    0    0  0.23467573067E+03 -0.10076768092E+03 -0.29185155832E+03  0.38781974702E+03  0.00000000000E+00 0. -1.
        -13    1    5    5    0    0  0.59274240011E+03 -0.41928944151E+03 -0.86087649954E+03  0.11261685203E+04  0.00000000000E+00 0.  1.
          3    1    6    6  503    0  0.39742339740E+02 -0.48025273715E+02 -0.32685731742E+03  0.33274853333E+03  0.00000000000E+00 0. -1.
         -3    1    6    6    0  503 -0.39752003065E+02 -0.12054402207E+03 -0.94504268514E+03  0.95352858360E+03  0.00000000000E+00 0.  1.
<mgrwt>
<rscale>  0 0.26864404E+04</rscale>
<asrwt>0</asrwt>
<pdfrwt beam="1">  1        2 0.53884928E+00 0.26864404E+04</pdfrwt>
<pdfrwt beam="2">  1       -1 0.79250205E-01 0.26864404E+04</pdfrwt>
<totfact> 0.12868884E+00</totfact>
</mgrwt>
</event>
<event>
12    7  0.1625631E-007  0.1360605E+04  0.7818608E-02  0.8982839E-01
          2   -1    0    0  501    0  0.00000000000E+00  0.00000000000E+00  0.82683462927E+03  0.82683462927E+03  0.00000000000E+00 0. -1.
         -1   -1    0    0    0  501 -0.00000000000E+00 -0.00000000000E+00 -0.55973849983E+03  0.55973849983E+03  0.00000000000E+00 0.  1.
         24    2    1    2    0    0  0.14583326119E+03  0.27612305211E+03 -0.14177511348E+03  0.35200972740E+03  0.79368667629E+02 0.  0.
        254    2    1    2    0    0 -0.14583326119E+03 -0.27612305211E+03  0.40887124292E+03  0.10345634017E+04  0.89757142271E+03 0.  0.
         23    2    4    4    0    0 -0.42623688924E+03 -0.35651576076E+03  0.45800268193E+03  0.72592884911E+03  0.91787057337E+02 0.  0.
         23    2    4    4    0    0  0.28040362805E+03  0.80392708645E+02 -0.49131439007E+02  0.30863455259E+03  0.88046615643E+02 0.  0.
          2    1    3    3  502    0  0.10113031284E+03  0.18171646303E+03 -0.52216724666E+02  0.21441734875E+03  0.00000000000E+00 0. -1.
         -1    1    3    3    0  502  0.44702948354E+02  0.94406589081E+02 -0.89558388817E+02  0.13759237864E+03  0.00000000000E+00 0.  1.
         13    1    5    5    0    0 -0.22184112659E+03 -0.12814996091E+03  0.19277922725E+03  0.32062396727E+03  0.00000000000E+00 0.  1.
        -13    1    5    5    0    0 -0.20439576264E+03 -0.22836579985E+03  0.26522345468E+03  0.40530488184E+03  0.00000000000E+00 0. -1.
          2    1    6    6  503    0  0.24565163953E+03  0.87945512491E+02 -0.66200688116E+02  0.26918705815E+03  0.00000000000E+00 0. -1.
         -2    1    6    6    0  503  0.34751988523E+02 -0.75528038457E+01  0.17069249109E+02  0.39447494437E+02  0.00000000000E+00 0.  1.
<mgrwt>
<rscale>  0 0.13606045E+04</rscale>
<asrwt>0</asrwt>
<pdfrwt beam="1">  1        2 0.12720533E+00 0.13606045E+04</pdfrwt>
<pdfrwt beam="2">  1       -1 0.86113615E-01 0.13606045E+04</pdfrwt>
<totfact> 0.48887006E+01</totfact>
</mgrwt>
</event>
<event>
12    7  0.1625631E-007  0.1881238E+04  0.7818608E-02  0.8664252E-01
         -1   -1    0    0    0  501 -0.00000000000E+00  0.00000000000E+00  0.11046145783E+04  0.11046145783E+04  0.00000000000E+00 0.  1.
          2   -1    0    0  501    0  0.00000000000E+00 -0.00000000000E+00 -0.80097127949E+03  0.80097127949E+03  0.00000000000E+00 0. -1.
         24    2    1    2    0    0  0.39968669072E+03  0.45255419798E+03  0.54085524677E+03  0.81483222816E+03  0.82899995434E+02 0.  0.
        254    2    1    2    0    0 -0.39968669072E+03 -0.45255419798E+03 -0.23721194798E+03  0.10907536296E+04  0.87688039058E+03 0.  0.
         23    2    4    4    0    0 -0.27109857226E+03  0.11721947306E+03 -0.37230996336E+03  0.48407949935E+03  0.92105440247E+02 0.  0.
         23    2    4    4    0    0 -0.12858811846E+03 -0.56977367103E+03  0.13509801538E+03  0.60667413026E+03  0.92871341923E+02 0.  0.
          4    1    3    3  502    0  0.22723304145E+03  0.19557286689E+03  0.25681836784E+03  0.39476483563E+03  0.00000000000E+00 0. -1.
         -3    1    3    3    0  502  0.17245364927E+03  0.25698133108E+03  0.28403687893E+03  0.42006739252E+03  0.00000000000E+00 0.  1.
         13    1    5    5    0    0 -0.13336489193E+03  0.91227266182E+02 -0.14540411565E+03  0.21737287168E+03  0.00000000000E+00 0. -1.
        -13    1    5    5    0    0 -0.13773368033E+03  0.25992206877E+02 -0.22690584771E+03  0.26670662766E+03  0.00000000000E+00 0.  1.
          3    1    6    6  503    0 -0.90371258948E+02 -0.34370397288E+03  0.37050924067E+02  0.35731240727E+03  0.00000000000E+00 0. -1.
         -3    1    6    6    0  503 -0.38216859515E+02 -0.22606969815E+03  0.98047091312E+02  0.24936172298E+03  0.00000000000E+00 0.  1.
<mgrwt>
<rscale>  0 0.18812385E+04</rscale>
<asrwt>0</asrwt>
<pdfrwt beam="1">  1        2 0.12322635E+00 0.18812385E+04</pdfrwt>
<pdfrwt beam="2">  1       -1 0.16994070E+00 0.18812385E+04</pdfrwt>
<totfact> 0.90685204E+00</totfact>
</mgrwt>
</event>
<event>
12    7  0.1625631E-007  0.1312744E+04  0.7818608E-02  0.9019519E-01
          2   -1    0    0  501    0  0.00000000000E+00  0.00000000000E+00  0.93671485024E+03  0.93671485024E+03  0.00000000000E+00 0. -1.
         -1   -1    0    0    0  501 -0.00000000000E+00 -0.00000000000E+00 -0.45993128388E+03  0.45993128388E+03  0.00000000000E+00 0.  1.
         24    2    1    2    0    0 -0.21755944071E+03 -0.28196398441E+03  0.19978201688E+03  0.41635288103E+03  0.81246960158E+02 0.  0.
        254    2    1    2    0    0  0.21755944071E+03  0.28196398441E+03  0.27700154948E+03  0.98029325308E+03  0.87029259727E+03 0.  0.
         23    2    4    4    0    0 -0.19214646427E+03  0.24834766502E+03  0.42435936211E+03  0.53550381290E+03  0.89925741370E+02 0.  0.
         23    2    4    4    0    0  0.40970590498E+03  0.33616319383E+02 -0.14735781263E+03  0.44478944018E+03  0.84464996616E+02 0.  0.
          4    1    3    3  502    0 -0.18521099238E+03 -0.18722324675E+03  0.16289767822E+03  0.30966321931E+03  0.00000000000E+00 0. -1.
         -3    1    3    3    0  502 -0.32348448322E+02 -0.94740737658E+02  0.36884338654E+02  0.10668966172E+03  0.00000000000E+00 0.  1.
         13    1    5    5    0    0 -0.38775238895E+02  0.61624496447E+02  0.44588617627E+02  0.85377060945E+02  0.00000000000E+00 0. -1.
        -13    1    5    5    0    0 -0.15337122538E+03  0.18672316858E+03  0.37977074448E+03  0.45012675195E+03  0.00000000000E+00 0.  1.
          3    1    6    6  503    0  0.10951325353E+02 -0.12634423903E+02  0.11799144827E+01  0.16761634543E+02  0.00000000000E+00 0. -1.
         -3    1    6    6    0  503  0.39875457962E+03  0.46250743287E+02 -0.14853772711E+03  0.42802780564E+03  0.00000000000E+00 0.  1.
<mgrwt>
<rscale>  0 0.13127444E+04</rscale>
<asrwt>0</asrwt>
<pdfrwt beam="1">  1        2 0.14410998E+00 0.13127444E+04</pdfrwt>
<pdfrwt beam="2">  1       -1 0.70758659E-01 0.13127444E+04</pdfrwt>
<totfact> 0.62488618E+01</totfact>
</mgrwt>
</event>
<event>
12    7  0.1625631E-007  0.1364393E+04  0.7818608E-02  0.8980004E-01
         -1   -1    0    0    0  501 -0.00000000000E+00  0.00000000000E+00  0.39864676696E+03  0.39864676696E+03  0.00000000000E+00 0.  1.
          2   -1    0    0  501    0  0.00000000000E+00 -0.00000000000E+00 -0.11674299924E+04  0.11674299924E+04  0.00000000000E+00 0. -1.
         24    2    1    2    0    0 -0.29503539207E+03 -0.21184697543E+03 -0.11377733654E+03  0.38906247994E+03  0.80618282115E+02 0.  0.
        254    2    1    2    0    0  0.29503539207E+03  0.21184697543E+03 -0.65500588888E+03  0.11770142794E+04  0.90796744207E+03 0.  0.
         23    2    4    4    0    0  0.19463376135E+03  0.21119483908E+02 -0.84792863299E+03  0.87483183250E+03  0.89551297342E+02 0.  0.
         23    2    4    4    0    0  0.10040163072E+03  0.19072749152E+03  0.19292274411E+03  0.30218244689E+03  0.87393263718E+02 0.  0.
          2    1    3    3  502    0 -0.17260897001E+03 -0.14938020339E+03 -0.35863997902E+02  0.23107256012E+03  0.00000000000E+00 0. -1.
         -1    1    3    3    0  502 -0.12242642206E+03 -0.62466772045E+02 -0.77913338640E+02  0.15798991982E+03  0.00000000000E+00 0.  1.
         13    1    5    5    0    0  0.74152425104E+02 -0.33483079431E+02 -0.27199463766E+03  0.28390276800E+03  0.00000000000E+00 0. -1.
        -13    1    5    5    0    0  0.12048133625E+03  0.54602563340E+02 -0.57593399533E+03  0.59092906451E+03  0.00000000000E+00 0.  1.
          4    1    6    6  503    0  0.92475644915E+02  0.11662342982E+03  0.86150727710E+02  0.17197301291E+03  0.00000000000E+00 0. -1.
         -4    1    6    6    0  503  0.79259858011E+01  0.74104061702E+02  0.10677201640E+03  0.13020943398E+03  0.00000000000E+00 0.  1.
<mgrwt>
<rscale>  0 0.13643932E+04</rscale>
<asrwt>0</asrwt>
<pdfrwt beam="1">  1        2 0.17960461E+00 0.13643932E+04</pdfrwt>
<pdfrwt beam="2">  1       -1 0.61330273E-01 0.13643932E+04</pdfrwt>
<totfact> 0.59447779E+01</totfact>
</mgrwt>
</event>
<event>
12    7  0.1625631E-007  0.1709742E+04  0.7818608E-02  0.8755828E-01
          2   -1    0    0  501    0  0.00000000000E+00  0.00000000000E+00  0.23839699931E+04  0.23839699931E+04  0.00000000000E+00 0. -1.
         -1   -1    0    0    0  501 -0.00000000000E+00 -0.00000000000E+00 -0.30654933026E+03  0.30654933026E+03  0.00000000000E+00 0.  1.
         24    2    1    2    0    0 -0.12054735855E+03 -0.26167918112E+03  0.16146334450E+04  0.16420723322E+04  0.79703969684E+02 0.  0.
        254    2    1    2    0    0  0.12054735855E+03  0.26167918112E+03  0.46278721778E+03  0.10484469911E+04  0.89557882111E+03 0.  0.
         23    2    4    4    0    0  0.48645700579E+03  0.35246570065E+02  0.29588211691E+03  0.57810645400E+03  0.93691546358E+02 0.  0.
         23    2    4    4    0    0 -0.36590964724E+03  0.22643261105E+03  0.16690510087E+03  0.47034053715E+03  0.90561089306E+02 0.  0.
          4    1    3    3  502    0 -0.11893271497E+03 -0.19055909853E+03  0.13197132115E+04  0.13386936622E+04  0.00000000000E+00 0. -1.
         -3    1    3    3    0  502 -0.16146435815E+01 -0.71120082587E+02  0.29492023356E+03  0.30337866995E+03  0.00000000000E+00 0.  1.
         13    1    5    5    0    0  0.42264586548E+03  0.42018494230E+02  0.28864979866E+03  0.51353070768E+03  0.00000000000E+00 0. -1.
        -13    1    5    5    0    0  0.63811140311E+02 -0.67719241641E+01  0.72323182487E+01  0.64575746314E+02  0.00000000000E+00 0.  1.
          1    1    6    6  503    0 -0.36812066253E+03  0.21945565597E+03  0.15380503496E+03  0.45533459774E+03  0.00000000000E+00 0. -1.
         -1    1    6    6    0  503  0.22110152860E+01  0.69769550836E+01  0.13100065908E+02  0.15005939412E+02  0.00000000000E+00 0.  1.
<mgrwt>
<rscale>  0 0.17097420E+04</rscale>
<asrwt>0</asrwt>
<pdfrwt beam="1">  1        2 0.36676460E+00 0.17097420E+04</pdfrwt>
<pdfrwt beam="2">  1       -1 0.47161437E-01 0.17097420E+04</pdfrwt>
<totfact> 0.19736853E+01</totfact>
</mgrwt>
</event>
<event>
12    7  0.1625631E-007  0.1259217E+04  0.7818608E-02  0.9062546E-01
          2   -1    0    0  501    0  0.00000000000E+00  0.00000000000E+00  0.15776574091E+04  0.15776574091E+04  0.00000000000E+00 0. -1.
         -1   -1    0    0    0  501 -0.00000000000E+00 -0.00000000000E+00 -0.25126310177E+03  0.25126310177E+03  0.00000000000E+00 0.  1.
         24    2    1    2    0    0 -0.28568620098E+03  0.10015162693E+03  0.29991170125E+03  0.43355157882E+03  0.79831003663E+02 0.  0.
        254    2    1    2    0    0  0.28568620098E+03 -0.10015162693E+03  0.10264826061E+04  0.13953689321E+04  0.89539988951E+03 0.  0.
         23    2    4    4    0    0 -0.15633221022E+03 -0.37443035146E+03  0.41580399424E+03  0.58833533957E+03  0.92777487081E+02 0.  0.
         23    2    4    4    0    0  0.44201841119E+03  0.27427872453E+03  0.61067861187E+03  0.80703359251E+03  0.88123537610E+02 0.  0.
          4    1    3    3  502    0 -0.19508245645E+03  0.73430227602E+02  0.25382899722E+03  0.32844835663E+03  0.00000000000E+00 0. -1.
         -3    1    3    3    0  502 -0.90603744531E+02  0.26721399330E+02  0.46082704022E+02  0.10510322219E+03  0.00000000000E+00 0.  1.
         13    1    5    5    0    0 -0.25954245828E+02 -0.17004241049E+03  0.14605814079E+03  0.22565687389E+03  0.00000000000E+00 0. -1.
        -13    1    5    5    0    0 -0.13037796439E+03 -0.20438794097E+03  0.26974585346E+03  0.36267846568E+03  0.00000000000E+00 0.  1.
          4    1    6    6  503    0  0.29132997793E+02  0.37913368016E+02  0.30414493644E+02  0.56667419725E+02  0.00000000000E+00 0. -1.
         -4    1    6    6    0  503  0.41288541340E+03  0.23636535651E+03  0.58026411823E+03  0.75036617278E+03  0.00000000000E+00 0.  1.
<mgrwt>
<rscale>  0 0.12592174E+04</rscale>
<asrwt>0</asrwt>
<pdfrwt beam="1">  1        2 0.24271652E+00 0.12592174E+04</pdfrwt>
<pdfrwt beam="2">  1       -1 0.38655863E-01 0.12592174E+04</pdfrwt>
<totfact> 0.83314065E+01</totfact>
</mgrwt>
</event>
<event>
12    7  0.1625631E-007  0.1569281E+04  0.7818608E-02  0.8839646E-01
         -1   -1    0    0    0  501 -0.00000000000E+00  0.00000000000E+00  0.76751732052E+03  0.76751732052E+03  0.00000000000E+00 0.  1.
          2   -1    0    0  501    0  0.00000000000E+00 -0.00000000000E+00 -0.80214518959E+03  0.80214518959E+03  0.00000000000E+00 0. -1.
         24    2    1    2    0    0 -0.22036280001E+03 -0.41898873562E+03  0.51229460090E+02  0.48238773841E+03  0.77214949216E+02 0.  0.
        254    2    1    2    0    0  0.22036280001E+03  0.41898873562E+03 -0.85857329160E+02  0.10872747717E+04  0.97503006312E+03 0.  0.
         23    2    4    4    0    0  0.18468574709E+03  0.25230962473E+03  0.42818440081E+03  0.53830009023E+03  0.93038347664E+02 0.  0.
         23    2    4    4    0    0  0.35677052926E+02  0.16667911089E+03 -0.51404172997E+03  0.54897468146E+03  0.89886164768E+02 0.  0.
          2    1    3    3  502    0 -0.61695537222E+01 -0.47277598248E+02 -0.10888135081E+02  0.48905891003E+02  0.00000000000E+00 0. -1.
         -1    1    3    3    0  502 -0.21419324629E+03 -0.37171113737E+03  0.62117595170E+02  0.43348184741E+03  0.00000000000E+00 0.  1.
         13    1    5    5    0    0  0.17905112902E+03  0.18082336368E+03  0.33783500224E+03  0.42295257937E+03  0.00000000000E+00 0.  1.
        -13    1    5    5    0    0  0.56346180627E+01  0.71486261050E+02  0.90349398574E+02  0.11534751086E+03  0.00000000000E+00 0. -1.
          3    1    6    6  503    0  0.36986596378E+02  0.13526941199E+02 -0.96308600560E+02  0.10404966599E+03  0.00000000000E+00 0. -1.
         -3    1    6    6    0  503 -0.13095434521E+01  0.15315216969E+03 -0.41773312941E+03  0.44492501547E+03  0.00000000000E+00 0.  1.
<mgrwt>
<rscale>  0 0.15692805E+04</rscale>
<asrwt>0</asrwt>
<pdfrwt beam="1">  1        2 0.12340695E+00 0.15692805E+04</pdfrwt>
<pdfrwt beam="2">  1       -1 0.11807959E+00 0.15692805E+04</pdfrwt>
<totfact> 0.24261931E+01</totfact>
</mgrwt>
</event>
<event>
12    7  0.1625631E-007  0.1789665E+04  0.7818608E-02  0.8711815E-01
          2   -1    0    0  501    0  0.00000000000E+00  0.00000000000E+00  0.30737782836E+04  0.30737782836E+04  0.00000000000E+00 0. -1.
         -1   -1    0    0    0  501 -0.00000000000E+00 -0.00000000000E+00 -0.26050183025E+03  0.26050183025E+03  0.00000000000E+00 0.  1.
         24    2    1    2    0    0 -0.47595814019E+03 -0.43421261879E+03  0.13657318901E+04  0.15122840335E+04  0.81869731143E+02 0.  0.
        254    2    1    2    0    0  0.47595814019E+03  0.43421261879E+03  0.14475445633E+04  0.18219960804E+04  0.89955972820E+03 0.  0.
         23    2    4    4    0    0 -0.10695717307E+03  0.30625304295E+03  0.10420255856E+04  0.10948247685E+04  0.87138908934E+02 0.  0.
         23    2    4    4    0    0  0.58291531326E+03  0.12795957584E+03  0.40551897772E+03  0.72717131190E+03  0.90380086733E+02 0.  0.
          2    1    3    3  502    0 -0.35553317727E+03 -0.35471200314E+03  0.11173319441E+04  0.12250122933E+04  0.00000000000E+00 0. -1.
         -1    1    3    3    0  502 -0.12042496292E+03 -0.79500615646E+02  0.24839994594E+03  0.28727174022E+03  0.00000000000E+00 0.  1.
         13    1    5    5    0    0 -0.65561273209E+02  0.19955705047E+03  0.79981683402E+03  0.82693909384E+03  0.00000000000E+00 0. -1.
        -13    1    5    5    0    0 -0.41395899863E+02  0.10669599248E+03  0.24220875154E+03  0.26788567461E+03  0.00000000000E+00 0.  1.
          3    1    6    6  503    0  0.33395016068E+03  0.34013827493E+02  0.19802629666E+03  0.38973589063E+03  0.00000000000E+00 0. -1.
         -3    1    6    6    0  503  0.24896515258E+03  0.93945748351E+02  0.20749268106E+03  0.33743542127E+03  0.00000000000E+00 0.  1.
<mgrwt>
<rscale>  0 0.17896646E+04</rscale>
<asrwt>0</asrwt>
<pdfrwt beam="1">  1        2 0.47288894E+00 0.17896646E+04</pdfrwt>
<pdfrwt beam="2">  1       -1 0.40077207E-01 0.17896646E+04</pdfrwt>
<totfact> 0.10256906E+01</totfact>
</mgrwt>
</event>
<event>
12    7  0.1625631E-007  0.1568840E+04  0.7818608E-02  0.8839923E-01
          2   -1    0    0  501    0  0.00000000000E+00  0.00000000000E+00  0.17180173059E+04  0.17180173059E+04  0.00000000000E+00 0. -1.
         -1   -1    0    0    0  501 -0.00000000000E+00 -0.00000000000E+00 -0.35815383684E+03  0.35815383684E+03  0.00000000000E+00 0.  1.
         24    2    1    2    0    0 -0.30947811702E+03  0.37018884722E+03  0.20021703850E+03  0.52863740786E+03  0.80957760354E+02 0.  0.
        254    2    1    2    0    0  0.30947811702E+03 -0.37018884722E+03  0.11596464305E+04  0.15475337349E+04  0.90402673032E+03 0.  0.
         23    2    4    4    0    0 -0.25663142917E+03 -0.11147967246E+03  0.72431804472E+03  0.78170872343E+03  0.90246831333E+02 0.  0.
         23    2    4    4    0    0  0.56610954619E+03 -0.25870917476E+03  0.43532838582E+03  0.76582501143E+03  0.97809453705E+02 0.  0.
          4    1    3    3  502    0 -0.36151271090E+02  0.51675122514E+02  0.57445256880E+02  0.85306448913E+02  0.00000000000E+00 0. -1.
         -3    1    3    3    0  502 -0.27332684593E+03  0.31851372470E+03  0.14277178162E+03  0.44333095894E+03  0.00000000000E+00 0.  1.
         13    1    5    5    0    0 -0.24426491235E+02 -0.22122154257E+02  0.31574697035E+02  0.45639946055E+02  0.00000000000E+00 0.  1.
        -13    1    5    5    0    0 -0.23220493794E+03 -0.89357518204E+02  0.69274334769E+03  0.73606877737E+03  0.00000000000E+00 0. -1.
          1    1    6    6  503    0  0.49294942026E+03 -0.19667687531E+03  0.33829045276E+03  0.62938172411E+03  0.00000000000E+00 0. -1.
         -1    1    6    6    0  503  0.73160125931E+02 -0.62032299445E+02  0.97037933063E+02  0.13644328732E+03  0.00000000000E+00 0.  1.
<mgrwt>
<rscale>  0 0.15688397E+04</rscale>
<asrwt>0</asrwt>
<pdfrwt beam="1">  1        2 0.26431035E+00 0.15688397E+04</pdfrwt>
<pdfrwt beam="2">  1       -1 0.55100591E-01 0.15688397E+04</pdfrwt>
<totfact> 0.34934505E+01</totfact>
</mgrwt>
</event>
<event>
12    7  0.1625631E-007  0.2214531E+04  0.7818608E-02  0.8512404E-01
         -1   -1    0    0    0  501 -0.00000000000E+00  0.00000000000E+00  0.11656998452E+04  0.11656998452E+04  0.00000000000E+00 0.  1.
          2   -1    0    0  501    0  0.00000000000E+00 -0.00000000000E+00 -0.10517600413E+04  0.10517600413E+04  0.00000000000E+00 0. -1.
         24    2    1    2    0    0 -0.49232848794E+03 -0.51910163116E+03  0.62848144591E+03  0.95563512172E+03  0.79973211125E+02 0.  0.
        254    2    1    2    0    0  0.49232848794E+03  0.51910163116E+03 -0.51454164201E+03  0.12618247648E+04  0.90310286908E+03 0.  0.
         23    2    4    4    0    0  0.41794551598E+03  0.37497643041E+03 -0.76261721925E+03  0.95163641404E+03  0.93493656175E+02 0.  0.
         23    2    4    4    0    0  0.74382971958E+02  0.14412520075E+03  0.24807557723E+03  0.31018835074E+03  0.91490004413E+02 0.  0.
          4    1    3    3  502    0 -0.91519380041E+02 -0.13732833609E+03  0.12050477843E+03  0.20434351088E+03  0.00000000000E+00 0. -1.
         -3    1    3    3    0  502 -0.40080910790E+03 -0.38177329507E+03  0.50797666749E+03  0.75129161084E+03  0.00000000000E+00 0.  1.
         13    1    5    5    0    0  0.18051376211E+03  0.10207055126E+03 -0.26827736739E+03  0.33908164445E+03  0.00000000000E+00 0. -1.
        -13    1    5    5    0    0  0.23743175388E+03  0.27290587916E+03 -0.49433985185E+03  0.61255476960E+03  0.00000000000E+00 0.  1.
          3    1    6    6  503    0 -0.20303181889E+02  0.24311999388E+02  0.27734942707E+02  0.42101301120E+02  0.00000000000E+00 0. -1.
         -3    1    6    6    0  503  0.94686153847E+02  0.11981320136E+03  0.22034063453E+03  0.26808704962E+03  0.00000000000E+00 0.  1.
<mgrwt>
<rscale>  0 0.22145307E+04</rscale>
<asrwt>0</asrwt>
<pdfrwt beam="1">  1        2 0.16180924E+00 0.22145307E+04</pdfrwt>
<pdfrwt beam="2">  1       -1 0.17933844E+00 0.22145307E+04</pdfrwt>
<totfact> 0.51144175E+00</totfact>
</mgrwt>
</event>
<event>
12    7  0.1625631E-007  0.2014556E+04  0.7818608E-02  0.8599845E-01
          2   -1    0    0  501    0  0.00000000000E+00  0.00000000000E+00  0.18369289866E+04  0.18369289866E+04  0.00000000000E+00 0. -1.
         -1   -1    0    0    0  501 -0.00000000000E+00 -0.00000000000E+00 -0.55233973453E+03  0.55233973453E+03  0.00000000000E+00 0.  1.
         24    2    1    2    0    0  0.34491726793E+03 -0.50680787987E+03 -0.79624366776E+02  0.62321428807E+03  0.78954798801E+02 0.  0.
        254    2    1    2    0    0 -0.34491726793E+03  0.50680787987E+03  0.13642136189E+04  0.17660544331E+04  0.93917373997E+03 0.  0.
         23    2    4    4    0    0  0.24463860262E+03  0.24823685334E+03  0.15357436545E+03  0.39195472187E+03  0.92595016210E+02 0.  0.
         23    2    4    4    0    0 -0.58955587056E+03  0.25857102653E+03  0.12106392534E+04  0.13740997112E+04  0.89819341643E+02 0.  0.
          2    1    3    3  502    0  0.24327897027E+02 -0.62276557298E+02 -0.28765590061E+02  0.72785131272E+02  0.00000000000E+00 0. -1.
         -1    1    3    3    0  502  0.32058937090E+03 -0.44453132257E+03 -0.50858776716E+02  0.55042915680E+03  0.00000000000E+00 0.  1.
         13    1    5    5    0    0  0.75802358073E+01  0.42814748192E+02  0.18806931467E+01  0.43521255087E+02  0.00000000000E+00 0.  1.
        -13    1    5    5    0    0  0.23705836682E+03  0.20542210515E+03  0.15169367230E+03  0.34843346679E+03  0.00000000000E+00 0. -1.
          1    1    6    6  503    0 -0.50172873270E+03  0.19948428664E+03  0.10650991061E+04  0.11941364275E+04  0.00000000000E+00 0. -1.
         -1    1    6    6    0  503 -0.87827137850E+02  0.59086739888E+02  0.14554014735E+03  0.17996328366E+03  0.00000000000E+00 0.  1.
<mgrwt>
<rscale>  0 0.20145559E+04</rscale>
<asrwt>0</asrwt>
<pdfrwt beam="1">  1        2 0.28260446E+00 0.20145559E+04</pdfrwt>
<pdfrwt beam="2">  1       -1 0.84975344E-01 0.20145559E+04</pdfrwt>
<totfact> 0.11914649E+01</totfact>
</mgrwt>
</event>
<event>
12    7  0.1625631E-007  0.2439451E+04  0.7818608E-02  0.8424880E-01
          2   -1    0    0  501    0  0.00000000000E+00  0.00000000000E+00  0.12908392215E+04  0.12908392215E+04  0.00000000000E+00 0. -1.
         -1   -1    0    0    0  501 -0.00000000000E+00 -0.00000000000E+00 -0.11525296840E+04  0.11525296840E+04  0.00000000000E+00 0.  1.
         24    2    1    2    0    0 -0.30146525998E+03  0.55238385658E+02 -0.94712916860E+03  0.99881746584E+03  0.81548058437E+02 0.  0.
        254    2    1    2    0    0  0.30146525998E+03 -0.55238385658E+02  0.10854387061E+04  0.14445514397E+04  0.90256251588E+03 0.  0.
         23    2    4    4    0    0  0.56691108138E+03 -0.16879878573E+03  0.47701214442E+03  0.76520337086E+03  0.90080012159E+02 0.  0.
         23    2    4    4    0    0 -0.26544582141E+03  0.11356040008E+03  0.60842656164E+03  0.67934806883E+03  0.89294283957E+02 0.  0.
          2    1    3    3  502    0 -0.17352526506E+03 -0.74670325224E+01 -0.55908879979E+03  0.58544603529E+03  0.00000000000E+00 0. -1.
         -1    1    3    3    0  502 -0.12793999492E+03  0.62705418180E+02 -0.38804036882E+03  0.41337143056E+03  0.00000000000E+00 0.  1.
         13    1    5    5    0    0  0.28898344083E+03 -0.11391517545E+03  0.29562409582E+03  0.42881429816E+03  0.00000000000E+00 0. -1.
        -13    1    5    5    0    0  0.27792764055E+03 -0.54883610286E+02  0.18138804860E+03  0.33638907271E+03  0.00000000000E+00 0.  1.
          2    1    6    6  503    0 -0.59856291612E+02  0.51004233782E+02  0.24311001192E+03  0.25551259344E+03  0.00000000000E+00 0. -1.
         -2    1    6    6    0  503 -0.20558952979E+03  0.62556166294E+02  0.36531654971E+03  0.42383547539E+03  0.00000000000E+00 0.  1.
<mgrwt>
<rscale>  0 0.24394512E+04</rscale>
<asrwt>0</asrwt>
<pdfrwt beam="1">  1        2 0.19859065E+00 0.24394512E+04</pdfrwt>
<pdfrwt beam="2">  1       -1 0.17731226E+00 0.24394512E+04</pdfrwt>
<totfact> 0.37201636E+00</totfact>
</mgrwt>
</event>
<event>
12    7  0.1625631E-007  0.1581105E+04  0.7818608E-02  0.8832241E-01
         -1   -1    0    0    0  501 -0.00000000000E+00  0.00000000000E+00  0.77865655615E+03  0.77865655615E+03  0.00000000000E+00 0.  1.
          2   -1    0    0  501    0  0.00000000000E+00 -0.00000000000E+00 -0.80263037566E+03  0.80263037566E+03  0.00000000000E+00 0. -1.
         24    2    1    2    0    0  0.44339269050E+03  0.10447302638E+03  0.78205950992E+02  0.46887925407E+03  0.78866297655E+02 0.  0.
        254    2    1    2    0    0 -0.44339269050E+03 -0.10447302638E+03 -0.10217977050E+03  0.11124076777E+04  0.10097021565E+04 0.  0.
         23    2    4    4    0    0 -0.31732508015E+03  0.20162880812E+03 -0.47041031226E+03  0.60901137602E+03  0.90882404742E+02 0.  0.
         23    2    4    4    0    0 -0.12606761034E+03 -0.30610183449E+03  0.36823054175E+03  0.50339630172E+03  0.90679265796E+02 0.  0.
          4    1    3    3  502    0  0.41317688255E+03  0.94985328672E+02  0.50780955100E+02  0.42698484088E+03  0.00000000000E+00 0. -1.
         -3    1    3    3    0  502  0.30215807942E+02  0.94876977062E+01  0.27424995892E+02  0.41894413196E+02  0.00000000000E+00 0.  1.
         13    1    5    5    0    0 -0.11296338270E+03  0.12505368261E+03 -0.20087879196E+03  0.26220495500E+03  0.00000000000E+00 0. -1.
        -13    1    5    5    0    0 -0.20436169745E+03  0.76575125507E+02 -0.26953152030E+03  0.34680642103E+03  0.00000000000E+00 0.  1.
          1    1    6    6  503    0 -0.99302939171E+02 -0.21246669618E+03  0.19646316766E+03  0.30594271843E+03  0.00000000000E+00 0. -1.
         -1    1    6    6    0  503 -0.26764671170E+02 -0.93635138316E+02  0.17176737410E+03  0.19745358329E+03  0.00000000000E+00 0.  1.
<mgrwt>
<rscale>  0 0.15811052E+04</rscale>
<asrwt>0</asrwt>
<pdfrwt beam="1">  1        2 0.12348160E+00 0.15811052E+04</pdfrwt>
<pdfrwt beam="2">  1       -1 0.11979332E+00 0.15811052E+04</pdfrwt>
<totfact> 0.23382270E+01</totfact>
</mgrwt>
</event>
<event>
12    7  0.1625631E-007  0.1887444E+04  0.7818608E-02  0.8661132E-01
         -1   -1    0    0    0  501 -0.00000000000E+00  0.00000000000E+00  0.83671659818E+03  0.83671659818E+03  0.00000000000E+00 0.  1.
          2   -1    0    0  501    0  0.00000000000E+00 -0.00000000000E+00 -0.10644115648E+04  0.10644115648E+04  0.00000000000E+00 0. -1.
         24    2    1    2    0    0 -0.34544133264E+03  0.64459061602E+03 -0.73195956375E+02  0.73933039349E+03  0.80156136089E+02 0.  0.
        254    2    1    2    0    0  0.34544133264E+03 -0.64459061602E+03 -0.15449901022E+03  0.11617977695E+04  0.88942528435E+03 0.  0.
         23    2    4    4    0    0  0.10566509162E+03 -0.65297566651E+03 -0.42278048280E+03  0.79028402714E+03  0.90902003727E+02 0.  0.
         23    2    4    4    0    0  0.23977624102E+03  0.83850504944E+01  0.26828147258E+03  0.37151374233E+03  0.92111657136E+02 0.  0.
          2    1    3    3  502    0 -0.82203155099E+02  0.95583323590E+02 -0.25402374502E+02  0.12860330901E+03  0.00000000000E+00 0. -1.
         -1    1    3    3    0  502 -0.26323817754E+03  0.54900729242E+03 -0.47793581873E+02  0.61072708448E+03  0.00000000000E+00 0.  1.
         13    1    5    5    0    0  0.10919691199E+03 -0.51356336348E+03 -0.30141077869E+03  0.60540874739E+03  0.00000000000E+00 0.  1.
        -13    1    5    5    0    0 -0.35318203695E+01 -0.13941230303E+03 -0.12136970411E+03  0.18487527976E+03  0.00000000000E+00 0. -1.
          2    1    6    6  503    0  0.55838777690E+02  0.81619648647E+01  0.14824391083E+02  0.58346802272E+02  0.00000000000E+00 0. -1.
         -2    1    6    6    0  503  0.18393746333E+03  0.22308562969E+00  0.25345708150E+03  0.31316694006E+03  0.00000000000E+00 0.  1.
<mgrwt>
<rscale>  0 0.18874436E+04</rscale>
<asrwt>0</asrwt>
<pdfrwt beam="1">  1        2 0.16375563E+00 0.18874436E+04</pdfrwt>
<pdfrwt beam="2">  1       -1 0.12872563E+00 0.18874436E+04</pdfrwt>
<totfact> 0.12747075E+01</totfact>
</mgrwt>
</event>
<event>
12    7  0.1625631E-007  0.2106390E+04  0.7818608E-02  0.8558434E-01
         -1   -1    0    0    0  501 -0.00000000000E+00  0.00000000000E+00  0.71421916307E+03  0.71421916307E+03  0.00000000000E+00 0.  1.
          2   -1    0    0  501    0  0.00000000000E+00 -0.00000000000E+00 -0.15530529707E+04  0.15530529707E+04  0.00000000000E+00 0. -1.
         24    2    1    2    0    0  0.33953636509E+03  0.76419425399E+03 -0.42999403117E+03  0.94401599082E+03  0.83627286423E+02 0.  0.
        254    2    1    2    0    0 -0.33953636509E+03 -0.76419425399E+03 -0.40883977648E+03  0.13232561430E+04  0.94052063030E+03 0.  0.
         23    2    4    4    0    0  0.99612912890E+02 -0.27441853983E+03  0.24485803440E+03  0.39136459034E+03  0.89344939092E+02 0.  0.
         23    2    4    4    0    0 -0.43914927797E+03 -0.48977571416E+03 -0.65369781088E+03  0.93189155263E+03  0.91480595663E+02 0.  0.
          4    1    3    3  502    0  0.10535370398E+03  0.28084095508E+03 -0.19497450219E+03  0.35775145213E+03  0.00000000000E+00 0. -1.
         -3    1    3    3    0  502  0.23418266110E+03  0.48335329890E+03 -0.23501952897E+03  0.58626453869E+03  0.00000000000E+00 0.  1.
         13    1    5    5    0    0  0.37408717781E+02 -0.20762534951E+03  0.14450932112E+03  0.25571593970E+03  0.00000000000E+00 0.  1.
        -13    1    5    5    0    0  0.62204195109E+02 -0.66793190313E+02  0.10034871328E+03  0.13564865063E+03  0.00000000000E+00 0. -1.
          1    1    6    6  503    0 -0.14053673418E+03 -0.20770656276E+03 -0.20844856999E+03  0.32610335202E+03  0.00000000000E+00 0. -1.
         -1    1    6    6    0  503 -0.29861254379E+03 -0.28206915140E+03 -0.44524924089E+03  0.60578820060E+03  0.00000000000E+00 0.  1.
<mgrwt>
<rscale>  0 0.21063905E+04</rscale>
<asrwt>0</asrwt>
<pdfrwt beam="1">  1        2 0.23893123E+00 0.21063905E+04</pdfrwt>
<pdfrwt beam="2">  1       -1 0.10987987E+00 0.21063905E+04</pdfrwt>
<totfact> 0.95131617E+00</totfact>
</mgrwt>
</event>
<event>
12    7  0.1625631E-007  0.1594854E+04  0.7818608E-02  0.8823716E-01
         -1   -1    0    0    0  501 -0.00000000000E+00  0.00000000000E+00  0.31184535500E+03  0.31184535500E+03  0.00000000000E+00 0.  1.
          2   -1    0    0  501    0  0.00000000000E+00 -0.00000000000E+00 -0.20391181119E+04  0.20391181119E+04  0.00000000000E+00 0. -1.
         24    2    1    2    0    0 -0.37109458201E+03 -0.53567491701E+02 -0.35557584298E+02  0.38483439606E+03  0.79072786896E+02 0.  0.
        254    2    1    2    0    0  0.37109458201E+03  0.53567491701E+02 -0.16917151726E+04  0.19661290708E+04  0.92907622561E+03 0.  0.
         23    2    4    4    0    0 -0.53276157234E+02 -0.21925624299E+02  0.83912405893E+02  0.13670006076E+03  0.91249837358E+02 0.  0.
         23    2    4    4    0    0  0.42437073924E+03  0.75493115999E+02 -0.17756275785E+04  0.18294290100E+04  0.90374058802E+02 0.  0.
          2    1    3    3  502    0 -0.59834286082E+02 -0.22060264706E+01  0.22694913769E+02  0.64031769105E+02  0.00000000000E+00 0. -1.
         -1    1    3    3    0  502 -0.31126029593E+03 -0.51361465230E+02 -0.58252498067E+02  0.32080262696E+03  0.00000000000E+00 0.  1.
         13    1    5    5    0    0 -0.13885004471E+02 -0.34201993629E+01  0.91423619772E+02  0.92535233101E+02  0.00000000000E+00 0. -1.
        -13    1    5    5    0    0 -0.39391152763E+02 -0.18505424936E+02 -0.75112138784E+01  0.44164827657E+02  0.00000000000E+00 0.  1.
          2    1    6    6  503    0  0.42884335048E+03  0.72596599216E+02 -0.17585508611E+04  0.18115402332E+04  0.00000000000E+00 0. -1.
         -2    1    6    6    0  503 -0.44726112340E+01  0.28965167832E+01 -0.17076717405E+02  0.17888776874E+02  0.00000000000E+00 0.  1.
<mgrwt>
<rscale>  0 0.15948536E+04</rscale>
<asrwt>0</asrwt>
<pdfrwt beam="1">  1        2 0.31371048E+00 0.15948536E+04</pdfrwt>
<pdfrwt beam="2">  1       -1 0.47976209E-01 0.15948536E+04</pdfrwt>
<totfact> 0.30153507E+01</totfact>
</mgrwt>
</event>
<event>
12    7  0.1625631E-007  0.3015010E+04  0.7818608E-02  0.8239458E-01
          2   -1    0    0  501    0  0.00000000000E+00  0.00000000000E+00  0.15868590211E+04  0.15868590211E+04  0.00000000000E+00 0. -1.
         -1   -1    0    0    0  501 -0.00000000000E+00 -0.00000000000E+00 -0.14321193043E+04  0.14321193043E+04  0.00000000000E+00 0.  1.
         24    2    1    2    0    0 -0.12662663497E+04  0.36925349594E+03 -0.31311919973E+03  0.13580440099E+04  0.80382130741E+02 0.  0.
        254    2    1    2    0    0  0.12662663497E+04 -0.36925349594E+03  0.46785891648E+03  0.16609343156E+04  0.89444520360E+03 0.  0.
         23    2    4    4    0    0  0.52594692235E+03  0.93929581267E+02 -0.17916169899E+03  0.57051137136E+03  0.89114415770E+02 0.  0.
         23    2    4    4    0    0  0.74031942734E+03 -0.46318307721E+03  0.64702061548E+03  0.10904229442E+04  0.88176543783E+02 0.  0.
          4    1    3    3  502    0 -0.74312233189E+03  0.21652086595E+03 -0.14296651348E+03  0.78711594415E+03  0.00000000000E+00 0. -1.
         -3    1    3    3    0  502 -0.52314401780E+03  0.15273262999E+03 -0.17015268625E+03  0.57092806575E+03  0.00000000000E+00 0.  1.
         13    1    5    5    0    0  0.44628106731E+03  0.10552556067E+03 -0.13199106994E+03  0.47720443998E+03  0.00000000000E+00 0.  1.
        -13    1    5    5    0    0  0.79665855039E+02 -0.11595979407E+02 -0.47170629055E+02  0.93306931377E+02  0.00000000000E+00 0. -1.
          4    1    6    6  503    0  0.23114475797E+03 -0.14942376036E+03  0.15443090296E+03  0.31560143074E+03  0.00000000000E+00 0.  1.
         -4    1    6    6    0  503  0.50917466937E+03 -0.31375931685E+03  0.49258971252E+03  0.77482151346E+03  0.00000000000E+00 0. -1.
<mgrwt>
<rscale>  0 0.30150101E+04</rscale>
<asrwt>0</asrwt>
<pdfrwt beam="1">  1        2 0.24413216E+00 0.30150101E+04</pdfrwt>
<pdfrwt beam="2">  1       -1 0.22032605E+00 0.30150101E+04</pdfrwt>
<totfact> 0.12088965E+00</totfact>
</mgrwt>
</event>
<event>
12    7  0.1625631E-007  0.2146855E+04  0.7818608E-02  0.8540880E-01
          2   -1    0    0  501    0  0.00000000000E+00  0.00000000000E+00  0.74935688233E+03  0.74935688233E+03  0.00000000000E+00 0. -1.
         -1   -1    0    0    0  501 -0.00000000000E+00 -0.00000000000E+00 -0.15376467520E+04  0.15376467520E+04  0.00000000000E+00 0.  1.
         24    2    1    2    0    0  0.11676053835E+03  0.19633616111E+03  0.58137698807E+03  0.63121924961E+03  0.90871488068E+02 0.  0.
        254    2    1    2    0    0 -0.11676053835E+03 -0.19633616111E+03 -0.13696668578E+04  0.16557843847E+04  0.90191669018E+03 0.  0.
         23    2    4    4    0    0 -0.17102799678E+02 -0.39113081098E+03 -0.13606780410E+04  0.14189029067E+04  0.92546801248E+02 0.  0.
         23    2    4    4    0    0 -0.99657738676E+02  0.19479464987E+03 -0.89888167447E+01  0.23688147799E+03  0.90307337986E+02 0.  0.
          4    1    3    3  502    0  0.76848572900E+02  0.15658419082E+03  0.32628249254E+03  0.36997915740E+03  0.00000000000E+00 0. -1.
         -3    1    3    3    0  502  0.39911965454E+02  0.39751970290E+02  0.25509449553E+03  0.26124009221E+03  0.00000000000E+00 0.  1.
         13    1    5    5    0    0  0.62519122055E+01 -0.33099434028E+03 -0.10267775209E+04  0.10788273343E+04  0.00000000000E+00 0. -1.
        -13    1    5    5    0    0 -0.23354711884E+02 -0.60136470703E+02 -0.33390052011E+03  0.34007557249E+03  0.00000000000E+00 0.  1.
          3    1    6    6  503    0 -0.80997896823E+02  0.19350741845E+03 -0.26272563122E+02  0.21141435111E+03  0.00000000000E+00 0. -1.
         -3    1    6    6    0  503 -0.18659841853E+02  0.12872314234E+01  0.17283746378E+02  0.25467126881E+02  0.00000000000E+00 0.  1.
<mgrwt>
<rscale>  0 0.21468546E+04</rscale>
<asrwt>0</asrwt>
<pdfrwt beam="1">  1        2 0.11528568E+00 0.21468546E+04</pdfrwt>
<pdfrwt beam="2">  1       -1 0.23656104E+00 0.21468546E+04</pdfrwt>
<totfact> 0.33591076E+00</totfact>
</mgrwt>
</event>
<event>
12    7  0.1625631E-007  0.2006076E+04  0.7818608E-02  0.8603785E-01
          2   -1    0    0  501    0  0.00000000000E+00  0.00000000000E+00  0.18561371200E+04  0.18561371200E+04  0.00000000000E+00 0. -1.
         -1   -1    0    0    0  501 -0.00000000000E+00 -0.00000000000E+00 -0.54203185287E+03  0.54203185287E+03  0.00000000000E+00 0.  1.
         24    2    1    2    0    0  0.75559834562E+03  0.27322807449E+03  0.54191200127E+03  0.97251831356E+03  0.80875289741E+02 0.  0.
        254    2    1    2    0    0 -0.75559834562E+03 -0.27322807449E+03  0.77219326588E+03  0.14256506593E+04  0.88916529509E+03 0.  0.
         23    2    4    4    0    0 -0.41425313164E+03 -0.27212921102E+03  0.91608601735E+03  0.10456079112E+04  0.91773352148E+02 0.  0.
         23    2    4    4    0    0 -0.34134521398E+03 -0.10988634684E+01 -0.14389275146E+03  0.38004274816E+03  0.84909386389E+02 0.  0.
          2    1    3    3  502    0  0.38953400549E+03  0.17569633400E+03  0.31559159652E+03  0.53122876335E+03  0.00000000000E+00 0. -1.
         -1    1    3    3    0  502  0.36606434013E+03  0.97531740490E+02  0.22632040474E+03  0.44128955020E+03  0.00000000000E+00 0.  1.
         13    1    5    5    0    0 -0.11562823145E+02  0.58354499378E+01  0.12276547474E+02  0.17845586932E+02  0.00000000000E+00 0.  1.
        -13    1    5    5    0    0 -0.40269030849E+03 -0.27796466096E+03  0.90380946987E+03  0.10277623242E+04  0.00000000000E+00 0. -1.
          1    1    6    6  503    0 -0.20507396514E+03 -0.40210508146E+02 -0.99687557142E+02  0.23153795627E+03  0.00000000000E+00 0. -1.
         -1    1    6    6    0  503 -0.13627124884E+03  0.39111644678E+02 -0.44205194320E+02  0.14850479190E+03  0.00000000000E+00 0.  1.
<mgrwt>
<rscale>  0 0.20060762E+04</rscale>
<asrwt>0</asrwt>
<pdfrwt beam="1">  1        2 0.28555955E+00 0.20060762E+04</pdfrwt>
<pdfrwt beam="2">  1       -1 0.83389517E-01 0.20060762E+04</pdfrwt>
<totfact> 0.12117923E+01</totfact>
</mgrwt>
</event>
<event>
12    7  0.1625631E-007  0.4775993E+04  0.7818608E-02  0.7864023E-01
          2   -1    0    0  501    0  0.00000000000E+00  0.00000000000E+00  0.37464900935E+04  0.37464900935E+04  0.00000000000E+00 0. -1.
         -1   -1    0    0    0  501 -0.00000000000E+00 -0.00000000000E+00 -0.15220988730E+04  0.15220988730E+04  0.00000000000E+00 0.  1.
         24    2    1    2    0    0 -0.35945485766E+03  0.62596936385E+03 -0.13392053988E+04  0.15234313230E+04  0.79539024734E+02 0.  0.
        254    2    1    2    0    0  0.35945485766E+03 -0.62596936385E+03  0.35635966193E+04  0.37451576436E+04  0.89774131613E+03 0.  0.
         23    2    4    4    0    0  0.15218494563E+02  0.53194891451E+02  0.72420485349E+01  0.10706651274E+03  0.91375553794E+02 0.  0.
         23    2    4    4    0    0  0.34423636310E+03 -0.67916425530E+03  0.35563545708E+04  0.36380911308E+04  0.91030124666E+02 0.  0.
          2    1    3    3  502    0 -0.45251219090E+02  0.51536780223E+02 -0.91316805391E+02  0.11420364045E+03  0.00000000000E+00 0. -1.
         -1    1    3    3    0  502 -0.31420363857E+03  0.57443258363E+03 -0.12478885934E+04  0.14092276825E+04  0.00000000000E+00 0.  1.
         13    1    5    5    0    0 -0.37243679529E+01  0.28280268401E+02 -0.40767697783E+02  0.49755900957E+02  0.00000000000E+00 0. -1.
        -13    1    5    5    0    0  0.18942862516E+02  0.24914623050E+02  0.48009746318E+02  0.57310611788E+02  0.00000000000E+00 0.  1.
          4    1    6    6  503    0  0.32506556236E+03 -0.66586995219E+03  0.33847019121E+04  0.34648603791E+04  0.00000000000E+00 0. -1.
         -4    1    6    6    0  503  0.19170800742E+02 -0.13294303108E+02  0.17165265871E+03  0.17323075171E+03  0.00000000000E+00 0.  1.
<mgrwt>
<rscale>  0 0.47759934E+04</rscale>
<asrwt>0</asrwt>
<pdfrwt beam="1">  1        2 0.57638309E+00 0.47759934E+04</pdfrwt>
<pdfrwt beam="2">  1       -1 0.23416906E+00 0.47759934E+04</pdfrwt>
<totfact> 0.40036134E-02</totfact>
</mgrwt>
</event>
<event>
12    7  0.1625631E-007  0.1438567E+04  0.7818608E-02  0.8926365E-01
          2   -1    0    0  501    0  0.00000000000E+00  0.00000000000E+00  0.20187094523E+04  0.20187094523E+04  0.00000000000E+00 0. -1.
         -1   -1    0    0    0  501 -0.00000000000E+00 -0.00000000000E+00 -0.25628696526E+03  0.25628696526E+03  0.00000000000E+00 0.  1.
         24    2    1    2    0    0  0.20212354213E+03  0.10652456556E+03  0.11233450773E+04  0.11491921780E+04  0.80852272851E+02 0.  0.
        254    2    1    2    0    0 -0.20212354213E+03 -0.10652456556E+03  0.63907740977E+03  0.11258042395E+04  0.89822816741E+03 0.  0.
         23    2    4    4    0    0  0.30004034230E+03 -0.78383040819E+02  0.21901870309E+02  0.32430090035E+03  0.92321578995E+02 0.  0.
         23    2    4    4    0    0 -0.50216388443E+03 -0.28141524738E+02  0.61717553946E+03  0.80150333919E+03  0.92419932872E+02 0.  0.
          2    1    3    3  502    0  0.17128161044E+03  0.94417319731E+02  0.10580144576E+04  0.10759398742E+04  0.00000000000E+00 0. -1.
         -1    1    3    3    0  502  0.30841931689E+02  0.12107245827E+02  0.65330619700E+02  0.73252303870E+02  0.00000000000E+00 0.  1.
         13    1    5    5    0    0  0.28482796801E+03 -0.89504184964E+02  0.36061685159E+02  0.30072980501E+03  0.00000000000E+00 0. -1.
        -13    1    5    5    0    0  0.15212374285E+02  0.11121144145E+02 -0.14159814850E+02  0.23571095331E+02  0.00000000000E+00 0.  1.
          1    1    6    6  503    0 -0.42891041853E+03 -0.37312967909E+02  0.47348102433E+03  0.63995365855E+03  0.00000000000E+00 0. -1.
         -1    1    6    6    0  503 -0.73253465902E+02  0.91714431704E+01  0.14369451513E+03  0.16154968064E+03  0.00000000000E+00 0.  1.
<mgrwt>
<rscale>  0 0.14385672E+04</rscale>
<asrwt>0</asrwt>
<pdfrwt beam="1">  1        2 0.31057067E+00 0.14385672E+04</pdfrwt>
<pdfrwt beam="2">  1       -1 0.39428765E-01 0.14385672E+04</pdfrwt>
<totfact> 0.45124314E+01</totfact>
</mgrwt>
</event>
<event>
12    7  0.1625631E-007  0.1510189E+04  0.7818608E-02  0.8877706E-01
         -1   -1    0    0    0  501 -0.00000000000E+00  0.00000000000E+00  0.22349650105E+03  0.22349650105E+03  0.00000000000E+00 0.  1.
          2   -1    0    0  501    0  0.00000000000E+00 -0.00000000000E+00 -0.25511256927E+04  0.25511256927E+04  0.00000000000E+00 0. -1.
         24    2    1    2    0    0 -0.19542046313E+03  0.38602732360E+03 -0.35386971714E+03  0.56467485232E+03  0.80172689624E+02 0.  0.
        254    2    1    2    0    0  0.19542046313E+03 -0.38602732360E+03 -0.19737594745E+04  0.22099473414E+04  0.89494946040E+03 0.  0.
         23    2    4    4    0    0  0.27838750118E+03  0.21233681829E+02 -0.16481684002E+04  0.16740175156E+04  0.89023014846E+02 0.  0.
         23    2    4    4    0    0 -0.82967038045E+02 -0.40726100543E+03 -0.32559107436E+03  0.53592982584E+03  0.92011817599E+02 0.  0.
          4    1    3    3  502    0 -0.18922423626E+03  0.32055549817E+03 -0.31905932659E+03  0.49026573700E+03  0.00000000000E+00 0. -1.
         -3    1    3    3    0  502 -0.61962268743E+01  0.65471825428E+02 -0.34810390545E+02  0.74409115317E+02  0.00000000000E+00 0.  1.
         13    1    5    5    0    0  0.23216908424E+03 -0.17205359374E+02 -0.13293000786E+04  0.13495322178E+04  0.00000000000E+00 0.  1.
        -13    1    5    5    0    0  0.46218416941E+02  0.38439041203E+02 -0.31886832158E+03  0.32448529776E+03  0.00000000000E+00 0. -1.
          2    1    6    6  503    0  0.19851595222E+02 -0.73145920556E+02 -0.50221877128E+02  0.90921111240E+02  0.00000000000E+00 0. -1.
         -2    1    6    6    0  503 -0.10281863327E+03 -0.33411508487E+03 -0.27536919724E+03  0.44500871460E+03  0.00000000000E+00 0.  1.
<mgrwt>
<rscale>  0 0.15101889E+04</rscale>
<asrwt>0</asrwt>
<pdfrwt beam="1">  1        2 0.39248088E+00 0.15101889E+04</pdfrwt>
<pdfrwt beam="2">  1       -1 0.34384077E-01 0.15101889E+04</pdfrwt>
<totfact> 0.28718962E+01</totfact>
</mgrwt>
</event>
<event>
12    7  0.1688715E-007  0.1384644E+04  0.7818608E-02  0.8965009E-01
         -1   -1    0    0    0  501 -0.00000000000E+00  0.00000000000E+00  0.29982547947E+03  0.29982547947E+03  0.00000000000E+00 0.  1.
          2   -1    0    0  501    0  0.00000000000E+00 -0.00000000000E+00 -0.15986300892E+04  0.15986300892E+04  0.00000000000E+00 0. -1.
         24    2    1    2    0    0 -0.94753184905E+02 -0.10910452685E+03 -0.88292650468E+03  0.89820168790E+03  0.79530469968E+02 0.  0.
        254    2    1    2    0    0  0.94753184905E+02  0.10910452685E+03 -0.41587810502E+03  0.10002538807E+04  0.89814879829E+03 0.  0.
         23    2    4    4    0    0 -0.56341360586E+02  0.55189013697E+01 -0.66716643355E+03  0.67595031426E+03  0.92698274573E+02 0.  0.
         23    2    4    4    0    0  0.15109454549E+03  0.10358562548E+03  0.25128832852E+03  0.32430356648E+03  0.92018670369E+02 0.  0.
          2    1    3    3  502    0 -0.46915105080E+02 -0.79977944619E+02 -0.71937811886E+03  0.72532915053E+03  0.00000000000E+00 0. -1.
         -1    1    3    3    0  502 -0.47838079825E+02 -0.29126582229E+02 -0.16354838582E+03  0.17287253737E+03  0.00000000000E+00 0.  1.
         13    1    5    5    0    0  0.15087306991E+02  0.26436967360E+02 -0.28364358608E+03  0.28527219283E+03  0.00000000000E+00 0. -1.
        -13    1    5    5    0    0 -0.71428667577E+02 -0.20918065990E+02 -0.38352284746E+03  0.39067812143E+03  0.00000000000E+00 0.  1.
          4    1    6    6  503    0  0.12458308350E+03  0.70263384329E+02  0.24139451871E+03  0.28058724407E+03  0.00000000000E+00 0. -1.
         -4    1    6    6    0  503  0.26511461990E+02  0.33322241149E+02  0.98938098081E+01  0.43716322404E+02  0.00000000000E+00 0.  1.
<mgrwt>
<rscale>  0 0.13846444E+04</rscale>
<asrwt>0</asrwt>
<pdfrwt beam="1">  1        2 0.24594309E+00 0.13846444E+04</pdfrwt>
<pdfrwt beam="2">  1       -1 0.46126996E-01 0.13846444E+04</pdfrwt>
<totfact> 0.57980250E+01</totfact>
</mgrwt>
</event>
<event>
12    7  0.1625631E-007  0.3108737E+04  0.7818608E-02  0.8213344E-01
         -1   -1    0    0    0  501 -0.00000000000E+00  0.00000000000E+00  0.87387957408E+03  0.87387957408E+03  0.00000000000E+00 0.  1.
          2   -1    0    0  501    0  0.00000000000E+00 -0.00000000000E+00 -0.27647536072E+04  0.27647536072E+04  0.00000000000E+00 0. -1.
         24    2    1    2    0    0  0.66136811177E+03  0.11040515215E+04 -0.15408198455E+03  0.12986661156E+04  0.80342271728E+02 0.  0.
        254    2    1    2    0    0 -0.66136811177E+03 -0.11040515215E+04 -0.17367920485E+04  0.23399670656E+04  0.89591389485E+03 0.  0.
         23    2    4    4    0    0 -0.47631924078E+03 -0.12261440734E+04 -0.15541464765E+04  0.20381401085E+04  0.91293611303E+02 0.  0.
         23    2    4    4    0    0 -0.18504887100E+03  0.12209255197E+03 -0.18264557205E+03  0.30182695713E+03  0.92684578868E+02 0.  0.
          4    1    3    3  502    0  0.69753906212E+02  0.17092502810E+03 -0.24266108300E+02  0.18619832619E+03  0.00000000000E+00 0. -1.
         -3    1    3    3    0  502  0.59161420556E+03  0.93312649336E+03 -0.12981587625E+03  0.11124677894E+04  0.00000000000E+00 0.  1.
         13    1    5    5    0    0 -0.60015900050E+02 -0.13620219277E+03 -0.13490268127E+03  0.20087727345E+03  0.00000000000E+00 0. -1.
        -13    1    5    5    0    0 -0.41630334073E+03 -0.10899418807E+04 -0.14192437952E+04  0.18372628350E+04  0.00000000000E+00 0.  1.
          4    1    6    6  503    0 -0.46404270150E+02  0.46333073574E+02 -0.75834498469E+01  0.66012261790E+02  0.00000000000E+00 0.  1.
         -4    1    6    6    0  503 -0.13864460085E+03  0.75759478397E+02 -0.17506212220E+03  0.23581469534E+03  0.00000000000E+00 0. -1.
<mgrwt>
<rscale>  0 0.31087372E+04</rscale>
<asrwt>0</asrwt>
<pdfrwt beam="1">  1        2 0.42534670E+00 0.31087372E+04</pdfrwt>
<pdfrwt beam="2">  1       -1 0.13444301E+00 0.31087372E+04</pdfrwt>
<totfact> 0.10894016E+00</totfact>
</mgrwt>
</event>
<event>
12    7  0.1625631E-007  0.1936868E+04  0.7818608E-02  0.8636720E-01
          2   -1    0    0  501    0  0.00000000000E+00  0.00000000000E+00  0.75494948900E+03  0.75494948900E+03  0.00000000000E+00 0. -1.
         -1   -1    0    0    0  501 -0.00000000000E+00 -0.00000000000E+00 -0.12422871567E+04  0.12422871567E+04  0.00000000000E+00 0.  1.
         24    2    1    2    0    0 -0.37819816135E+03  0.39592159419E+03  0.35069710482E+03  0.65529658941E+03  0.81470256944E+02 0.  0.
        254    2    1    2    0    0  0.37819816135E+03 -0.39592159419E+03 -0.83803477251E+03  0.13419400563E+04  0.89370748946E+03 0.  0.
         23    2    4    4    0    0  0.57325778176E+03 -0.18525471273E+03 -0.20591240715E+03  0.64180992512E+03  0.81094189810E+02 0.  0.
         23    2    4    4    0    0 -0.19505962041E+03 -0.21066688145E+03 -0.63212236536E+03  0.70013013116E+03  0.90414187566E+02 0.  0.
          4    1    3    3  502    0 -0.36676076628E+03  0.35383214109E+03  0.31683706820E+03  0.60008030424E+03  0.00000000000E+00 0. -1.
         -3    1    3    3    0  502 -0.11437395077E+02  0.42089453101E+02  0.33860036617E+02  0.55216285172E+02  0.00000000000E+00 0.  1.
         13    1    5    5    0    0  0.23445891676E+03 -0.66638555885E+02 -0.12462854961E+03  0.27375893804E+03  0.00000000000E+00 0.  1.
        -13    1    5    5    0    0  0.33879886500E+03 -0.11861615685E+03 -0.81283857534E+02  0.36805098707E+03  0.00000000000E+00 0. -1.
          3    1    6    6  503    0 -0.20099363263E+03 -0.20133086001E+03 -0.57021604044E+03  0.63724319402E+03  0.00000000000E+00 0. -1.
         -3    1    6    6    0  503  0.59340122239E+01 -0.93360214422E+01 -0.61906324921E+02  0.62886937139E+02  0.00000000000E+00 0.  1.
<mgrwt>
<rscale>  0 0.19368676E+04</rscale>
<asrwt>0</asrwt>
<pdfrwt beam="1">  1        2 0.11614608E+00 0.19368676E+04</pdfrwt>
<pdfrwt beam="2">  1       -1 0.19112110E+00 0.19368676E+04</pdfrwt>
<totfact> 0.68763310E+00</totfact>
</mgrwt>
</event>
<event>
12    7  0.1625631E-007  0.1834761E+04  0.7818608E-02  0.8688029E-01
          2   -1    0    0  501    0  0.00000000000E+00  0.00000000000E+00  0.14096543658E+04  0.14096543658E+04  0.00000000000E+00 0. -1.
         -1   -1    0    0    0  501 -0.00000000000E+00 -0.00000000000E+00 -0.59701652521E+03  0.59701652521E+03  0.00000000000E+00 0.  1.
         24    2    1    2    0    0 -0.27916855384E+03  0.10875922898E+03 -0.37104848434E+03  0.48324867635E+03  0.78029828447E+02 0.  0.
        254    2    1    2    0    0  0.27916855384E+03 -0.10875922898E+03  0.11836863249E+04  0.15234222147E+04  0.91100948235E+03 0.  0.
         23    2    4    4    0    0 -0.49911028360E+02 -0.53895020680E+02 -0.12163335036E+03  0.17298433830E+03  0.98656603285E+02 0.  0.
         23    2    4    4    0    0  0.32907958220E+03 -0.54864208299E+02  0.13053196753E+04  0.13504378764E+04  0.92301410778E+02 0.  0.
          4    1    3    3  502    0  0.53428988251E+01  0.20472815102E+01 -0.74714808556E+01  0.94106830578E+01  0.00000000000E+00 0. -1.
         -3    1    3    3    0  502 -0.28451145266E+03  0.10671194747E+03 -0.36357700348E+03  0.47383799329E+03  0.00000000000E+00 0.  1.
         13    1    5    5    0    0  0.76336360234E+01 -0.10005900771E+02  0.14261099105E+02  0.19020236509E+02  0.00000000000E+00 0.  1.
        -13    1    5    5    0    0 -0.57544664384E+02 -0.43889119909E+02 -0.13589444946E+03  0.15396410179E+03  0.00000000000E+00 0. -1.
          1    1    6    6  503    0  0.27973942160E+03 -0.43972613219E+02  0.12084222480E+04  0.12411575501E+04  0.00000000000E+00 0. -1.
         -1    1    6    6    0  503  0.49340160595E+02 -0.10891595081E+02  0.96897427265E+02  0.10928032623E+03  0.00000000000E+00 0.  1.
<mgrwt>
<rscale>  0 0.18347610E+04</rscale>
<asrwt>0</asrwt>
<pdfrwt beam="1">  1        2 0.21686990E+00 0.18347610E+04</pdfrwt>
<pdfrwt beam="2">  1       -1 0.91848696E-01 0.18347610E+04</pdfrwt>
<totfact> 0.17701634E+01</totfact>
</mgrwt>
</event>
<event>
12    7  0.1625631E-007  0.1572304E+04  0.7818608E-02  0.8837746E-01
          2   -1    0    0  501    0  0.00000000000E+00  0.00000000000E+00  0.78341206958E+03  0.78341206958E+03  0.00000000000E+00 0. -1.
         -1   -1    0    0    0  501 -0.00000000000E+00 -0.00000000000E+00 -0.78890134839E+03  0.78890134839E+03  0.00000000000E+00 0.  1.
         24    2    1    2    0    0  0.18195436432E+03 -0.44698614722E+02  0.49386550266E+03  0.53394083169E+03  0.78002052357E+02 0.  0.
        254    2    1    2    0    0 -0.18195436432E+03  0.44698614722E+02 -0.49935478147E+03  0.10383725863E+04  0.89093045368E+03 0.  0.
         23    2    4    4    0    0  0.21806772045E+03 -0.65185871293E+02  0.13132145763E+03  0.27823244609E+03  0.91461687648E+02 0.  0.
         23    2    4    4    0    0 -0.40002208477E+03  0.10988448601E+03 -0.63067623909E+03  0.76014014018E+03  0.89265030025E+02 0.  0.
          4    1    3    3  502    0  0.15749119823E+03 -0.32004689329E+02  0.32197741940E+03  0.35985724428E+03  0.00000000000E+00 0. -1.
         -3    1    3    3    0  502  0.24463166092E+02 -0.12693925393E+02  0.17188808326E+03  0.17408358740E+03  0.00000000000E+00 0.  1.
         13    1    5    5    0    0  0.79950693170E+02  0.20233116779E+02  0.36576120990E+02  0.90218096741E+02  0.00000000000E+00 0.  1.
        -13    1    5    5    0    0  0.13811702728E+03 -0.85418988072E+02  0.94745336637E+02  0.18801434935E+03  0.00000000000E+00 0. -1.
          1    1    6    6  503    0 -0.27791515939E+03  0.11788614229E+03 -0.44192493106E+03  0.53519307082E+03  0.00000000000E+00 0. -1.
         -1    1    6    6    0  503 -0.12210692538E+03 -0.80016562735E+01 -0.18875130804E+03  0.22494706936E+03  0.00000000000E+00 0.  1.
<mgrwt>
<rscale>  0 0.15723038E+04</rscale>
<asrwt>0</asrwt>
<pdfrwt beam="1">  1        2 0.12052493E+00 0.15723038E+04</pdfrwt>
<pdfrwt beam="2">  1       -1 0.12136944E+00 0.15723038E+04</pdfrwt>
<totfact> 0.23400954E+01</totfact>
</mgrwt>
</event>
<event>
12    7  0.1625631E-007  0.2081025E+04  0.7818608E-02  0.8569648E-01
          2   -1    0    0  501    0  0.00000000000E+00  0.00000000000E+00  0.12921493427E+04  0.12921493427E+04  0.00000000000E+00 0. -1.
         -1   -1    0    0    0  501 -0.00000000000E+00 -0.00000000000E+00 -0.83788010624E+03  0.83788010624E+03  0.00000000000E+00 0.  1.
         24    2    1    2    0    0 -0.45153500434E+03  0.55453540704E+03  0.65420306635E+03  0.97256094072E+03  0.80621049245E+02 0.  0.
        254    2    1    2    0    0  0.45153500434E+03 -0.55453540704E+03 -0.19993382992E+03  0.11574685082E+04  0.88790001310E+03 0.  0.
         23    2    4    4    0    0  0.27039324113E+03  0.10573237992E+03  0.19393531661E+03  0.36237244889E+03  0.97010533825E+02 0.  0.
         23    2    4    4    0    0  0.18114176321E+03 -0.66026778696E+03 -0.39386914653E+03  0.79509605929E+03  0.90988735768E+02 0.  0.
          2    1    3    3  502    0 -0.43352089685E+03  0.54956845137E+03  0.64454055150E+03  0.95152423683E+03  0.00000000000E+00 0. -1.
         -1    1    3    3    0  502 -0.18014107490E+02  0.49669556761E+01  0.96625148498E+01  0.21036703891E+02  0.00000000000E+00 0.  1.
         13    1    5    5    0    0  0.26383753442E+03  0.12035869570E+03  0.18180069725E+03  0.34226883252E+03  0.00000000000E+00 0. -1.
        -13    1    5    5    0    0  0.65557067103E+01 -0.14626315781E+02  0.12134619363E+02  0.20103616363E+02  0.00000000000E+00 0.  1.
          4    1    6    6  503    0  0.54717579119E+02 -0.35909539101E+03 -0.22661585122E+03  0.42813345738E+03  0.00000000000E+00 0. -1.
         -4    1    6    6    0  503  0.12642418409E+03 -0.30117239595E+03 -0.16725329532E+03  0.36696260191E+03  0.00000000000E+00 0.  1.
<mgrwt>
<rscale>  0 0.20810250E+04</rscale>
<asrwt>0</asrwt>
<pdfrwt beam="1">  1        2 0.19879221E+00 0.20810250E+04</pdfrwt>
<pdfrwt beam="2">  1       -1 0.12890463E+00 0.20810250E+04</pdfrwt>
<totfact> 0.91070780E+00</totfact>
</mgrwt>
</event>
<event>
12    7  0.1625631E-007  0.2437993E+04  0.7818608E-02  0.8425415E-01
         -1   -1    0    0    0  501 -0.00000000000E+00  0.00000000000E+00  0.61612538523E+03  0.61612538523E+03  0.00000000000E+00 0.  1.
          2   -1    0    0  501    0  0.00000000000E+00 -0.00000000000E+00 -0.24117698561E+04  0.24117698561E+04  0.00000000000E+00 0. -1.
         24    2    1    2    0    0  0.29883187094E+03 -0.81582764475E+03 -0.37841903620E+02  0.87340942403E+03  0.80850351197E+02 0.  0.
        254    2    1    2    0    0 -0.29883187094E+03  0.81582764475E+03 -0.17578025672E+04  0.21544858173E+04  0.89278443003E+03 0.  0.
         23    2    4    4    0    0  0.62252076046E+02 -0.46726394880E+02  0.37291764230E+02  0.12843724422E+03  0.95114526093E+02 0.  0.
         23    2    4    4    0    0 -0.36108394699E+03  0.86255403963E+03 -0.17950943315E+04  0.20260485731E+04  0.90155829062E+02 0.  0.
          2    1    3    3  502    0  0.27124367533E+03 -0.77785278101E+03 -0.22743964945E+02  0.82410276561E+03  0.00000000000E+00 0. -1.
         -3    1    3    3    0  502  0.27588195610E+02 -0.37974863733E+02 -0.15097938675E+02  0.49306658423E+02  0.00000000000E+00 0.  1.
         13    1    5    5    0    0 -0.35471977759E+00  0.24301370824E+02  0.21498159910E+02  0.32447701452E+02  0.00000000000E+00 0. -1.
        -13    1    5    5    0    0  0.62606795823E+02 -0.71027765703E+02  0.15793604320E+02  0.95989542771E+02  0.00000000000E+00 0.  1.
          2    1    6    6  503    0 -0.26796340409E+03  0.54246869508E+03 -0.11116399747E+04  0.12656303190E+04  0.00000000000E+00 0.  1.
         -2    1    6    6    0  503 -0.93120542900E+02  0.32008534455E+03 -0.68345435678E+03  0.76041825406E+03  0.00000000000E+00 0. -1.
<mgrwt>
<rscale>  0 0.24379931E+04</rscale>
<asrwt>0</asrwt>
<pdfrwt beam="1">  1        2 0.37104152E+00 0.24379931E+04</pdfrwt>
<pdfrwt beam="2">  1       -1 0.94788521E-01 0.24379931E+04</pdfrwt>
<totfact> 0.42945939E+00</totfact>
</mgrwt>
</event>
<event>
12    7  0.1625631E-007  0.1614630E+04  0.7818608E-02  0.8811610E-01
          2   -1    0    0  501    0  0.00000000000E+00  0.00000000000E+00  0.17084577514E+04  0.17084577514E+04  0.00000000000E+00 0. -1.
         -1   -1    0    0    0  501 -0.00000000000E+00 -0.00000000000E+00 -0.38148867599E+03  0.38148867599E+03  0.00000000000E+00 0.  1.
         24    2    1    2    0    0 -0.51302697052E+02 -0.38167062772E+02 -0.25201709954E+03  0.27240369478E+03  0.81255541737E+02 0.  0.
        254    2    1    2    0    0  0.51302697052E+02  0.38167062772E+02  0.15789861749E+04  0.18175427326E+04  0.89787279321E+03 0.  0.
         23    2    4    4    0    0 -0.20581774812E+03  0.32533350240E+03  0.12222773247E+04  0.12846325573E+04  0.90089486532E+02 0.  0.
         23    2    4    4    0    0  0.25712044518E+03 -0.28716643963E+03  0.35670885017E+03  0.53291017524E+03  0.90424353505E+02 0.  0.
          4    1    3    3  502    0  0.16204103393E+02 -0.27763595303E+02 -0.52948467169E+02  0.61942960589E+02  0.00000000000E+00 0. -1.
         -1    1    3    3    0  502 -0.67506800445E+02 -0.10403467469E+02 -0.19906863237E+03  0.21046073419E+03  0.00000000000E+00 0.  1.
         13    1    5    5    0    0 -0.34485574220E+01  0.33327775880E+02  0.18992640783E+03  0.19285920663E+03  0.00000000000E+00 0. -1.
        -13    1    5    5    0    0 -0.20236919070E+03  0.29200572652E+03  0.10323509169E+04  0.10917733507E+04  0.00000000000E+00 0.  1.
          1    1    6    6  503    0  0.41323780224E+02 -0.92276233432E+02  0.12709879036E+03  0.16240893011E+03  0.00000000000E+00 0. -1.
         -1    1    6    6    0  503  0.21579666495E+03 -0.19489020620E+03  0.22961005981E+03  0.37050124513E+03  0.00000000000E+00 0.  1.
<mgrwt>
<rscale>  0 0.16146297E+04</rscale>
<asrwt>0</asrwt>
<pdfrwt beam="1">  1        2 0.26283965E+00 0.16146297E+04</pdfrwt>
<pdfrwt beam="2">  1       -1 0.58690566E-01 0.16146297E+04</pdfrwt>
<totfact> 0.31144194E+01</totfact>
</mgrwt>
</event>
<event>
12    7  0.1625631E-007  0.1502423E+04  0.7818608E-02  0.8882844E-01
          2   -1    0    0  501    0  0.00000000000E+00  0.00000000000E+00  0.13326788348E+04  0.13326788348E+04  0.00000000000E+00 0. -1.
         -1   -1    0    0    0  501 -0.00000000000E+00 -0.00000000000E+00 -0.42344665296E+03  0.42344665296E+03  0.00000000000E+00 0.  1.
         24    2    1    2    0    0  0.14900384468E+03  0.32247615700E+03  0.66265720163E+03  0.75629953570E+03  0.81739851098E+02 0.  0.
        254    2    1    2    0    0 -0.14900384468E+03 -0.32247615700E+03  0.24657498020E+03  0.99982595207E+03  0.90147639792E+03 0.  0.
         23    2    4    4    0    0  0.21123876462E+03  0.21457358310E+03  0.50385462844E+02  0.31806654086E+03  0.89241197340E+02 0.  0.
         23    2    4    4    0    0 -0.36024260930E+03 -0.53704974011E+03  0.19618951736E+03  0.68175941121E+03  0.90046694280E+02 0.  0.
          4    1    3    3  502    0  0.13057640877E+03  0.22662046101E+03  0.53585987715E+03  0.59628251678E+03  0.00000000000E+00 0. -1.
         -1    1    3    3    0  502  0.18427435909E+02  0.95855695990E+02  0.12679732448E+03  0.16001701892E+03  0.00000000000E+00 0.  1.
         13    1    5    5    0    0  0.12736089562E+03  0.13018112738E+03 -0.14216256940E+02  0.18267464416E+03  0.00000000000E+00 0.  1.
        -13    1    5    5    0    0  0.83877868997E+02  0.84392455725E+02  0.64601719785E+02  0.13539189669E+03  0.00000000000E+00 0. -1.
          2    1    6    6  503    0 -0.23336913176E+03 -0.27916590044E+03  0.13364899439E+03  0.38762972710E+03  0.00000000000E+00 0.  1.
         -2    1    6    6    0  503 -0.12687347753E+03 -0.25788383967E+03  0.62540522970E+02  0.29412968411E+03  0.00000000000E+00 0. -1.
<mgrwt>
<rscale>  0 0.15024226E+04</rscale>
<asrwt>0</asrwt>
<pdfrwt beam="1">  1        2 0.20502751E+00 0.15024226E+04</pdfrwt>
<pdfrwt beam="2">  1       -1 0.65145639E-01 0.15024226E+04</pdfrwt>
<totfact> 0.41622251E+01</totfact>
</mgrwt>
</event>
<event>
12    7  0.1625631E-007  0.1357989E+04  0.7818608E-02  0.8984802E-01
          2   -1    0    0  501    0  0.00000000000E+00  0.00000000000E+00  0.36444988099E+04  0.36444988099E+04  0.00000000000E+00 0. -1.
         -1   -1    0    0    0  501 -0.00000000000E+00 -0.00000000000E+00 -0.12650130344E+03  0.12650130344E+03  0.00000000000E+00 0.  1.
         24    2    1    2    0    0  0.12746856076E+03 -0.10269232371E+03  0.19124274116E+04  0.19212435408E+04  0.83691044342E+02 0.  0.
        254    2    1    2    0    0 -0.12746856076E+03  0.10269232371E+03  0.16055700949E+04  0.18497565726E+04  0.90385292000E+03 0.  0.
         23    2    4    4    0    0  0.33343573072E+03 -0.10323929332E+03  0.39395560714E+03  0.53399962424E+03  0.90093507475E+02 0.  0.
         23    2    4    4    0    0 -0.46090429148E+03  0.20593161703E+03  0.12116144877E+04  0.13157569484E+04  0.91466296894E+02 0.  0.
          4    1    3    3  502    0  0.12890534644E+03 -0.66684883475E+02  0.16467946471E+04  0.16531775681E+04  0.00000000000E+00 0. -1.
         -3    1    3    3    0  502 -0.14367856745E+01 -0.36007440234E+02  0.26563276455E+03  0.26806597268E+03  0.00000000000E+00 0.  1.
         13    1    5    5    0    0  0.33171750854E+03 -0.93412823807E+02  0.39472486678E+03  0.52399444804E+03  0.00000000000E+00 0.  1.
        -13    1    5    5    0    0  0.17182221775E+01 -0.98264695090E+01 -0.76925963596E+00  0.10005176203E+02  0.00000000000E+00 0. -1.
          3    1    6    6  503    0 -0.19166105105E+03  0.11187463573E+03  0.63079504468E+03  0.66869446012E+03  0.00000000000E+00 0. -1.
         -3    1    6    6    0  503 -0.26924324043E+03  0.94056981299E+02  0.58081944305E+03  0.64706248823E+03  0.00000000000E+00 0.  1.
<mgrwt>
<rscale>  0 0.13579895E+04</rscale>
<asrwt>0</asrwt>
<pdfrwt beam="1">  1        2 0.56069204E+00 0.13579895E+04</pdfrwt>
<pdfrwt beam="2">  1       -1 0.19461742E-01 0.13579895E+04</pdfrwt>
<totfact> 0.15594818E+01</totfact>
</mgrwt>
</event>
<event>
12    7  0.1625631E-007  0.1764516E+04  0.7818608E-02  0.8725400E-01
         -1   -1    0    0    0  501 -0.00000000000E+00  0.00000000000E+00  0.11120388597E+04  0.11120388597E+04  0.00000000000E+00 0.  1.
          2   -1    0    0  501    0  0.00000000000E+00 -0.00000000000E+00 -0.69995683480E+03  0.69995683480E+03  0.00000000000E+00 0. -1.
         24    2    1    2    0    0 -0.54382863742E+03  0.36581804340E+03  0.13231716824E+03  0.67334804562E+03  0.79481631686E+02 0.  0.
        254    2    1    2    0    0  0.54382863742E+03 -0.36581804340E+03  0.27976485666E+03  0.11386476489E+04  0.88807525894E+03 0.  0.
         23    2    4    4    0    0  0.36777982887E+03  0.15871840186E+03  0.39073324556E+03  0.56691660456E+03  0.90930928384E+02 0.  0.
         23    2    4    4    0    0  0.17604880855E+03 -0.52453644526E+03 -0.11096838890E+03  0.57173104432E+03  0.91819052013E+02 0.  0.
          2    1    3    3  502    0 -0.47602417833E+01 -0.46450706947E+00  0.87951811037E+01  0.10011537310E+02  0.00000000000E+00 0. -1.
         -1    1    3    3    0  502 -0.53906839563E+03  0.36628255047E+03  0.12352198714E+03  0.66333650831E+03  0.00000000000E+00 0.  1.
         13    1    5    5    0    0  0.26307472696E+03  0.84253496817E+02  0.21943226142E+03  0.35278531863E+03  0.00000000000E+00 0.  1.
        -13    1    5    5    0    0  0.10470510191E+03  0.74464905040E+02  0.17130098414E+03  0.21413128593E+03  0.00000000000E+00 0. -1.
          2    1    6    6  503    0  0.25198763120E+02 -0.19148314456E+03 -0.14959316851E+02  0.19371255374E+03  0.00000000000E+00 0.  1.
         -2    1    6    6    0  503  0.15085004543E+03 -0.33305330069E+03 -0.96009072047E+02  0.37801849059E+03  0.00000000000E+00 0. -1.
<mgrwt>
<rscale>  0 0.17645160E+04</rscale>
<asrwt>0</asrwt>
<pdfrwt beam="1">  1        2 0.10768567E+00 0.17645160E+04</pdfrwt>
<pdfrwt beam="2">  1       -1 0.17108290E+00 0.17645160E+04</pdfrwt>
<totfact> 0.10701648E+01</totfact>
</mgrwt>
</event>
<event>
12    7  0.1625631E-007  0.2802300E+04  0.7818608E-02  0.8302555E-01
          2   -1    0    0  501    0  0.00000000000E+00  0.00000000000E+00  0.30019191633E+04  0.30019191633E+04  0.00000000000E+00 0. -1.
         -1   -1    0    0    0  501 -0.00000000000E+00 -0.00000000000E+00 -0.65398867095E+03  0.65398867095E+03  0.00000000000E+00 0.  1.
         24    2    1    2    0    0 -0.11639359491E+04 -0.26788179187E+03  0.15475200857E+04  0.19564892762E+04  0.80773289519E+02 0.  0.
        254    2    1    2    0    0  0.11639359491E+04  0.26788179187E+03  0.80041040657E+03  0.16994185580E+04  0.90601273069E+03 0.  0.
         23    2    4    4    0    0  0.10355994371E+04  0.38946665581E+03  0.94164327020E+03  0.14554689632E+04  0.86875684057E+02 0.  0.
         23    2    4    4    0    0  0.12833651200E+03 -0.12158486393E+03 -0.14123286364E+03  0.24394959474E+03  0.91167667244E+02 0.  0.
          2    1    3    3  502    0 -0.10742124909E+04 -0.26483852846E+03  0.14508095106E+04  0.18245328601E+04  0.00000000000E+00 0. -1.
         -1    1    3    3    0  502 -0.89723458215E+02 -0.30432634098E+01  0.96710575158E+02  0.13195641611E+03  0.00000000000E+00 0.  1.
         13    1    5    5    0    0  0.53152624200E+03  0.19779882642E+03  0.53949231937E+03  0.78274931129E+03  0.00000000000E+00 0.  1.
        -13    1    5    5    0    0  0.50407319510E+03  0.19166782938E+03  0.40215095084E+03  0.67271965194E+03  0.00000000000E+00 0. -1.
          2    1    6    6  503    0  0.72758429723E+02 -0.11690742046E+03 -0.12471107706E+03  0.18577940358E+03  0.00000000000E+00 0. -1.
         -2    1    6    6    0  503  0.55578082279E+02 -0.46774434751E+01 -0.16521786578E+02  0.58170191155E+02  0.00000000000E+00 0.  1.
<mgrwt>
<rscale>  0 0.28022999E+04</rscale>
<asrwt>0</asrwt>
<pdfrwt beam="1">  1        2 0.46183371E+00 0.28022999E+04</pdfrwt>
<pdfrwt beam="2">  1       -1 0.10061364E+00 0.28022999E+04</pdfrwt>
<totfact> 0.16128916E+00</totfact>
</mgrwt>
</event>
<event>
12    7  0.1625631E-007  0.1336534E+04  0.7818608E-02  0.9001085E-01
          2   -1    0    0  501    0  0.00000000000E+00  0.00000000000E+00  0.25539154124E+04  0.25539154124E+04  0.00000000000E+00 0. -1.
         -1   -1    0    0    0  501 -0.00000000000E+00 -0.00000000000E+00 -0.17486123162E+03  0.17486123162E+03  0.00000000000E+00 0.  1.
         24    2    1    2    0    0  0.80697156546E+02  0.27191022107E+03  0.11088594593E+04  0.11482477627E+04  0.91958821114E+02 0.  0.
        254    2    1    2    0    0 -0.80697156546E+02 -0.27191022107E+03  0.12701947214E+04  0.15805288812E+04  0.89678855627E+03 0.  0.
         23    2    4    4    0    0  0.16123004592E+03  0.12786635895E+03  0.10170328424E+04  0.10416336503E+04  0.91103926309E+02 0.  0.
         23    2    4    4    0    0 -0.24192720247E+03 -0.39977658003E+03  0.25316187900E+03  0.53889523093E+03  0.89258320140E+02 0.  0.
          4    1    3    3  502    0  0.59476850467E+02  0.14298026389E+03  0.76238534116E+03  0.77795389324E+03  0.00000000000E+00 0. -1.
         -3    1    3    3    0  502  0.21220306079E+02  0.12892995718E+03  0.34647411813E+03  0.37029386950E+03  0.00000000000E+00 0.  1.
         13    1    5    5    0    0 -0.77521554220E+01 -0.48736104538E+01  0.25806069304E+02  0.27382498159E+02  0.00000000000E+00 0.  1.
        -13    1    5    5    0    0  0.16898220134E+03  0.13273996940E+03  0.99122677314E+03  0.10142511522E+04  0.00000000000E+00 0. -1.
          1    1    6    6  503    0 -0.24175326088E+02 -0.61657033147E+02  0.52079165819E+01  0.66431607861E+02  0.00000000000E+00 0.  1.
         -1    1    6    6    0  503 -0.21775187638E+03 -0.33811954688E+03  0.24795396242E+03  0.47246362307E+03  0.00000000000E+00 0. -1.
<mgrwt>
<rscale>  0 0.13365340E+04</rscale>
<asrwt>0</asrwt>
<pdfrwt beam="1">  1        2 0.39291004E+00 0.13365340E+04</pdfrwt>
<pdfrwt beam="2">  1       -1 0.26901730E-01 0.13365340E+04</pdfrwt>
<totfact> 0.44727002E+01</totfact>
</mgrwt>
</event>
<event>
12    7  0.1625631E-007  0.2061762E+04  0.7818608E-02  0.8578277E-01
          2   -1    0    0  501    0  0.00000000000E+00  0.00000000000E+00  0.13453041943E+04  0.13453041943E+04  0.00000000000E+00 0. -1.
         -1   -1    0    0    0  501 -0.00000000000E+00 -0.00000000000E+00 -0.78994413416E+03  0.78994413416E+03  0.00000000000E+00 0.  1.
         24    2    1    2    0    0  0.71349621880E+03  0.29693765138E+03  0.56409496009E+03  0.96011743630E+03  0.79834481515E+02 0.  0.
        254    2    1    2    0    0 -0.71349621880E+03 -0.29693765138E+03 -0.87348999864E+01  0.11751308921E+04  0.88521607084E+03 0.  0.
         23    2    4    4    0    0 -0.63090522838E+03 -0.49391914036E+03  0.23394401811E+03  0.83966579085E+03  0.91166399008E+02 0.  0.
         23    2    4    4    0    0 -0.82590990427E+02  0.19698148898E+03 -0.24267891810E+03  0.33546510127E+03  0.89558909006E+02 0.  0.
          2    1    3    3  502    0  0.42272992707E+03  0.20899456169E+03  0.37276920228E+03  0.60111246554E+03  0.00000000000E+00 0. -1.
         -1    1    3    3    0  502  0.29076629173E+03  0.87943089696E+02  0.19132575781E+03  0.35900497076E+03  0.00000000000E+00 0.  1.
         13    1    5    5    0    0 -0.30344420626E+03 -0.21238448428E+03  0.15068943000E+03  0.39986605231E+03  0.00000000000E+00 0.  1.
        -13    1    5    5    0    0 -0.32746102211E+03 -0.28153465608E+03  0.83254588109E+02  0.43979973854E+03  0.00000000000E+00 0. -1.
          2    1    6    6  503    0 -0.74190822738E+02  0.14248517742E+03 -0.22708668236E+03  0.27816301923E+03  0.00000000000E+00 0.  1.
         -2    1    6    6    0  503 -0.84001676887E+01  0.54496311557E+02 -0.15592235734E+02  0.57302082036E+02  0.00000000000E+00 0. -1.
<mgrwt>
<rscale>  0 0.20617615E+04</rscale>
<asrwt>0</asrwt>
<pdfrwt beam="1">  1        2 0.20696988E+00 0.20617615E+04</pdfrwt>
<pdfrwt beam="2">  1       -1 0.12152987E+00 0.20617615E+04</pdfrwt>
<totfact> 0.98376138E+00</totfact>
</mgrwt>
</event>
<event>
12    7  0.1625631E-007  0.2960206E+04  0.7818608E-02  0.8255186E-01
         -1   -1    0    0    0  501 -0.00000000000E+00  0.00000000000E+00  0.75205424143E+03  0.75205424143E+03  0.00000000000E+00 0.  1.
          2   -1    0    0  501    0  0.00000000000E+00 -0.00000000000E+00 -0.29129611857E+04  0.29129611857E+04  0.00000000000E+00 0. -1.
         24    2    1    2    0    0  0.11960975094E+04 -0.20284879069E+03 -0.27848339352E+03  0.12472519816E+04  0.79294522039E+02 0.  0.
        254    2    1    2    0    0 -0.11960975094E+04  0.20284879069E+03 -0.18824235507E+04  0.24177634455E+04  0.91118865790E+03 0.  0.
         23    2    4    4    0    0 -0.72642119784E+03 -0.12987576989E+03 -0.44358767802E+03  0.86544971026E+03  0.87622489287E+02 0.  0.
         23    2    4    4    0    0 -0.46967631157E+03  0.33272456058E+03 -0.14388358727E+04  0.15523137353E+04  0.90154274671E+02 0.  0.
          2    1    3    3  502    0  0.36250472539E+03 -0.60892551954E+02 -0.47218056348E+02  0.37060372861E+03  0.00000000000E+00 0. -1.
         -1    1    3    3    0  502  0.83359278402E+03 -0.14195623874E+03 -0.23126533718E+03  0.87664825298E+03  0.00000000000E+00 0.  1.
         13    1    5    5    0    0 -0.47141991229E+03 -0.84240549012E+02 -0.33568769205E+03  0.58482427309E+03  0.00000000000E+00 0.  1.
        -13    1    5    5    0    0 -0.25500128555E+03 -0.45635220878E+02 -0.10789998597E+03  0.28062543717E+03  0.00000000000E+00 0. -1.
          1    1    6    6  503    0 -0.21235326190E+03  0.98762857403E+02 -0.54403501403E+03  0.59230237745E+03  0.00000000000E+00 0. -1.
         -1    1    6    6    0  503 -0.25732304967E+03  0.23396170318E+03 -0.89480085867E+03  0.96001135781E+03  0.00000000000E+00 0.  1.
<mgrwt>
<rscale>  0 0.29602059E+04</rscale>
<asrwt>0</asrwt>
<pdfrwt beam="1">  1        2 0.44814787E+00 0.29602059E+04</pdfrwt>
<pdfrwt beam="2">  1       -1 0.11570065E+00 0.29602059E+04</pdfrwt>
<totfact> 0.13013714E+00</totfact>
</mgrwt>
</event>
<event>
12    7  0.1625631E-007  0.2573253E+04  0.7818608E-02  0.8377344E-01
         -1   -1    0    0    0  501 -0.00000000000E+00  0.00000000000E+00  0.20843534742E+04  0.20843534742E+04  0.00000000000E+00 0.  1.
          2   -1    0    0  501    0  0.00000000000E+00 -0.00000000000E+00 -0.79420673672E+03  0.79420673672E+03  0.00000000000E+00 0. -1.
         24    2    1    2    0    0 -0.25159004815E+03  0.62765665898E+03  0.15601702083E+04  0.17032010564E+04  0.97531153467E+02 0.  0.
        254    2    1    2    0    0  0.25159004815E+03 -0.62765665898E+03 -0.27002347079E+03  0.11753591545E+04  0.92266246994E+03 0.  0.
         23    2    4    4    0    0  0.51531222583E+03 -0.63702171198E+03 -0.63268894460E+02  0.82689026422E+03  0.91658084337E+02 0.  0.
         23    2    4    4    0    0 -0.26372217768E+03  0.93650529979E+01 -0.20675457633E+03  0.34846889030E+03  0.95110574912E+02 0.  0.
          4    1    3    3  502    0 -0.10215740094E+03  0.36835915503E+03  0.93355817322E+03  0.10087891080E+04  0.00000000000E+00 0. -1.
         -3    1    3    3    0  502 -0.14943264721E+03  0.25929750396E+03  0.62661203504E+03  0.69441194839E+03  0.00000000000E+00 0.  1.
         13    1    5    5    0    0  0.32826876944E+03 -0.44569721161E+03 -0.75752268454E+01  0.55359170288E+03  0.00000000000E+00 0. -1.
        -13    1    5    5    0    0  0.18704345639E+03 -0.19132450037E+03 -0.55693667615E+02  0.27329856134E+03  0.00000000000E+00 0.  1.
          4    1    6    6  503    0 -0.13683413613E+03  0.24116009310E+02 -0.16127297315E+03  0.21287116899E+03  0.00000000000E+00 0. -1.
         -4    1    6    6    0  503 -0.12688804154E+03 -0.14750956312E+02 -0.45481603177E+02  0.13559772132E+03  0.00000000000E+00 0.  1.
<mgrwt>
<rscale>  0 0.25732529E+04</rscale>
<asrwt>0</asrwt>
<pdfrwt beam="1">  1        2 0.12218565E+00 0.25732529E+04</pdfrwt>
<pdfrwt beam="2">  1       -1 0.32066976E+00 0.25732529E+04</pdfrwt>
<totfact> 0.85215492E-01</totfact>
</mgrwt>
</event>
<event>
12    7  0.1625631E-007  0.1572564E+04  0.7818608E-02  0.8837583E-01
         -1   -1    0    0    0  501 -0.00000000000E+00  0.00000000000E+00  0.84646576218E+03  0.84646576218E+03  0.00000000000E+00 0.  1.
          2   -1    0    0  501    0  0.00000000000E+00 -0.00000000000E+00 -0.73037712770E+03  0.73037712770E+03  0.00000000000E+00 0. -1.
         24    2    1    2    0    0  0.28868549617E+03 -0.30729334682E+03  0.35753486966E+03  0.56004569059E+03  0.89730016256E+02 0.  0.
        254    2    1    2    0    0 -0.28868549617E+03  0.30729334682E+03 -0.24144623519E+03  0.10167971993E+04  0.89320308066E+03 0.  0.
         23    2    4    4    0    0 -0.12043304258E+03 -0.65077510081E+02  0.29421142505E+03  0.33700026230E+03  0.90937418595E+02 0.  0.
         23    2    4    4    0    0 -0.16825245360E+03  0.37237085690E+03 -0.53565766024E+03  0.67979693699E+03  0.90696214683E+02 0.  0.
          2    1    3    3  502    0  0.86242328823E+02 -0.11934525028E+03  0.76311029288E+02  0.16584450921E+03  0.00000000000E+00 0. -1.
         -1    1    3    3    0  502  0.20244316735E+03 -0.18794809654E+03  0.28122384038E+03  0.39420118137E+03  0.00000000000E+00 0.  1.
         13    1    5    5    0    0  0.14701573497E+02 -0.64970802570E+01  0.19269416242E+02  0.25093001364E+02  0.00000000000E+00 0.  1.
        -13    1    5    5    0    0 -0.13513461607E+03 -0.58580429824E+02  0.27494200881E+03  0.31190726094E+03  0.00000000000E+00 0. -1.
          1    1    6    6  503    0 -0.16111425903E+03  0.28790126373E+03 -0.46064330810E+03  0.56660144671E+03  0.00000000000E+00 0. -1.
         -1    1    6    6    0  503 -0.71381945693E+01  0.84469593172E+02 -0.75014352136E+02  0.11319549028E+03  0.00000000000E+00 0.  1.
<mgrwt>
<rscale>  0 0.15725638E+04</rscale>
<asrwt>0</asrwt>
<pdfrwt beam="1">  1        2 0.11236571E+00 0.15725638E+04</pdfrwt>
<pdfrwt beam="2">  1       -1 0.13022550E+00 0.15725638E+04</pdfrwt>
<totfact> 0.21507653E+01</totfact>
</mgrwt>
</event>
<event>
12    7  0.1625631E-007  0.2936716E+04  0.7818608E-02  0.8262036E-01
          2   -1    0    0  501    0  0.00000000000E+00  0.00000000000E+00  0.22181966713E+04  0.22181966713E+04  0.00000000000E+00 0. -1.
         -1   -1    0    0    0  501 -0.00000000000E+00 -0.00000000000E+00 -0.97199481789E+03  0.97199481789E+03  0.00000000000E+00 0.  1.
         24    2    1    2    0    0  0.23512655686E+03 -0.12849820476E+04  0.84542949172E+03  0.15580448380E+04  0.79305303924E+02 0.  0.
        254    2    1    2    0    0 -0.23512655686E+03  0.12849820476E+04  0.40077236171E+03  0.16321466512E+04  0.89264822003E+03 0.  0.
         23    2    4    4    0    0 -0.80102875663E+02  0.11410996603E+04  0.63055167994E+03  0.13091796748E+04  0.88493469635E+02 0.  0.
         23    2    4    4    0    0 -0.15502368120E+03  0.14388238728E+03 -0.22977931823E+03  0.32296697648E+03  0.82308260237E+02 0.  0.
          4    1    3    3  502    0  0.35585558695E+02 -0.33910507731E+03  0.24829296138E+03  0.42179139408E+03  0.00000000000E+00 0. -1.
         -3    1    3    3    0  502  0.19954099817E+03 -0.94587697032E+03  0.59713653033E+03  0.11362534439E+04  0.00000000000E+00 0.  1.
         13    1    5    5    0    0 -0.17340467913E+02  0.52960598944E+02  0.46686851003E+02  0.72699236066E+02  0.00000000000E+00 0.  1.
        -13    1    5    5    0    0 -0.62762407750E+02  0.10881390614E+04  0.58386482894E+03  0.12364804387E+04  0.00000000000E+00 0. -1.
          3    1    6    6  503    0 -0.14445531438E+03  0.13676922018E+03 -0.16947869748E+03  0.26133539052E+03  0.00000000000E+00 0. -1.
         -3    1    6    6    0  503 -0.10568366823E+02  0.71131670993E+01 -0.60300620756E+02  0.61631585953E+02  0.00000000000E+00 0.  1.
<mgrwt>
<rscale>  0 0.29367163E+04</rscale>
<asrwt>0</asrwt>
<pdfrwt beam="1">  1        2 0.34126102E+00 0.29367163E+04</pdfrwt>
<pdfrwt beam="2">  1       -1 0.14953766E+00 0.29367163E+04</pdfrwt>
<totfact> 0.17359705E+00</totfact>
</mgrwt>
</event>
<event>
12    7  0.1625631E-007  0.1886737E+04  0.7818608E-02  0.8661487E-01
         -1   -1    0    0    0  501 -0.00000000000E+00  0.00000000000E+00  0.33456134839E+03  0.33456134839E+03  0.00000000000E+00 0.  1.
          2   -1    0    0  501    0  0.00000000000E+00 -0.00000000000E+00 -0.26600316313E+04  0.26600316313E+04  0.00000000000E+00 0. -1.
         24    2    1    2    0    0  0.71877052756E+03 -0.11406283239E+02 -0.80673643919E+03  0.10836109045E+04  0.81410905333E+02 0.  0.
        254    2    1    2    0    0 -0.71877052756E+03  0.11406283239E+02 -0.15187338437E+04  0.19109820751E+04  0.91024108283E+03 0.  0.
         23    2    4    4    0    0 -0.24277743318E+03 -0.15183642152E+03  0.82481625385E+01  0.30053426300E+03  0.90871503194E+02 0.  0.
         23    2    4    4    0    0 -0.47599309439E+03  0.16324270476E+03 -0.15269820062E+04  0.16104478121E+04  0.93008073137E+02 0.  0.
          4    1    3    3  502    0  0.34293705865E+03 -0.31042448420E+02 -0.33826191933E+03  0.48269098383E+03  0.00000000000E+00 0. -1.
         -3    1    3    3    0  502  0.37583346891E+03  0.19636165182E+02 -0.46847451986E+03  0.60091992070E+03  0.00000000000E+00 0.  1.
         13    1    5    5    0    0 -0.21269463270E+03 -0.10555080837E+03  0.33561007400E+02  0.23980475630E+03  0.00000000000E+00 0. -1.
        -13    1    5    5    0    0 -0.30082800480E+02 -0.46285613151E+02 -0.25312844861E+02  0.60729506704E+02  0.00000000000E+00 0.  1.
          1    1    6    6  503    0 -0.20769354475E+03  0.28070657136E+02 -0.69336366628E+03  0.72434642544E+03  0.00000000000E+00 0. -1.
         -1    1    6    6    0  503 -0.26829954964E+03  0.13517204762E+03 -0.83361833993E+03  0.88610138667E+03  0.00000000000E+00 0.  1.
<mgrwt>
<rscale>  0 0.18867366E+04</rscale>
<asrwt>0</asrwt>
<pdfrwt beam="1">  1        2 0.40923564E+00 0.18867366E+04</pdfrwt>
<pdfrwt beam="2">  1       -1 0.51470976E-01 0.18867366E+04</pdfrwt>
<totfact> 0.11384892E+01</totfact>
</mgrwt>
</event>
<event>
12    7  0.1625631E-007  0.1457384E+04  0.7818608E-02  0.8913297E-01
          2   -1    0    0  501    0  0.00000000000E+00  0.00000000000E+00  0.21636238602E+04  0.21636238602E+04  0.00000000000E+00 0. -1.
         -1   -1    0    0    0  501 -0.00000000000E+00 -0.00000000000E+00 -0.24541804435E+03  0.24541804435E+03  0.00000000000E+00 0.  1.
         24    2    1    2    0    0  0.21734247502E+03 -0.34353702921E+03  0.28887541552E+03  0.50480798153E+03  0.78272924087E+02 0.  0.
        254    2    1    2    0    0 -0.21734247502E+03  0.34353702921E+03  0.16293304003E+04  0.19042339230E+04  0.89784956328E+03 0.  0.
         23    2    4    4    0    0  0.26498643454E+03  0.27390985544E+03  0.32504009471E+03  0.50886103018E+03  0.89688714294E+02 0.  0.
         23    2    4    4    0    0 -0.48232890955E+03  0.69627173769E+02  0.13042903056E+04  0.13953728929E+04  0.91668906572E+02 0.  0.
          4    1    3    3  502    0  0.79383837611E+02 -0.16307710531E+03  0.16927620361E+03  0.24809346839E+03  0.00000000000E+00 0. -1.
         -3    1    3    3    0  502  0.13795863740E+03 -0.18045992390E+03  0.11959921191E+03  0.25671451314E+03  0.00000000000E+00 0.  1.
         13    1    5    5    0    0  0.23153775283E+03  0.26681958774E+03  0.27243406240E+03  0.44611964958E+03  0.00000000000E+00 0. -1.
        -13    1    5    5    0    0  0.33448681708E+02  0.70902676981E+01  0.52606032308E+02  0.62741380597E+02  0.00000000000E+00 0.  1.
          1    1    6    6  503    0 -0.18755891615E+03  0.39132842172E+01  0.61119665122E+03  0.63933950862E+03  0.00000000000E+00 0. -1.
         -1    1    6    6    0  503 -0.29476999340E+03  0.65713889552E+02  0.69309365441E+03  0.75603338424E+03  0.00000000000E+00 0.  1.
<mgrwt>
<rscale>  0 0.14573844E+04</rscale>
<asrwt>0</asrwt>
<pdfrwt beam="1">  1        2 0.33286520E+00 0.14573844E+04</pdfrwt>
<pdfrwt beam="2">  1       -1 0.37756624E-01 0.14573844E+04</pdfrwt>
<totfact> 0.40483096E+01</totfact>
</mgrwt>
</event>
<event>
12    7  0.1625631E-007  0.2051430E+04  0.7818608E-02  0.8582946E-01
          2   -1    0    0  501    0  0.00000000000E+00  0.00000000000E+00  0.15251776549E+04  0.15251776549E+04  0.00000000000E+00 0. -1.
         -1   -1    0    0    0  501 -0.00000000000E+00 -0.00000000000E+00 -0.68981559218E+03  0.68981559218E+03  0.00000000000E+00 0.  1.
         24    2    1    2    0    0 -0.21427406034E+03  0.35748027916E+03 -0.39536713423E+03  0.58174548897E+03  0.91690349455E+02 0.  0.
        254    2    1    2    0    0  0.21427406034E+03 -0.35748027916E+03  0.12307291970E+04  0.16332477581E+04  0.98949399202E+03 0.  0.
         23    2    4    4    0    0  0.84316873011E+02 -0.36487803930E+02 -0.15453006661E+03  0.20246575965E+03  0.93124365425E+02 0.  0.
         23    2    4    4    0    0  0.12995718732E+03 -0.32099247523E+03  0.13852592636E+04  0.14307819985E+04  0.90933273060E+02 0.  0.
          2    1    3    3  502    0 -0.91531284844E+02  0.10642506857E+03 -0.84977066524E+02  0.16408952788E+03  0.00000000000E+00 0. -1.
         -1    1    3    3    0  502 -0.12274277549E+03  0.25105521060E+03 -0.31039006771E+03  0.41765596109E+03  0.00000000000E+00 0.  1.
         13    1    5    5    0    0  0.83180560656E+02 -0.39023546184E+02 -0.16650483499E+03  0.19017282378E+03  0.00000000000E+00 0.  1.
        -13    1    5    5    0    0  0.11363123550E+01  0.25357422535E+01  0.11974768385E+02  0.12292935874E+02  0.00000000000E+00 0. -1.
          1    1    6    6  503    0  0.12911849261E+02 -0.13842474725E+03  0.46653129381E+03  0.48680547923E+03  0.00000000000E+00 0. -1.
         -1    1    6    6    0  503  0.11704533806E+03 -0.18256772798E+03  0.91872796978E+03  0.94397651926E+03  0.00000000000E+00 0.  1.
<mgrwt>
<rscale>  0 0.20514301E+04</rscale>
<asrwt>0</asrwt>
<pdfrwt beam="1">  1        2 0.23464271E+00 0.20514301E+04</pdfrwt>
<pdfrwt beam="2">  1       -1 0.10612548E+00 0.20514301E+04</pdfrwt>
<totfact> 0.10753346E+01</totfact>
</mgrwt>
</event>
<event>
12    7  0.1625631E-007  0.1718726E+04  0.7818608E-02  0.8750756E-01
         -1   -1    0    0    0  501 -0.00000000000E+00  0.00000000000E+00  0.68936278127E+03  0.68936278127E+03  0.00000000000E+00 0.  1.
          2   -1    0    0  501    0  0.00000000000E+00 -0.00000000000E+00 -0.10712856981E+04  0.10712856981E+04  0.00000000000E+00 0. -1.
         24    2    1    2    0    0  0.35957825978E+03 -0.10279227399E+03  0.36492569634E+03  0.52857267014E+03  0.79721560912E+02 0.  0.
        254    2    1    2    0    0 -0.35957825978E+03  0.10279227399E+03 -0.74684861316E+03  0.12320758092E+04  0.90574012399E+03 0.  0.
         23    2    4    4    0    0 -0.41054993412E+03  0.32712422700E+03 -0.81350451093E+03  0.97246127192E+03  0.91267890200E+02 0.  0.
         23    2    4    4    0    0  0.50971674342E+02 -0.22433195301E+03  0.66655897770E+02  0.25961453730E+03  0.10016867048E+03 0.  0.
          4    1    3    3  502    0  0.20867826883E+03 -0.50445929288E+02  0.15500995550E+03  0.26480086474E+03  0.00000000000E+00 0. -1.
         -3    1    3    3    0  502  0.15089999095E+03 -0.52346344700E+02  0.20991574084E+03  0.26377180540E+03  0.00000000000E+00 0.  1.
         13    1    5    5    0    0 -0.60599339424E+02  0.83983453884E+02 -0.12009783232E+03  0.15858433023E+03  0.00000000000E+00 0.  1.
        -13    1    5    5    0    0 -0.34995059470E+03  0.24314077311E+03 -0.69340667861E+03  0.81387694170E+03  0.00000000000E+00 0. -1.
          3    1    6    6  503    0  0.23237474657E+02 -0.16586148516E+03  0.10823290096E+01  0.16748487670E+03  0.00000000000E+00 0.  1.
         -3    1    6    6    0  503  0.27734199686E+02 -0.58470467853E+02  0.65573568761E+02  0.92129660605E+02  0.00000000000E+00 0. -1.
<mgrwt>
<rscale>  0 0.17187257E+04</rscale>
<asrwt>0</asrwt>
<pdfrwt beam="1">  1        2 0.16481319E+00 0.17187257E+04</pdfrwt>
<pdfrwt beam="2">  1       -1 0.10605581E+00 0.17187257E+04</pdfrwt>
<totfact> 0.20464727E+01</totfact>
</mgrwt>
</event>
<event>
12    7  0.1625631E-007  0.1681481E+04  0.7818608E-02  0.8771997E-01
          2   -1    0    0  501    0  0.00000000000E+00  0.00000000000E+00  0.97665523648E+03  0.97665523648E+03  0.00000000000E+00 0. -1.
         -1   -1    0    0    0  501 -0.00000000000E+00 -0.00000000000E+00 -0.72374011474E+03  0.72374011474E+03  0.00000000000E+00 0.  1.
         24    2    1    2    0    0  0.23042460304E+03  0.41978717960E+02  0.66421722947E+03  0.70880679584E+03  0.79779918910E+02 0.  0.
        254    2    1    2    0    0 -0.23042460304E+03 -0.41978717960E+02 -0.41130210773E+03  0.99158855538E+03  0.87133273144E+03 0.  0.
         23    2    4    4    0    0 -0.26675875276E+03 -0.35929796117E+03 -0.46768358057E+03  0.65455722513E+03  0.97272670197E+02 0.  0.
         23    2    4    4    0    0  0.36334149721E+02  0.31731924321E+03  0.56381472838E+02  0.33703133024E+03  0.91649192783E+02 0.  0.
          4    1    3    3  502    0  0.21707858525E+03  0.58856565521E+02  0.58589709726E+03  0.62758474811E+03  0.00000000000E+00 0. -1.
         -3    1    3    3    0  502  0.13346017791E+02 -0.16877847561E+02  0.78320132202E+02  0.81222047729E+02  0.00000000000E+00 0.  1.
         13    1    5    5    0    0 -0.14613820118E+03 -0.17926575237E+03 -0.30897504239E+03  0.38595098217E+03  0.00000000000E+00 0. -1.
        -13    1    5    5    0    0 -0.12062055158E+03 -0.18003220880E+03 -0.15870853818E+03  0.26860624297E+03  0.00000000000E+00 0.  1.
          2    1    6    6  503    0  0.89005023400E+01  0.24687193725E+03  0.76848089920E+02  0.25870949203E+03  0.00000000000E+00 0. -1.
         -2    1    6    6    0  503  0.27433647381E+02  0.70447305961E+02 -0.20466617082E+02  0.78321838210E+02  0.00000000000E+00 0.  1.
<mgrwt>
<rscale>  0 0.16814810E+04</rscale>
<asrwt>0</asrwt>
<pdfrwt beam="1">  1        2 0.15025465E+00 0.16814810E+04</pdfrwt>
<pdfrwt beam="2">  1       -1 0.11134463E+00 0.16814810E+04</pdfrwt>
<totfact> 0.21030153E+01</totfact>
</mgrwt>
</event>
<event>
12    7  0.1625631E-007  0.1495404E+04  0.7818608E-02  0.8887515E-01
         -1   -1    0    0    0  501 -0.00000000000E+00  0.00000000000E+00  0.27071142950E+03  0.27071142950E+03  0.00000000000E+00 0.  1.
          2   -1    0    0  501    0  0.00000000000E+00 -0.00000000000E+00 -0.20651459925E+04  0.20651459925E+04  0.00000000000E+00 0. -1.
         24    2    1    2    0    0 -0.66494842672E+01  0.39287805042E+03 -0.12057906754E+04  0.12708304371E+04  0.81740252225E+02 0.  0.
        254    2    1    2    0    0  0.66494842672E+01 -0.39287805042E+03 -0.58864388765E+03  0.10650269850E+04  0.79585392759E+03 0.  0.
         23    2    4    4    0    0 -0.40225085144E+02  0.18728735543E+03  0.23509977374E+02  0.21538290363E+03  0.95616238992E+02 0.  0.
         23    2    4    4    0    0  0.46874569411E+02 -0.58016540586E+03 -0.61215386503E+03  0.84964408133E+03  0.91507306013E+02 0.  0.
          2    1    3    3  502    0  0.10751282324E+02  0.37869163444E+03 -0.11335271142E+04  0.11951596808E+04  0.00000000000E+00 0. -1.
         -1    1    3    3    0  502 -0.17400766591E+02  0.14186415980E+02 -0.72263561230E+02  0.75670756293E+02  0.00000000000E+00 0.  1.
         13    1    5    5    0    0 -0.74366806139E+01  0.13025217389E+02  0.34605570896E+02  0.37716124451E+02  0.00000000000E+00 0.  1.
        -13    1    5    5    0    0 -0.32788404530E+02  0.17426213805E+03 -0.11095593522E+02  0.17766677918E+03  0.00000000000E+00 0. -1.
          1    1    6    6  503    0  0.32193888419E+02 -0.13621105604E+03 -0.10188564672E+03  0.17312014108E+03  0.00000000000E+00 0. -1.
         -1    1    6    6    0  503  0.14680680992E+02 -0.44395434982E+03 -0.51026821830E+03  0.67652394025E+03  0.00000000000E+00 0.  1.
<mgrwt>
<rscale>  0 0.14954045E+04</rscale>
<asrwt>0</asrwt>
<pdfrwt beam="1">  1        2 0.31771478E+00 0.14954045E+04</pdfrwt>
<pdfrwt beam="2">  1       -1 0.41647911E-01 0.14954045E+04</pdfrwt>
<totfact> 0.38281051E+01</totfact>
</mgrwt>
</event>
<event>
12    7  0.1625631E-007  0.2465911E+04  0.7818608E-02  0.8415231E-01
          2   -1    0    0  501    0  0.00000000000E+00  0.00000000000E+00  0.10474827756E+04  0.10474827756E+04  0.00000000000E+00 0. -1.
         -1   -1    0    0    0  501 -0.00000000000E+00 -0.00000000000E+00 -0.14512690949E+04  0.14512690949E+04  0.00000000000E+00 0.  1.
         24    2    1    2    0    0  0.15551673187E+03 -0.89670930015E+03 -0.74871225676E+03  0.11809893020E+04  0.76763697109E+02 0.  0.
        254    2    1    2    0    0 -0.15551673187E+03  0.89670930015E+03  0.34492593743E+03  0.13177625685E+04  0.88839814366E+03 0.  0.
         23    2    4    4    0    0 -0.33539700897E+02  0.55606694536E+03  0.63185934278E+03  0.84698322579E+03  0.88311927020E+02 0.  0.
         23    2    4    4    0    0 -0.12197703097E+03  0.34064235479E+03 -0.28693340535E+03  0.47077934268E+03  0.91579475978E+02 0.  0.
          4    1    3    3  502    0  0.13102959001E+03 -0.72410529294E+03 -0.64224825182E+03  0.97671902085E+03  0.00000000000E+00 0. -1.
         -1    1    3    3    0  502  0.24487141860E+02 -0.17260400721E+03 -0.10646400494E+03  0.20427028117E+03  0.00000000000E+00 0.  1.
         13    1    5    5    0    0 -0.45737694637E+02  0.49999973995E+03  0.59609025701E+03  0.77936850794E+03  0.00000000000E+00 0.  1.
        -13    1    5    5    0    0  0.12197993739E+02  0.56067205405E+02  0.35769085769E+02  0.67614717850E+02  0.00000000000E+00 0. -1.
          3    1    6    6  503    0  0.53824297422E+01  0.46167577729E+02 -0.11376879524E+02  0.47852368499E+02  0.00000000000E+00 0. -1.
         -3    1    6    6    0  503 -0.12735946072E+03  0.29447477706E+03 -0.27555652582E+03  0.42292697418E+03  0.00000000000E+00 0.  1.
<mgrwt>
<rscale>  0 0.24659111E+04</rscale>
<asrwt>0</asrwt>
<pdfrwt beam="1">  1        2 0.16115120E+00 0.24659111E+04</pdfrwt>
<pdfrwt beam="2">  1       -1 0.22327217E+00 0.24659111E+04</pdfrwt>
<totfact> 0.25065987E+00</totfact>
</mgrwt>
</event>
<event>
12    7  0.1625631E-007  0.1852607E+04  0.7818608E-02  0.8678814E-01
          2   -1    0    0  501    0  0.00000000000E+00  0.00000000000E+00  0.74703076602E+03  0.74703076602E+03  0.00000000000E+00 0. -1.
         -1   -1    0    0    0  501 -0.00000000000E+00 -0.00000000000E+00 -0.11485976182E+04  0.11485976182E+04  0.00000000000E+00 0.  1.
         24    2    1    2    0    0  0.43867601165E+03  0.19485676451E+02  0.39919723218E+03  0.59844494791E+03  0.77211337993E+02 0.  0.
        254    2    1    2    0    0 -0.43867601165E+03 -0.19485676451E+02 -0.80076408436E+03  0.12971834363E+04  0.92121952535E+03 0.  0.
         23    2    4    4    0    0 -0.67055450022E+03 -0.10444180055E+03 -0.33405406226E+03  0.76194575816E+03  0.91748538852E+02 0.  0.
         23    2    4    4    0    0  0.23187848858E+03  0.84956124099E+02 -0.46671002209E+03  0.53523767816E+03  0.87612504350E+02 0.  0.
          4    1    3    3  502    0  0.14824362551E+03 -0.27733770909E+02  0.15229101881E+03  0.21433125988E+03  0.00000000000E+00 0. -1.
         -3    1    3    3    0  502  0.29043238614E+03  0.47219447360E+02  0.24690621337E+03  0.38411368803E+03  0.00000000000E+00 0.  1.
         13    1    5    5    0    0 -0.15374026654E+03 -0.62011378708E+02 -0.68760238810E+02  0.17946991694E+03  0.00000000000E+00 0.  1.
        -13    1    5    5    0    0 -0.51681423368E+03 -0.42430421842E+02 -0.26529382345E+03  0.58247584121E+03  0.00000000000E+00 0. -1.
          3    1    6    6  503    0  0.10157241311E+03 -0.21461978418E+01 -0.14112727196E+03  0.17389211644E+03  0.00000000000E+00 0. -1.
         -3    1    6    6    0  503  0.13030607546E+03  0.87102321941E+02 -0.32558275014E+03  0.36134556172E+03  0.00000000000E+00 0.  1.
<mgrwt>
<rscale>  0 0.18526066E+04</rscale>
<asrwt>0</asrwt>
<pdfrwt beam="1">  1        2 0.11492781E+00 0.18526066E+04</pdfrwt>
<pdfrwt beam="2">  1       -1 0.17670733E+00 0.18526066E+04</pdfrwt>
<totfact> 0.88920489E+00</totfact>
</mgrwt>
</event>
<event>
12    7  0.1625631E-007  0.1540055E+04  0.7818608E-02  0.8858245E-01
          2   -1    0    0  501    0  0.00000000000E+00  0.00000000000E+00  0.88632844944E+03  0.88632844944E+03  0.00000000000E+00 0. -1.
         -1   -1    0    0    0  501 -0.00000000000E+00 -0.00000000000E+00 -0.66898709983E+03  0.66898709983E+03  0.00000000000E+00 0.  1.
         24    2    1    2    0    0 -0.42168055714E+03  0.12319792446E+03  0.31028719288E+03  0.54358354302E+03  0.78820716254E+02 0.  0.
        254    2    1    2    0    0  0.42168055714E+03 -0.12319792446E+03 -0.92945843266E+02  0.10117320063E+04  0.90662588858E+03 0.  0.
         23    2    4    4    0    0  0.31417187227E+03 -0.50077858086E+03  0.21522684911E+01  0.59803798769E+03  0.90341851266E+02 0.  0.
         23    2    4    4    0    0  0.10750868487E+03  0.37758065640E+03 -0.95098111757E+02  0.41369401856E+03  0.89296252592E+02 0.  0.
          2    1    3    3  502    0 -0.38260537200E+03  0.10954085135E+03  0.24842182687E+03  0.46914760242E+03  0.00000000000E+00 0. -1.
         -1    1    3    3    0  502 -0.39075185141E+02  0.13657073112E+02  0.61865366013E+02  0.74435940591E+02  0.00000000000E+00 0.  1.
         13    1    5    5    0    0  0.28853562471E+03 -0.39974162279E+03  0.13511829078E+02  0.49318225966E+03  0.00000000000E+00 0.  1.
        -13    1    5    5    0    0  0.25636247562E+02 -0.10103695807E+03 -0.11359560586E+02  0.10485572803E+03  0.00000000000E+00 0. -1.
          4    1    6    6  503    0  0.24825480373E+02  0.85562741319E+02  0.15969561290E+02  0.90511402959E+02  0.00000000000E+00 0. -1.
         -4    1    6    6    0  503  0.82683204495E+02  0.29201791508E+03 -0.11106767305E+03  0.32318261560E+03  0.00000000000E+00 0.  1.
<mgrwt>
<rscale>  0 0.15400549E+04</rscale>
<asrwt>0</asrwt>
<pdfrwt beam="1">  1        2 0.13635822E+00 0.15400549E+04</pdfrwt>
<pdfrwt beam="2">  1       -1 0.10292109E+00 0.15400549E+04</pdfrwt>
<totfact> 0.29383590E+01</totfact>
</mgrwt>
</event>
<event>
12    7  0.1625631E-007  0.1872331E+04  0.7818608E-02  0.8668753E-01
         -1   -1    0    0    0  501 -0.00000000000E+00  0.00000000000E+00  0.45237619626E+03  0.45237619626E+03  0.00000000000E+00 0.  1.
          2   -1    0    0  501    0  0.00000000000E+00 -0.00000000000E+00 -0.19373376422E+04  0.19373376422E+04  0.00000000000E+00 0. -1.
         24    2    1    2    0    0 -0.26694786645E+03  0.56079184993E+03 -0.11630944941E+03  0.63677456055E+03  0.78773666875E+02 0.  0.
        254    2    1    2    0    0  0.26694786645E+03 -0.56079184993E+03 -0.13686519966E+04  0.17529392780E+04  0.90213034654E+03 0.  0.
         23    2    4    4    0    0  0.21647593878E+03 -0.46914187002E+03 -0.14812097334E+04  0.15714501457E+04  0.92289543069E+02 0.  0.
         23    2    4    4    0    0  0.50471927666E+02 -0.91649979914E+02  0.11255773683E+03  0.18148913228E+03  0.96550125402E+02 0.  0.
          2    1    3    3  502    0 -0.12609005302E+03  0.19764422987E+03 -0.18472275486E+02  0.23516625615E+03  0.00000000000E+00 0. -1.
         -1    1    3    3    0  502 -0.14085781343E+03  0.36314762006E+03 -0.97837173926E+02  0.40160830440E+03  0.00000000000E+00 0.  1.
         13    1    5    5    0    0  0.21095763681E+03 -0.44366645823E+03 -0.13262486368E+04  0.14143120226E+04  0.00000000000E+00 0. -1.
        -13    1    5    5    0    0  0.55183019706E+01 -0.25475411788E+02 -0.15496109657E+03  0.15713812304E+03  0.00000000000E+00 0.  1.
          4    1    6    6  503    0  0.25887762725E+02 -0.92953863093E+02  0.39269101193E+02  0.10417609722E+03  0.00000000000E+00 0.  1.
         -4    1    6    6    0  503  0.24584164940E+02  0.13038831797E+01  0.73288635637E+02  0.77313035064E+02  0.00000000000E+00 0. -1.
<mgrwt>
<rscale>  0 0.18723306E+04</rscale>
<asrwt>0</asrwt>
<pdfrwt beam="1">  1        2 0.29805195E+00 0.18723306E+04</pdfrwt>
<pdfrwt beam="2">  1       -1 0.69596336E-01 0.18723306E+04</pdfrwt>
<totfact> 0.16155872E+01</totfact>
</mgrwt>
</event>
<event>
12    7  0.1625631E-007  0.1697321E+04  0.7818608E-02  0.8762894E-01
         -1   -1    0    0    0  501 -0.00000000000E+00  0.00000000000E+00  0.27953719236E+03  0.27953719236E+03  0.00000000000E+00 0.  1.
          2   -1    0    0  501    0  0.00000000000E+00 -0.00000000000E+00 -0.25764902903E+04  0.25764902903E+04  0.00000000000E+00 0. -1.
         24    2    1    2    0    0 -0.37355114455E+02 -0.59063420535E+03 -0.59781428450E+03  0.84568564549E+03  0.86937466810E+02 0.  0.
        254    2    1    2    0    0  0.37355114455E+02  0.59063420535E+03 -0.16991388135E+04  0.20103418372E+04  0.89674825109E+03 0.  0.
         23    2    4    4    0    0 -0.28608826717E+03  0.44765767996E+03 -0.14957539660E+04  0.15898762717E+04  0.90458483457E+02 0.  0.
         23    2    4    4    0    0  0.32344338162E+03  0.14297652539E+03 -0.20338484744E+03  0.42046556555E+03  0.10182331616E+03 0.  0.
          4    1    3    3  502    0 -0.17889682414E+02 -0.23074162426E+03 -0.17530350264E+03  0.29033266427E+03  0.00000000000E+00 0. -1.
         -3    1    3    3    0  502 -0.19465432041E+02 -0.35989258109E+03 -0.42251078186E+03  0.55535298122E+03  0.00000000000E+00 0.  1.
         13    1    5    5    0    0 -0.26241014132E+03  0.43957703179E+03 -0.14501102234E+04  0.15378253182E+04  0.00000000000E+00 0.  1.
        -13    1    5    5    0    0 -0.23678125849E+02  0.80806481630E+01 -0.45643742604E+02  0.52050953472E+02  0.00000000000E+00 0. -1.
          2    1    6    6  503    0  0.15999216719E+02 -0.15093201429E+02 -0.82232787120E+01  0.23481950042E+02  0.00000000000E+00 0. -1.
         -2    1    6    6    0  503  0.30744416490E+03  0.15806972682E+03 -0.19516156873E+03  0.39698361550E+03  0.00000000000E+00 0.  1.
<mgrwt>
<rscale>  0 0.16973213E+04</rscale>
<asrwt>0</asrwt>
<pdfrwt beam="1">  1        2 0.39638312E+00 0.16973213E+04</pdfrwt>
<pdfrwt beam="2">  1       -1 0.43005722E-01 0.16973213E+04</pdfrwt>
<totfact> 0.18179466E+01</totfact>
</mgrwt>
</event>
<event>
12    7  0.1625631E-007  0.1764860E+04  0.7818608E-02  0.8725213E-01
          2   -1    0    0  501    0  0.00000000000E+00  0.00000000000E+00  0.26773565488E+04  0.26773565488E+04  0.00000000000E+00 0. -1.
         -1   -1    0    0    0  501 -0.00000000000E+00 -0.00000000000E+00 -0.29083999570E+03  0.29083999570E+03  0.00000000000E+00 0.  1.
         24    2    1    2    0    0  0.35729167868E+03 -0.51244669952E+03  0.11811839238E+04  0.13387461940E+04  0.82382926278E+02 0.  0.
        254    2    1    2    0    0 -0.35729167868E+03  0.51244669952E+03  0.12053326293E+04  0.16294503505E+04  0.90112304049E+03 0.  0.
         23    2    4    4    0    0 -0.42546641494E+03  0.24539181891E+02  0.99549621597E+03  0.10866992965E+04  0.90987929077E+02 0.  0.
         23    2    4    4    0    0  0.68174736264E+02  0.48790751762E+03  0.20983641333E+03  0.54275105407E+03  0.88576779755E+02 0.  0.
          2    1    3    3  502    0 -0.90935724350E+00 -0.16658081587E+02  0.51100355637E+02  0.53754673834E+02  0.00000000000E+00 0. -1.
         -1    1    3    3    0  502  0.35820103592E+03 -0.49578861793E+03  0.11300835682E+04  0.12849915201E+04  0.00000000000E+00 0.  1.
         13    1    5    5    0    0 -0.41002069324E+03  0.39902826104E+01  0.93362334406E+03  0.10196987005E+04  0.00000000000E+00 0. -1.
        -13    1    5    5    0    0 -0.15445721701E+02  0.20548899281E+02  0.61872871909E+02  0.67000595959E+02  0.00000000000E+00 0.  1.
          4    1    6    6  503    0  0.48931899238E+02  0.45620852008E+03  0.21235314401E+03  0.50558322987E+03  0.00000000000E+00 0. -1.
         -4    1    6    6    0  503  0.19242837026E+02  0.31698997540E+02 -0.25167306766E+01  0.37167824192E+02  0.00000000000E+00 0.  1.
<mgrwt>
<rscale>  0 0.17648596E+04</rscale>
<asrwt>0</asrwt>
<pdfrwt beam="1">  1        2 0.41190099E+00 0.17648596E+04</pdfrwt>
<pdfrwt beam="2">  1       -1 0.44744617E-01 0.17648596E+04</pdfrwt>
<totfact> 0.14646571E+01</totfact>
</mgrwt>
</event>
<event>
12    7  0.1625631E-007  0.1447393E+04  0.7818608E-02  0.8920210E-01
         -1   -1    0    0    0  501 -0.00000000000E+00  0.00000000000E+00  0.72397758412E+03  0.72397758412E+03  0.00000000000E+00 0.  1.
          2   -1    0    0  501    0  0.00000000000E+00 -0.00000000000E+00 -0.72341570358E+03  0.72341570358E+03  0.00000000000E+00 0. -1.
         24    2    1    2    0    0  0.37302528594E+03  0.32219914918E+02 -0.22661454868E+03  0.44486674644E+03  0.79788981368E+02 0.  0.
        254    2    1    2    0    0 -0.37302528594E+03 -0.32219914918E+02  0.22717642922E+03  0.10025265413E+04  0.90181170379E+03 0.  0.
         23    2    4    4    0    0  0.28267125599E+03 -0.81481344911E+02  0.24781775227E+02  0.30880589241E+03  0.90579767454E+02 0.  0.
         23    2    4    4    0    0 -0.65569654193E+03  0.49261429993E+02  0.20239465399E+03  0.69372064886E+03  0.88994938643E+02 0.  0.
          4    1    3    3  502    0  0.20369191810E+03  0.49989802220E+02 -0.98090675540E+02  0.23154083539E+03  0.00000000000E+00 0. -1.
         -3    1    3    3    0  502  0.16933336784E+03 -0.17769887302E+02 -0.12852387314E+03  0.21332591105E+03  0.00000000000E+00 0.  1.
         13    1    5    5    0    0  0.16822942648E+03 -0.35473130751E+02  0.57338205968E+02  0.18123783491E+03  0.00000000000E+00 0.  1.
        -13    1    5    5    0    0  0.11444182951E+03 -0.46008214159E+02 -0.32556430741E+02  0.12756805750E+03  0.00000000000E+00 0. -1.
          2    1    6    6  503    0 -0.10528900158E+03 -0.13186181556E+02  0.59471669835E+02  0.12164098302E+03  0.00000000000E+00 0. -1.
         -2    1    6    6    0  503 -0.55040754035E+03  0.62447611549E+02  0.14292298416E+03  0.57207966584E+03  0.00000000000E+00 0.  1.
<mgrwt>
<rscale>  0 0.14473932E+04</rscale>
<asrwt>0</asrwt>
<pdfrwt beam="1">  1        2 0.11129472E+00 0.14473932E+04</pdfrwt>
<pdfrwt beam="2">  1       -1 0.11138117E+00 0.14473932E+04</pdfrwt>
<totfact> 0.32259172E+01</totfact>
</mgrwt>
</event>
<event>
12    7  0.1625631E-007  0.1528994E+04  0.7818608E-02  0.8865398E-01
          2   -1    0    0  501    0  0.00000000000E+00  0.00000000000E+00  0.69113233988E+03  0.69113233988E+03  0.00000000000E+00 0. -1.
         -1   -1    0    0    0  501 -0.00000000000E+00 -0.00000000000E+00 -0.84564927019E+03  0.84564927019E+03  0.00000000000E+00 0.  1.
         24    2    1    2    0    0  0.26761576150E+03  0.21629705054E+03  0.30397753648E+03  0.46772058687E+03  0.89205352004E+02 0.  0.
        254    2    1    2    0    0 -0.26761576150E+03 -0.21629705054E+03 -0.45849446678E+03  0.10690610232E+04  0.90237003794E+03 0.  0.
         23    2    4    4    0    0 -0.20466987678E+03 -0.13143718482E+03 -0.72387110577E+03  0.76925550010E+03  0.92731626962E+02 0.  0.
         23    2    4    4    0    0 -0.62945884718E+02 -0.84859865726E+02  0.26537663899E+03  0.29980552310E+03  0.91078043158E+02 0.  0.
          2    1    3    3  502    0  0.21807894951E+03  0.21444427817E+03  0.26425382021E+03  0.40419655881E+03  0.00000000000E+00 0. -1.
         -1    1    3    3    0  502  0.49536811987E+02  0.18527723779E+01  0.39723716270E+02  0.63524028065E+02  0.00000000000E+00 0.  1.
         13    1    5    5    0    0 -0.14185789887E+02 -0.28677849836E+02 -0.36120069275E+02  0.48252617653E+02  0.00000000000E+00 0. -1.
        -13    1    5    5    0    0 -0.19048408689E+03 -0.10275933498E+03 -0.68775103650E+03  0.72100288244E+03  0.00000000000E+00 0.  1.
          2    1    6    6  503    0 -0.15985979457E+02  0.18924944265E+02  0.60766595453E+02  0.65622284154E+02  0.00000000000E+00 0. -1.
         -2    1    6    6    0  503 -0.46959905261E+02 -0.10378480999E+03  0.20461004354E+03  0.23418323895E+03  0.00000000000E+00 0.  1.
<mgrwt>
<rscale>  0 0.15289939E+04</rscale>
<asrwt>0</asrwt>
<pdfrwt beam="1">  1        2 0.10632805E+00 0.15289939E+04</pdfrwt>
<pdfrwt beam="2">  1       -1 0.13009989E+00 0.15289939E+04</pdfrwt>
<totfact> 0.23213978E+01</totfact>
</mgrwt>
</event>
<event>
12    7  0.1625631E-007  0.1620414E+04  0.7818608E-02  0.8808104E-01
         -1   -1    0    0    0  501 -0.00000000000E+00  0.00000000000E+00  0.31105170892E+03  0.31105170892E+03  0.00000000000E+00 0.  1.
          2   -1    0    0  501    0  0.00000000000E+00 -0.00000000000E+00 -0.21103733987E+04  0.21103733987E+04  0.00000000000E+00 0. -1.
         24    2    1    2    0    0  0.47888812157E+02  0.11097444534E+03  0.18245501716E+03  0.23274703743E+03  0.79200279651E+02 0.  0.
        254    2    1    2    0    0 -0.47888812157E+02 -0.11097444534E+03 -0.19817767069E+04  0.21886780702E+04  0.92101254768E+03 0.  0.
         23    2    4    4    0    0 -0.44480822701E+03 -0.14783933105E+03 -0.13823388239E+04  0.14630945042E+04  0.10036970425E+03 0.  0.
         23    2    4    4    0    0  0.39691941485E+03  0.36864885714E+02 -0.59943788302E+03  0.72558356599E+03  0.90783775775E+02 0.  0.
          2    1    3    3  502    0  0.42610656764E+02  0.34301188447E+02  0.30916614868E+02  0.62833722424E+02  0.00000000000E+00 0. -1.
         -1    1    3    3    0  502  0.52781553930E+01  0.76673256891E+02  0.15153840229E+03  0.16991331500E+03  0.00000000000E+00 0.  1.
         13    1    5    5    0    0 -0.20487236278E+03 -0.43681197864E+02 -0.75220821723E+03  0.78083156579E+03  0.00000000000E+00 0.  1.
        -13    1    5    5    0    0 -0.23993586424E+03 -0.10415813319E+03 -0.63013060670E+03  0.68226293843E+03  0.00000000000E+00 0. -1.
          1    1    6    6  503    0  0.31635538536E+03  0.64131272573E+02 -0.49412392316E+03  0.59021352188E+03  0.00000000000E+00 0. -1.
         -1    1    6    6    0  503  0.80564029494E+02 -0.27266386860E+02 -0.10531395986E+03  0.13537004411E+03  0.00000000000E+00 0.  1.
<mgrwt>
<rscale>  0 0.16204138E+04</rscale>
<asrwt>0</asrwt>
<pdfrwt beam="1">  1        2 0.32467284E+00 0.16204138E+04</pdfrwt>
<pdfrwt beam="2">  1       -1 0.47854107E-01 0.16204138E+04</pdfrwt>
<totfact> 0.27594378E+01</totfact>
</mgrwt>
</event>
<event>
12    7  0.1625631E-007  0.1678583E+04  0.7818608E-02  0.8773674E-01
          2   -1    0    0  501    0  0.00000000000E+00  0.00000000000E+00  0.58346983302E+03  0.58346983302E+03  0.00000000000E+00 0. -1.
         -1   -1    0    0    0  501 -0.00000000000E+00 -0.00000000000E+00 -0.12072780566E+04  0.12072780566E+04  0.00000000000E+00 0.  1.
         24    2    1    2    0    0 -0.42521888558E+02 -0.14957362077E+03  0.37076533512E+03  0.41000399125E+03  0.80348989295E+02 0.  0.
        254    2    1    2    0    0  0.42521888558E+02  0.14957362077E+03 -0.99457355870E+03  0.13807438984E+04  0.94503797288E+03 0.  0.
         23    2    4    4    0    0  0.59578082807E+02 -0.11365575244E+03 -0.10782941714E+04  0.10895151630E+04  0.88644189457E+02 0.  0.
         23    2    4    4    0    0 -0.17056194249E+02  0.26322937321E+03  0.83720612697E+02  0.29122873537E+03  0.90688580488E+02 0.  0.
          2    1    3    3  502    0 -0.43472002973E+02 -0.15697828872E+03  0.36725101648E+03  0.40175279374E+03  0.00000000000E+00 0. -1.
         -1    1    3    3    0  502  0.95011441505E+00  0.74046679539E+01  0.35143186420E+01  0.82511975147E+01  0.00000000000E+00 0.  1.
         13    1    5    5    0    0 -0.97786782203E+01 -0.26783312464E+02 -0.77723254056E+02  0.82788118684E+02  0.00000000000E+00 0.  1.
        -13    1    5    5    0    0  0.69356761027E+02 -0.86872439978E+02 -0.10005709173E+04  0.10067270443E+04  0.00000000000E+00 0. -1.
          4    1    6    6  503    0  0.10580959040E+02  0.19776556711E+03  0.26133717207E+02  0.19976523071E+03  0.00000000000E+00 0. -1.
         -4    1    6    6    0  503 -0.27637153289E+02  0.65463806105E+02  0.57586895490E+02  0.91463504655E+02  0.00000000000E+00 0.  1.
<mgrwt>
<rscale>  0 0.16785831E+04</rscale>
<asrwt>0</asrwt>
<pdfrwt beam="1">  1        2 0.89764590E-01 0.16785831E+04</pdfrwt>
<pdfrwt beam="2">  1       -1 0.18573508E+00 0.16785831E+04</pdfrwt>
<totfact> 0.10578034E+01</totfact>
</mgrwt>
</event>
<event>
12    7  0.1625631E-007  0.2509661E+04  0.7818608E-02  0.8399552E-01
         -1   -1    0    0    0  501 -0.00000000000E+00  0.00000000000E+00  0.38275908909E+03  0.38275908909E+03  0.00000000000E+00 0.  1.
          2   -1    0    0  501    0  0.00000000000E+00 -0.00000000000E+00 -0.41138152818E+04  0.41138152818E+04  0.00000000000E+00 0. -1.
         24    2    1    2    0    0 -0.11378557856E+03 -0.65358611766E+03 -0.30710955931E+04  0.31429780711E+04  0.81000262313E+02 0.  0.
        254    2    1    2    0    0  0.11378557856E+03  0.65358611766E+03 -0.65996059958E+03  0.13535962997E+04  0.97803526450E+03 0.  0.
         23    2    4    4    0    0  0.25881943175E+03 -0.62041031120E+02 -0.53966287212E+03  0.60817304380E+03  0.88328069475E+02 0.  0.
         23    2    4    4    0    0 -0.14503385319E+03  0.71562714878E+03 -0.12029772746E+03  0.74542325595E+03  0.89594936460E+02 0.  0.
          4    1    3    3  502    0 -0.12429290028E+03 -0.55961104056E+03 -0.25906065545E+04  0.26532726136E+04  0.00000000000E+00 0. -1.
         -3    1    3    3    0  502  0.10507321718E+02 -0.93975077099E+02 -0.48048903856E+03  0.48970545750E+03  0.00000000000E+00 0.  1.
         13    1    5    5    0    0  0.12082434566E+03  0.11702130497E+02 -0.27716564047E+03  0.30258264097E+03  0.00000000000E+00 0. -1.
        -13    1    5    5    0    0  0.13799508610E+03 -0.73743161617E+02 -0.26249723166E+03  0.30559040283E+03  0.00000000000E+00 0.  1.
          2    1    6    6  503    0 -0.34481358470E+02  0.25081334693E+03 -0.18474129880E+01  0.25317920928E+03  0.00000000000E+00 0. -1.
         -2    1    6    6    0  503 -0.11055249472E+03  0.46481380185E+03 -0.11845031447E+03  0.49224404667E+03  0.00000000000E+00 0.  1.
<mgrwt>
<rscale>  0 0.25096615E+04</rscale>
<asrwt>0</asrwt>
<pdfrwt beam="1">  1        2 0.63289463E+00 0.25096615E+04</pdfrwt>
<pdfrwt beam="2">  1       -1 0.58886016E-01 0.25096615E+04</pdfrwt>
<totfact> 0.81942426E-01</totfact>
</mgrwt>
</event>
<event>
12    7  0.1625631E-007  0.2678434E+04  0.7818608E-02  0.8342036E-01
          2   -1    0    0  501    0  0.00000000000E+00  0.00000000000E+00  0.40730006610E+03  0.40730006610E+03  0.00000000000E+00 0. -1.
         -1   -1    0    0    0  501 -0.00000000000E+00 -0.00000000000E+00 -0.44033930602E+04  0.44033930602E+04  0.00000000000E+00 0.  1.
         24    2    1    2    0    0 -0.10987540654E+04  0.45234752970E+03 -0.20707385714E+04  0.23887785044E+04  0.80160639739E+02 0.  0.
        254    2    1    2    0    0  0.10987540654E+04 -0.45234752970E+03 -0.19253544226E+04  0.24219146218E+04  0.86417706461E+03 0.  0.
         23    2    4    4    0    0  0.14375435365E+03 -0.11486980032E+03  0.39702743806E+02  0.20932815639E+03  0.91550991113E+02 0.  0.
         23    2    4    4    0    0  0.95499971171E+03 -0.33747772938E+03 -0.19650571664E+04  0.22125864655E+04  0.90407591285E+02 0.  0.
          2    1    3    3  502    0 -0.74224712305E+03  0.30903331323E+03 -0.13245327514E+04  0.15494577729E+04  0.00000000000E+00 0. -1.
         -1    1    3    3    0  502 -0.35650694231E+03  0.14331421647E+03 -0.74620582002E+03  0.83932073154E+03  0.00000000000E+00 0.  1.
         13    1    5    5    0    0  0.82927819757E+02 -0.12801603193E+02  0.33493426470E+02  0.90347739046E+02  0.00000000000E+00 0. -1.
        -13    1    5    5    0    0  0.60826533893E+02 -0.10206819713E+03  0.62093173362E+01  0.11898041735E+03  0.00000000000E+00 0.  1.
          4    1    6    6  503    0  0.58999894527E+03 -0.16346732875E+03 -0.11562133941E+04  0.13083003232E+04  0.00000000000E+00 0.  1.
         -4    1    6    6    0  503  0.36500076644E+03 -0.17401040063E+03 -0.80884377232E+03  0.90428614224E+03  0.00000000000E+00 0. -1.
<mgrwt>
<rscale>  0 0.26784341E+04</rscale>
<asrwt>0</asrwt>
<pdfrwt beam="1">  1        2 0.62661550E-01 0.26784341E+04</pdfrwt>
<pdfrwt beam="2">  1       -1 0.67744507E+00 0.26784341E+04</pdfrwt>
<totfact> 0.18392021E-02</totfact>
</mgrwt>
</event>
<event>
12    7  0.1625631E-007  0.1337613E+04  0.7818608E-02  0.9000258E-01
          2   -1    0    0  501    0  0.00000000000E+00  0.00000000000E+00  0.66026753598E+03  0.66026753598E+03  0.00000000000E+00 0. -1.
         -1   -1    0    0    0  501 -0.00000000000E+00 -0.00000000000E+00 -0.67745586244E+03  0.67745586244E+03  0.00000000000E+00 0.  1.
         24    2    1    2    0    0  0.34154044718E+03 -0.16854372701E+03  0.43084296418E+02  0.39167394080E+03  0.80593761108E+02 0.  0.
        254    2    1    2    0    0 -0.34154044718E+03  0.16854372701E+03 -0.60272622881E+02  0.94604945763E+03  0.86389809714E+03 0.  0.
         23    2    4    4    0    0  0.17672848794E+03 -0.89179756804E+02  0.20611119653E+03  0.30241296978E+03  0.98923159475E+02 0.  0.
         23    2    4    4    0    0 -0.51826893512E+03  0.25772348381E+03 -0.26638381941E+03  0.64363648785E+03  0.91013768346E+02 0.  0.
          4    1    3    3  502    0  0.63061165378E+02 -0.72506753239E+01  0.28350082084E+02  0.69519853464E+02  0.00000000000E+00 0. -1.
         -3    1    3    3    0  502  0.27847928180E+03 -0.16129305169E+03  0.14734214334E+02  0.32215408733E+03  0.00000000000E+00 0.  1.
         13    1    5    5    0    0  0.14218049585E+03 -0.10627271574E+03  0.14077476541E+03  0.22655400700E+03  0.00000000000E+00 0. -1.
        -13    1    5    5    0    0  0.34547992095E+02  0.17092958933E+02  0.65336431117E+02  0.75858962779E+02  0.00000000000E+00 0.  1.
          3    1    6    6  503    0 -0.48709072259E+03  0.22087639911E+03 -0.26085233871E+03  0.59505268534E+03  0.00000000000E+00 0. -1.
         -3    1    6    6    0  503 -0.31178212528E+02  0.36847084707E+02 -0.55314807034E+01  0.48583802513E+02  0.00000000000E+00 0.  1.
<mgrwt>
<rscale>  0 0.13376130E+04</rscale>
<asrwt>0</asrwt>
<pdfrwt beam="1">  1        2 0.10157962E+00 0.13376130E+04</pdfrwt>
<pdfrwt beam="2">  1       -1 0.10422398E+00 0.13376130E+04</pdfrwt>
<totfact> 0.42680515E+01</totfact>
</mgrwt>
</event>
<event>
12    7  0.1625631E-007  0.2787462E+04  0.7818608E-02  0.8307171E-01
         -1   -1    0    0    0  501 -0.00000000000E+00  0.00000000000E+00  0.14763298265E+04  0.14763298265E+04  0.00000000000E+00 0.  1.
          2   -1    0    0  501    0  0.00000000000E+00 -0.00000000000E+00 -0.13157537794E+04  0.13157537794E+04  0.00000000000E+00 0. -1.
         24    2    1    2    0    0  0.79497658868E+03 -0.19156843681E+03 -0.86817514432E+03  0.11953061012E+04  0.79638884117E+02 0.  0.
        254    2    1    2    0    0 -0.79497658868E+03  0.19156843681E+03  0.10287511914E+04  0.15967775046E+04  0.90701882171E+03 0.  0.
         23    2    4    4    0    0 -0.30722682877E+03 -0.33036288840E+03  0.60705772526E+03  0.76211531974E+03  0.93662780392E+02 0.  0.
         23    2    4    4    0    0 -0.48774975991E+03  0.52193132522E+03  0.42169346614E+03  0.83466218488E+03  0.92322515966E+02 0.  0.
          4    1    3    3  502    0  0.46742706628E+03 -0.15244472853E+03 -0.51215262994E+03  0.70994913473E+03  0.00000000000E+00 0. -1.
         -3    1    3    3    0  502  0.32754952240E+03 -0.39123708280E+02 -0.35602251438E+03  0.48535696649E+03  0.00000000000E+00 0.  1.
         13    1    5    5    0    0 -0.14791803801E+03 -0.99438907193E+02  0.27083993285E+03  0.32422540225E+03  0.00000000000E+00 0.  1.
        -13    1    5    5    0    0 -0.15930879076E+03 -0.23092398121E+03  0.33621779241E+03  0.43788991749E+03  0.00000000000E+00 0. -1.
          1    1    6    6  503    0 -0.46510953743E+03  0.51944297601E+03  0.41230355275E+03  0.81002599140E+03  0.00000000000E+00 0. -1.
         -1    1    6    6    0  503 -0.22640222482E+02  0.24883492035E+01  0.93899133903E+01  0.24636193482E+02  0.00000000000E+00 0.  1.
<mgrwt>
<rscale>  0 0.27874623E+04</rscale>
<asrwt>0</asrwt>
<pdfrwt beam="1">  1        2 0.20242366E+00 0.27874623E+04</pdfrwt>
<pdfrwt beam="2">  1       -1 0.22712767E+00 0.27874623E+04</pdfrwt>
<totfact> 0.15840762E+00</totfact>
</mgrwt>
</event>
<event>
12    7  0.1625631E-007  0.3113836E+04  0.7818608E-02  0.8211951E-01
          2   -1    0    0  501    0  0.00000000000E+00  0.00000000000E+00  0.18787005163E+04  0.18787005163E+04  0.00000000000E+00 0. -1.
         -1   -1    0    0    0  501 -0.00000000000E+00 -0.00000000000E+00 -0.12902501713E+04  0.12902501713E+04  0.00000000000E+00 0.  1.
         24    2    1    2    0    0  0.71092202278E+03  0.10488785371E+04 -0.39215875337E+03  0.13288297294E+04  0.80272374086E+02 0.  0.
        254    2    1    2    0    0 -0.71092202278E+03 -0.10488785371E+04  0.98060909835E+03  0.18401209582E+04  0.90492796900E+03 0.  0.
         23    2    4    4    0    0 -0.54120960317E+03 -0.63289596276E+02  0.36317774349E+03  0.66122297183E+03  0.91675174125E+02 0.  0.
         23    2    4    4    0    0 -0.16971241961E+03 -0.98558894078E+03  0.61743135486E+03  0.11788979864E+04  0.91603049863E+02 0.  0.
          4    1    3    3  502    0  0.52315599229E+03  0.79962175746E+03 -0.26297191903E+03  0.99108091369E+03  0.00000000000E+00 0. -1.
         -3    1    3    3    0  502  0.18776603049E+03  0.24925677959E+03 -0.12918683434E+03  0.33774881576E+03  0.00000000000E+00 0.  1.
         13    1    5    5    0    0 -0.20057042231E+03 -0.57511451221E+01  0.18311674870E+03  0.27164924743E+03  0.00000000000E+00 0. -1.
        -13    1    5    5    0    0 -0.34063918086E+03 -0.57538451154E+02  0.18006099479E+03  0.38957372440E+03  0.00000000000E+00 0.  1.
          1    1    6    6  503    0 -0.11460895993E+03 -0.55242229201E+03  0.29945258032E+03  0.63873112518E+03  0.00000000000E+00 0. -1.
         -1    1    6    6    0  503 -0.55103459673E+02 -0.43316664877E+03  0.31797877454E+03  0.54016686119E+03  0.00000000000E+00 0.  1.
<mgrwt>
<rscale>  0 0.31138360E+04</rscale>
<asrwt>0</asrwt>
<pdfrwt beam="1">  1        2 0.28903085E+00 0.31138360E+04</pdfrwt>
<pdfrwt beam="2">  1       -1 0.19850003E+00 0.31138360E+04</pdfrwt>
<totfact> 0.11605627E+00</totfact>
</mgrwt>
</event>
<event>
12    7  0.1625631E-007  0.2186664E+04  0.7818608E-02  0.8523999E-01
          2   -1    0    0  501    0  0.00000000000E+00  0.00000000000E+00  0.22809581740E+04  0.22809581740E+04  0.00000000000E+00 0. -1.
         -1   -1    0    0    0  501 -0.00000000000E+00 -0.00000000000E+00 -0.52406693668E+03  0.52406693668E+03  0.00000000000E+00 0.  1.
         24    2    1    2    0    0  0.44020024536E+03 -0.68903098747E+03  0.23799655596E+03  0.85528817195E+03  0.79596097428E+02 0.  0.
        254    2    1    2    0    0 -0.44020024536E+03  0.68903098747E+03  0.15188946814E+04  0.19497369388E+04  0.90878661932E+03 0.  0.
         23    2    4    4    0    0 -0.34950022493E+02 -0.10022925365E+03 -0.47250265465E+02  0.14745434790E+03  0.90789810925E+02 0.  0.
         23    2    4    4    0    0 -0.40525022286E+03  0.78926024113E+03  0.15661449469E+04  0.18022825909E+04  0.90846416288E+02 0.  0.
          4    1    3    3  502    0  0.14730724973E+03 -0.22976272178E+03  0.11891308312E+03  0.29770901142E+03  0.00000000000E+00 0. -1.
         -3    1    3    3    0  502  0.29289299562E+03 -0.45926826569E+03  0.11908347284E+03  0.55757916053E+03  0.00000000000E+00 0.  1.
         13    1    5    5    0    0 -0.57942889955E+02 -0.88458237891E+02 -0.16063252742E+02  0.10695918117E+03  0.00000000000E+00 0. -1.
        -13    1    5    5    0    0  0.22992867462E+02 -0.11771015763E+02 -0.31187012724E+02  0.40495166734E+02  0.00000000000E+00 0.  1.
          4    1    6    6  503    0 -0.35713759107E+03  0.74617780096E+03  0.14568060974E+04  0.16752947726E+04  0.00000000000E+00 0. -1.
         -4    1    6    6    0  503 -0.48112631791E+02  0.43082440169E+02  0.10933884946E+03  0.12698781827E+03  0.00000000000E+00 0.  1.
<mgrwt>
<rscale>  0 0.21866639E+04</rscale>
<asrwt>0</asrwt>
<pdfrwt beam="1">  1        2 0.35091664E+00 0.21866639E+04</pdfrwt>
<pdfrwt beam="2">  1       -1 0.80625684E-01 0.21866639E+04</pdfrwt>
<totfact> 0.74250467E+00</totfact>
</mgrwt>
</event>
<event>
12    7  0.1625631E-007  0.1906416E+04  0.7818608E-02  0.8651669E-01
         -1   -1    0    0    0  501 -0.00000000000E+00  0.00000000000E+00  0.49970962200E+03  0.49970962200E+03  0.00000000000E+00 0.  1.
          2   -1    0    0  501    0  0.00000000000E+00 -0.00000000000E+00 -0.18182666666E+04  0.18182666666E+04  0.00000000000E+00 0. -1.
         24    2    1    2    0    0  0.54759361918E+03 -0.74836218886E+02  0.78475612531E+02  0.56394548771E+03  0.80105305194E+02 0.  0.
        254    2    1    2    0    0 -0.54759361918E+03  0.74836218886E+02 -0.13970326571E+04  0.17540308009E+04  0.90524282596E+03 0.  0.
         23    2    4    4    0    0 -0.37528844326E+03  0.27334540449E+03 -0.18139931442E+03  0.50679932358E+03  0.91546257792E+02 0.  0.
         23    2    4    4    0    0 -0.17230517592E+03 -0.19850918560E+03 -0.12156333427E+04  0.12472314773E+04  0.93418219106E+02 0.  0.
          4    1    3    3  502    0  0.11010123054E+03 -0.45983227502E+02  0.52774529722E+01  0.11943445771E+03  0.00000000000E+00 0. -1.
         -3    1    3    3    0  502  0.43749238864E+03 -0.28852991384E+02  0.73198159558E+02  0.44451103000E+03  0.00000000000E+00 0.  1.
         13    1    5    5    0    0 -0.11768959669E+03  0.43364529935E+02 -0.25856462728E+02  0.12806201736E+03  0.00000000000E+00 0. -1.
        -13    1    5    5    0    0 -0.25759884657E+03  0.22998087455E+03 -0.15554285170E+03  0.37873730622E+03  0.00000000000E+00 0.  1.
          4    1    6    6  503    0 -0.14053317895E+03 -0.14175922592E+03 -0.10587187791E+04  0.10773721296E+04  0.00000000000E+00 0. -1.
         -4    1    6    6    0  503 -0.31771996971E+02 -0.56749959683E+02 -0.15691456363E+03  0.16985934768E+03  0.00000000000E+00 0.  1.
<mgrwt>
<rscale>  0 0.19064159E+04</rscale>
<asrwt>0</asrwt>
<pdfrwt beam="1">  1        2 0.27973334E+00 0.19064159E+04</pdfrwt>
<pdfrwt beam="2">  1       -1 0.76878402E-01 0.19064159E+04</pdfrwt>
<totfact> 0.15252076E+01</totfact>
</mgrwt>
</event>
<event>
12    7  0.1625631E-007  0.2871689E+04  0.7818608E-02  0.8281351E-01
         -1   -1    0    0    0  501 -0.00000000000E+00  0.00000000000E+00  0.55360750939E+03  0.55360750939E+03  0.00000000000E+00 0.  1.
          2   -1    0    0  501    0  0.00000000000E+00 -0.00000000000E+00 -0.37240273401E+04  0.37240273401E+04  0.00000000000E+00 0. -1.
         24    2    1    2    0    0 -0.66468835116E+03  0.10962693642E+04 -0.16162300881E+04  0.20645699038E+04  0.81437504284E+02 0.  0.
        254    2    1    2    0    0  0.66468835116E+03 -0.10962693642E+04 -0.15541897426E+04  0.22130649457E+04  0.91571478900E+03 0.  0.
         23    2    4    4    0    0  0.49861034861E+03 -0.86162017970E+03 -0.16204468702E+04  0.19039775481E+04  0.90999069539E+02 0.  0.
         23    2    4    4    0    0  0.16607800254E+03 -0.23464918446E+03  0.66257127631E+02  0.30908739756E+03  0.92211006230E+02 0.  0.
          4    1    3    3  502    0 -0.58148007953E+03  0.93327318756E+03 -0.14243027613E+04  0.17993766369E+04  0.00000000000E+00 0. -1.
         -3    1    3    3    0  502 -0.83208271630E+02  0.16299617660E+03 -0.19192732676E+03  0.26519326690E+03  0.00000000000E+00 0.  1.
         13    1    5    5    0    0  0.57644996464E+02 -0.15175494455E+03 -0.22521915637E+03  0.27762596638E+03  0.00000000000E+00 0. -1.
        -13    1    5    5    0    0  0.44096535215E+03 -0.70986523515E+03 -0.13952277139E+04  0.16263515817E+04  0.00000000000E+00 0.  1.
          2    1    6    6  503    0  0.21409720493E+02 -0.36517894163E+02  0.46628316250E+02  0.62977238761E+02  0.00000000000E+00 0. -1.
         -2    1    6    6    0  503  0.14466828205E+03 -0.19813129030E+03  0.19628811381E+02  0.24611015880E+03  0.00000000000E+00 0.  1.
<mgrwt>
<rscale>  0 0.28716891E+04</rscale>
<asrwt>0</asrwt>
<pdfrwt beam="1">  1        2 0.57292729E+00 0.28716891E+04</pdfrwt>
<pdfrwt beam="2">  1       -1 0.85170385E-01 0.28716891E+04</pdfrwt>
<totfact> 0.75055621E-01</totfact>
</mgrwt>
</event>
<event>
12    7  0.1625631E-007  0.2091029E+04  0.7818608E-02  0.8565206E-01
         -1   -1    0    0    0  501 -0.00000000000E+00  0.00000000000E+00  0.39410776313E+03  0.39410776313E+03  0.00000000000E+00 0.  1.
          2   -1    0    0  501    0  0.00000000000E+00 -0.00000000000E+00 -0.27736075208E+04  0.27736075208E+04  0.00000000000E+00 0. -1.
         24    2    1    2    0    0 -0.23875000133E+03 -0.40185342780E+03  0.92768043318E+02  0.48316659747E+03  0.79726472908E+02 0.  0.
        254    2    1    2    0    0  0.23875000133E+03  0.40185342780E+03 -0.24722678010E+04  0.26845486865E+04  0.93605866784E+03 0.  0.
         23    2    4    4    0    0 -0.15617772023E+03  0.32131386555E+03 -0.30635388518E+03  0.47954924794E+03  0.92090703880E+02 0.  0.
         23    2    4    4    0    0  0.39492772156E+03  0.80539562250E+02 -0.21659139158E+04  0.22049994386E+04  0.91569137104E+02 0.  0.
          2    1    3    3  502    0 -0.65227140780E+02 -0.12213143805E+03 -0.86405286960E+01  0.13872752715E+03  0.00000000000E+00 0. -1.
         -1    1    3    3    0  502 -0.17352286055E+03 -0.27972198976E+03  0.10140857201E+03  0.34443907032E+03  0.00000000000E+00 0.  1.
         13    1    5    5    0    0 -0.11895841620E+02  0.12352484699E+03 -0.10536454836E+03  0.16279308008E+03  0.00000000000E+00 0. -1.
        -13    1    5    5    0    0 -0.14428187861E+03  0.19778901856E+03 -0.20098933682E+03  0.31675616786E+03  0.00000000000E+00 0.  1.
          1    1    6    6  503    0  0.48156768834E+02 -0.68774766997E+01 -0.42204101463E+03  0.42483525289E+03  0.00000000000E+00 0. -1.
         -1    1    6    6    0  503  0.34677095273E+03  0.87417038950E+02 -0.17438729012E+04  0.17801641857E+04  0.00000000000E+00 0.  1.
<mgrwt>
<rscale>  0 0.20910287E+04</rscale>
<asrwt>0</asrwt>
<pdfrwt beam="1">  1        2 0.42670886E+00 0.20910287E+04</pdfrwt>
<pdfrwt beam="2">  1       -1 0.60631963E-01 0.20910287E+04</pdfrwt>
<totfact> 0.69526875E+00</totfact>
</mgrwt>
</event>
<event>
12    7  0.1625631E-007  0.1297035E+04  0.7818608E-02  0.9031920E-01
         -1   -1    0    0    0  501 -0.00000000000E+00  0.00000000000E+00  0.13903595058E+03  0.13903595058E+03  0.00000000000E+00 0.  1.
          2   -1    0    0  501    0  0.00000000000E+00 -0.00000000000E+00 -0.30249372196E+04  0.30249372196E+04  0.00000000000E+00 0. -1.
         24    2    1    2    0    0  0.11830104238E+03  0.29369354049E+03 -0.83964262241E+03  0.90102459616E+03  0.81206878875E+02 0.  0.
        254    2    1    2    0    0 -0.11830104238E+03 -0.29369354049E+03 -0.20462586466E+04  0.22629485740E+04  0.91296810866E+03 0.  0.
         23    2    4    4    0    0 -0.25197361037E+03 -0.14597421333E+03 -0.12591599050E+03  0.33012205639E+03  0.91250009154E+02 0.  0.
         23    2    4    4    0    0  0.13367256799E+03 -0.14771932716E+03 -0.19203426561E+04  0.19328265176E+04  0.91722817738E+02 0.  0.
          2    1    3    3  502    0  0.12737797175E+03  0.28841134832E+03 -0.82321834652E+03  0.88152974968E+03  0.00000000000E+00 0. -1.
         -1    1    3    3    0  502 -0.90769293717E+01  0.52821921659E+01 -0.16424275886E+02  0.19494846480E+02  0.00000000000E+00 0.  1.
         13    1    5    5    0    0 -0.49888690100E+02 -0.73108419266E+02 -0.53515630309E+02  0.10342942064E+03  0.00000000000E+00 0. -1.
        -13    1    5    5    0    0 -0.20208492027E+03 -0.72865794064E+02 -0.72400360193E+02  0.22669263574E+03  0.00000000000E+00 0.  1.
          4    1    6    6  503    0  0.11084157022E+03 -0.15661950183E+03 -0.15810623937E+04  0.15926624925E+04  0.00000000000E+00 0.  1.
         -4    1    6    6    0  503  0.22830997765E+02  0.89001746748E+01 -0.33928026238E+03  0.34016402516E+03  0.00000000000E+00 0. -1.
<mgrwt>
<rscale>  0 0.12970351E+04</rscale>
<asrwt>0</asrwt>
<pdfrwt beam="1">  1        2 0.46537491E+00 0.12970351E+04</pdfrwt>
<pdfrwt beam="2">  1       -1 0.21390149E-01 0.12970351E+04</pdfrwt>
<totfact> 0.34665503E+01</totfact>
</mgrwt>
</event>
<event>
12    7  0.1625631E-007  0.1656923E+04  0.7818608E-02  0.8786321E-01
         -1   -1    0    0    0  501 -0.00000000000E+00  0.00000000000E+00  0.75948157871E+03  0.75948157871E+03  0.00000000000E+00 0.  1.
          2   -1    0    0  501    0  0.00000000000E+00 -0.00000000000E+00 -0.90370668924E+03  0.90370668924E+03  0.00000000000E+00 0. -1.
         24    2    1    2    0    0 -0.10045937608E+03  0.54845283684E+03 -0.20874716732E+03  0.60165891955E+03  0.86749496401E+02 0.  0.
        254    2    1    2    0    0  0.10045937608E+03 -0.54845283684E+03  0.64522056790E+02  0.10615293484E+04  0.90099326369E+03 0.  0.
         23    2    4    4    0    0  0.44991422385E+03 -0.35930100029E+03 -0.14795356555E+03  0.60171413361E+03  0.93003351518E+02 0.  0.
         23    2    4    4    0    0 -0.34945484777E+03 -0.18915183655E+03  0.21247562234E+03  0.45981521479E+03  0.91580749952E+02 0.  0.
          2    1    3    3  502    0 -0.70176260939E+02  0.33081939079E+03 -0.17012071422E+03  0.37855941981E+03  0.00000000000E+00 0. -1.
         -1    1    3    3    0  502 -0.30283115138E+02  0.21763344606E+03 -0.38626453099E+02  0.22309949974E+03  0.00000000000E+00 0.  1.
         13    1    5    5    0    0  0.73010208587E+02 -0.10350323877E+03 -0.47375236878E+02  0.13523248154E+03  0.00000000000E+00 0.  1.
        -13    1    5    5    0    0  0.37690401526E+03 -0.25579776152E+03 -0.10057832867E+03  0.46648165207E+03  0.00000000000E+00 0. -1.
          4    1    6    6  503    0 -0.31886666791E+03 -0.19178285400E+03  0.17450297342E+03  0.41098406627E+03  0.00000000000E+00 0. -1.
         -4    1    6    6    0  503 -0.30588179858E+02  0.26310174477E+01  0.37972648922E+02  0.48831148523E+02  0.00000000000E+00 0.  1.
<mgrwt>
<rscale>  0 0.16569232E+04</rscale>
<asrwt>0</asrwt>
<pdfrwt beam="1">  1        2 0.13903180E+00 0.16569232E+04</pdfrwt>
<pdfrwt beam="2">  1       -1 0.11684332E+00 0.16569232E+04</pdfrwt>
<totfact> 0.20988334E+01</totfact>
</mgrwt>
</event>
<event>
12    7  0.1625631E-007  0.1155346E+04  0.7818608E-02  0.9152866E-01
         -1   -1    0    0    0  501 -0.00000000000E+00  0.00000000000E+00  0.49142467656E+03  0.49142467656E+03  0.00000000000E+00 0.  1.
          2   -1    0    0  501    0  0.00000000000E+00 -0.00000000000E+00 -0.67905835058E+03  0.67905835058E+03  0.00000000000E+00 0. -1.
         24    2    1    2    0    0  0.38990581117E+02 -0.11274318096E+03 -0.20611195267E+03  0.25146028602E+03  0.80739384075E+02 0.  0.
        254    2    1    2    0    0 -0.38990581117E+02  0.11274318096E+03  0.18478278653E+02  0.91902274113E+03  0.91105985625E+03 0.  0.
         23    2    4    4    0    0  0.25459875369E+03 -0.10086802764E+03 -0.30906006706E+03  0.42294112327E+03  0.91466848178E+02 0.  0.
         23    2    4    4    0    0 -0.29358933481E+03  0.21361120860E+03  0.32753834571E+03  0.49608161786E+03  0.83613143206E+02 0.  0.
          2    1    3    3  502    0  0.45325876766E+02 -0.12349532318E+03 -0.18708652231E+03  0.22870701079E+03  0.00000000000E+00 0. -1.
         -1    1    3    3    0  502 -0.63352956491E+01  0.10752142222E+02 -0.19025430358E+02  0.22753275229E+02  0.00000000000E+00 0.  1.
         13    1    5    5    0    0  0.15013044120E+02 -0.14438198176E+02  0.19817058687E+01  0.20923198094E+02  0.00000000000E+00 0.  1.
        -13    1    5    5    0    0  0.23958570957E+03 -0.86429829469E+02 -0.31104177293E+03  0.40201792517E+03  0.00000000000E+00 0. -1.
          3    1    6    6  503    0 -0.10516364962E+03  0.45183316325E+02  0.14291079521E+03  0.18309675219E+03  0.00000000000E+00 0. -1.
         -3    1    6    6    0  503 -0.18842568519E+03  0.16842789228E+03  0.18462755050E+03  0.31298486567E+03  0.00000000000E+00 0.  1.
<mgrwt>
<rscale>  0 0.11553459E+04</rscale>
<asrwt>0</asrwt>
<pdfrwt beam="1">  1        2 0.10447051E+00 0.11553459E+04</pdfrwt>
<pdfrwt beam="2">  1       -1 0.75603797E-01 0.11553459E+04</pdfrwt>
<totfact> 0.84644936E+01</totfact>
</mgrwt>
</event>
<event>
12    7  0.1625631E-007  0.1281275E+04  0.7818608E-02  0.9044548E-01
          2   -1    0    0  501    0  0.00000000000E+00  0.00000000000E+00  0.21115309907E+04  0.21115309907E+04  0.00000000000E+00 0. -1.
         -1   -1    0    0    0  501 -0.00000000000E+00 -0.00000000000E+00 -0.19436899964E+03  0.19436899964E+03  0.00000000000E+00 0.  1.
         24    2    1    2    0    0 -0.24843864517E+03  0.17235615702E+03  0.57313816629E+03  0.65443666412E+03  0.91496362866E+02 0.  0.
        254    2    1    2    0    0  0.24843864517E+03 -0.17235615702E+03  0.13440238247E+04  0.16514633262E+04  0.91077037226E+03 0.  0.
         23    2    4    4    0    0 -0.74937348104E+01 -0.57856902966E+02  0.13523819457E+04  0.13566245253E+04  0.89942194301E+02 0.  0.
         23    2    4    4    0    0  0.25593237998E+03 -0.11449925405E+03 -0.83581209371E+01  0.29483880090E+03  0.90821792722E+02 0.  0.
          4    1    3    3  502    0 -0.94250888411E+02  0.44647899593E+02  0.28574531433E+03  0.30418259248E+03  0.00000000000E+00 0. -1.
         -3    1    3    3    0  502 -0.15418775676E+03  0.12770825742E+03  0.28739285195E+03  0.35025407164E+03  0.00000000000E+00 0.  1.
         13    1    5    5    0    0  0.14743864841E+00 -0.68505734883E+02  0.13187613215E+04  0.13205394657E+04  0.00000000000E+00 0.  1.
        -13    1    5    5    0    0 -0.76411734588E+01  0.10648831917E+02  0.33620624160E+02  0.36085059540E+02  0.00000000000E+00 0. -1.
          4    1    6    6  503    0  0.78743266359E+02 -0.55081110385E+02 -0.42130052124E+02  0.10492555461E+03  0.00000000000E+00 0. -1.
         -4    1    6    6    0  503  0.17718911362E+03 -0.59418143664E+02  0.33771931187E+02  0.18991324629E+03  0.00000000000E+00 0.  1.
<mgrwt>
<rscale>  0 0.12812746E+04</rscale>
<asrwt>0</asrwt>
<pdfrwt beam="1">  1        2 0.32485090E+00 0.12812746E+04</pdfrwt>
<pdfrwt beam="2">  1       -1 0.29902925E-01 0.12812746E+04</pdfrwt>
<totfact> 0.66523536E+01</totfact>
</mgrwt>
</event>
<event>
12    7  0.1625631E-007  0.2340136E+04  0.7818608E-02  0.8462262E-01
         -1   -1    0    0    0  501 -0.00000000000E+00  0.00000000000E+00  0.34372602513E+04  0.34372602513E+04  0.00000000000E+00 0.  1.
          2   -1    0    0  501    0  0.00000000000E+00 -0.00000000000E+00 -0.39829968519E+03  0.39829968519E+03  0.00000000000E+00 0. -1.
         24    2    1    2    0    0  0.28216452173E+03  0.77740470768E+03  0.39740851649E+03  0.92087157144E+03  0.78077046980E+02 0.  0.
        254    2    1    2    0    0 -0.28216452173E+03 -0.77740470768E+03  0.26415520496E+04  0.29146883651E+04  0.91303676691E+03 0.  0.
         23    2    4    4    0    0 -0.59546580792E+03 -0.54503175686E+03  0.15119532776E+04  0.17163106475E+04  0.89890937148E+02 0.  0.
         23    2    4    4    0    0  0.31330128620E+03 -0.23237295082E+03  0.11295987720E+04  0.11983777176E+04  0.89223786418E+02 0.  0.
          2    1    3    3  502    0  0.23345120092E+03  0.65882833218E+03  0.30377320924E+03  0.76212361015E+03  0.00000000000E+00 0. -1.
         -1    1    3    3    0  502  0.48713320807E+02  0.11857637550E+03  0.93635307249E+02  0.15874796129E+03  0.00000000000E+00 0.  1.
         13    1    5    5    0    0 -0.11137933831E+03 -0.93664024490E+02  0.35041242603E+03  0.37943006576E+03  0.00000000000E+00 0. -1.
        -13    1    5    5    0    0 -0.48408646962E+03 -0.45136773237E+03  0.11615408516E+04  0.13368805817E+04  0.00000000000E+00 0.  1.
          2    1    6    6  503    0  0.13989320599E+03 -0.10528264199E+03  0.64277455222E+03  0.66619341693E+03  0.00000000000E+00 0. -1.
         -2    1    6    6    0  503  0.17340808021E+03 -0.12709030883E+03  0.48682421981E+03  0.53218430067E+03  0.00000000000E+00 0.  1.
<mgrwt>
<rscale>  0 0.23401365E+04</rscale>
<asrwt>0</asrwt>
<pdfrwt beam="1">  1        2 0.61276877E-01 0.23401365E+04</pdfrwt>
<pdfrwt beam="2">  1       -1 0.52880925E+00 0.23401365E+04</pdfrwt>
<totfact> 0.80788326E-02</totfact>
</mgrwt>
</event>
<event>
12    7  0.1625631E-007  0.1829110E+04  0.7818608E-02  0.8690971E-01
          2   -1    0    0  501    0  0.00000000000E+00  0.00000000000E+00  0.10812723327E+04  0.10812723327E+04  0.00000000000E+00 0. -1.
         -1   -1    0    0    0  501 -0.00000000000E+00 -0.00000000000E+00 -0.77354276761E+03  0.77354276761E+03  0.00000000000E+00 0.  1.
         24    2    1    2    0    0 -0.54065948975E+03  0.37931472424E+03  0.32127019726E+03  0.73883258557E+03  0.80415831589E+02 0.  0.
        254    2    1    2    0    0  0.54065948975E+03 -0.37931472424E+03 -0.13540632129E+02  0.11159825148E+04  0.89946722047E+03 0.  0.
         23    2    4    4    0    0 -0.15030192785E+03 -0.36124030552E+03  0.89174297191E+02  0.41119433110E+03  0.89685532857E+02 0.  0.
         23    2    4    4    0    0  0.69096141760E+03 -0.18074418717E+02 -0.10271492932E+03  0.70478818368E+03  0.91769613322E+02 0.  0.
          4    1    3    3  502    0 -0.82251247088E+02  0.68508158057E+02  0.21907453332E+02  0.10926377204E+03  0.00000000000E+00 0. -1.
         -3    1    3    3    0  502 -0.45840824266E+03  0.31080656618E+03  0.29936274393E+03  0.62956881354E+03  0.00000000000E+00 0.  1.
         13    1    5    5    0    0 -0.14224323305E+03 -0.26939224036E+03  0.94157553337E+02  0.31885884238E+03  0.00000000000E+00 0.  1.
        -13    1    5    5    0    0 -0.80586947991E+01 -0.91848065160E+02 -0.49832561453E+01  0.92335488720E+02  0.00000000000E+00 0. -1.
          3    1    6    6  503    0  0.55539447458E+02  0.23368314838E+02 -0.14063218885E+02  0.61874732223E+02  0.00000000000E+00 0. -1.
         -3    1    6    6    0  503  0.63542197014E+03 -0.41442733555E+02 -0.88651710435E+02  0.64291345146E+03  0.00000000000E+00 0.  1.
<mgrwt>
<rscale>  0 0.18291095E+04</rscale>
<asrwt>0</asrwt>
<pdfrwt beam="1">  1        2 0.16634959E+00 0.18291095E+04</pdfrwt>
<pdfrwt beam="2">  1       -1 0.11900658E+00 0.18291095E+04</pdfrwt>
<totfact> 0.15190358E+01</totfact>
</mgrwt>
</event>
<event>
12    7  0.1625631E-007  0.1546033E+04  0.7818608E-02  0.8854405E-01
          2   -1    0    0  501    0  0.00000000000E+00  0.00000000000E+00  0.31298938475E+04  0.31298938475E+04  0.00000000000E+00 0. -1.
         -1   -1    0    0    0  501 -0.00000000000E+00 -0.00000000000E+00 -0.19091854902E+03  0.19091854902E+03  0.00000000000E+00 0.  1.
         24    2    1    2    0    0 -0.89041324797E+02  0.10532062274E+03  0.20325406470E+04  0.20387362307E+04  0.78760051543E+02 0.  0.
        254    2    1    2    0    0  0.89041324797E+02 -0.10532062274E+03  0.90643465150E+03  0.12820761658E+04  0.89614436692E+03 0.  0.
         23    2    4    4    0    0 -0.11632368729E+03  0.49302061266E+02  0.98593566191E+03  0.99823199250E+03  0.91848178841E+02 0.  0.
         23    2    4    4    0    0  0.20536501209E+03 -0.15462268400E+03 -0.79501010405E+02  0.28384417330E+03  0.90355638790E+02 0.  0.
          2    1    3    3  502    0 -0.68656697400E+02  0.81487974800E+02  0.18793541267E+04  0.18823724301E+04  0.00000000000E+00 0. -1.
         -1    1    3    3    0  502 -0.20384627397E+02  0.23832647939E+02  0.15318652034E+03  0.15636380066E+03  0.00000000000E+00 0.  1.
         13    1    5    5    0    0 -0.19857851204E+02  0.31901384842E+02  0.98923621681E+02  0.10582020382E+03  0.00000000000E+00 0.  1.
        -13    1    5    5    0    0 -0.96465836086E+02  0.17400676424E+02  0.88701204023E+03  0.89241178868E+03  0.00000000000E+00 0. -1.
          2    1    6    6  503    0  0.13013627344E+03 -0.11205881246E+03 -0.94652382177E+02  0.19609105173E+03  0.00000000000E+00 0. -1.
         -2    1    6    6    0  503  0.75228738642E+02 -0.42563871542E+02  0.15151371772E+02  0.87753121568E+02  0.00000000000E+00 0.  1.
<mgrwt>
<rscale>  0 0.15460334E+04</rscale>
<asrwt>0</asrwt>
<pdfrwt beam="1">  1        2 0.48152209E+00 0.15460334E+04</pdfrwt>
<pdfrwt beam="2">  1       -1 0.29372087E-01 0.15460334E+04</pdfrwt>
<totfact> 0.16853713E+01</totfact>
</mgrwt>
</event>
<event>
12    7  0.1625631E-007  0.2345824E+04  0.7818608E-02  0.8460070E-01
         -1   -1    0    0    0  501 -0.00000000000E+00  0.00000000000E+00  0.12869327283E+04  0.12869327283E+04  0.00000000000E+00 0.  1.
          2   -1    0    0  501    0  0.00000000000E+00 -0.00000000000E+00 -0.10689929596E+04  0.10689929596E+04  0.00000000000E+00 0. -1.
         24    2    1    2    0    0 -0.28800462875E+03 -0.55097054188E+03  0.87769765749E+03  0.10785158122E+04  0.79548570437E+02 0.  0.
        254    2    1    2    0    0  0.28800462875E+03  0.55097054188E+03 -0.65975788885E+03  0.12774098756E+04  0.89998906343E+03 0.  0.
         23    2    4    4    0    0  0.14369093826E+03 -0.19803959102E+03 -0.37742985712E+03  0.45888714759E+03  0.90869972076E+02 0.  0.
         23    2    4    4    0    0  0.14431369048E+03  0.74901013291E+03 -0.28232803173E+03  0.81852272806E+03  0.91802605584E+02 0.  0.
          4    1    3    3  502    0 -0.44385462110E+01 -0.36693179692E+02  0.78294815771E+02  0.86580415250E+02  0.00000000000E+00 0. -1.
         -3    1    3    3    0  502 -0.28356608253E+03 -0.51427736219E+03  0.79940284172E+03  0.99193539698E+03  0.00000000000E+00 0.  1.
         13    1    5    5    0    0  0.35682643025E+02 -0.54250098725E+01 -0.28677438903E+02  0.46098560145E+02  0.00000000000E+00 0.  1.
        -13    1    5    5    0    0  0.10800829524E+03 -0.19261458115E+03 -0.34875241822E+03  0.41278858744E+03  0.00000000000E+00 0. -1.
          3    1    6    6  503    0  0.14333068492E+03  0.74977847048E+03 -0.28559061889E+03  0.81502971825E+03  0.00000000000E+00 0. -1.
         -3    1    6    6    0  503  0.98300556345E+00 -0.76833757753E+00  0.32625871540E+01  0.34930098065E+01  0.00000000000E+00 0.  1.
<mgrwt>
<rscale>  0 0.23458235E+04</rscale>
<asrwt>0</asrwt>
<pdfrwt beam="1">  1        2 0.16446046E+00 0.23458235E+04</pdfrwt>
<pdfrwt beam="2">  1       -1 0.19798965E+00 0.23458235E+04</pdfrwt>
<totfact> 0.36446403E+00</totfact>
</mgrwt>
</event>
<event>
12    7  0.1625631E-007  0.1663976E+04  0.7818608E-02  0.8782181E-01
         -1   -1    0    0    0  501 -0.00000000000E+00  0.00000000000E+00  0.53800813260E+03  0.53800813260E+03  0.00000000000E+00 0.  1.
          2   -1    0    0  501    0  0.00000000000E+00 -0.00000000000E+00 -0.12866053941E+04  0.12866053941E+04  0.00000000000E+00 0. -1.
         24    2    1    2    0    0 -0.13472664896E+03 -0.55165230071E+03 -0.43796267661E+03  0.72054859821E+03  0.70053161602E+02 0.  0.
        254    2    1    2    0    0  0.13472664896E+03  0.55165230071E+03 -0.31063458493E+03  0.11040649285E+04  0.89442383143E+03 0.  0.
         23    2    4    4    0    0 -0.27928402885E+03  0.55177555170E+03 -0.25902207856E+03  0.67689225928E+03  0.92923975735E+02 0.  0.
         23    2    4    4    0    0  0.41401067781E+03 -0.12325098871E+00 -0.51612506372E+02  0.42717266925E+03  0.91693958419E+02 0.  0.
          2    1    3    3  502    0 -0.95138693015E+02 -0.30190140543E+03 -0.20807967855E+03  0.37880467544E+03  0.00000000000E+00 0. -1.
         -1    1    3    3    0  502 -0.39587955948E+02 -0.24975089528E+03 -0.22988299806E+03  0.34174392277E+03  0.00000000000E+00 0.  1.
         13    1    5    5    0    0 -0.93414433259E+02  0.24470086572E+03 -0.14960577932E+03  0.30163994966E+03  0.00000000000E+00 0. -1.
        -13    1    5    5    0    0 -0.18586959559E+03  0.30707468598E+03 -0.10941629924E+03  0.37525230961E+03  0.00000000000E+00 0.  1.
          1    1    6    6  503    0  0.18315590564E+03 -0.13470055485E+02  0.20884714767E+02  0.18483424865E+03  0.00000000000E+00 0. -1.
         -1    1    6    6    0  503  0.23085477217E+03  0.13346804496E+02 -0.72497221139E+02  0.24233842060E+03  0.00000000000E+00 0.  1.
<mgrwt>
<rscale>  0 0.16639762E+04</rscale>
<asrwt>0</asrwt>
<pdfrwt beam="1">  1        2 0.19793929E+00 0.16639762E+04</pdfrwt>
<pdfrwt beam="2">  1       -1 0.82770483E-01 0.16639762E+04</pdfrwt>
<totfact> 0.26554847E+01</totfact>
</mgrwt>
</event>
<event>
12    7  0.1625631E-007  0.2247201E+04  0.7818608E-02  0.8499035E-01
          2   -1    0    0  501    0  0.00000000000E+00  0.00000000000E+00  0.13504860729E+04  0.13504860729E+04  0.00000000000E+00 0. -1.
         -1   -1    0    0    0  501 -0.00000000000E+00 -0.00000000000E+00 -0.93483248383E+03  0.93483248383E+03  0.00000000000E+00 0.  1.
         24    2    1    2    0    0 -0.66896205138E+03 -0.45075361121E+03 -0.31363020293E+03  0.86912311177E+03  0.79511225707E+02 0.  0.
        254    2    1    2    0    0  0.66896205138E+03  0.45075361121E+03  0.72928379196E+03  0.14161954449E+04  0.90722965384E+03 0.  0.
         23    2    4    4    0    0  0.40165453553E+03 -0.15726666565E+03  0.58093354952E+03  0.72957320539E+03  0.93456423172E+02 0.  0.
         23    2    4    4    0    0  0.26730751586E+03  0.60802027686E+03  0.14835024244E+03  0.68662223954E+03  0.91106203353E+02 0.  0.
          4    1    3    3  502    0 -0.12181086364E+03 -0.10044484290E+03 -0.32357058348E+02  0.16116461209E+03  0.00000000000E+00 0. -1.
         -1    1    3    3    0  502 -0.54715118774E+03 -0.35030876831E+03 -0.28127314458E+03  0.70795849968E+03  0.00000000000E+00 0.  1.
         13    1    5    5    0    0  0.13183434632E+03 -0.54100177549E+02  0.12354528367E+03  0.18860159383E+03  0.00000000000E+00 0.  1.
        -13    1    5    5    0    0  0.26982018921E+03 -0.10316648810E+03  0.45738826585E+03  0.54097161156E+03  0.00000000000E+00 0. -1.
          1    1    6    6  503    0  0.18597264899E+03  0.31172887066E+03  0.72779769447E+02  0.37021292497E+03  0.00000000000E+00 0. -1.
         -1    1    6    6    0  503  0.81334866869E+02  0.29629140620E+03  0.75570472993E+02  0.31640931457E+03  0.00000000000E+00 0.  1.
<mgrwt>
<rscale>  0 0.22472011E+04</rscale>
<asrwt>0</asrwt>
<pdfrwt beam="1">  1        2 0.20776709E+00 0.22472011E+04</pdfrwt>
<pdfrwt beam="2">  1       -1 0.14382038E+00 0.22472011E+04</pdfrwt>
<totfact> 0.62605068E+00</totfact>
</mgrwt>
</event>
<event>
12    7  0.1625631E-007  0.2333444E+04  0.7818608E-02  0.8464850E-01
          2   -1    0    0  501    0  0.00000000000E+00  0.00000000000E+00  0.18646101382E+04  0.18646101382E+04  0.00000000000E+00 0. -1.
         -1   -1    0    0    0  501 -0.00000000000E+00 -0.00000000000E+00 -0.73003990938E+03  0.73003990938E+03  0.00000000000E+00 0.  1.
         24    2    1    2    0    0  0.59339445194E+03  0.20771575845E+03 -0.36734930538E+03  0.73254326793E+03  0.80070689516E+02 0.  0.
        254    2    1    2    0    0 -0.59339445194E+03 -0.20771575845E+03  0.15019195342E+04  0.18621067796E+04  0.90355772351E+03 0.  0.
         23    2    4    4    0    0 -0.20962002896E+03 -0.25526492513E+03  0.14163691414E+04  0.14573924628E+04  0.93757706436E+02 0.  0.
         23    2    4    4    0    0 -0.38377442298E+03  0.47549166677E+02  0.85550392815E+02  0.40471431682E+03  0.83253093334E+02 0.  0.
          4    1    3    3  502    0  0.30832825162E+03  0.14933680090E+03 -0.18933525103E+03  0.39142767931E+03  0.00000000000E+00 0. -1.
         -3    1    3    3    0  502  0.28506620032E+03  0.58378957556E+02 -0.17801405435E+03  0.34111558861E+03  0.00000000000E+00 0.  1.
         13    1    5    5    0    0 -0.48618081333E+02 -0.10689217326E+03  0.64271682410E+03  0.65335638859E+03  0.00000000000E+00 0. -1.
        -13    1    5    5    0    0 -0.16100194763E+03 -0.14837275187E+03  0.77365231726E+03  0.80403607422E+03  0.00000000000E+00 0.  1.
          3    1    6    6  503    0 -0.32987626397E+03  0.43148227225E+02  0.42091950666E+02  0.33533841319E+03  0.00000000000E+00 0. -1.
         -3    1    6    6    0  503 -0.53898159001E+02  0.44009394520E+01  0.43458442149E+02  0.69375903639E+02  0.00000000000E+00 0.  1.
<mgrwt>
<rscale>  0 0.23334436E+04</rscale>
<asrwt>0</asrwt>
<pdfrwt beam="1">  1        2 0.28686310E+00 0.23334436E+04</pdfrwt>
<pdfrwt beam="2">  1       -1 0.11231383E+00 0.23334436E+04</pdfrwt>
<totfact> 0.59389359E+00</totfact>
</mgrwt>
</event>
<event>
12    7  0.1625631E-007  0.1422122E+04  0.7818608E-02  0.8937959E-01
         -1   -1    0    0    0  501 -0.00000000000E+00  0.00000000000E+00  0.63459896550E+03  0.63459896550E+03  0.00000000000E+00 0.  1.
          2   -1    0    0  501    0  0.00000000000E+00 -0.00000000000E+00 -0.79673583515E+03  0.79673583515E+03  0.00000000000E+00 0. -1.
         24    2    1    2    0    0  0.30785006445E+03 -0.57848013164E+01  0.24094340291E+03  0.39896209346E+03  0.79447482684E+02 0.  0.
        254    2    1    2    0    0 -0.30785006445E+03  0.57848013164E+01 -0.40308027255E+03  0.10323727072E+04  0.89917438482E+03 0.  0.
         23    2    4    4    0    0 -0.55999943277E+02 -0.26273760542E+03 -0.55507458269E+03  0.62346667320E+03  0.91846923154E+02 0.  0.
         23    2    4    4    0    0 -0.25185012118E+03  0.26852240673E+03  0.15199431014E+03  0.40890603399E+03  0.92569475891E+02 0.  0.
          4    1    3    3  502    0  0.23665242428E+02  0.97330771340E+00 -0.36339555426E+01  0.23962400964E+02  0.00000000000E+00 0. -1.
         -3    1    3    3    0  502  0.28418482203E+03 -0.67581090298E+01  0.24457735845E+03  0.37499969250E+03  0.00000000000E+00 0.  1.
         13    1    5    5    0    0 -0.53890119266E+02 -0.25712078429E+03 -0.47207081306E+03  0.54024632827E+03  0.00000000000E+00 0. -1.
        -13    1    5    5    0    0 -0.21098240107E+01 -0.56168211295E+01 -0.83003769631E+02  0.83220344928E+02  0.00000000000E+00 0.  1.
          3    1    6    6  503    0 -0.25948547616E+03  0.26195473777E+03  0.14324699108E+03  0.39556629967E+03  0.00000000000E+00 0. -1.
         -3    1    6    6    0  503  0.76353549796E+01  0.65676689605E+01  0.87473190547E+01  0.13339734326E+02  0.00000000000E+00 0.  1.
<mgrwt>
<rscale>  0 0.14221220E+04</rscale>
<asrwt>0</asrwt>
<pdfrwt beam="1">  1        2 0.12257474E+00 0.14221220E+04</pdfrwt>
<pdfrwt beam="2">  1       -1 0.97630611E-01 0.14221220E+04</pdfrwt>
<totfact> 0.38698230E+01</totfact>
</mgrwt>
</event>
<event>
12    7  0.1923289E-007  0.2114789E+04  0.7818608E-02  0.8554756E-01
         -1   -1    0    0    0  501 -0.00000000000E+00  0.00000000000E+00  0.80381312906E+03  0.80381312906E+03  0.00000000000E+00 0.  1.
          2   -1    0    0  501    0  0.00000000000E+00 -0.00000000000E+00 -0.13909742972E+04  0.13909742972E+04  0.00000000000E+00 0. -1.
         24    2    1    2    0    0 -0.90351330750E+02 -0.51070998484E+03 -0.96095434099E+03  0.10949473002E+04  0.80549942106E+02 0.  0.
        254    2    1    2    0    0  0.90351330750E+02  0.51070998484E+03  0.37379317285E+03  0.10998401260E+04  0.89495190665E+03 0.  0.
         23    2    4    4    0    0 -0.33592782876E+03  0.48220523625E+03  0.25979507417E+03  0.64897805992E+03  0.91157257966E+02 0.  0.
         23    2    4    4    0    0  0.42627915951E+03  0.28504748590E+02  0.11399809867E+03  0.45086206613E+03  0.88060170596E+02 0.  0.
          4    1    3    3  502    0 -0.79455646082E+02 -0.49330215890E+03 -0.94491533487E+03  0.10688897089E+04  0.00000000000E+00 0. -1.
         -3    1    3    3    0  502 -0.10895684668E+02 -0.17407825950E+02 -0.16039006118E+02  0.26057591330E+02  0.00000000000E+00 0.  1.
         13    1    5    5    0    0 -0.33281340659E+03  0.47362812430E+03  0.23899478084E+03  0.62626421661E+03  0.00000000000E+00 0.  1.
        -13    1    5    5    0    0 -0.31144221723E+01  0.85771119518E+01  0.20800293338E+02  0.22713843309E+02  0.00000000000E+00 0. -1.
          2    1    6    6  503    0  0.27993200753E+02  0.68304991001E+01  0.33065546955E+02  0.43858926136E+02  0.00000000000E+00 0. -1.
         -2    1    6    6    0  503  0.39828595876E+03  0.21674249490E+02  0.80932551718E+02  0.40700313999E+03  0.00000000000E+00 0.  1.
<mgrwt>
<rscale>  0 0.21147893E+04</rscale>
<asrwt>0</asrwt>
<pdfrwt beam="1">  1        2 0.21399604E+00 0.21147893E+04</pdfrwt>
<pdfrwt beam="2">  1       -1 0.12366356E+00 0.21147893E+04</pdfrwt>
<totfact> 0.88294423E+00</totfact>
</mgrwt>
</event>
<event>
12    7  0.1625631E-007  0.1510393E+04  0.7818608E-02  0.8877571E-01
         -1   -1    0    0    0  501 -0.00000000000E+00  0.00000000000E+00  0.94354336192E+03  0.94354336192E+03  0.00000000000E+00 0.  1.
          2   -1    0    0  501    0  0.00000000000E+00 -0.00000000000E+00 -0.60444675161E+03  0.60444675161E+03  0.00000000000E+00 0. -1.
         24    2    1    2    0    0  0.28303181503E+03  0.38923118374E+03 -0.12507531588E+01  0.48753125575E+03  0.77956643270E+02 0.  0.
        254    2    1    2    0    0 -0.28303181503E+03 -0.38923118374E+03  0.34034736347E+03  0.10604588578E+04  0.88154905622E+03 0.  0.
         23    2    4    4    0    0  0.23597336151E+03 -0.22362944385E+03 -0.98887285190E+02  0.35461411324E+03  0.10138500204E+03 0.  0.
         23    2    4    4    0    0 -0.51900517654E+03 -0.16560173989E+03  0.43923464866E+03  0.70584474454E+03  0.92192284288E+02 0.  0.
          2    1    3    3  502    0  0.26580263798E+03  0.38332353933E+03  0.91577104315E+01  0.46655315005E+03  0.00000000000E+00 0. -1.
         -3    1    3    3    0  502  0.17229177049E+02  0.59076444133E+01 -0.10408463590E+02  0.20978105697E+02  0.00000000000E+00 0.  1.
         13    1    5    5    0    0  0.17294367423E+03 -0.16112998933E+03 -0.11742805793E+03  0.26393509942E+03  0.00000000000E+00 0. -1.
        -13    1    5    5    0    0  0.63029687286E+02 -0.62499454522E+02  0.18540772735E+02  0.90679013826E+02  0.00000000000E+00 0.  1.
          4    1    6    6  503    0 -0.30922519932E+03 -0.10050953238E+03  0.20320561397E+03  0.38342523593E+03  0.00000000000E+00 0. -1.
         -4    1    6    6    0  503 -0.20977997722E+03 -0.65092207511E+02  0.23602903468E+03  0.32241950861E+03  0.00000000000E+00 0.  1.
<mgrwt>
<rscale>  0 0.15103930E+04</rscale>
<asrwt>0</asrwt>
<pdfrwt beam="1">  1        2 0.92991808E-01 0.15103930E+04</pdfrwt>
<pdfrwt beam="2">  1       -1 0.14516052E+00 0.15103930E+04</pdfrwt>
<totfact> 0.20659465E+01</totfact>
</mgrwt>
</event>
<event>
12    7  0.1625631E-007  0.2309815E+04  0.7818608E-02  0.8474061E-01
          2   -1    0    0  501    0  0.00000000000E+00  0.00000000000E+00  0.10335872639E+04  0.10335872639E+04  0.00000000000E+00 0. -1.
         -1   -1    0    0    0  501 -0.00000000000E+00 -0.00000000000E+00 -0.12904677969E+04  0.12904677969E+04  0.00000000000E+00 0.  1.
         24    2    1    2    0    0  0.36424780681E+03 -0.53666149680E+03  0.61224326807E+03  0.89565630299E+03  0.81709037928E+02 0.  0.
        254    2    1    2    0    0 -0.36424780681E+03  0.53666149680E+03 -0.86912380108E+03  0.14283987579E+04  0.92965843354E+03 0.  0.
         23    2    4    4    0    0 -0.48121853693E+03  0.25189871330E+03 -0.55119970968E+02  0.55354085613E+03  0.91351114707E+02 0.  0.
         23    2    4    4    0    0  0.11697073012E+03  0.28476278350E+03 -0.81400383011E+03  0.87485790176E+03  0.89454559854E+02 0.  0.
          2    1    3    3  502    0  0.36004573789E+03 -0.53216512636E+03  0.58909078508E+03  0.87169983833E+03  0.00000000000E+00 0. -1.
         -1    1    3    3    0  502  0.42020689225E+01 -0.44963704418E+01  0.23152482991E+02  0.23956464660E+02  0.00000000000E+00 0.  1.
         13    1    5    5    0    0 -0.19236099650E+03  0.61323669724E+02  0.66616499431E+01  0.20200921519E+03  0.00000000000E+00 0. -1.
        -13    1    5    5    0    0 -0.28885754043E+03  0.19057504358E+03 -0.61781620911E+02  0.35153164094E+03  0.00000000000E+00 0.  1.
          1    1    6    6  503    0 -0.71686484214E+01  0.23191165757E+02 -0.27117350595E+02  0.36394647857E+02  0.00000000000E+00 0. -1.
         -1    1    6    6    0  503  0.12413937854E+03  0.26157161774E+03 -0.78688647951E+03  0.83846325391E+03  0.00000000000E+00 0.  1.
<mgrwt>
<rscale>  0 0.23098148E+04</rscale>
<asrwt>0</asrwt>
<pdfrwt beam="1">  1        2 0.15901343E+00 0.23098148E+04</pdfrwt>
<pdfrwt beam="2">  1       -1 0.19853351E+00 0.23098148E+04</pdfrwt>
<totfact> 0.38150333E+00</totfact>
</mgrwt>
</event>
<event>
12    7  0.1625631E-007  0.2007600E+04  0.7818608E-02  0.8603076E-01
          2   -1    0    0  501    0  0.00000000000E+00  0.00000000000E+00  0.11978616692E+04  0.11978616692E+04  0.00000000000E+00 0. -1.
         -1   -1    0    0    0  501 -0.00000000000E+00 -0.00000000000E+00 -0.84117787153E+03  0.84117787153E+03  0.00000000000E+00 0.  1.
         24    2    1    2    0    0  0.28844791210E+03  0.55138841432E+03  0.65801567404E+03  0.90887391581E+03  0.76392317112E+02 0.  0.
        254    2    1    2    0    0 -0.28844791210E+03 -0.55138841432E+03 -0.30133187637E+03  0.11301656249E+04  0.89400338846E+03 0.  0.
         23    2    4    4    0    0 -0.21915522723E+03 -0.45332299058E+03 -0.60419185919E+03  0.79175743087E+03  0.91111356159E+02 0.  0.
         23    2    4    4    0    0 -0.69292684871E+02 -0.98065423740E+02  0.30285998282E+03  0.33840819404E+03  0.91529411065E+02 0.  0.
          4    1    3    3  502    0  0.22923036961E+03  0.46046956761E+03  0.50118594620E+03  0.71816859978E+03  0.00000000000E+00 0. -1.
         -3    1    3    3    0  502  0.59217542492E+02  0.90918846708E+02  0.15682972784E+03  0.19070531603E+03  0.00000000000E+00 0.  1.
         13    1    5    5    0    0 -0.67249704992E+02 -0.12003792846E+03 -0.23088069198E+03  0.26877038717E+03  0.00000000000E+00 0.  1.
        -13    1    5    5    0    0 -0.15190552224E+03 -0.33328506212E+03 -0.37331116721E+03  0.52298704370E+03  0.00000000000E+00 0. -1.
          1    1    6    6  503    0  0.21264052059E+02 -0.20814000066E+02  0.86388200860E+02  0.91369052510E+02  0.00000000000E+00 0. -1.
         -1    1    6    6    0  503 -0.90556736931E+02 -0.77251423674E+02  0.21647178196E+03  0.24703914153E+03  0.00000000000E+00 0.  1.
<mgrwt>
<rscale>  0 0.20076003E+04</rscale>
<asrwt>0</asrwt>
<pdfrwt beam="1">  1        2 0.18428641E+00 0.20076003E+04</pdfrwt>
<pdfrwt beam="2">  1       -1 0.12941198E+00 0.20076003E+04</pdfrwt>
<totfact> 0.10317309E+01</totfact>
</mgrwt>
</event>
<event>
12    7  0.1625631E-007  0.1667940E+04  0.7818608E-02  0.8779864E-01
         -1   -1    0    0    0  501 -0.00000000000E+00  0.00000000000E+00  0.61974719680E+03  0.61974719680E+03  0.00000000000E+00 0.  1.
          2   -1    0    0  501    0  0.00000000000E+00 -0.00000000000E+00 -0.11222408191E+04  0.11222408191E+04  0.00000000000E+00 0. -1.
         24    2    1    2    0    0 -0.20226448293E+03 -0.46819930024E+03  0.12923525716E+03  0.53110909123E+03  0.72481785920E+02 0.  0.
        254    2    1    2    0    0  0.20226448293E+03  0.46819930024E+03 -0.63172887949E+03  0.12108789247E+04  0.89834563909E+03 0.  0.
         23    2    4    4    0    0 -0.31604595843E+03  0.20885993813E+03 -0.63317504286E+02  0.39474779594E+03  0.91154782943E+02 0.  0.
         23    2    4    4    0    0  0.51831044136E+03  0.25933936211E+03 -0.56841137520E+03  0.81613112875E+03  0.84118425439E+02 0.  0.
          2    1    3    3  502    0 -0.68777155097E+02 -0.23785204000E+03  0.43308281662E+02  0.25135532072E+03  0.00000000000E+00 0. -1.
         -1    1    3    3    0  502 -0.13348732784E+03 -0.23034726024E+03  0.85926975502E+02  0.27975377050E+03  0.00000000000E+00 0.  1.
         13    1    5    5    0    0 -0.14251952034E+03  0.97756585680E+02 -0.74941787996E+02  0.18837312789E+03  0.00000000000E+00 0.  1.
        -13    1    5    5    0    0 -0.17352643808E+03  0.11110335245E+03  0.11624283710E+02  0.20637466805E+03  0.00000000000E+00 0. -1.
          2    1    6    6  503    0  0.74811328041E+02  0.30925114762E+02 -0.12365099662E+03  0.14779264695E+03  0.00000000000E+00 0. -1.
         -2    1    6    6    0  503  0.44349911332E+03  0.22841424735E+03 -0.44476037858E+03  0.66833848180E+03  0.00000000000E+00 0.  1.
<mgrwt>
<rscale>  0 0.16679396E+04</rscale>
<asrwt>0</asrwt>
<pdfrwt beam="1">  1        2 0.17265243E+00 0.16679396E+04</pdfrwt>
<pdfrwt beam="2">  1       -1 0.95345724E-01 0.16679396E+04</pdfrwt>
<totfact> 0.24395923E+01</totfact>
</mgrwt>
</event>
<event>
12    7  0.1625631E-007  0.1648808E+04  0.7818608E-02  0.8791112E-01
          2   -1    0    0  501    0  0.00000000000E+00  0.00000000000E+00  0.57149508726E+03  0.57149508726E+03  0.00000000000E+00 0. -1.
         -1   -1    0    0    0  501 -0.00000000000E+00 -0.00000000000E+00 -0.11892348724E+04  0.11892348724E+04  0.00000000000E+00 0.  1.
         24    2    1    2    0    0  0.15129006890E+03  0.93020539326E+02  0.31098232563E+03  0.36706245905E+03  0.80519167310E+02 0.  0.
        254    2    1    2    0    0 -0.15129006890E+03 -0.93020539326E+02 -0.92872211079E+03  0.13936675006E+04  0.10238373101E+04 0.  0.
         23    2    4    4    0    0  0.23288096575E+03  0.57583085908E+02 -0.93659637247E+03  0.97104261815E+03  0.90341824955E+02 0.  0.
         23    2    4    4    0    0 -0.38417103465E+03 -0.15060362523E+03  0.78742616799E+01  0.42262488248E+03  0.90999733516E+02 0.  0.
          4    1    3    3  502    0  0.16094218896E+03  0.89177864429E+02  0.28686744695E+03  0.34080494687E+03  0.00000000000E+00 0. -1.
         -3    1    3    3    0  502 -0.96521200618E+01  0.38426748980E+01  0.24114878676E+02  0.26257512175E+02  0.00000000000E+00 0.  1.
         13    1    5    5    0    0  0.20493078190E+03  0.66177413098E+02 -0.89263114717E+03  0.91824094892E+03  0.00000000000E+00 0.  1.
        -13    1    5    5    0    0  0.27950183855E+02 -0.85943271906E+01 -0.43965225305E+02  0.52801669230E+02  0.00000000000E+00 0. -1.
          3    1    6    6  503    0 -0.26493553803E+03 -0.13753049553E+03 -0.21017484359E+02  0.29924440038E+03  0.00000000000E+00 0. -1.
         -3    1    6    6    0  503 -0.11923549662E+03 -0.13073129708E+02  0.28891746039E+02  0.12338048210E+03  0.00000000000E+00 0.  1.
<mgrwt>
<rscale>  0 0.16488079E+04</rscale>
<asrwt>0</asrwt>
<pdfrwt beam="1">  1        2 0.87922322E-01 0.16488079E+04</pdfrwt>
<pdfrwt beam="2">  1       -1 0.18295921E+00 0.16488079E+04</pdfrwt>
<totfact> 0.11376701E+01</totfact>
</mgrwt>
</event>
<event>
12    7  0.1625631E-007  0.1384584E+04  0.7818608E-02  0.8965053E-01
         -1   -1    0    0    0  501 -0.00000000000E+00  0.00000000000E+00  0.18702804540E+03  0.18702804540E+03  0.00000000000E+00 0.  1.
          2   -1    0    0  501    0  0.00000000000E+00 -0.00000000000E+00 -0.25625484862E+04  0.25625484862E+04  0.00000000000E+00 0. -1.
         24    2    1    2    0    0  0.26646439694E+03 -0.19459743932E+03 -0.24860730914E+03  0.42012269485E+03  0.76328542136E+02 0.  0.
        254    2    1    2    0    0 -0.26646439694E+03  0.19459743932E+03 -0.21269131317E+04  0.23294538368E+04  0.89091204373E+03 0.  0.
         23    2    4    4    0    0 -0.39973305226E+03  0.31474374931E+03 -0.61215127238E+03  0.80127514586E+03  0.91992055672E+02 0.  0.
         23    2    4    4    0    0  0.13326865532E+03 -0.12014630998E+03 -0.15147618593E+04  0.15281786909E+04  0.92902909678E+02 0.  0.
          2    1    3    3  502    0  0.49752236073E+02 -0.33028690754E+02 -0.85903795523E+02  0.10462141985E+03  0.00000000000E+00 0. -1.
         -1    1    3    3    0  502  0.21671216086E+03 -0.16156874857E+03 -0.16270351362E+03  0.31550127500E+03  0.00000000000E+00 0.  1.
         13    1    5    5    0    0 -0.45239848668E+02  0.77549645890E+02 -0.12296548707E+03  0.15225341538E+03  0.00000000000E+00 0.  1.
        -13    1    5    5    0    0 -0.35449320359E+03  0.23719410342E+03 -0.48918578531E+03  0.64902173048E+03  0.00000000000E+00 0. -1.
          1    1    6    6  503    0  0.92456211243E+02 -0.33133126062E+02 -0.97432241949E+03  0.97925999212E+03  0.00000000000E+00 0. -1.
         -1    1    6    6    0  503  0.40812444079E+02 -0.87013183921E+02 -0.54043943981E+03  0.54891869878E+03  0.00000000000E+00 0.  1.
<mgrwt>
<rscale>  0 0.13845843E+04</rscale>
<asrwt>0</asrwt>
<pdfrwt beam="1">  1        2 0.39423823E+00 0.13845843E+04</pdfrwt>
<pdfrwt beam="2">  1       -1 0.28773545E-01 0.13845843E+04</pdfrwt>
<totfact> 0.39171001E+01</totfact>
</mgrwt>
</event>
<event>
12    7  0.1625631E-007  0.2300859E+04  0.7818608E-02  0.8477583E-01
          2   -1    0    0  501    0  0.00000000000E+00  0.00000000000E+00  0.17225286614E+04  0.17225286614E+04  0.00000000000E+00 0. -1.
         -1   -1    0    0    0  501 -0.00000000000E+00 -0.00000000000E+00 -0.76834010202E+03  0.76834010202E+03  0.00000000000E+00 0.  1.
         24    2    1    2    0    0  0.20093156621E+03 -0.11075073714E+03  0.14281139064E+04  0.14486292393E+04  0.79863151939E+02 0.  0.
        254    2    1    2    0    0 -0.20093156621E+03  0.11075073714E+03 -0.47392534707E+03  0.10422395241E+04  0.89945470758E+03 0.  0.
         23    2    4    4    0    0  0.12442274748E+03  0.23245872761E+03  0.15418750029E+03  0.31870515047E+03  0.91000590976E+02 0.  0.
         23    2    4    4    0    0 -0.32535431370E+03 -0.12170799047E+03 -0.62811284736E+03  0.72353437366E+03  0.91148101809E+02 0.  0.
          4    1    3    3  502    0  0.18323185495E+03 -0.88391131186E+02  0.13543641757E+04  0.13695580401E+04  0.00000000000E+00 0. -1.
         -3    1    3    3    0  502  0.17699711262E+02 -0.22359605950E+02  0.73749730723E+02  0.79071199173E+02  0.00000000000E+00 0.  1.
         13    1    5    5    0    0  0.71949128329E+02  0.48532941399E+02  0.36629201710E+02  0.94200965420E+02  0.00000000000E+00 0.  1.
        -13    1    5    5    0    0  0.52473619152E+02  0.18392578621E+03  0.11755829858E+03  0.22450418505E+03  0.00000000000E+00 0. -1.
          2    1    6    6  503    0 -0.30327669040E+02 -0.34237410532E+02 -0.44763507616E+02  0.63997964057E+02  0.00000000000E+00 0. -1.
         -2    1    6    6    0  503 -0.29502664466E+03 -0.87470579939E+02 -0.58334933975E+03  0.65953640961E+03  0.00000000000E+00 0.  1.
<mgrwt>
<rscale>  0 0.23008588E+04</rscale>
<asrwt>0</asrwt>
<pdfrwt beam="1">  1        2 0.26500441E+00 0.23008588E+04</pdfrwt>
<pdfrwt beam="2">  1       -1 0.11820617E+00 0.23008588E+04</pdfrwt>
<totfact> 0.63170220E+00</totfact>
</mgrwt>
</event>
<event>
12    7  0.1625631E-007  0.3189700E+04  0.7818608E-02  0.8191543E-01
          2   -1    0    0  501    0  0.00000000000E+00  0.00000000000E+00  0.15293077679E+04  0.15293077679E+04  0.00000000000E+00 0. -1.
         -1   -1    0    0    0  501 -0.00000000000E+00 -0.00000000000E+00 -0.16632009653E+04  0.16632009653E+04  0.00000000000E+00 0.  1.
         24    2    1    2    0    0 -0.12067682961E+02 -0.41715132043E+03  0.13459960925E+04  0.14115447662E+04  0.81192936672E+02 0.  0.
        254    2    1    2    0    0  0.12067682961E+02  0.41715132043E+03 -0.14798892898E+04  0.17809639670E+04  0.89866539296E+03 0.  0.
         23    2    4    4    0    0  0.15451803744E+03  0.28682648381E+03 -0.57966825965E+02  0.34331522318E+03  0.91432673843E+02 0.  0.
         23    2    4    4    0    0 -0.14245035448E+03  0.13032483663E+03 -0.14219224638E+04  0.14376487438E+04  0.87714028803E+02 0.  0.
          2    1    3    3  502    0 -0.25260410815E+02 -0.24795352347E+03  0.67905164184E+03  0.72334650787E+03  0.00000000000E+00 0. -1.
         -3    1    3    3    0  502  0.13192727854E+02 -0.16919779696E+03  0.66694445063E+03  0.68819825835E+03  0.00000000000E+00 0.  1.
         13    1    5    5    0    0  0.10686623171E+03  0.24175395537E+03 -0.76477198738E+02  0.27516200381E+03  0.00000000000E+00 0.  1.
        -13    1    5    5    0    0  0.47651805737E+02  0.45072528438E+02  0.18510372774E+02  0.68153219367E+02  0.00000000000E+00 0. -1.
          3    1    6    6  503    0  0.11347124888E+02  0.16327296214E+01 -0.85042628067E+02  0.85811838564E+02  0.00000000000E+00 0. -1.
         -3    1    6    6    0  503 -0.15379747937E+03  0.12869210700E+03 -0.13368798358E+04  0.13518369052E+04  0.00000000000E+00 0.  1.
<mgrwt>
<rscale>  0 0.31896998E+04</rscale>
<asrwt>0</asrwt>
<pdfrwt beam="1">  1        2 0.23527812E+00 0.31896998E+04</pdfrwt>
<pdfrwt beam="2">  1       -1 0.25587707E+00 0.31896998E+04</pdfrwt>
<totfact> 0.74831092E-01</totfact>
</mgrwt>
</event>
<event>
12    7  0.1625631E-007  0.1955479E+04  0.7818608E-02  0.8627723E-01
          2   -1    0    0  501    0  0.00000000000E+00  0.00000000000E+00  0.13009241242E+04  0.13009241242E+04  0.00000000000E+00 0. -1.
         -1   -1    0    0    0  501 -0.00000000000E+00 -0.00000000000E+00 -0.73484235110E+03  0.73484235110E+03  0.00000000000E+00 0.  1.
         24    2    1    2    0    0 -0.54614927455E+03 -0.51230108803E+03  0.40021219819E+02  0.75292593504E+03  0.67559830761E+02 0.  0.
        254    2    1    2    0    0  0.54614927455E+03  0.51230108803E+03  0.52606055325E+03  0.12828405402E+04  0.89900428872E+03 0.  0.
         23    2    4    4    0    0  0.10689266511E+03  0.67030313359E+03  0.23031827551E+03  0.72284410260E+03  0.93406401618E+02 0.  0.
         23    2    4    4    0    0  0.43925660943E+03 -0.15800204557E+03  0.29574227774E+03  0.55999643765E+03  0.90672487567E+02 0.  0.
          4    1    3    3  502    0 -0.10249942428E+03 -0.95775367464E+02 -0.18866400453E+02  0.14154502484E+03  0.00000000000E+00 0. -1.
         -3    1    3    3    0  502 -0.44364985027E+03 -0.41652572056E+03  0.58887620272E+02  0.61138091020E+03  0.00000000000E+00 0.  1.
         13    1    5    5    0    0  0.74551430617E+02  0.53078055137E+03  0.14163358676E+03  0.55438793495E+03  0.00000000000E+00 0. -1.
        -13    1    5    5    0    0  0.32341234497E+02  0.13952258222E+03  0.88684688752E+02  0.16845616765E+03  0.00000000000E+00 0.  1.
          1    1    6    6  503    0  0.42474704762E+03 -0.14557207325E+03  0.25838943645E+03  0.51804090943E+03  0.00000000000E+00 0. -1.
         -1    1    6    6    0  503  0.14509561816E+02 -0.12429972317E+02  0.37352841292E+02  0.41955528223E+02  0.00000000000E+00 0.  1.
<mgrwt>
<rscale>  0 0.19554786E+04</rscale>
<asrwt>0</asrwt>
<pdfrwt beam="1">  1        2 0.20014217E+00 0.19554786E+04</pdfrwt>
<pdfrwt beam="2">  1       -1 0.11305267E+00 0.19554786E+04</pdfrwt>
<totfact> 0.12549496E+01</totfact>
</mgrwt>
</event>
<event>
12    7  0.1625631E-007  0.1134177E+04  0.7818608E-02  0.9172507E-01
         -1   -1    0    0    0  501 -0.00000000000E+00  0.00000000000E+00  0.97285290581E+02  0.97285290581E+02  0.00000000000E+00 0.  1.
          2   -1    0    0  501    0  0.00000000000E+00 -0.00000000000E+00 -0.33056300405E+04  0.33056300405E+04  0.00000000000E+00 0. -1.
         24    2    1    2    0    0  0.11496526902E+02  0.11840476564E+03 -0.10470784773E+04  0.10568059737E+04  0.79458604222E+02 0.  0.
        254    2    1    2    0    0 -0.11496526902E+02 -0.11840476564E+03 -0.21612662726E+04  0.23461093573E+04  0.90498914740E+03 0.  0.
         23    2    4    4    0    0 -0.14029543768E+03  0.33358089894E+03 -0.13842999789E+04  0.14336250208E+04  0.89639515361E+02 0.  0.
         23    2    4    4    0    0  0.12879891078E+03 -0.45198566459E+03 -0.77696629369E+03  0.91248433654E+03  0.89837867808E+02 0.  0.
          4    1    3    3  502    0 -0.83216566166E+01  0.11817115008E+03 -0.97053616597E+03  0.97773929048E+03  0.00000000000E+00 0. -1.
         -3    1    3    3    0  502  0.19818183519E+02  0.23361556824E+00 -0.76542311318E+02  0.79066683225E+02  0.00000000000E+00 0.  1.
         13    1    5    5    0    0 -0.20322251894E+02  0.16162418117E+03 -0.57934098631E+03  0.60180673665E+03  0.00000000000E+00 0. -1.
        -13    1    5    5    0    0 -0.11997318579E+03  0.17195671777E+03 -0.80495899258E+03  0.83181828414E+03  0.00000000000E+00 0.  1.
          4    1    6    6  503    0  0.42787859288E+02 -0.30582109586E+03 -0.51017356895E+03  0.59635091517E+03  0.00000000000E+00 0. -1.
         -4    1    6    6    0  503  0.86011051494E+02 -0.14616456872E+03 -0.26679272475E+03  0.31613342137E+03  0.00000000000E+00 0.  1.
<mgrwt>
<rscale>  0 0.11341767E+04</rscale>
<asrwt>0</asrwt>
<pdfrwt beam="1">  1        2 0.50855843E+00 0.11341767E+04</pdfrwt>
<pdfrwt beam="2">  1       -1 0.14966969E-01 0.11341767E+04</pdfrwt>
<totfact> 0.42169305E+01</totfact>
</mgrwt>
</event>
<event>
12    7  0.1625631E-007  0.1545015E+04  0.7818608E-02  0.8855058E-01
         -1   -1    0    0    0  501 -0.00000000000E+00  0.00000000000E+00  0.57110412133E+03  0.57110412133E+03  0.00000000000E+00 0.  1.
          2   -1    0    0  501    0  0.00000000000E+00 -0.00000000000E+00 -0.10449366490E+04  0.10449366490E+04  0.00000000000E+00 0. -1.
         24    2    1    2    0    0  0.18464718097E+03 -0.45667941776E+03 -0.51473096258E+02  0.50172331880E+03  0.80163189463E+02 0.  0.
        254    2    1    2    0    0 -0.18464718097E+03  0.45667941776E+03 -0.42235943137E+03  0.11143174515E+04  0.90590574642E+03 0.  0.
         23    2    4    4    0    0 -0.66316914515E+02 -0.17162363699E+03 -0.42142576399E+03  0.46887898935E+03  0.91625466863E+02 0.  0.
         23    2    4    4    0    0 -0.11833026645E+03  0.62830305475E+03 -0.93366738414E+00  0.64543846214E+03  0.88448607175E+02 0.  0.
          4    1    3    3  502    0  0.14989538146E+03 -0.37281419028E+03 -0.73069866276E+02  0.40840941617E+03  0.00000000000E+00 0. -1.
         -3    1    3    3    0  502  0.34751799505E+02 -0.83865227480E+02  0.21596770018E+02  0.93313902631E+02  0.00000000000E+00 0.  1.
         13    1    5    5    0    0 -0.35919053166E+02 -0.11470253298E+03 -0.16303153946E+03  0.20254908618E+03  0.00000000000E+00 0.  1.
        -13    1    5    5    0    0 -0.30397861349E+02 -0.56921104014E+02 -0.25839422453E+03  0.26632990318E+03  0.00000000000E+00 0. -1.
          3    1    6    6  503    0 -0.92574545077E+02  0.27711055943E+03  0.18642827373E+02  0.29275905375E+03  0.00000000000E+00 0. -1.
         -3    1    6    6    0  503 -0.25755721375E+02  0.35119249532E+03 -0.19576494757E+02  0.35267940839E+03  0.00000000000E+00 0.  1.
<mgrwt>
<rscale>  0 0.15450147E+04</rscale>
<asrwt>0</asrwt>
<pdfrwt beam="1">  1        2 0.16075948E+00 0.15450147E+04</pdfrwt>
<pdfrwt beam="2">  1       -1 0.87862173E-01 0.15450147E+04</pdfrwt>
<totfact> 0.32997973E+01</totfact>
</mgrwt>
</event>
<event>
12    7  0.1625631E-007  0.1969296E+04  0.7818608E-02  0.8621112E-01
          2   -1    0    0  501    0  0.00000000000E+00  0.00000000000E+00  0.78776728217E+03  0.78776728217E+03  0.00000000000E+00 0. -1.
         -1   -1    0    0    0  501 -0.00000000000E+00 -0.00000000000E+00 -0.12307336672E+04  0.12307336672E+04  0.00000000000E+00 0.  1.
         24    2    1    2    0    0 -0.29710279207E+03  0.33905249409E+03  0.47275384514E+03  0.65736649995E+03  0.73538115021E+02 0.  0.
        254    2    1    2    0    0  0.29710279207E+03 -0.33905249409E+03 -0.91572023016E+03  0.13611344494E+04  0.90050918187E+03 0.  0.
         23    2    4    4    0    0  0.17012580319E+03  0.29074748305E+03 -0.41636126858E+03  0.54258434365E+03  0.86972272541E+02 0.  0.
         23    2    4    4    0    0  0.12697698888E+03 -0.62979997714E+03 -0.49935896159E+03  0.81855010576E+03  0.88846700663E+02 0.  0.
          2    1    3    3  502    0 -0.16325356418E+03  0.13098348423E+03  0.22186227174E+03  0.30501027357E+03  0.00000000000E+00 0. -1.
         -1    1    3    3    0  502 -0.13384922789E+03  0.20806900986E+03  0.25089157340E+03  0.35235622639E+03  0.00000000000E+00 0.  1.
         13    1    5    5    0    0  0.95824595657E+02  0.22622100028E+03 -0.25900684508E+03  0.35699137230E+03  0.00000000000E+00 0.  1.
        -13    1    5    5    0    0  0.74301207530E+02  0.64526482774E+02 -0.15735442350E+03  0.18559297135E+03  0.00000000000E+00 0. -1.
          3    1    6    6  503    0  0.45300468434E+02 -0.33539123989E+03 -0.21354772946E+03  0.40017752185E+03  0.00000000000E+00 0. -1.
         -3    1    6    6    0  503  0.81676520450E+02 -0.29440873725E+03 -0.28581123213E+03  0.41837258392E+03  0.00000000000E+00 0.  1.
<mgrwt>
<rscale>  0 0.19692960E+04</rscale>
<asrwt>0</asrwt>
<pdfrwt beam="1">  1        2 0.12119497E+00 0.19692960E+04</pdfrwt>
<pdfrwt beam="2">  1       -1 0.18934364E+00 0.19692960E+04</pdfrwt>
<totfact> 0.66738973E+00</totfact>
</mgrwt>
</event>
<event>
12    7  0.1625631E-007  0.1257898E+04  0.7818608E-02  0.9063635E-01
          2   -1    0    0  501    0  0.00000000000E+00  0.00000000000E+00  0.21749442887E+04  0.21749442887E+04  0.00000000000E+00 0. -1.
         -1   -1    0    0    0  501 -0.00000000000E+00 -0.00000000000E+00 -0.18187908951E+03  0.18187908951E+03  0.00000000000E+00 0.  1.
         24    2    1    2    0    0  0.27200815639E+03  0.10638381537E+03  0.56079644868E+03  0.63918668401E+03  0.93600250252E+02 0.  0.
        254    2    1    2    0    0 -0.27200815639E+03 -0.10638381537E+03  0.14322687505E+04  0.17176366942E+04  0.90198452661E+03 0.  0.
         23    2    4    4    0    0  0.10976361152E+03  0.22389783380E+03  0.10342905783E+04  0.10678900682E+04  0.91945130010E+02 0.  0.
         23    2    4    4    0    0 -0.38177176791E+03 -0.33028164916E+03  0.39797817214E+03  0.64974662596E+03  0.94595993065E+02 0.  0.
          4    1    3    3  502    0  0.17035391950E+03  0.25625361341E+02  0.37325501070E+03  0.41109174164E+03  0.00000000000E+00 0. -1.
         -3    1    3    3    0  502  0.10165423689E+03  0.80758454024E+02  0.18754143798E+03  0.22809494237E+03  0.00000000000E+00 0.  1.
         13    1    5    5    0    0  0.40482429639E+02  0.10043117427E+03  0.27571716216E+03  0.29621816518E+03  0.00000000000E+00 0. -1.
        -13    1    5    5    0    0  0.69281181885E+02  0.12346665953E+03  0.75857341617E+03  0.77167190302E+03  0.00000000000E+00 0.  1.
          3    1    6    6  503    0  0.34589188164E+01 -0.13978317005E+02  0.58517760464E+01  0.15543511462E+02  0.00000000000E+00 0. -1.
         -3    1    6    6    0  503 -0.38523068673E+03 -0.31630333216E+03  0.39212639609E+03  0.63420311450E+03  0.00000000000E+00 0.  1.
<mgrwt>
<rscale>  0 0.12578981E+04</rscale>
<asrwt>0</asrwt>
<pdfrwt beam="1">  1        2 0.33460679E+00 0.12578981E+04</pdfrwt>
<pdfrwt beam="2">  1       -1 0.27981400E-01 0.12578981E+04</pdfrwt>
<totfact> 0.68996935E+01</totfact>
</mgrwt>
</event>
<event>
12    7  0.1625631E-007  0.1460579E+04  0.7818608E-02  0.8911099E-01
          2   -1    0    0  501    0  0.00000000000E+00  0.00000000000E+00  0.36123004615E+03  0.36123004615E+03  0.00000000000E+00 0. -1.
         -1   -1    0    0    0  501 -0.00000000000E+00 -0.00000000000E+00 -0.14764080758E+04  0.14764080758E+04  0.00000000000E+00 0.  1.
         24    2    1    2    0    0 -0.19521009835E+03 -0.31039858090E+03 -0.60698527814E+03  0.71333512291E+03  0.77211451148E+02 0.  0.
        254    2    1    2    0    0  0.19521009835E+03  0.31039858090E+03 -0.50819275151E+03  0.11243029990E+04  0.93345760453E+03 0.  0.
         23    2    4    4    0    0  0.94312596835E+02  0.30748127556E+03 -0.76436338005E+03  0.83414247706E+03  0.90014968353E+02 0.  0.
         23    2    4    4    0    0  0.10089750151E+03  0.29173053354E+01  0.25617062854E+03  0.29016052198E+03  0.91547370845E+02 0.  0.
          2    1    3    3  502    0 -0.17168333913E+03 -0.30587329361E+03 -0.56867246710E+03  0.66814819876E+03  0.00000000000E+00 0. -1.
         -1    1    3    3    0  502 -0.23526759219E+02 -0.45252872884E+01 -0.38312811040E+02  0.45186924150E+02  0.00000000000E+00 0.  1.
         13    1    5    5    0    0  0.80595449052E+02  0.18088953458E+03 -0.55298208487E+03  0.58737197441E+03  0.00000000000E+00 0.  1.
        -13    1    5    5    0    0  0.13717147782E+02  0.12659174098E+03 -0.21138129518E+03  0.24677050265E+03  0.00000000000E+00 0. -1.
          1    1    6    6  503    0  0.10240578761E+03 -0.88247650554E+01  0.14156029845E+03  0.17494038960E+03  0.00000000000E+00 0. -1.
         -1    1    6    6    0  503 -0.15082860977E+01  0.11742070391E+02  0.11461033009E+03  0.11522013239E+03  0.00000000000E+00 0.  1.
<mgrwt>
<rscale>  0 0.14605793E+04</rscale>
<asrwt>0</asrwt>
<pdfrwt beam="1">  1        2 0.55573853E-01 0.14605793E+04</pdfrwt>
<pdfrwt beam="2">  1       -1 0.22713970E+00 0.14605793E+04</pdfrwt>
<totfact> 0.97565469E+00</totfact>
</mgrwt>
</event>
<event>
12    7  0.1625631E-007  0.1532789E+04  0.7818608E-02  0.8862937E-01
          2   -1    0    0  501    0  0.00000000000E+00  0.00000000000E+00  0.20590039296E+04  0.20590039296E+04  0.00000000000E+00 0. -1.
         -1   -1    0    0    0  501 -0.00000000000E+00 -0.00000000000E+00 -0.28526436415E+03  0.28526436415E+03  0.00000000000E+00 0.  1.
         24    2    1    2    0    0 -0.44905877991E+03 -0.20684145476E+03  0.68314268104E+03  0.84664382726E+03  0.75396766269E+02 0.  0.
        254    2    1    2    0    0  0.44905877991E+03  0.20684145476E+03  0.10905968845E+04  0.14976244665E+04  0.89946667706E+03 0.  0.
         23    2    4    4    0    0 -0.26411401722E+03  0.13575079702E+02  0.33372255204E+03  0.43619193846E+03  0.94615900148E+02 0.  0.
         23    2    4    4    0    0  0.71317279713E+03  0.19326637506E+03  0.75687433243E+03  0.10614325281E+04  0.88390758943E+02 0.  0.
          4    1    3    3  502    0 -0.14620604253E+02 -0.17168436045E+01  0.48368563380E+02  0.50559148966E+02  0.00000000000E+00 0. -1.
         -3    1    3    3    0  502 -0.43443817566E+03 -0.20512461115E+03  0.63477411766E+03  0.79608467830E+03  0.00000000000E+00 0.  1.
         13    1    5    5    0    0 -0.25040544065E+03  0.18372248319E+02  0.33799988776E+03  0.42105147944E+03  0.00000000000E+00 0.  1.
        -13    1    5    5    0    0 -0.13708576569E+02 -0.47971686177E+01 -0.42773357267E+01  0.15140459016E+02  0.00000000000E+00 0. -1.
          3    1    6    6  503    0  0.35020314039E+02  0.17035522400E+02  0.17187429379E+02  0.42568053132E+02  0.00000000000E+00 0. -1.
         -3    1    6    6    0  503  0.67815248309E+03  0.17623085265E+03  0.73968690305E+03  0.10188644749E+04  0.00000000000E+00 0.  1.
<mgrwt>
<rscale>  0 0.15327889E+04</rscale>
<asrwt>0</asrwt>
<pdfrwt beam="1">  1        2 0.31676983E+00 0.15327889E+04</pdfrwt>
<pdfrwt beam="2">  1       -1 0.43886826E-01 0.15327889E+04</pdfrwt>
<totfact> 0.34912451E+01</totfact>
</mgrwt>
</event>
<event>
12    7  0.1625631E-007  0.1559647E+04  0.7818608E-02  0.8845730E-01
         -1   -1    0    0    0  501 -0.00000000000E+00  0.00000000000E+00  0.22133253377E+03  0.22133253377E+03  0.00000000000E+00 0.  1.
          2   -1    0    0  501    0  0.00000000000E+00 -0.00000000000E+00 -0.27475595947E+04  0.27475595947E+04  0.00000000000E+00 0. -1.
         24    2    1    2    0    0  0.19978022133E+03  0.38001700635E+03 -0.13771732556E+04  0.14447528463E+04  0.79872078949E+02 0.  0.
        254    2    1    2    0    0 -0.19978022133E+03 -0.38001700635E+03 -0.11490538053E+04  0.15241392822E+04  0.90462746032E+03 0.  0.
         23    2    4    4    0    0 -0.23775891409E+03 -0.61641238502E+03 -0.10600350049E+04  0.12525465376E+04  0.93301059246E+02 0.  0.
         23    2    4    4    0    0  0.37978692753E+02  0.23639537867E+03 -0.89018800460E+02  0.27159274458E+03  0.92266548169E+02 0.  0.
          2    1    3    3  502    0  0.17651397191E+03  0.33376869750E+03 -0.11057296723E+04  0.11684163787E+04  0.00000000000E+00 0. -1.
         -1    1    3    3    0  502  0.23266249424E+02  0.46248308845E+02 -0.27144358327E+03  0.27633646761E+03  0.00000000000E+00 0.  1.
         13    1    5    5    0    0  0.65203489152E+01 -0.28573934317E+02 -0.32114279747E+02  0.43477714245E+02  0.00000000000E+00 0.  1.
        -13    1    5    5    0    0 -0.24427926300E+03 -0.58783845071E+03 -0.10279207251E+04  0.12090688233E+04  0.00000000000E+00 0. -1.
          4    1    6    6  503    0  0.45384748039E+02  0.13656775206E+03 -0.93112153168E+02  0.17140711573E+03  0.00000000000E+00 0. -1.
         -4    1    6    6    0  503 -0.74060552857E+01  0.99827626615E+02  0.40933527079E+01  0.10018562884E+03  0.00000000000E+00 0.  1.
<mgrwt>
<rscale>  0 0.15596465E+04</rscale>
<asrwt>0</asrwt>
<pdfrwt beam="1">  1        2 0.42270146E+00 0.15596465E+04</pdfrwt>
<pdfrwt beam="2">  1       -1 0.34051160E-01 0.15596465E+04</pdfrwt>
<totfact> 0.22298847E+01</totfact>
</mgrwt>
</event>
<event>
12    7  0.1625631E-007  0.1684092E+04  0.7818608E-02  0.8770489E-01
         -1   -1    0    0    0  501 -0.00000000000E+00  0.00000000000E+00  0.30272238368E+03  0.30272238368E+03  0.00000000000E+00 0.  1.
          2   -1    0    0  501    0  0.00000000000E+00 -0.00000000000E+00 -0.23422182157E+04  0.23422182157E+04  0.00000000000E+00 0. -1.
         24    2    1    2    0    0  0.32950439865E+03  0.50355312857E+01  0.53087877642E+02  0.34353221298E+03  0.81225324222E+02 0.  0.
        254    2    1    2    0    0 -0.32950439865E+03 -0.50355312857E+01 -0.20925837097E+04  0.23014083864E+04  0.89943063866E+03 0.  0.
         23    2    4    4    0    0  0.24757408869E+03  0.20253415612E+03 -0.84301080061E+03  0.90633633284E+03  0.92007198143E+02 0.  0.
         23    2    4    4    0    0 -0.57707848734E+03 -0.20756968741E+03 -0.12495729091E+04  0.13950720536E+04  0.93213861027E+02 0.  0.
          4    1    3    3  502    0  0.13554083233E+03 -0.17037899226E+02  0.57624646437E+02  0.14826397780E+03  0.00000000000E+00 0. -1.
         -3    1    3    3    0  502  0.19396356632E+03  0.22073430511E+02 -0.45367687956E+01  0.19526823517E+03  0.00000000000E+00 0.  1.
         13    1    5    5    0    0  0.25399942430E+03  0.20031009503E+03 -0.80223621867E+03  0.86499872385E+03  0.00000000000E+00 0. -1.
        -13    1    5    5    0    0 -0.64253356099E+01  0.22240610940E+01 -0.40774581936E+02  0.41337608996E+02  0.00000000000E+00 0.  1.
          1    1    6    6  503    0 -0.38577628679E+03 -0.18450708971E+03 -0.86005710332E+03  0.96050217624E+03  0.00000000000E+00 0. -1.
         -1    1    6    6    0  503 -0.19130220055E+03 -0.23062597700E+02 -0.38951580577E+03  0.43456987734E+03  0.00000000000E+00 0.  1.
<mgrwt>
<rscale>  0 0.16840925E+04</rscale>
<asrwt>0</asrwt>
<pdfrwt beam="1">  1        2 0.36034125E+00 0.16840925E+04</pdfrwt>
<pdfrwt beam="2">  1       -1 0.46572676E-01 0.16840925E+04</pdfrwt>
<totfact> 0.21392611E+01</totfact>
</mgrwt>
</event>
<event>
12    7  0.1625631E-007  0.1470448E+04  0.7818608E-02  0.8904346E-01
          2   -1    0    0  501    0  0.00000000000E+00  0.00000000000E+00  0.86367178799E+03  0.86367178799E+03  0.00000000000E+00 0. -1.
         -1   -1    0    0    0  501 -0.00000000000E+00 -0.00000000000E+00 -0.62587927959E+03  0.62587927959E+03  0.00000000000E+00 0.  1.
         24    2    1    2    0    0 -0.29018212842E+03  0.22811362022E+03  0.34365039101E+03  0.51048095344E+03  0.79080472931E+02 0.  0.
        254    2    1    2    0    0  0.29018212842E+03 -0.22811362022E+03 -0.10585788260E+03  0.97907011414E+03  0.90062806180E+03 0.  0.
         23    2    4    4    0    0 -0.24856406319E+03  0.12538941009E+03 -0.14566045647E+03  0.32722226312E+03  0.91382948253E+02 0.  0.
         23    2    4    4    0    0  0.53874619161E+03 -0.35350303031E+03  0.39802573864E+02  0.65184785102E+03  0.90052898789E+02 0.  0.
          2    1    3    3  502    0 -0.29057785064E+03  0.21934962889E+03  0.34503866133E+03  0.50159886841E+03  0.00000000000E+00 0. -1.
         -1    1    3    3    0  502  0.39572221656E+00  0.87639913250E+01 -0.13882703193E+01  0.88820850309E+01  0.00000000000E+00 0.  1.
         13    1    5    5    0    0  0.63297872473E+01  0.27090792692E+01 -0.13150579861E+02  0.14843957281E+02  0.00000000000E+00 0. -1.
        -13    1    5    5    0    0 -0.25489385043E+03  0.12268033082E+03 -0.13250987661E+03  0.31237830584E+03  0.00000000000E+00 0.  1.
          3    1    6    6  503    0  0.27067737349E+02 -0.29757475751E+02 -0.17044815734E+02  0.43688619934E+02  0.00000000000E+00 0. -1.
         -3    1    6    6    0  503  0.51167845426E+03 -0.32374555456E+03  0.56847389598E+02  0.60815923108E+03  0.00000000000E+00 0.  1.
<mgrwt>
<rscale>  0 0.14704479E+04</rscale>
<asrwt>0</asrwt>
<pdfrwt beam="1">  1        2 0.13287258E+00 0.14704479E+04</pdfrwt>
<pdfrwt beam="2">  1       -1 0.96289120E-01 0.14704479E+04</pdfrwt>
<totfact> 0.35661155E+01</totfact>
</mgrwt>
</event>
<event>
12    7  0.1625631E-007  0.2177170E+04  0.7818608E-02  0.8527991E-01
          2   -1    0    0  501    0  0.00000000000E+00  0.00000000000E+00  0.14492075928E+04  0.14492075928E+04  0.00000000000E+00 0. -1.
         -1   -1    0    0    0  501 -0.00000000000E+00 -0.00000000000E+00 -0.81770002158E+03  0.81770002158E+03  0.00000000000E+00 0.  1.
         24    2    1    2    0    0  0.35751884312E+03 -0.26470137317E+03  0.10630172398E+04  0.11551113056E+04  0.79937076522E+02 0.  0.
        254    2    1    2    0    0 -0.35751884312E+03  0.26470137317E+03 -0.43150966852E+03  0.11117963088E+04  0.92304057225E+03 0.  0.
         23    2    4    4    0    0 -0.21505692348E+03  0.38725560291E+03 -0.66125512379E+03  0.80068573824E+03  0.87309394425E+02 0.  0.
         23    2    4    4    0    0 -0.14246191963E+03 -0.12255422974E+03  0.22974545527E+03  0.31111057053E+03  0.93230226345E+02 0.  0.
          4    1    3    3  502    0  0.31360237018E+03 -0.21860769895E+03  0.96786930932E+03  0.10406280664E+04  0.00000000000E+00 0. -1.
         -3    1    3    3    0  502  0.43916472944E+02 -0.46093674229E+02  0.95147930432E+02  0.11448323923E+03  0.00000000000E+00 0.  1.
         13    1    5    5    0    0 -0.84451949731E+02  0.79327314504E+02 -0.14607592163E+03  0.18644873161E+03  0.00000000000E+00 0. -1.
        -13    1    5    5    0    0 -0.13060497375E+03  0.30792828841E+03 -0.51517920216E+03  0.61423700663E+03  0.00000000000E+00 0.  1.
          4    1    6    6  503    0 -0.15037717142E+03 -0.87799474856E+02  0.19033522843E+03  0.25797197648E+03  0.00000000000E+00 0. -1.
         -4    1    6    6    0  503  0.79152517813E+01 -0.34754754883E+02  0.39410226840E+02  0.53138594047E+02  0.00000000000E+00 0.  1.
<mgrwt>
<rscale>  0 0.21771698E+04</rscale>
<asrwt>0</asrwt>
<pdfrwt beam="1">  1        2 0.22295501E+00 0.21771698E+04</pdfrwt>
<pdfrwt beam="2">  1       -1 0.12580000E+00 0.21771698E+04</pdfrwt>
<totfact> 0.77954637E+00</totfact>
</mgrwt>
</event>
<event>
12    7  0.1625631E-007  0.1549139E+04  0.7818608E-02  0.8852418E-01
         -1   -1    0    0    0  501 -0.00000000000E+00  0.00000000000E+00  0.92677536758E+03  0.92677536758E+03  0.00000000000E+00 0.  1.
          2   -1    0    0  501    0  0.00000000000E+00 -0.00000000000E+00 -0.64736068813E+03  0.64736068813E+03  0.00000000000E+00 0. -1.
         24    2    1    2    0    0 -0.18152908465E+03 -0.36491059653E+03  0.39667078280E+03  0.57436143950E+03  0.80192276540E+02 0.  0.
        254    2    1    2    0    0  0.18152908465E+03  0.36491059653E+03 -0.11725610336E+03  0.99977461622E+03  0.90536607924E+03 0.  0.
         23    2    4    4    0    0 -0.15956959282E+03  0.95298226387E+02 -0.41580788314E+03  0.46434846937E+03  0.90438368097E+02 0.  0.
         23    2    4    4    0    0  0.34109867746E+03  0.26961237014E+03  0.29855177979E+03  0.53542614685E+03  0.92243458383E+02 0.  0.
          4    1    3    3  502    0 -0.76772567600E+02 -0.10030997417E+03  0.16248707903E+03  0.20581100288E+03  0.00000000000E+00 0. -1.
         -3    1    3    3    0  502 -0.10475651705E+03 -0.26460062236E+03  0.23418370377E+03  0.36855043661E+03  0.00000000000E+00 0.  1.
         13    1    5    5    0    0 -0.68502660660E+02  0.93051520353E+02 -0.22721718664E+03  0.25490949347E+03  0.00000000000E+00 0.  1.
        -13    1    5    5    0    0 -0.91066932156E+02  0.22467060343E+01 -0.18859069650E+03  0.20943897590E+03  0.00000000000E+00 0. -1.
          4    1    6    6  503    0  0.19625379036E+03  0.19056526176E+03  0.14308255572E+03  0.30871230453E+03  0.00000000000E+00 0. -1.
         -4    1    6    6    0  503  0.14484488711E+03  0.79047108378E+02  0.15546922407E+03  0.22671384231E+03  0.00000000000E+00 0.  1.
<mgrwt>
<rscale>  0 0.15491390E+04</rscale>
<asrwt>0</asrwt>
<pdfrwt beam="1">  1        2 0.99593952E-01 0.15491390E+04</pdfrwt>
<pdfrwt beam="2">  1       -1 0.14258083E+00 0.15491390E+04</pdfrwt>
<totfact> 0.19855682E+01</totfact>
</mgrwt>
</event>
<event>
12    7  0.1625631E-007  0.1963903E+04  0.7818608E-02  0.8623686E-01
         -1   -1    0    0    0  501 -0.00000000000E+00  0.00000000000E+00  0.80994391959E+03  0.80994391959E+03  0.00000000000E+00 0.  1.
          2   -1    0    0  501    0  0.00000000000E+00 -0.00000000000E+00 -0.11904879207E+04  0.11904879207E+04  0.00000000000E+00 0. -1.
         24    2    1    2    0    0 -0.29404883046E+03  0.57222892029E+03 -0.56039497530E+03  0.85705110536E+03  0.81138258237E+02 0.  0.
        254    2    1    2    0    0  0.29404883046E+03 -0.57222892029E+03  0.17985097423E+03  0.11433807349E+04  0.92793452359E+03 0.  0.
         23    2    4    4    0    0  0.23043212530E+03 -0.82062392093E+03  0.15044717527E+03  0.86999185622E+03  0.87914124959E+02 0.  0.
         23    2    4    4    0    0  0.63616705154E+02  0.24839500064E+03  0.29403798954E+02  0.27338887866E+03  0.90165037939E+02 0.  0.
          4    1    3    3  502    0 -0.23916906924E+03  0.51987153623E+03 -0.48541735473E+03  0.75039873810E+03  0.00000000000E+00 0. -1.
         -3    1    3    3    0  502 -0.54879761219E+02  0.52357384062E+02 -0.74977620569E+02  0.10665236727E+03  0.00000000000E+00 0.  1.
         13    1    5    5    0    0  0.12815658294E+03 -0.54554525776E+03  0.63945751280E+02  0.56403262062E+03  0.00000000000E+00 0. -1.
        -13    1    5    5    0    0  0.10227554236E+03 -0.27507866317E+03  0.86501423992E+02  0.30595923560E+03  0.00000000000E+00 0.  1.
          4    1    6    6  503    0  0.56458587537E+02  0.24144997916E+03  0.47738929573E+02  0.25251667260E+03  0.00000000000E+00 0. -1.
         -4    1    6    6    0  503  0.71581176167E+01  0.69450214776E+01 -0.18335130619E+02  0.20872206064E+02  0.00000000000E+00 0.  1.
<mgrwt>
<rscale>  0 0.19639027E+04</rscale>
<asrwt>0</asrwt>
<pdfrwt beam="1">  1        2 0.18315199E+00 0.19639027E+04</pdfrwt>
<pdfrwt beam="2">  1       -1 0.12460676E+00 0.19639027E+04</pdfrwt>
<totfact> 0.11501173E+01</totfact>
</mgrwt>
</event>
<event>
12    7  0.1625631E-007  0.1901989E+04  0.7818608E-02  0.8653867E-01
         -1   -1    0    0    0  501 -0.00000000000E+00  0.00000000000E+00  0.36618160157E+03  0.36618160157E+03  0.00000000000E+00 0.  1.
          2   -1    0    0  501    0  0.00000000000E+00 -0.00000000000E+00 -0.24697863695E+04  0.24697863695E+04  0.00000000000E+00 0. -1.
         24    2    1    2    0    0 -0.15574401285E+03 -0.74289648531E+03 -0.85334636403E+03  0.11448844023E+04  0.80055556707E+02 0.  0.
        254    2    1    2    0    0  0.15574401285E+03  0.74289648531E+03 -0.12502584039E+04  0.16910835688E+04  0.84880278903E+03 0.  0.
         23    2    4    4    0    0  0.97179639310E+02  0.70386502970E+03 -0.13556959572E+04  0.15333665273E+04  0.91823288899E+02 0.  0.
         23    2    4    4    0    0  0.58564373535E+02  0.39031455604E+02  0.10543755332E+03  0.15771704145E+03  0.93831482669E+02 0.  0.
          4    1    3    3  502    0  0.89132163970E+01 -0.37914115340E+02 -0.51593997591E+02  0.64644150207E+02  0.00000000000E+00 0. -1.
         -3    1    3    3    0  502 -0.16465722924E+03 -0.70498236997E+03 -0.80175236644E+03  0.10802402521E+04  0.00000000000E+00 0.  1.
         13    1    5    5    0    0  0.10062643001E+03  0.62149626943E+03 -0.12472165493E+04  0.13971157476E+04  0.00000000000E+00 0. -1.
        -13    1    5    5    0    0 -0.34467906983E+01  0.82368760275E+02 -0.10847940788E+03  0.13625077970E+03  0.00000000000E+00 0.  1.
          1    1    6    6  503    0  0.48730819300E+02  0.35837031361E+02  0.12315215068E+03  0.13720582270E+03  0.00000000000E+00 0. -1.
         -1    1    6    6    0  503  0.98335542358E+01  0.31944242430E+01 -0.17714597357E+02  0.20511218751E+02  0.00000000000E+00 0.  1.
<mgrwt>
<rscale>  0 0.19019888E+04</rscale>
<asrwt>0</asrwt>
<pdfrwt beam="1">  1        2 0.37996713E+00 0.19019888E+04</pdfrwt>
<pdfrwt beam="2">  1       -1 0.56335632E-01 0.19019888E+04</pdfrwt>
<totfact> 0.12328473E+01</totfact>
</mgrwt>
</event>
<event>
12    7  0.1625631E-007  0.3673896E+04  0.7818608E-02  0.8073771E-01
          2   -1    0    0  501    0  0.00000000000E+00  0.00000000000E+00  0.14850189789E+04  0.14850189789E+04  0.00000000000E+00 0. -1.
         -1   -1    0    0    0  501 -0.00000000000E+00 -0.00000000000E+00 -0.22722795878E+04  0.22722795878E+04  0.00000000000E+00 0.  1.
         24    2    1    2    0    0  0.68596331233E+03  0.64189637227E+03  0.11098332534E+04  0.14567194256E+04  0.87892070292E+02 0.  0.
        254    2    1    2    0    0 -0.68596331233E+03 -0.64189637227E+03 -0.18970938623E+04  0.23005791411E+04  0.90062347507E+03 0.  0.
         23    2    4    4    0    0  0.31870411582E+01 -0.14725340917E+03  0.44654354910E+02  0.17967455219E+03  0.92710352963E+02 0.  0.
         23    2    4    4    0    0 -0.68915035349E+03 -0.49464296310E+03 -0.19417482172E+04  0.21209045890E+04  0.90830974466E+02 0.  0.
          4    1    3    3  502    0  0.55532559919E+03  0.55723887604E+03  0.95269911604E+03  0.12355311780E+04  0.00000000000E+00 0. -1.
         -3    1    3    3    0  502  0.13063771314E+03  0.84657496231E+02  0.15713413731E+03  0.22118824759E+03  0.00000000000E+00 0.  1.
         13    1    5    5    0    0 -0.30145455368E+02 -0.13475322313E+03  0.30820013898E+02  0.14148163442E+03  0.00000000000E+00 0.  1.
        -13    1    5    5    0    0  0.33332496526E+02 -0.12500186043E+02  0.13834341013E+02  0.38192917760E+02  0.00000000000E+00 0. -1.
          3    1    6    6  503    0 -0.55247004728E+03 -0.34932800114E+03 -0.14863046704E+04  0.16236855541E+04  0.00000000000E+00 0. -1.
         -3    1    6    6    0  503 -0.13668030620E+03 -0.14531496196E+03 -0.45544354680E+03  0.49721903483E+03  0.00000000000E+00 0.  1.
<mgrwt>
<rscale>  0 0.36738962E+04</rscale>
<asrwt>0</asrwt>
<pdfrwt beam="1">  1        2 0.22846446E+00 0.36738962E+04</pdfrwt>
<pdfrwt beam="2">  1       -1 0.34958147E+00 0.36738962E+04</pdfrwt>
<totfact> 0.18663709E-01</totfact>
</mgrwt>
</event>
<event>
12    7  0.1625631E-007  0.1345934E+04  0.7818608E-02  0.8993911E-01
         -1   -1    0    0    0  501 -0.00000000000E+00  0.00000000000E+00  0.18523984356E+03  0.18523984356E+03  0.00000000000E+00 0.  1.
          2   -1    0    0  501    0  0.00000000000E+00 -0.00000000000E+00 -0.24448563797E+04  0.24448563797E+04  0.00000000000E+00 0. -1.
         24    2    1    2    0    0  0.60551144108E+02 -0.18347833462E+03 -0.21853365579E+02  0.20925478421E+03  0.77325641293E+02 0.  0.
        254    2    1    2    0    0 -0.60551144108E+02  0.18347833462E+03 -0.22377631706E+04  0.24208414391E+04  0.90308278974E+03 0.  0.
         23    2    4    4    0    0 -0.32571266749E+03 -0.84299419302E+02 -0.18112586763E+04  0.18444680443E+04  0.90604856924E+02 0.  0.
         23    2    4    4    0    0  0.26516152338E+03  0.26777775392E+03 -0.42650449425E+03  0.57637339473E+03  0.91020039343E+02 0.  0.
          2    1    3    3  502    0 -0.51585580966E+01 -0.73844779176E+02 -0.32807053491E+02  0.80968913120E+02  0.00000000000E+00 0. -1.
         -1    1    3    3    0  502  0.65709702205E+02 -0.10963355545E+03  0.10953687912E+02  0.12828587109E+03  0.00000000000E+00 0.  1.
         13    1    5    5    0    0 -0.11641940963E+03 -0.15637395734E+02 -0.42995342737E+03  0.44571062001E+03  0.00000000000E+00 0. -1.
        -13    1    5    5    0    0 -0.20929325785E+03 -0.68662023567E+02 -0.13813052490E+04  0.13987574243E+04  0.00000000000E+00 0.  1.
          3    1    6    6  503    0  0.60172568554E+02  0.48241250574E+02 -0.14738347388E+03  0.16634255210E+03  0.00000000000E+00 0. -1.
         -3    1    6    6    0  503  0.20498895482E+03  0.21953650335E+03 -0.27912102036E+03  0.41003084264E+03  0.00000000000E+00 0.  1.
<mgrwt>
<rscale>  0 0.13459343E+04</rscale>
<asrwt>0</asrwt>
<pdfrwt beam="1">  1        2 0.37613171E+00 0.13459343E+04</pdfrwt>
<pdfrwt beam="2">  1       -1 0.28498440E-01 0.13459343E+04</pdfrwt>
<totfact> 0.46718016E+01</totfact>
</mgrwt>
</event>
<event>
12    7  0.1625631E-007  0.2013173E+04  0.7818608E-02  0.8600486E-01
          2   -1    0    0  501    0  0.00000000000E+00  0.00000000000E+00  0.25308772173E+04  0.25308772173E+04  0.00000000000E+00 0. -1.
         -1   -1    0    0    0  501 -0.00000000000E+00 -0.00000000000E+00 -0.40034211789E+03  0.40034211789E+03  0.00000000000E+00 0.  1.
         24    2    1    2    0    0 -0.43904838123E+03  0.61003103710E+03  0.12003716031E+04  0.14184801351E+04  0.79325662894E+02 0.  0.
        254    2    1    2    0    0  0.43904838123E+03 -0.61003103710E+03  0.93016349632E+03  0.15127392001E+04  0.92643100682E+03 0.  0.
         23    2    4    4    0    0 -0.16826572486E+03 -0.58737568397E+02 -0.75531867209E+02  0.21177063126E+03  0.85896921934E+02 0.  0.
         23    2    4    4    0    0  0.60731410609E+03 -0.55129346871E+03  0.10056953635E+04  0.13009685689E+04  0.91329846375E+02 0.  0.
          4    1    3    3  502    0 -0.11059714380E+03  0.10850784965E+03  0.21373108087E+03  0.26398230354E+03  0.00000000000E+00 0. -1.
         -3    1    3    3    0  502 -0.32845123743E+03  0.50152318745E+03  0.98664052222E+03  0.11544978315E+04  0.00000000000E+00 0.  1.
         13    1    5    5    0    0 -0.68189457182E+02 -0.48446327101E+02 -0.73178184882E+02  0.11113908144E+03  0.00000000000E+00 0. -1.
        -13    1    5    5    0    0 -0.10007626768E+03 -0.10291241296E+02 -0.23536823272E+01  0.10063154982E+03  0.00000000000E+00 0.  1.
          2    1    6    6  503    0  0.11687136064E+03 -0.68346257102E+02  0.19651879106E+03  0.23864149060E+03  0.00000000000E+00 0. -1.
         -2    1    6    6    0  503  0.49044274545E+03 -0.48294721161E+03  0.80917657247E+03  0.10623270783E+04  0.00000000000E+00 0.  1.
<mgrwt>
<rscale>  0 0.20131734E+04</rscale>
<asrwt>0</asrwt>
<pdfrwt beam="1">  1        2 0.38936572E+00 0.20131734E+04</pdfrwt>
<pdfrwt beam="2">  1       -1 0.61591097E-01 0.20131734E+04</pdfrwt>
<totfact> 0.94400989E+00</totfact>
</mgrwt>
</event>
<event>
12    7  0.1625631E-007  0.1572267E+04  0.7818608E-02  0.8837769E-01
          2   -1    0    0  501    0  0.00000000000E+00  0.00000000000E+00  0.67308399596E+03  0.67308399596E+03  0.00000000000E+00 0. -1.
         -1   -1    0    0    0  501 -0.00000000000E+00 -0.00000000000E+00 -0.91817103575E+03  0.91817103575E+03  0.00000000000E+00 0.  1.
         24    2    1    2    0    0  0.60989441290E+01  0.51165651035E+03 -0.14082373530E+03  0.53641400786E+03  0.77968466059E+02 0.  0.
        254    2    1    2    0    0 -0.60989441290E+01 -0.51165651035E+03 -0.10426330450E+03  0.10548410239E+04  0.91650922922E+03 0.  0.
         23    2    4    4    0    0  0.38325646860E+03 -0.25157056089E+03  0.17777713100E+03  0.50056179761E+03  0.93723727456E+02 0.  0.
         23    2    4    4    0    0 -0.38935541273E+03 -0.26008594946E+03 -0.28204043550E+03  0.55427922625E+03  0.91849414065E+02 0.  0.
          4    1    3    3  502    0  0.34577500759E+01  0.34703765910E+03 -0.57141103865E+02  0.35172744934E+03  0.00000000000E+00 0. -1.
         -3    1    3    3    0  502  0.26411940531E+01  0.16461885125E+03 -0.83682631433E+02  0.18468655851E+03  0.00000000000E+00 0.  1.
         13    1    5    5    0    0  0.86024467228E+02 -0.23047833743E+02  0.93691667261E+01  0.89549946328E+02  0.00000000000E+00 0.  1.
        -13    1    5    5    0    0  0.29723200137E+03 -0.22852272715E+03  0.16840796428E+03  0.41101185129E+03  0.00000000000E+00 0. -1.
          3    1    6    6  503    0 -0.90525349767E+02 -0.87139654091E+02 -0.11661723363E+03  0.17142851993E+03  0.00000000000E+00 0. -1.
         -3    1    6    6    0  503 -0.29883006296E+03 -0.17294629536E+03 -0.16542320187E+03  0.38285070632E+03  0.00000000000E+00 0.  1.
<mgrwt>
<rscale>  0 0.15722674E+04</rscale>
<asrwt>0</asrwt>
<pdfrwt beam="1">  1        2 0.10355138E+00 0.15722674E+04</pdfrwt>
<pdfrwt beam="2">  1       -1 0.14125708E+00 0.15722674E+04</pdfrwt>
<totfact> 0.19349652E+01</totfact>
</mgrwt>
</event>
<event>
12    7  0.1658792E-007  0.2539836E+04  0.7818608E-02  0.8388930E-01
          2   -1    0    0  501    0  0.00000000000E+00  0.00000000000E+00  0.19045634989E+04  0.19045634989E+04  0.00000000000E+00 0. -1.
         -1   -1    0    0    0  501 -0.00000000000E+00 -0.00000000000E+00 -0.84675149673E+03  0.84675149673E+03  0.00000000000E+00 0.  1.
         24    2    1    2    0    0  0.73285595614E+03 -0.24813613012E+02 -0.42879559841E+03  0.85347450411E+03  0.82822075009E+02 0.  0.
        254    2    1    2    0    0 -0.73285595614E+03  0.24813613012E+02  0.14866076006E+04  0.18978404915E+04  0.92417682579E+03 0.  0.
         23    2    4    4    0    0  0.96901601810E+02  0.23568641487E+03  0.62371387901E+03  0.67896290185E+03  0.83866636012E+02 0.  0.
         23    2    4    4    0    0 -0.82975755795E+03 -0.21087280186E+03  0.86289372160E+03  0.12188775897E+04  0.90066976956E+02 0.  0.
          4    1    3    3  502    0  0.25310971245E+03  0.25686599181E+02 -0.17073036959E+03  0.30638731536E+03  0.00000000000E+00 0. -1.
         -3    1    3    3    0  502  0.47974624369E+03 -0.50500212193E+02 -0.25806522882E+03  0.54708718875E+03  0.00000000000E+00 0.  1.
         13    1    5    5    0    0 -0.12015406915E+01  0.48363499337E+02  0.19533076051E+03  0.20123264589E+03  0.00000000000E+00 0. -1.
        -13    1    5    5    0    0  0.98103142502E+02  0.18732291553E+03  0.42838311850E+03  0.47773025597E+03  0.00000000000E+00 0.  1.
          1    1    6    6  503    0 -0.59775908369E+02 -0.18448489739E+02  0.33648405123E+02  0.71033239842E+02  0.00000000000E+00 0. -1.
         -1    1    6    6    0  503 -0.76998164959E+03 -0.19242431212E+03  0.82924531647E+03  0.11478443499E+04  0.00000000000E+00 0.  1.
<mgrwt>
<rscale>  0 0.25398362E+04</rscale>
<asrwt>0</asrwt>
<pdfrwt beam="1">  1        2 0.29300977E+00 0.25398362E+04</pdfrwt>
<pdfrwt beam="2">  1       -1 0.13026946E+00 0.25398362E+04</pdfrwt>
<totfact> 0.38528894E+00</totfact>
</mgrwt>
</event>
<event>
12    7  0.1625631E-007  0.1828780E+04  0.7818608E-02  0.8691143E-01
         -1   -1    0    0    0  501 -0.00000000000E+00  0.00000000000E+00  0.91878836814E+03  0.91878836814E+03  0.00000000000E+00 0.  1.
          2   -1    0    0  501    0  0.00000000000E+00 -0.00000000000E+00 -0.91001221152E+03  0.91001221152E+03  0.00000000000E+00 0. -1.
         24    2    1    2    0    0  0.49373047941E+03 -0.97134783660E+02  0.47681244715E+03  0.69793405441E+03  0.80974576588E+02 0.  0.
        254    2    1    2    0    0 -0.49373047941E+03  0.97134783660E+02 -0.46803629052E+03  0.11308665252E+04  0.89810699596E+03 0.  0.
         23    2    4    4    0    0 -0.58924813262E+01 -0.23235043674E+02 -0.59662258425E+03  0.60415595549E+03  0.92039784446E+02 0.  0.
         23    2    4    4    0    0 -0.48783799808E+03  0.12036982733E+03  0.12858629373E+03  0.52671056976E+03  0.91732118990E+02 0.  0.
          2    1    3    3  502    0  0.62243948555E+02 -0.40047375727E+02  0.59725487012E+02  0.95106441597E+02  0.00000000000E+00 0. -1.
         -1    1    3    3    0  502  0.43148653086E+03 -0.57087407932E+02  0.41708696013E+03  0.60282761281E+03  0.00000000000E+00 0.  1.
         13    1    5    5    0    0  0.34795591673E+02 -0.78536326196E+01 -0.44471304515E+03  0.44614135123E+03  0.00000000000E+00 0.  1.
        -13    1    5    5    0    0 -0.40688072999E+02 -0.15381411054E+02 -0.15190953910E+03  0.15801460426E+03  0.00000000000E+00 0. -1.
          1    1    6    6  503    0 -0.47527972220E+03  0.11997474581E+03  0.13994395639E+03  0.50977354276E+03  0.00000000000E+00 0. -1.
         -1    1    6    6    0  503 -0.12558275883E+02  0.39508152768E+00 -0.11357662659E+02  0.16937027001E+02  0.00000000000E+00 0.  1.
<mgrwt>
<rscale>  0 0.18287795E+04</rscale>
<asrwt>0</asrwt>
<pdfrwt beam="1">  1        2 0.14000188E+00 0.18287795E+04</pdfrwt>
<pdfrwt beam="2">  1       -1 0.14135206E+00 0.18287795E+04</pdfrwt>
<totfact> 0.12682914E+01</totfact>
</mgrwt>
</event>
<event>
12    7  0.1625631E-007  0.1328569E+04  0.7818608E-02  0.9007211E-01
         -1   -1    0    0    0  501 -0.00000000000E+00  0.00000000000E+00  0.39305563858E+03  0.39305563858E+03  0.00000000000E+00 0.  1.
          2   -1    0    0  501    0  0.00000000000E+00 -0.00000000000E+00 -0.11226757369E+04  0.11226757369E+04  0.00000000000E+00 0. -1.
         24    2    1    2    0    0 -0.15014294052E+03  0.16121819864E+03  0.12289756221E+03  0.26443002299E+03  0.79279354839E+02 0.  0.
        254    2    1    2    0    0  0.15014294052E+03 -0.16121819864E+03 -0.85251766053E+03  0.12513013525E+04  0.88906383522E+03 0.  0.
         23    2    4    4    0    0 -0.23859591766E+03 -0.26023414189E+03 -0.75057878203E+02  0.37169918612E+03  0.88751221701E+02 0.  0.
         23    2    4    4    0    0  0.38873885817E+03  0.99015943255E+02 -0.77745978233E+03  0.87960216638E+03  0.91291845675E+02 0.  0.
          4    1    3    3  502    0 -0.86069955374E+01  0.27633711220E+01  0.32153507129E+02  0.33400069054E+02  0.00000000000E+00 0. -1.
         -3    1    3    3    0  502 -0.14153594498E+03  0.15845482751E+03  0.90744055080E+02  0.23102995394E+03  0.00000000000E+00 0.  1.
         13    1    5    5    0    0 -0.19332213975E+03 -0.24207133412E+03 -0.41663618898E+02  0.31258252936E+03  0.00000000000E+00 0. -1.
        -13    1    5    5    0    0 -0.45273777906E+02 -0.18162807769E+02 -0.33394259305E+02  0.59116656760E+02  0.00000000000E+00 0.  1.
          4    1    6    6  503    0  0.32281966333E+03  0.75599064758E+02 -0.70397485320E+03  0.77814416889E+03  0.00000000000E+00 0. -1.
         -4    1    6    6    0  503  0.65919194841E+02  0.23416878497E+02 -0.73484929127E+02  0.10145799750E+03  0.00000000000E+00 0.  1.
<mgrwt>
<rscale>  0 0.13285692E+04</rscale>
<asrwt>0</asrwt>
<pdfrwt beam="1">  1        2 0.17271934E+00 0.13285692E+04</pdfrwt>
<pdfrwt beam="2">  1       -1 0.60470098E-01 0.13285692E+04</pdfrwt>
<totfact> 0.65269333E+01</totfact>
</mgrwt>
</event>
<event>
12    7  0.1625631E-007  0.2309810E+04  0.7818608E-02  0.8474063E-01
         -1   -1    0    0    0  501 -0.00000000000E+00  0.00000000000E+00  0.82000190989E+03  0.82000190989E+03  0.00000000000E+00 0.  1.
          2   -1    0    0  501    0  0.00000000000E+00 -0.00000000000E+00 -0.16265877528E+04  0.16265877528E+04  0.00000000000E+00 0. -1.
         24    2    1    2    0    0 -0.58552568413E+02 -0.63758405478E+02 -0.13722356046E+04  0.13772265818E+04  0.78923795206E+02 0.  0.
        254    2    1    2    0    0  0.58552568413E+02  0.63758405478E+02  0.56564976167E+03  0.10693630809E+04  0.90337379222E+03 0.  0.
         23    2    4    4    0    0 -0.13058930388E+03  0.28922561344E+03  0.66762345671E+03  0.74599338931E+03  0.10039937841E+03 0.  0.
         23    2    4    4    0    0  0.18914187229E+03 -0.22546720796E+03 -0.10197369504E+03  0.32336969164E+03  0.86943736250E+02 0.  0.
          4    1    3    3  502    0 -0.56009636118E+02 -0.23385693600E+02 -0.11306163873E+04  0.11322444017E+04  0.00000000000E+00 0. -1.
         -3    1    3    3    0  502 -0.25429322949E+01 -0.40372711878E+02 -0.24161921733E+03  0.24498218007E+03  0.00000000000E+00 0.  1.
         13    1    5    5    0    0 -0.11071583102E+03  0.12589235967E+03  0.36031491403E+03  0.39740875523E+03  0.00000000000E+00 0. -1.
        -13    1    5    5    0    0 -0.19873472860E+02  0.16333325377E+03  0.30730854268E+03  0.34858463408E+03  0.00000000000E+00 0.  1.
          1    1    6    6  503    0  0.22904718631E+02  0.19942553262E+01 -0.18559545902E+02  0.29547587616E+02  0.00000000000E+00 0. -1.
         -1    1    6    6    0  503  0.16623715366E+03 -0.22746146328E+03 -0.83414149138E+02  0.29382210402E+03  0.00000000000E+00 0.  1.
<mgrwt>
<rscale>  0 0.23098096E+04</rscale>
<asrwt>0</asrwt>
<pdfrwt beam="1">  1        2 0.25024427E+00 0.23098096E+04</pdfrwt>
<pdfrwt beam="2">  1       -1 0.12615414E+00 0.23098096E+04</pdfrwt>
<totfact> 0.60806696E+00</totfact>
</mgrwt>
</event>
<event>
12    7  0.1625631E-007  0.4517725E+04  0.7818608E-02  0.7907541E-01
          2   -1    0    0  501    0  0.00000000000E+00  0.00000000000E+00  0.24555925850E+04  0.24555925850E+04  0.00000000000E+00 0. -1.
         -1   -1    0    0    0  501 -0.00000000000E+00 -0.00000000000E+00 -0.20778933893E+04  0.20778933893E+04  0.00000000000E+00 0.  1.
         24    2    1    2    0    0  0.14451912618E+04  0.13364830807E+04 -0.73498376474E+03  0.21027792089E+04  0.81941799914E+02 0.  0.
        254    2    1    2    0    0 -0.14451912618E+04 -0.13364830807E+04  0.11126829605E+04  0.24307067654E+04  0.89191210361E+03 0.  0.
         23    2    4    4    0    0 -0.13592907835E+04 -0.14226590604E+04  0.89107331091E+03  0.21619280243E+04  0.91054381891E+02 0.  0.
         23    2    4    4    0    0 -0.85900478336E+02  0.86175979743E+02  0.22160964957E+03  0.26877874111E+03  0.91246825843E+02 0.  0.
          4    1    3    3  502    0  0.25469216211E+03  0.19438864307E+03 -0.12029384929E+03  0.34223625198E+03  0.00000000000E+00 0. -1.
         -3    1    3    3    0  502  0.11904990997E+04  0.11420944376E+04 -0.61468991545E+03  0.17605429569E+04  0.00000000000E+00 0.  1.
         13    1    5    5    0    0 -0.12601867547E+04 -0.13384117004E+04  0.81167024209E+03  0.20095335574E+04  0.00000000000E+00 0.  1.
        -13    1    5    5    0    0 -0.99104028771E+02 -0.84247360051E+02  0.79403068820E+02  0.15239446687E+03  0.00000000000E+00 0. -1.
          3    1    6    6  503    0 -0.34716094449E+02  0.18499828345E+01  0.11420635958E+02  0.36593176632E+02  0.00000000000E+00 0. -1.
         -3    1    6    6    0  503 -0.51184383887E+02  0.84325996908E+02  0.21018901361E+03  0.23218556448E+03  0.00000000000E+00 0.  1.
<mgrwt>
<rscale>  0 0.45177249E+04</rscale>
<asrwt>0</asrwt>
<pdfrwt beam="1">  1        2 0.37778348E+00 0.45177249E+04</pdfrwt>
<pdfrwt beam="2">  1       -1 0.31967590E+00 0.45177249E+04</pdfrwt>
<totfact> 0.78159268E-02</totfact>
</mgrwt>
</event>
<event>
12    7  0.1625631E-007  0.1267859E+04  0.7818608E-02  0.9055449E-01
         -1   -1    0    0    0  501 -0.00000000000E+00  0.00000000000E+00  0.25487550705E+03  0.25487550705E+03  0.00000000000E+00 0.  1.
          2   -1    0    0  501    0  0.00000000000E+00 -0.00000000000E+00 -0.15767169512E+04  0.15767169512E+04  0.00000000000E+00 0. -1.
         24    2    1    2    0    0 -0.18336249086E+03  0.24145000750E+03 -0.37349157281E+03  0.48762034738E+03  0.79735431551E+02 0.  0.
        254    2    1    2    0    0  0.18336249086E+03 -0.24145000750E+03 -0.94834987131E+03  0.13439721108E+04  0.90275890864E+03 0.  0.
         23    2    4    4    0    0 -0.14409626260E+03 -0.38430644776E+03 -0.87087312491E+03  0.96703477314E+03  0.91000407076E+02 0.  0.
         23    2    4    4    0    0  0.32745875347E+03  0.14285644027E+03 -0.77476746404E+02  0.37693733770E+03  0.91879881224E+02 0.  0.
          2    1    3    3  502    0 -0.18221450622E+03  0.19568247789E+03 -0.32649606665E+03  0.42201118465E+03  0.00000000000E+00 0. -1.
         -1    1    3    3    0  502 -0.11479846399E+01  0.45767529611E+02 -0.46995506161E+02  0.65609162735E+02  0.00000000000E+00 0.  1.
         13    1    5    5    0    0 -0.67237920627E+02 -0.17178416282E+03 -0.49742155336E+03  0.53052703825E+03  0.00000000000E+00 0. -1.
        -13    1    5    5    0    0 -0.76858341975E+02 -0.21252228494E+03 -0.37345157155E+03  0.43650773489E+03  0.00000000000E+00 0.  1.
          1    1    6    6  503    0  0.13178965099E+03  0.87662510391E+02  0.29313998827E+01  0.15830925729E+03  0.00000000000E+00 0. -1.
         -1    1    6    6    0  503  0.19566910247E+03  0.55193929875E+02 -0.80408146287E+02  0.21862808042E+03  0.00000000000E+00 0.  1.
<mgrwt>
<rscale>  0 0.12678589E+04</rscale>
<asrwt>0</asrwt>
<pdfrwt beam="1">  1        2 0.24257183E+00 0.12678589E+04</pdfrwt>
<pdfrwt beam="2">  1       -1 0.39211617E-01 0.12678589E+04</pdfrwt>
<totfact> 0.81224914E+01</totfact>
</mgrwt>
</event>
<event>
12    7  0.1625631E-007  0.1328755E+04  0.7818608E-02  0.9007068E-01
          2   -1    0    0  501    0  0.00000000000E+00  0.00000000000E+00  0.47919957552E+03  0.47919957552E+03  0.00000000000E+00 0. -1.
         -1   -1    0    0    0  501 -0.00000000000E+00 -0.00000000000E+00 -0.92111380098E+03  0.92111380098E+03  0.00000000000E+00 0.  1.
         24    2    1    2    0    0  0.20551510407E+03 -0.64768105212E+02 -0.40096467786E+03  0.46236476113E+03  0.81099531398E+02 0.  0.
        254    2    1    2    0    0 -0.20551510407E+03  0.64768105212E+02 -0.40949547606E+02  0.93794861537E+03  0.91194263755E+03 0.  0.
         23    2    4    4    0    0 -0.11213205572E+03  0.41484921004E+03 -0.25416953359E+03  0.50777942618E+03  0.92543659200E+02 0.  0.
         23    2    4    4    0    0 -0.93383048348E+02 -0.35008110483E+03  0.21321998599E+03  0.43016918919E+03  0.91135038424E+02 0.  0.
          4    1    3    3  502    0  0.91278737319E+02 -0.25822993772E+02 -0.26014542017E+03  0.27690119994E+03  0.00000000000E+00 0. -1.
         -3    1    3    3    0  502  0.11423636675E+03 -0.38945111440E+02 -0.14081925769E+03  0.18546356119E+03  0.00000000000E+00 0.  1.
         13    1    5    5    0    0 -0.26316013613E+01  0.87956183653E+02 -0.17782439070E+02  0.89774332121E+02  0.00000000000E+00 0.  1.
        -13    1    5    5    0    0 -0.10950045436E+03  0.32689302638E+03 -0.23638709452E+03  0.41800509406E+03  0.00000000000E+00 0. -1.
          1    1    6    6  503    0 -0.20860466404E+02 -0.16857839476E+03  0.14441716304E+03  0.22295773415E+03  0.00000000000E+00 0. -1.
         -1    1    6    6    0  503 -0.72522581944E+02 -0.18150271006E+03  0.68802822950E+02  0.20721145504E+03  0.00000000000E+00 0.  1.
<mgrwt>
<rscale>  0 0.13287548E+04</rscale>
<asrwt>0</asrwt>
<pdfrwt beam="1">  1        2 0.73723013E-01 0.13287548E+04</pdfrwt>
<pdfrwt beam="2">  1       -1 0.14170981E+00 0.13287548E+04</pdfrwt>
<totfact> 0.29390203E+01</totfact>
</mgrwt>
</event>
<event>
12    7  0.1625631E-007  0.1710243E+04  0.7818608E-02  0.8755544E-01
         -1   -1    0    0    0  501 -0.00000000000E+00  0.00000000000E+00  0.40767061110E+03  0.40767061110E+03  0.00000000000E+00 0.  1.
          2   -1    0    0  501    0  0.00000000000E+00 -0.00000000000E+00 -0.17936845069E+04  0.17936845069E+04  0.00000000000E+00 0. -1.
         24    2    1    2    0    0  0.42501329897E+03  0.36998115283E+03 -0.18108051849E+03  0.59724985482E+03  0.79967975820E+02 0.  0.
        254    2    1    2    0    0 -0.42501329897E+03 -0.36998115283E+03 -0.12049333773E+04  0.16041052632E+04  0.89653047569E+03 0.  0.
         23    2    4    4    0    0 -0.51587046273E+03 -0.17976319820E+03 -0.22549930343E+03  0.59768270533E+03  0.89092865387E+02 0.  0.
         23    2    4    4    0    0  0.90857163760E+02 -0.19021795463E+03 -0.97943407390E+03  0.10064225579E+04  0.95694124059E+02 0.  0.
          2    1    3    3  502    0  0.13047617024E+03  0.85567531912E+02 -0.20197562423E+02  0.15733332465E+03  0.00000000000E+00 0. -1.
         -1    1    3    3    0  502  0.29453712873E+03  0.28441362092E+03 -0.16088295606E+03  0.43991653017E+03  0.00000000000E+00 0.  1.
         13    1    5    5    0    0 -0.25831832030E+03 -0.11305833829E+03 -0.74012507550E+02  0.29152768948E+03  0.00000000000E+00 0. -1.
        -13    1    5    5    0    0 -0.25755214243E+03 -0.66704859906E+02 -0.15148679588E+03  0.30615501585E+03  0.00000000000E+00 0.  1.
          1    1    6    6  503    0  0.72233822805E+02 -0.16820876309E+03 -0.63716372526E+03  0.66294006209E+03  0.00000000000E+00 0.  1.
         -1    1    6    6    0  503  0.18623340954E+02 -0.22009191540E+02 -0.34227034864E+03  0.34348249577E+03  0.00000000000E+00 0. -1.
<mgrwt>
<rscale>  0 0.17102426E+04</rscale>
<asrwt>0</asrwt>
<pdfrwt beam="1">  1        2 0.27595146E+00 0.17102426E+04</pdfrwt>
<pdfrwt beam="2">  1       -1 0.62718555E-01 0.17102426E+04</pdfrwt>
<totfact> 0.24290723E+01</totfact>
</mgrwt>
</event>
<event>
12    7  0.1625631E-007  0.2703986E+04  0.7818608E-02  0.8333713E-01
         -1   -1    0    0    0  501 -0.00000000000E+00  0.00000000000E+00  0.22047032273E+04  0.22047032273E+04  0.00000000000E+00 0.  1.
          2   -1    0    0  501    0  0.00000000000E+00 -0.00000000000E+00 -0.82908412967E+03  0.82908412967E+03  0.00000000000E+00 0. -1.
         24    2    1    2    0    0 -0.72769072003E+03  0.22762467847E+03  0.16384428705E+04  0.18089888073E+04  0.81232300056E+02 0.  0.
        254    2    1    2    0    0  0.72769072003E+03 -0.22762467847E+03 -0.26282377288E+03  0.12247985497E+04  0.92179627549E+03 0.  0.
         23    2    4    4    0    0  0.34936147706E+03 -0.22493593458E+03 -0.58276450273E+03  0.72123479021E+03  0.88969324225E+02 0.  0.
         23    2    4    4    0    0  0.37832924297E+03 -0.26887438883E+01  0.31994072984E+03  0.50356375950E+03  0.89856239832E+02 0.  0.
          2    1    3    3  502    0 -0.62363419984E+02  0.25259858015E+02  0.98312118146E+02  0.11913240178E+03  0.00000000000E+00 0. -1.
         -1    1    3    3    0  502 -0.66532730005E+03  0.20236482045E+03  0.15401307524E+04  0.16898564055E+04  0.00000000000E+00 0.  1.
         13    1    5    5    0    0  0.46271998926E+02 -0.44747476248E+02 -0.46405222740E+02  0.79352877785E+02  0.00000000000E+00 0. -1.
        -13    1    5    5    0    0  0.30308947814E+03 -0.18018845833E+03 -0.53635927999E+03  0.64188191243E+03  0.00000000000E+00 0.  1.
          1    1    6    6  503    0  0.57148309111E+02  0.28368820782E+02  0.33363787847E+02  0.71999038648E+02  0.00000000000E+00 0. -1.
         -1    1    6    6    0  503  0.32118093386E+03 -0.31057564670E+02  0.28657694200E+03  0.43156472085E+03  0.00000000000E+00 0.  1.
<mgrwt>
<rscale>  0 0.27039855E+04</rscale>
<asrwt>0</asrwt>
<pdfrwt beam="1">  1        2 0.12755141E+00 0.27039855E+04</pdfrwt>
<pdfrwt beam="2">  1       -1 0.33918511E+00 0.27039855E+04</pdfrwt>
<totfact> 0.60146689E-01</totfact>
</mgrwt>
</event>
<event>
12    7  0.1625631E-007  0.3024097E+04  0.7818608E-02  0.8236883E-01
         -1   -1    0    0    0  501 -0.00000000000E+00  0.00000000000E+00  0.84986026641E+03  0.84986026641E+03  0.00000000000E+00 0.  1.
          2   -1    0    0  501    0  0.00000000000E+00 -0.00000000000E+00 -0.26901962014E+04  0.26901962014E+04  0.00000000000E+00 0. -1.
         24    2    1    2    0    0 -0.45951130736E+03 -0.11325375385E+04 -0.15823251412E+04  0.20009982595E+04  0.80307311649E+02 0.  0.
        254    2    1    2    0    0  0.45951130736E+03  0.11325375385E+04 -0.25801079376E+03  0.15390582083E+04  0.89907657141E+03 0.  0.
         23    2    4    4    0    0  0.16415079623E+03  0.86302038407E+03  0.21868411937E+03  0.91040324018E+03  0.96237458591E+02 0.  0.
         23    2    4    4    0    0  0.29536051113E+03  0.26951715441E+03 -0.47669491314E+03  0.62865496815E+03  0.89953881024E+02 0.  0.
          4    1    3    3  502    0 -0.34710492414E+03 -0.93780190654E+03 -0.12877509448E+04  0.16304161249E+04  0.00000000000E+00 0. -1.
         -3    1    3    3    0  502 -0.11240638322E+03 -0.19473563193E+03 -0.29457419640E+03  0.37058213464E+03  0.00000000000E+00 0.  1.
         13    1    5    5    0    0  0.14719693990E+03  0.54984760659E+03  0.12118636186E+03  0.58196689243E+03  0.00000000000E+00 0.  1.
        -13    1    5    5    0    0  0.16953856331E+02  0.31317277748E+03  0.97497757514E+02  0.32843634774E+03  0.00000000000E+00 0. -1.
          2    1    6    6  503    0  0.30486118076E+02  0.12364751920E+02 -0.81323942185E+02  0.87726130987E+02  0.00000000000E+00 0.  1.
         -2    1    6    6    0  503  0.26487439305E+03  0.25715240249E+03 -0.39537097095E+03  0.54092883716E+03  0.00000000000E+00 0. -1.
<mgrwt>
<rscale>  0 0.30240971E+04</rscale>
<asrwt>0</asrwt>
<pdfrwt beam="1">  1        2 0.41387633E+00 0.30240971E+04</pdfrwt>
<pdfrwt beam="2">  1       -1 0.13074774E+00 0.30240971E+04</pdfrwt>
<totfact> 0.13055586E+00</totfact>
</mgrwt>
</event>
<event>
12    7  0.1625631E-007  0.1383778E+04  0.7818608E-02  0.8965645E-01
          2   -1    0    0  501    0  0.00000000000E+00  0.00000000000E+00  0.10479486124E+04  0.10479486124E+04  0.00000000000E+00 0. -1.
         -1   -1    0    0    0  501 -0.00000000000E+00 -0.00000000000E+00 -0.45680739417E+03  0.45680739417E+03  0.00000000000E+00 0.  1.
         24    2    1    2    0    0 -0.24065186184E+03  0.43846904711E+02  0.50744401399E+03  0.56869629463E+03  0.77975499526E+02 0.  0.
        254    2    1    2    0    0  0.24065186184E+03 -0.43846904711E+02  0.83697204286E+02  0.93605971199E+03  0.89964809384E+03 0.  0.
         23    2    4    4    0    0 -0.70224628456E+02 -0.27199713046E+03  0.35035214870E+03  0.45833184665E+03  0.91692508575E+02 0.  0.
         23    2    4    4    0    0  0.31087649030E+03  0.22815022575E+03 -0.26665494442E+03  0.47772786535E+03  0.91773287076E+02 0.  0.
          4    1    3    3  502    0 -0.23666752338E+03  0.48097547392E+02  0.44783787247E+03  0.50880610325E+03  0.00000000000E+00 0. -1.
         -3    1    3    3    0  502 -0.39843384674E+01 -0.42506426808E+01  0.59606141520E+02  0.59890191377E+02  0.00000000000E+00 0.  1.
         13    1    5    5    0    0 -0.70363397406E+02 -0.94227435250E+02  0.13281646219E+03  0.17739794214E+03  0.00000000000E+00 0.  1.
        -13    1    5    5    0    0  0.13876895022E+00 -0.17776969521E+03  0.21753568651E+03  0.28093390450E+03  0.00000000000E+00 0. -1.
          3    1    6    6  503    0  0.19356144371E+03  0.18374796953E+03 -0.21226412841E+03  0.34100646476E+03  0.00000000000E+00 0. -1.
         -3    1    6    6    0  503  0.11731504659E+03  0.44402256217E+02 -0.54390816003E+02  0.13672140059E+03  0.00000000000E+00 0.  1.
<mgrwt>
<rscale>  0 0.13837784E+04</rscale>
<asrwt>0</asrwt>
<pdfrwt beam="1">  1        2 0.16122286E+00 0.13837784E+04</pdfrwt>
<pdfrwt beam="2">  1       -1 0.70278061E-01 0.13837784E+04</pdfrwt>
<totfact> 0.53414676E+01</totfact>
</mgrwt>
</event>
<event>
12    7  0.1625631E-007  0.1621022E+04  0.7818608E-02  0.8807736E-01
          2   -1    0    0  501    0  0.00000000000E+00  0.00000000000E+00  0.14568846591E+04  0.14568846591E+04  0.00000000000E+00 0. -1.
         -1   -1    0    0    0  501 -0.00000000000E+00 -0.00000000000E+00 -0.45091304927E+03  0.45091304927E+03  0.00000000000E+00 0.  1.
         24    2    1    2    0    0  0.28250964502E+03  0.32291481196E+03  0.73291815522E+03  0.85298094808E+03  0.79509749253E+02 0.  0.
        254    2    1    2    0    0 -0.28250964502E+03 -0.32291481196E+03  0.27305345464E+03  0.10548167603E+04  0.92411824647E+03 0.  0.
         23    2    4    4    0    0 -0.15377629958E+03  0.31232996336E+03  0.13577608833E+03  0.38590400476E+03  0.96382562754E+02 0.  0.
         23    2    4    4    0    0 -0.12873334544E+03 -0.63524477532E+03  0.13727736631E+03  0.66891275557E+03  0.92146624778E+02 0.  0.
          4    1    3    3  502    0  0.58863377914E+02  0.49527045463E+02  0.19326745170E+03  0.20801474318E+03  0.00000000000E+00 0. -1.
         -3    1    3    3    0  502  0.22364626710E+03  0.27338776650E+03  0.53965070352E+03  0.64496620490E+03  0.00000000000E+00 0.  1.
         13    1    5    5    0    0 -0.70437734026E+02  0.21332298693E+03  0.12231958437E+03  0.25579337726E+03  0.00000000000E+00 0. -1.
        -13    1    5    5    0    0 -0.83338565552E+02  0.99006976422E+02  0.13456503955E+02  0.13011062750E+03  0.00000000000E+00 0.  1.
          2    1    6    6  503    0 -0.80319414065E+02 -0.53857829553E+03  0.94646042034E+02  0.55269852719E+03  0.00000000000E+00 0. -1.
         -2    1    6    6    0  503 -0.48413931374E+02 -0.96666479794E+02  0.42631324278E+02  0.11621422837E+03  0.00000000000E+00 0.  1.
<mgrwt>
<rscale>  0 0.16210223E+04</rscale>
<asrwt>0</asrwt>
<pdfrwt beam="1">  1        2 0.22413610E+00 0.16210223E+04</pdfrwt>
<pdfrwt beam="2">  1       -1 0.69371239E-01 0.16210223E+04</pdfrwt>
<totfact> 0.30794072E+01</totfact>
</mgrwt>
</event>
<event>
12    7  0.1625631E-007  0.2055104E+04  0.7818608E-02  0.8581283E-01
          2   -1    0    0  501    0  0.00000000000E+00  0.00000000000E+00  0.19842344910E+04  0.19842344910E+04  0.00000000000E+00 0. -1.
         -1   -1    0    0    0  501 -0.00000000000E+00 -0.00000000000E+00 -0.53212596146E+03  0.53212596146E+03  0.00000000000E+00 0.  1.
         24    2    1    2    0    0  0.28031799793E+03  0.46508298030E+03  0.13611631050E+04  0.14676917634E+04  0.80459650927E+02 0.  0.
        254    2    1    2    0    0 -0.28031799793E+03 -0.46508298030E+03  0.90945424513E+02  0.10486686890E+04  0.89249907036E+03 0.  0.
         23    2    4    4    0    0 -0.33395739088E+02 -0.45232273848E+03 -0.31933918127E+03  0.56219630793E+03  0.91520712498E+02 0.  0.
         23    2    4    4    0    0 -0.24692225884E+03 -0.12760241817E+02  0.41028460578E+03  0.48647238110E+03  0.84784987758E+02 0.  0.
          4    1    3    3  502    0  0.22173678086E+03  0.40238582546E+03  0.12031059069E+04  0.12878452453E+04  0.00000000000E+00 0. -1.
         -3    1    3    3    0  502  0.58581217068E+02  0.62697154836E+02  0.15805719809E+03  0.17984651814E+03  0.00000000000E+00 0.  1.
         13    1    5    5    0    0 -0.25841918577E+02 -0.45305177335E+03 -0.31881959665E+03  0.55458962242E+03  0.00000000000E+00 0.  1.
        -13    1    5    5    0    0 -0.75538205117E+01  0.72903487172E+00 -0.51958462334E+00  0.76066855034E+01  0.00000000000E+00 0. -1.
          3    1    6    6  503    0 -0.28739050901E+01 -0.16093872629E+01  0.56143529023E+02  0.56240068536E+02  0.00000000000E+00 0. -1.
         -3    1    6    6    0  503 -0.24404835375E+03 -0.11150854554E+02  0.35414107676E+03  0.43023231257E+03  0.00000000000E+00 0.  1.
<mgrwt>
<rscale>  0 0.20551036E+04</rscale>
<asrwt>0</asrwt>
<pdfrwt beam="1">  1        2 0.30526684E+00 0.20551036E+04</pdfrwt>
<pdfrwt beam="2">  1       -1 0.81865534E-01 0.20551036E+04</pdfrwt>
<totfact> 0.10658815E+01</totfact>
</mgrwt>
</event>
<event>
12    7  0.1625631E-007  0.2217251E+04  0.7818608E-02  0.8511282E-01
          2   -1    0    0  501    0  0.00000000000E+00  0.00000000000E+00  0.20987900008E+04  0.20987900008E+04  0.00000000000E+00 0. -1.
         -1   -1    0    0    0  501 -0.00000000000E+00 -0.00000000000E+00 -0.58559954241E+03  0.58559954241E+03  0.00000000000E+00 0.  1.
         24    2    1    2    0    0 -0.16588358838E+03 -0.19985428838E+03  0.16673081449E+04  0.16892402359E+04  0.78466701044E+02 0.  0.
        254    2    1    2    0    0  0.16588358838E+03  0.19985428838E+03 -0.15411768652E+03  0.99514930727E+03  0.94821452266E+03 0.  0.
         23    2    4    4    0    0  0.17363660407E+03 -0.29798726243E+03  0.16919878377E+03  0.39522075883E+03  0.92871636854E+02 0.  0.
         23    2    4    4    0    0 -0.77530156883E+01  0.49784155081E+03 -0.32331647029E+03  0.59992854845E+03  0.86454637336E+02 0.  0.
          4    1    3    3  502    0 -0.16924916961E+03 -0.18590578951E+03  0.14643023993E+04  0.14857280237E+04  0.00000000000E+00 0. -1.
         -3    1    3    3    0  502  0.33655812282E+01 -0.13948498862E+02  0.20300574563E+03  0.20351221221E+03  0.00000000000E+00 0.  1.
         13    1    5    5    0    0  0.85054354214E+02 -0.94228738181E+02  0.10276137147E+03  0.16331931220E+03  0.00000000000E+00 0. -1.
        -13    1    5    5    0    0  0.88582249858E+02 -0.20375852425E+03  0.66437412296E+02  0.23190144663E+03  0.00000000000E+00 0.  1.
          4    1    6    6  503    0 -0.94816151512E+01  0.38045463656E+03 -0.28821905279E+03  0.47739486162E+03  0.00000000000E+00 0. -1.
         -4    1    6    6    0  503  0.17285994630E+01  0.11738691425E+03 -0.35097417496E+02  0.12253368683E+03  0.00000000000E+00 0.  1.
<mgrwt>
<rscale>  0 0.22172510E+04</rscale>
<asrwt>0</asrwt>
<pdfrwt beam="1">  1        2 0.32289077E+00 0.22172510E+04</pdfrwt>
<pdfrwt beam="2">  1       -1 0.90092238E-01 0.22172510E+04</pdfrwt>
<totfact> 0.73673201E+00</totfact>
</mgrwt>
</event>
<event>
12    7  0.1625631E-007  0.2197687E+04  0.7818608E-02  0.8519391E-01
         -1   -1    0    0    0  501 -0.00000000000E+00  0.00000000000E+00  0.78716626154E+03  0.78716626154E+03  0.00000000000E+00 0.  1.
          2   -1    0    0  501    0  0.00000000000E+00 -0.00000000000E+00 -0.15339295331E+04  0.15339295331E+04  0.00000000000E+00 0. -1.
         24    2    1    2    0    0  0.35261433636E+02  0.89367341051E+03 -0.52390793404E+03  0.10395026349E+04  0.78680818671E+02 0.  0.
        254    2    1    2    0    0 -0.35261433636E+02 -0.89367341051E+03 -0.22285533755E+03  0.12815931598E+04  0.89046111223E+03 0.  0.
         23    2    4    4    0    0 -0.33189514391E+03 -0.72643954260E+03 -0.38953924403E+03  0.89337123177E+03  0.92209215980E+02 0.  0.
         23    2    4    4    0    0  0.29663371027E+03 -0.16723386792E+03  0.16668390648E+03  0.38822192802E+03  0.83510574606E+02 0.  0.
          2    1    3    3  502    0  0.16316556628E+02  0.38620880839E+03 -0.27182293198E+03  0.47255812346E+03  0.00000000000E+00 0. -1.
         -1    1    3    3    0  502  0.18944877008E+02  0.50746460213E+03 -0.25208500206E+03  0.56694451143E+03  0.00000000000E+00 0.  1.
         13    1    5    5    0    0 -0.18944816533E+03 -0.39507489342E+03 -0.16323143313E+03  0.46756740639E+03  0.00000000000E+00 0. -1.
        -13    1    5    5    0    0 -0.14244697858E+03 -0.33136464917E+03 -0.22630781090E+03  0.42580382537E+03  0.00000000000E+00 0.  1.
          3    1    6    6  503    0  0.32226638410E+02  0.63637270165E+01  0.58089741168E+01  0.33358618452E+02  0.00000000000E+00 0. -1.
         -3    1    6    6    0  503  0.26440707186E+03 -0.17359759493E+03  0.16087493237E+03  0.35486330957E+03  0.00000000000E+00 0.  1.
<mgrwt>
<rscale>  0 0.21976875E+04</rscale>
<asrwt>0</asrwt>
<pdfrwt beam="1">  1        2 0.23598916E+00 0.21976875E+04</pdfrwt>
<pdfrwt beam="2">  1       -1 0.12110250E+00 0.21976875E+04</pdfrwt>
<totfact> 0.76571977E+00</totfact>
</mgrwt>
</event>
<event>
12    7  0.1625631E-007  0.1781454E+04  0.7818608E-02  0.8716225E-01
         -1   -1    0    0    0  501 -0.00000000000E+00  0.00000000000E+00  0.11133300641E+04  0.11133300641E+04  0.00000000000E+00 0.  1.
          2   -1    0    0  501    0  0.00000000000E+00 -0.00000000000E+00 -0.71263181832E+03  0.71263181832E+03  0.00000000000E+00 0. -1.
         24    2    1    2    0    0 -0.29058399185E+03  0.59562277741E+03  0.12381998880E+03  0.67892379600E+03  0.80003636497E+02 0.  0.
        254    2    1    2    0    0  0.29058399185E+03 -0.59562277741E+03  0.27687825700E+03  0.11470380864E+04  0.89433173557E+03 0.  0.
         23    2    4    4    0    0 -0.17334994570E+03 -0.25655863110E+03 -0.21252259605E+03  0.38659652165E+03  0.91752285282E+02 0.  0.
         23    2    4    4    0    0  0.46393393755E+03 -0.33906414631E+03  0.48940085305E+03  0.76044156479E+03  0.92514781385E+02 0.  0.
          2    1    3    3  502    0 -0.29562661703E+03  0.58268586843E+03  0.12392818639E+03  0.66503842998E+03  0.00000000000E+00 0. -1.
         -1    1    3    3    0  502  0.50426251837E+01  0.12936908984E+02 -0.10819758579E+00  0.13885366020E+02  0.00000000000E+00 0.  1.
         13    1    5    5    0    0 -0.58121016784E+02 -0.62112175946E+02 -0.10826468033E+03  0.13768520618E+03  0.00000000000E+00 0. -1.
        -13    1    5    5    0    0 -0.11522892891E+03 -0.19444645515E+03 -0.10425791572E+03  0.24891131547E+03  0.00000000000E+00 0.  1.
          2    1    6    6  503    0  0.72947512127E+02 -0.97663539276E+02  0.88565119562E+02  0.15067609907E+03  0.00000000000E+00 0. -1.
         -2    1    6    6    0  503  0.39098642542E+03 -0.24140060704E+03  0.40083573349E+03  0.60976546572E+03  0.00000000000E+00 0.  1.
<mgrwt>
<rscale>  0 0.17814538E+04</rscale>
<asrwt>0</asrwt>
<pdfrwt beam="1">  1        2 0.10963566E+00 0.17814538E+04</pdfrwt>
<pdfrwt beam="2">  1       -1 0.17128155E+00 0.17814538E+04</pdfrwt>
<totfact> 0.10410393E+01</totfact>
</mgrwt>
</event>
<event>
12    7  0.1625631E-007  0.1850980E+04  0.7818608E-02  0.8679649E-01
          2   -1    0    0  501    0  0.00000000000E+00  0.00000000000E+00  0.99404571933E+03  0.99404571933E+03  0.00000000000E+00 0. -1.
         -1   -1    0    0    0  501 -0.00000000000E+00 -0.00000000000E+00 -0.86166269593E+03  0.86166269593E+03  0.00000000000E+00 0.  1.
         24    2    1    2    0    0  0.31050745875E+03  0.51768022173E+03 -0.31738270478E+03  0.68630333235E+03  0.76634122902E+02 0.  0.
        254    2    1    2    0    0 -0.31050745875E+03 -0.51768022173E+03  0.44976572818E+03  0.11694050829E+04  0.89488063102E+03 0.  0.
         23    2    4    4    0    0 -0.60303058067E+03 -0.24066547453E+03  0.19578800044E+03  0.68452837668E+03  0.93168693870E+02 0.  0.
         23    2    4    4    0    0  0.29252312192E+03 -0.27701474720E+03  0.25397772774E+03  0.48487670623E+03  0.91070231305E+02 0.  0.
          4    1    3    3  502    0  0.11233609330E+03  0.16833398315E+03 -0.67787281642E+02  0.21342643532E+03  0.00000000000E+00 0. -1.
         -3    1    3    3    0  502  0.19817136545E+03  0.34934623857E+03 -0.24959542314E+03  0.47287689703E+03  0.00000000000E+00 0.  1.
         13    1    5    5    0    0 -0.19632609524E+03 -0.11736352007E+03  0.95521918000E+02  0.24787611489E+03  0.00000000000E+00 0.  1.
        -13    1    5    5    0    0 -0.40670448543E+03 -0.12330195446E+03  0.10026608244E+03  0.43665226179E+03  0.00000000000E+00 0. -1.
          4    1    6    6  503    0 -0.34093125125E+01 -0.59627178127E+01  0.18157224688E+02  0.19412939599E+02  0.00000000000E+00 0. -1.
         -4    1    6    6    0  503  0.29593243443E+03 -0.27105202939E+03  0.23582050305E+03  0.46546376663E+03  0.00000000000E+00 0.  1.
<mgrwt>
<rscale>  0 0.18509804E+04</rscale>
<asrwt>0</asrwt>
<pdfrwt beam="1">  1        2 0.15293011E+00 0.18509804E+04</pdfrwt>
<pdfrwt beam="2">  1       -1 0.13256349E+00 0.18509804E+04</pdfrwt>
<totfact> 0.13156627E+01</totfact>
</mgrwt>
</event>
<event>
12    7  0.1625631E-007  0.1457535E+04  0.7818608E-02  0.8913193E-01
         -1   -1    0    0    0  501 -0.00000000000E+00  0.00000000000E+00  0.86446573712E+03  0.86446573712E+03  0.00000000000E+00 0.  1.
          2   -1    0    0  501    0  0.00000000000E+00 -0.00000000000E+00 -0.61437045602E+03  0.61437045602E+03  0.00000000000E+00 0. -1.
         24    2    1    2    0    0  0.13698326620E+03 -0.35679944191E+03 -0.15689678515E+03  0.42101708337E+03  0.81046445510E+02 0.  0.
        254    2    1    2    0    0 -0.13698326620E+03  0.35679944191E+03  0.40699206624E+03  0.10578191098E+04  0.89848120183E+03 0.  0.
         23    2    4    4    0    0  0.16251258881E+03 -0.15378061428E+03 -0.11332122431E+03  0.26454300197E+03  0.84157478336E+02 0.  0.
         23    2    4    4    0    0 -0.29949585501E+03  0.51058005620E+03  0.52031329055E+03  0.79327610780E+03  0.90395253864E+02 0.  0.
          4    1    3    3  502    0  0.62779629226E+02 -0.22285962606E+03 -0.13005943375E+03  0.26556195338E+03  0.00000000000E+00 0. -1.
         -3    1    3    3    0  502  0.74203636977E+02 -0.13393981585E+03 -0.26837351399E+02  0.15545512999E+03  0.00000000000E+00 0.  1.
         13    1    5    5    0    0  0.23263222156E+02  0.80784248182E+01 -0.50238545796E+01  0.25133196523E+02  0.00000000000E+00 0. -1.
        -13    1    5    5    0    0  0.13924936665E+03 -0.16185903910E+03 -0.10829736973E+03  0.23940980545E+03  0.00000000000E+00 0.  1.
          3    1    6    6  503    0 -0.29119567711E+03  0.50013309007E+03  0.48350945054E+03  0.75412825097E+03  0.00000000000E+00 0.  1.
         -3    1    6    6    0  503 -0.83001779018E+01  0.10446966126E+02  0.36803840012E+02  0.39147856826E+02  0.00000000000E+00 0. -1.
<mgrwt>
<rscale>  0 0.14575352E+04</rscale>
<asrwt>0</asrwt>
<pdfrwt beam="1">  1        2 0.94518532E-01 0.14575352E+04</pdfrwt>
<pdfrwt beam="2">  1       -1 0.13299473E+00 0.14575352E+04</pdfrwt>
<totfact> 0.25549991E+01</totfact>
</mgrwt>
</event>
<event>
12    7  0.1625631E-007  0.2015998E+04  0.7818608E-02  0.8599178E-01
         -1   -1    0    0    0  501 -0.00000000000E+00  0.00000000000E+00  0.84746340359E+03  0.84746340359E+03  0.00000000000E+00 0.  1.
          2   -1    0    0  501    0  0.00000000000E+00 -0.00000000000E+00 -0.11989444930E+04  0.11989444930E+04  0.00000000000E+00 0. -1.
         24    2    1    2    0    0  0.41464101724E+03  0.57477279995E+03  0.24369611981E+03  0.75371115594E+03  0.80011018173E+02 0.  0.
        254    2    1    2    0    0 -0.41464101724E+03 -0.57477279995E+03 -0.59517720924E+03  0.12926967407E+04  0.90251759440E+03 0.  0.
         23    2    4    4    0    0 -0.41708072707E+03 -0.79410879160E+03 -0.53403272128E+03  0.10474736701E+04  0.86284624762E+02 0.  0.
         23    2    4    4    0    0  0.24397098229E+01  0.21933599165E+03 -0.61144487951E+02  0.24522307052E+03  0.91002618054E+02 0.  0.
          2    1    3    3  502    0  0.41248180127E+03  0.55116485805E+03  0.22765186195E+03  0.72508572415E+03  0.00000000000E+00 0. -1.
         -3    1    3    3    0  502  0.21592159775E+01  0.23607941903E+02  0.16044257856E+02  0.28625431782E+02  0.00000000000E+00 0.  1.
         13    1    5    5    0    0 -0.34458219256E+02 -0.94881467408E+02 -0.89025511883E+02  0.13459347495E+03  0.00000000000E+00 0.  1.
        -13    1    5    5    0    0 -0.38262250781E+03 -0.69922732419E+03 -0.44500720940E+03  0.91288019520E+03  0.00000000000E+00 0. -1.
          3    1    6    6  503    0 -0.27562761005E+02  0.18357078141E+03 -0.27442611373E+02  0.18764603514E+03  0.00000000000E+00 0. -1.
         -3    1    6    6    0  503  0.30002470828E+02  0.35765210234E+02 -0.33701876578E+02  0.57577035385E+02  0.00000000000E+00 0.  1.
<mgrwt>
<rscale>  0 0.20159976E+04</rscale>
<asrwt>0</asrwt>
<pdfrwt beam="1">  1        2 0.18445300E+00 0.20159976E+04</pdfrwt>
<pdfrwt beam="2">  1       -1 0.13037899E+00 0.20159976E+04</pdfrwt>
<totfact> 0.10102828E+01</totfact>
</mgrwt>
</event>
<event>
12    7  0.1625631E-007  0.2208457E+04  0.7818608E-02  0.8514916E-01
         -1   -1    0    0    0  501 -0.00000000000E+00  0.00000000000E+00  0.13392394773E+04  0.13392394773E+04  0.00000000000E+00 0.  1.
          2   -1    0    0  501    0  0.00000000000E+00 -0.00000000000E+00 -0.91045775937E+03  0.91045775937E+03  0.00000000000E+00 0. -1.
         24    2    1    2    0    0 -0.66552113382E+03 -0.53624442419E+03  0.52493879186E+03  0.10063103500E+04  0.81383802665E+02 0.  0.
        254    2    1    2    0    0  0.66552113382E+03  0.53624442419E+03 -0.96157073898E+02  0.12433868867E+04  0.89793557957E+03 0.  0.
         23    2    4    4    0    0  0.54724815667E+03 -0.92740271765E+02 -0.18147650454E+03  0.59101679905E+03  0.91026545972E+02 0.  0.
         23    2    4    4    0    0  0.11827297715E+03  0.62898469595E+03  0.85319430639E+02  0.65237008763E+03  0.93258142354E+02 0.  0.
          4    1    3    3  502    0 -0.41767530850E+03 -0.34106513900E+03  0.37643387494E+03  0.65763253765E+03  0.00000000000E+00 0. -1.
         -3    1    3    3    0  502 -0.24784582532E+03 -0.19517928519E+03  0.14850491692E+03  0.34867781238E+03  0.00000000000E+00 0.  1.
         13    1    5    5    0    0  0.31963134945E+03 -0.92106284277E+02 -0.81904123485E+02  0.34257269681E+03  0.00000000000E+00 0.  1.
        -13    1    5    5    0    0  0.22761680722E+03 -0.63398748812E+00 -0.99572381052E+02  0.24844410224E+03  0.00000000000E+00 0. -1.
          3    1    6    6  503    0  0.18756389472E+02  0.21471749809E+02  0.16460918639E+02  0.32921118273E+02  0.00000000000E+00 0. -1.
         -3    1    6    6    0  503  0.99516587679E+02  0.60751294615E+03  0.68858512000E+02  0.61944896935E+03  0.00000000000E+00 0.  1.
<mgrwt>
<rscale>  0 0.22084574E+04</rscale>
<asrwt>0</asrwt>
<pdfrwt beam="1">  1        2 0.14007042E+00 0.22084574E+04</pdfrwt>
<pdfrwt beam="2">  1       -1 0.20603684E+00 0.22084574E+04</pdfrwt>
<totfact> 0.41115605E+00</totfact>
</mgrwt>
</event>
<event>
12    7  0.1625631E-007  0.1006006E+04  0.7818608E-02  0.9301982E-01
         -3   -1    0    0    0  501 -0.00000000000E+00  0.00000000000E+00  0.12647918903E+03  0.12647918903E+03  0.00000000000E+00 0.  1.
          4   -1    0    0  501    0  0.00000000000E+00 -0.00000000000E+00 -0.20004244532E+04  0.20004244532E+04  0.00000000000E+00 0. -1.
         24    2    1    2    0    0 -0.12372714887E+02  0.67973531100E+02 -0.23460705527E+03  0.25637789530E+03  0.76913391629E+02 0.  0.
        254    2    1    2    0    0  0.12372714887E+02 -0.67973531100E+02 -0.16393382089E+04  0.18705257470E+04  0.89814437691E+03 0.  0.
         23    2    4    4    0    0 -0.16149326484E+03  0.61948347974E+01 -0.16502152669E+04  0.16606951161E+04  0.92625003254E+02 0.  0.
         23    2    4    4    0    0  0.17386597973E+03 -0.74168365898E+02  0.10877057937E+02  0.20983063081E+03  0.90444777798E+02 0.  0.
          2    1    3    3  502    0 -0.11587475146E+00 -0.11946909443E+02 -0.89251985463E+02  0.90048092602E+02  0.00000000000E+00 0. -1.
         -1    1    3    3    0  502 -0.12256840135E+02  0.79920440543E+02 -0.14535506981E+03  0.16632980270E+03  0.00000000000E+00 0.  1.
         13    1    5    5    0    0 -0.10843165317E+03 -0.12743058470E+02 -0.13983404242E+04  0.14025960755E+04  0.00000000000E+00 0. -1.
        -13    1    5    5    0    0 -0.53061611668E+02  0.18937893267E+02 -0.25187484266E+03  0.25809904068E+03  0.00000000000E+00 0.  1.
          1    1    6    6  503    0  0.11263604052E+03 -0.15017379269E+02  0.39050011984E+02  0.12015532755E+03  0.00000000000E+00 0. -1.
         -1    1    6    6    0  503  0.61229939211E+02 -0.59150986629E+02 -0.28172954046E+02  0.89675303259E+02  0.00000000000E+00 0.  1.
<mgrwt>
<rscale>  0 0.10060061E+04</rscale>
<asrwt>0</asrwt>
<pdfrwt beam="1">  1        4 0.30775761E+00 0.10060061E+04</pdfrwt>
<pdfrwt beam="2">  1       -3 0.19458337E-01 0.10060061E+04</pdfrwt>
<totfact> 0.15493445E+00</totfact>
</mgrwt>
</event>
<event>
12    7  0.1625631E-007  0.1833212E+04  0.7818608E-02  0.8688835E-01
          2   -1    0    0  501    0  0.00000000000E+00  0.00000000000E+00  0.61995290928E+03  0.61995290928E+03  0.00000000000E+00 0. -1.
         -1   -1    0    0    0  501 -0.00000000000E+00 -0.00000000000E+00 -0.13552100429E+04  0.13552100429E+04  0.00000000000E+00 0.  1.
         24    2    1    2    0    0  0.41130508565E+03 -0.12257987029E+03 -0.86654131850E+03  0.97026356539E+03  0.79497368397E+02 0.  0.
        254    2    1    2    0    0 -0.41130508565E+03  0.12257987029E+03  0.13128418485E+03  0.10048993868E+04  0.89910485615E+03 0.  0.
         23    2    4    4    0    0 -0.25491747376E+03  0.49177480352E+03  0.18542621808E+03  0.59005967820E+03  0.83439593019E+02 0.  0.
         23    2    4    4    0    0 -0.15638761188E+03 -0.36919493323E+03 -0.54142033230E+02  0.41483970861E+03  0.91644095345E+02 0.  0.
          4    1    3    3  502    0  0.45006142803E+02 -0.17441975182E+02 -0.51807570652E+02  0.70808189958E+02  0.00000000000E+00 0. -1.
         -3    1    3    3    0  502  0.36629894284E+03 -0.10513789511E+03 -0.81473374785E+03  0.89945537543E+03  0.00000000000E+00 0.  1.
         13    1    5    5    0    0 -0.88497264923E+01  0.40628523325E+02  0.35695823251E+02  0.54801335422E+02  0.00000000000E+00 0.  1.
        -13    1    5    5    0    0 -0.24606774727E+03  0.45114628020E+03  0.14973039483E+03  0.53525834278E+03  0.00000000000E+00 0. -1.
          2    1    6    6  503    0  0.78224751086E+01 -0.59697202105E+01  0.62705904839E+01  0.11668289559E+02  0.00000000000E+00 0.  1.
         -2    1    6    6    0  503 -0.16421008699E+03 -0.36322521301E+03 -0.60412623714E+02  0.40317141906E+03  0.00000000000E+00 0. -1.
<mgrwt>
<rscale>  0 0.18332118E+04</rscale>
<asrwt>0</asrwt>
<pdfrwt beam="1">  1        2 0.95377371E-01 0.18332118E+04</pdfrwt>
<pdfrwt beam="2">  1       -1 0.20849385E+00 0.18332118E+04</pdfrwt>
<totfact> 0.67450068E+00</totfact>
</mgrwt>
</event>
<event>
12    7  0.1625631E-007  0.1175435E+04  0.7818608E-02  0.9134634E-01
          2   -1    0    0  501    0  0.00000000000E+00  0.00000000000E+00  0.16433885377E+03  0.16433885377E+03  0.00000000000E+00 0. -1.
         -1   -1    0    0    0  501 -0.00000000000E+00 -0.00000000000E+00 -0.21018260705E+04  0.21018260705E+04  0.00000000000E+00 0.  1.
         24    2    1    2    0    0 -0.21983960456E+03 -0.46425595471E+02 -0.45670459380E+03  0.51506960354E+03  0.78948228867E+02 0.  0.
        254    2    1    2    0    0  0.21983960456E+03  0.46425595471E+02 -0.14807826229E+04  0.17510953207E+04  0.90726669634E+03 0.  0.
         23    2    4    4    0    0  0.23560561299E+03 -0.18298463693E+03 -0.70698103536E+02  0.31957877324E+03  0.90216341295E+02 0.  0.
         23    2    4    4    0    0 -0.15766008431E+02  0.22941023240E+03 -0.14100845194E+04  0.14315165475E+04  0.89574841223E+02 0.  0.
          2    1    3    3  502    0 -0.29047148102E+02  0.12230077625E+02 -0.27933202376E+02  0.42113838658E+02  0.00000000000E+00 0. -1.
         -1    1    3    3    0  502 -0.19079245646E+03 -0.58655673096E+02 -0.42877139142E+03  0.47295576488E+03  0.00000000000E+00 0.  1.
         13    1    5    5    0    0 -0.18723646895E+01  0.42041664018E+01  0.60562914601E+01  0.76065386947E+01  0.00000000000E+00 0. -1.
        -13    1    5    5    0    0  0.23747797768E+03 -0.18718880333E+03 -0.76754394996E+02  0.31197223454E+03  0.00000000000E+00 0.  1.
          4    1    6    6  503    0  0.17870190176E+02  0.11818523297E+02 -0.62660135150E+02  0.66221701328E+02  0.00000000000E+00 0. -1.
         -4    1    6    6    0  503 -0.33636198606E+02  0.21759170910E+03 -0.13474243842E+04  0.13652948462E+04  0.00000000000E+00 0.  1.
<mgrwt>
<rscale>  0 0.11754347E+04</rscale>
<asrwt>0</asrwt>
<pdfrwt beam="1">  1        2 0.25282902E-01 0.11754347E+04</pdfrwt>
<pdfrwt beam="2">  1       -1 0.32335784E+00 0.11754347E+04</pdfrwt>
<totfact> 0.57723903E+00</totfact>
</mgrwt>
</event>
<event>
12    7  0.1625631E-007  0.1447277E+04  0.7818608E-02  0.8920290E-01
         -1   -1    0    0    0  501 -0.00000000000E+00  0.00000000000E+00  0.28387788181E+03  0.28387788181E+03  0.00000000000E+00 0.  1.
          2   -1    0    0  501    0  0.00000000000E+00 -0.00000000000E+00 -0.18446415223E+04  0.18446415223E+04  0.00000000000E+00 0. -1.
         24    2    1    2    0    0 -0.42923246474E+03 -0.21813918551E+02 -0.58351386012E+03  0.72917443555E+03  0.80564115360E+02 0.  0.
        254    2    1    2    0    0  0.42923246474E+03  0.21813918551E+02 -0.97724978033E+03  0.13993449685E+04  0.90467278723E+03 0.  0.
         23    2    4    4    0    0  0.61466804825E+03 -0.23016715826E+03 -0.75795825946E+03  0.10067509667E+04  0.90846329827E+02 0.  0.
         23    2    4    4    0    0 -0.18543558351E+03  0.25198107681E+03 -0.21929152087E+03  0.39259400180E+03  0.90335266757E+02 0.  0.
          2    1    3    3  502    0 -0.39130290634E+03 -0.10428641793E+02 -0.48675813206E+03  0.62462804948E+03  0.00000000000E+00 0. -1.
         -1    1    3    3    0  502 -0.37929558404E+02 -0.11385276758E+02 -0.96755728061E+02  0.10454638607E+03  0.00000000000E+00 0.  1.
         13    1    5    5    0    0  0.48592512946E+03 -0.16054805268E+03 -0.63532747094E+03  0.81580629073E+03  0.00000000000E+00 0.  1.
        -13    1    5    5    0    0  0.12874291879E+03 -0.69619105573E+02 -0.12263078852E+03  0.19094467600E+03  0.00000000000E+00 0. -1.
          1    1    6    6  503    0 -0.27504204854E+02  0.58001509430E+02 -0.91304461901E+02  0.11161165326E+03  0.00000000000E+00 0. -1.
         -1    1    6    6    0  503 -0.15793137866E+03  0.19397956738E+03 -0.12798705897E+03  0.28098234853E+03  0.00000000000E+00 0.  1.
<mgrwt>
<rscale>  0 0.14472773E+04</rscale>
<asrwt>0</asrwt>
<pdfrwt beam="1">  1        2 0.28379100E+00 0.14472773E+04</pdfrwt>
<pdfrwt beam="2">  1       -1 0.43673521E-01 0.14472773E+04</pdfrwt>
<totfact> 0.46642512E+01</totfact>
</mgrwt>
</event>
<event>
12    7  0.1625631E-007  0.1513749E+04  0.7818608E-02  0.8875361E-01
          2   -1    0    0  501    0  0.00000000000E+00  0.00000000000E+00  0.21585902939E+04  0.21585902939E+04  0.00000000000E+00 0. -1.
         -1   -1    0    0    0  501 -0.00000000000E+00 -0.00000000000E+00 -0.26538579949E+03  0.26538579949E+03  0.00000000000E+00 0.  1.
         24    2    1    2    0    0  0.47702808644E+02  0.67538644704E+02 -0.14818686929E+03  0.18717702176E+03  0.78986472038E+02 0.  0.
        254    2    1    2    0    0 -0.47702808644E+02 -0.67538644704E+02  0.20413913637E+04  0.22367990716E+04  0.91057913469E+03 0.  0.
         23    2    4    4    0    0 -0.20176737960E+03  0.16681129326E+03  0.13605042292E+03  0.30870245220E+03  0.90837235687E+02 0.  0.
         23    2    4    4    0    0  0.15406457096E+03 -0.23434993796E+03  0.19053409407E+04  0.19280966194E+04  0.92610408647E+02 0.  0.
          2    1    3    3  502    0  0.50442665221E+02  0.83641146756E+02 -0.12156148534E+03  0.15594068944E+03  0.00000000000E+00 0. -1.
         -1    1    3    3    0  502 -0.27398565767E+01 -0.16102502052E+02 -0.26625383955E+02  0.31236332326E+02  0.00000000000E+00 0.  1.
         13    1    5    5    0    0 -0.41632200351E+02  0.16816058213E+01  0.44961708584E+02  0.61299454672E+02  0.00000000000E+00 0. -1.
        -13    1    5    5    0    0 -0.16013517925E+03  0.16512968743E+03  0.91088714339E+02  0.24740299753E+03  0.00000000000E+00 0.  1.
          1    1    6    6  503    0  0.88939828919E+01  0.54070274444E+01  0.26604728769E+02  0.28568347351E+02  0.00000000000E+00 0. -1.
         -1    1    6    6    0  503  0.14517058807E+03 -0.23975696540E+03  0.18787362120E+04  0.18995282720E+04  0.00000000000E+00 0.  1.
<mgrwt>
<rscale>  0 0.15137493E+04</rscale>
<asrwt>0</asrwt>
<pdfrwt beam="1">  1        2 0.33209080E+00 0.15137493E+04</pdfrwt>
<pdfrwt beam="2">  1       -1 0.40828586E-01 0.15137493E+04</pdfrwt>
<totfact> 0.35163199E+01</totfact>
</mgrwt>
</event>
<event>
12    7  0.1625631E-007  0.1570378E+04  0.7818608E-02  0.8838955E-01
          2   -1    0    0  501    0  0.00000000000E+00  0.00000000000E+00  0.58982826039E+03  0.58982826039E+03  0.00000000000E+00 0. -1.
         -1   -1    0    0    0  501 -0.00000000000E+00 -0.00000000000E+00 -0.10452569647E+04  0.10452569647E+04  0.00000000000E+00 0.  1.
         24    2    1    2    0    0 -0.13551643416E+03 -0.12597884850E+03  0.35941317876E+03  0.41158685078E+03  0.77398504332E+02 0.  0.
        254    2    1    2    0    0  0.13551643416E+03  0.12597884850E+03 -0.81484188303E+03  0.12234983743E+04  0.89372568683E+03 0.  0.
         23    2    4    4    0    0  0.93044187377E+02  0.49107009669E+03 -0.60425895324E+03  0.78955614952E+03  0.91994402079E+02 0.  0.
         23    2    4    4    0    0  0.42472246780E+02 -0.36509124818E+03 -0.21058292979E+03  0.43394222475E+03  0.94155046878E+02 0.  0.
          4    1    3    3  502    0 -0.65752885947E+02 -0.22421581172E+02  0.18052611142E+03  0.19343176113E+03  0.00000000000E+00 0. -1.
         -3    1    3    3    0  502 -0.69763548210E+02 -0.10355726733E+03  0.17888706735E+03  0.21815508965E+03  0.00000000000E+00 0.  1.
         13    1    5    5    0    0  0.44943165793E+02  0.65879819282E+02 -0.81993017136E+02  0.11438047735E+03  0.00000000000E+00 0. -1.
        -13    1    5    5    0    0  0.48101021584E+02  0.42519027740E+03 -0.52226593611E+03  0.67517567217E+03  0.00000000000E+00 0.  1.
          4    1    6    6  503    0 -0.93028047751E+01 -0.55248695758E+02 -0.49815448853E+00  0.56028641939E+02  0.00000000000E+00 0. -1.
         -4    1    6    6    0  503  0.51775051555E+02 -0.30984255243E+03 -0.21008477530E+03  0.37791358281E+03  0.00000000000E+00 0.  1.
<mgrwt>
<rscale>  0 0.15703784E+04</rscale>
<asrwt>0</asrwt>
<pdfrwt beam="1">  1        2 0.90742810E-01 0.15703784E+04</pdfrwt>
<pdfrwt beam="2">  1       -1 0.16080876E+00 0.15703784E+04</pdfrwt>
<totfact> 0.16021950E+01</totfact>
</mgrwt>
</event>
<event>
12    7  0.1625631E-007  0.1946831E+04  0.7818608E-02  0.8631890E-01
         -1   -1    0    0    0  501 -0.00000000000E+00  0.00000000000E+00  0.93915935369E+03  0.93915935369E+03  0.00000000000E+00 0.  1.
          2   -1    0    0  501    0  0.00000000000E+00 -0.00000000000E+00 -0.10089210741E+04  0.10089210741E+04  0.00000000000E+00 0. -1.
         24    2    1    2    0    0  0.48761243957E+03 -0.49342993954E+03 -0.32272287713E+03  0.76986026873E+03  0.85415346937E+02 0.  0.
        254    2    1    2    0    0 -0.48761243957E+03  0.49342993954E+03  0.25296115676E+03  0.11782201590E+04  0.91813637321E+03 0.  0.
         23    2    4    4    0    0 -0.95807057032E+02  0.46818755994E+03 -0.23955794253E+03  0.54228729348E+03  0.91153263122E+02 0.  0.
         23    2    4    4    0    0 -0.39180538254E+03  0.25242379603E+02  0.49251909929E+03  0.63593286554E+03  0.87675029479E+02 0.  0.
          2    1    3    3  502    0  0.41395671075E+03 -0.42225465848E+03 -0.30690338767E+03  0.66621981684E+03  0.00000000000E+00 0. -1.
         -1    1    3    3    0  502  0.73655728825E+02 -0.71175281063E+02 -0.15819489455E+02  0.10364045190E+03  0.00000000000E+00 0.  1.
         13    1    5    5    0    0  0.17683091572E+02  0.55324714277E+02 -0.34304785548E+02  0.67456163905E+02  0.00000000000E+00 0. -1.
        -13    1    5    5    0    0 -0.11349014860E+03  0.41286284566E+03 -0.20525315698E+03  0.47483112957E+03  0.00000000000E+00 0.  1.
          1    1    6    6  503    0 -0.13957592683E+03  0.48889209983E+02  0.20416282280E+03  0.25209929079E+03  0.00000000000E+00 0. -1.
         -1    1    6    6    0  503 -0.25222945571E+03 -0.23646830381E+02  0.28835627649E+03  0.38383357475E+03  0.00000000000E+00 0.  1.
<mgrwt>
<rscale>  0 0.19468309E+04</rscale>
<asrwt>0</asrwt>
<pdfrwt beam="1">  1        2 0.15521863E+00 0.19468309E+04</pdfrwt>
<pdfrwt beam="2">  1       -1 0.14448605E+00 0.19468309E+04</pdfrwt>
<totfact> 0.10205716E+01</totfact>
</mgrwt>
</event>
<event>
12    7  0.1625631E-007  0.1598587E+04  0.7818608E-02  0.8821416E-01
          2   -1    0    0  501    0  0.00000000000E+00  0.00000000000E+00  0.11271744830E+04  0.11271744830E+04  0.00000000000E+00 0. -1.
         -1   -1    0    0    0  501 -0.00000000000E+00 -0.00000000000E+00 -0.56678906119E+03  0.56678906119E+03  0.00000000000E+00 0.  1.
         24    2    1    2    0    0  0.21202769714E+03 -0.24061082495E+03 -0.27002664204E+03  0.42659498150E+03  0.78864297306E+02 0.  0.
        254    2    1    2    0    0 -0.21202769714E+03  0.24061082495E+03  0.83041206383E+03  0.12673685627E+04  0.90210285692E+03 0.  0.
         23    2    4    4    0    0  0.19654165599E+03  0.27428038425E+03  0.14915794438E+02  0.35012951180E+03  0.92248806951E+02 0.  0.
         23    2    4    4    0    0 -0.40856935313E+03 -0.33669559295E+02  0.81549626939E+03  0.91723905088E+03  0.90723511420E+02 0.  0.
          2    1    3    3  502    0  0.36624260816E+02 -0.40657310286E+02 -0.12001264586E+02  0.56021279097E+02  0.00000000000E+00 0. -1.
         -1    1    3    3    0  502  0.17540343633E+03 -0.19995351467E+03 -0.25802537745E+03  0.37057370240E+03  0.00000000000E+00 0.  1.
         13    1    5    5    0    0  0.17851812058E+03  0.22240897167E+03 -0.18596799607E+02  0.28579767496E+03  0.00000000000E+00 0.  1.
        -13    1    5    5    0    0  0.18023535411E+02  0.51871412578E+02  0.33512594045E+02  0.64331836840E+02  0.00000000000E+00 0. -1.
          1    1    6    6  503    0 -0.23119803596E+03 -0.54024111179E+02  0.40256791388E+03  0.46736715942E+03  0.00000000000E+00 0. -1.
         -1    1    6    6    0  503 -0.17737131717E+03  0.20354551884E+02  0.41292835551E+03  0.44987189146E+03  0.00000000000E+00 0.  1.
<mgrwt>
<rscale>  0 0.15985871E+04</rscale>
<asrwt>0</asrwt>
<pdfrwt beam="1">  1        2 0.17341146E+00 0.15985871E+04</pdfrwt>
<pdfrwt beam="2">  1       -1 0.87198317E-01 0.15985871E+04</pdfrwt>
<totfact> 0.29697640E+01</totfact>
</mgrwt>
</event>
<event>
12    7  0.1625631E-007  0.1512431E+04  0.7818608E-02  0.8876229E-01
         -1   -1    0    0    0  501 -0.00000000000E+00  0.00000000000E+00  0.64737687102E+03  0.64737687102E+03  0.00000000000E+00 0.  1.
          2   -1    0    0  501    0  0.00000000000E+00 -0.00000000000E+00 -0.88335182911E+03  0.88335182911E+03  0.00000000000E+00 0. -1.
         24    2    1    2    0    0 -0.47926657569E+03 -0.68981551702E+02 -0.90887714753E+02  0.49907953180E+03  0.79780306611E+02 0.  0.
        254    2    1    2    0    0  0.47926657569E+03  0.68981551702E+02 -0.14508724334E+03  0.10316491683E+04  0.89933019147E+03 0.  0.
         23    2    4    4    0    0  0.20690864390E+03 -0.37945668268E+03 -0.22110424175E+03  0.49405307126E+03  0.91666736336E+02 0.  0.
         23    2    4    4    0    0  0.27235793179E+03  0.44843823439E+03  0.76016998411E+02  0.53759609707E+03  0.89192412626E+02 0.  0.
          2    1    3    3  502    0 -0.31017528875E+03 -0.61586638076E+02 -0.24173940440E+02  0.31715296488E+03  0.00000000000E+00 0. -1.
         -1    1    3    3    0  502 -0.16909128694E+03 -0.73949136254E+01 -0.66713774313E+02  0.18192656692E+03  0.00000000000E+00 0.  1.
         13    1    5    5    0    0  0.17908189269E+03 -0.25585523124E+03 -0.18198323654E+03  0.36145556023E+03  0.00000000000E+00 0.  1.
        -13    1    5    5    0    0  0.27826751204E+02 -0.12360145145E+03 -0.39121005211E+02  0.13259751103E+03  0.00000000000E+00 0. -1.
          3    1    6    6  503    0  0.13853580303E+03  0.30416048383E+03  0.30481908215E+02  0.33561125632E+03  0.00000000000E+00 0.  1.
         -3    1    6    6    0  503  0.13382212876E+03  0.14427775056E+03  0.45535090196E+02  0.20198484074E+03  0.00000000000E+00 0. -1.
<mgrwt>
<rscale>  0 0.15124306E+04</rscale>
<asrwt>0</asrwt>
<pdfrwt beam="1">  1        2 0.13590028E+00 0.15124306E+04</pdfrwt>
<pdfrwt beam="2">  1       -1 0.99596443E-01 0.15124306E+04</pdfrwt>
<totfact> 0.31909021E+01</totfact>
</mgrwt>
</event>
<event>
12    7  0.1625631E-007  0.2426162E+04  0.7818608E-02  0.8429773E-01
          2   -1    0    0  501    0  0.00000000000E+00  0.00000000000E+00  0.15136886851E+04  0.15136886851E+04  0.00000000000E+00 0. -1.
         -1   -1    0    0    0  501 -0.00000000000E+00 -0.00000000000E+00 -0.97217188287E+03  0.97217188287E+03  0.00000000000E+00 0.  1.
         24    2    1    2    0    0  0.52056760409E+03 -0.38371491902E+03 -0.61671443446E+03  0.89720064811E+03  0.80028368593E+02 0.  0.
        254    2    1    2    0    0 -0.52056760409E+03  0.38371491902E+03  0.11582312367E+04  0.15886599198E+04  0.87413555804E+03 0.  0.
         23    2    4    4    0    0 -0.74509416542E+03  0.25794089149E+03  0.71706714488E+03  0.10697790949E+04  0.92429447765E+02 0.  0.
         23    2    4    4    0    0  0.22452656133E+03  0.12577402753E+03  0.44116409179E+03  0.51888082493E+03  0.91543824793E+02 0.  0.
          2    1    3    3  502    0  0.57154728014E+02 -0.19320528761E+02 -0.39264924359E+02  0.71983887440E+02  0.00000000000E+00 0. -1.
         -1    1    3    3    0  502  0.46341287607E+03 -0.36439439026E+03 -0.57744951010E+03  0.82521676067E+03  0.00000000000E+00 0.  1.
         13    1    5    5    0    0 -0.43234185262E+02 -0.64197383059E+01  0.34519472638E+02  0.55695617479E+02  0.00000000000E+00 0.  1.
        -13    1    5    5    0    0 -0.70185998015E+03  0.26436062980E+03  0.68254767224E+03  0.10140834774E+04  0.00000000000E+00 0. -1.
          1    1    6    6  503    0  0.17968707182E+03  0.85635601686E+02  0.39742180751E+03  0.44448283785E+03  0.00000000000E+00 0. -1.
         -1    1    6    6    0  503  0.44839489508E+02  0.40138425845E+02  0.43742284275E+02  0.74397987085E+02  0.00000000000E+00 0.  1.
<mgrwt>
<rscale>  0 0.24261621E+04</rscale>
<asrwt>0</asrwt>
<pdfrwt beam="1">  1        2 0.23287518E+00 0.24261621E+04</pdfrwt>
<pdfrwt beam="2">  1       -1 0.14956491E+00 0.24261621E+04</pdfrwt>
<totfact> 0.44818239E+00</totfact>
</mgrwt>
</event>
<event>
12    7  0.1625631E-007  0.1448565E+04  0.7818608E-02  0.8919396E-01
         -1   -1    0    0    0  501 -0.00000000000E+00  0.00000000000E+00  0.66666115687E+03  0.66666115687E+03  0.00000000000E+00 0.  1.
          2   -1    0    0  501    0  0.00000000000E+00 -0.00000000000E+00 -0.78688467824E+03  0.78688467824E+03  0.00000000000E+00 0. -1.
         24    2    1    2    0    0  0.15869957864E+03  0.29616204493E+03  0.20004853008E+03  0.39914208960E+03  0.79984249621E+02 0.  0.
        254    2    1    2    0    0 -0.15869957864E+03 -0.29616204493E+03 -0.32027205145E+03  0.10544037455E+04  0.94672887275E+03 0.  0.
         23    2    4    4    0    0 -0.16348354224E+03 -0.30145131265E+03  0.27690675644E+03  0.45009003488E+03  0.91125875895E+02 0.  0.
         23    2    4    4    0    0  0.47839636089E+01  0.52892677214E+01 -0.59717880789E+03  0.60431371063E+03  0.92312889716E+02 0.  0.
          4    1    3    3  502    0  0.44546502041E+01 -0.16649683289E+01  0.15731022689E+02  0.16434144420E+02  0.00000000000E+00 0. -1.
         -1    1    3    3    0  502  0.15424492843E+03  0.29782701326E+03  0.18431750739E+03  0.38270794518E+03  0.00000000000E+00 0.  1.
         13    1    5    5    0    0 -0.51690760049E+02 -0.10147134983E+03  0.40457916475E+02  0.12085202736E+03  0.00000000000E+00 0.  1.
        -13    1    5    5    0    0 -0.11179278220E+03 -0.19997996282E+03  0.23644883996E+03  0.32923800753E+03  0.00000000000E+00 0. -1.
          3    1    6    6  503    0  0.46103671016E+01 -0.23672655040E+02 -0.53686536507E+03  0.53740680150E+03  0.00000000000E+00 0. -1.
         -3    1    6    6    0  503  0.17359650729E+00  0.28961922761E+02 -0.60313442812E+02  0.66906909132E+02  0.00000000000E+00 0.  1.
<mgrwt>
<rscale>  0 0.14485654E+04</rscale>
<asrwt>0</asrwt>
<pdfrwt beam="1">  1        2 0.12105918E+00 0.14485654E+04</pdfrwt>
<pdfrwt beam="2">  1       -1 0.10256325E+00 0.14485654E+04</pdfrwt>
<totfact> 0.35072002E+01</totfact>
</mgrwt>
</event>
<event>
12    7  0.1625631E-007  0.1390025E+04  0.7818608E-02  0.8961071E-01
         -1   -1    0    0    0  501 -0.00000000000E+00  0.00000000000E+00  0.16674902381E+04  0.16674902381E+04  0.00000000000E+00 0.  1.
          2   -1    0    0  501    0  0.00000000000E+00 -0.00000000000E+00 -0.28968209786E+03  0.28968209786E+03  0.00000000000E+00 0. -1.
         24    2    1    2    0    0 -0.11283340793E+01 -0.12541976716E+03  0.95771212065E+03  0.96899169032E+03  0.77466113440E+02 0.  0.
        254    2    1    2    0    0  0.11283340793E+01  0.12541976716E+03  0.42009601957E+03  0.98818064562E+03  0.88560088730E+03 0.  0.
         23    2    4    4    0    0 -0.15210210411E+03 -0.28243341219E+03 -0.54836819327E+02  0.33805821703E+03  0.91501906798E+02 0.  0.
         23    2    4    4    0    0  0.15323043819E+03  0.40785317935E+03  0.47493283890E+03  0.65012242860E+03  0.85288848059E+02 0.  0.
          4    1    3    3  502    0  0.32754405377E+02 -0.33683454333E+02  0.23104583650E+03  0.23577447854E+03  0.00000000000E+00 0. -1.
         -3    1    3    3    0  502 -0.33882739456E+02 -0.91736312828E+02  0.72666628415E+03  0.73321721178E+03  0.00000000000E+00 0.  1.
         13    1    5    5    0    0 -0.42958533900E+02 -0.17388607295E+03 -0.19936177552E+02  0.18022001325E+03  0.00000000000E+00 0. -1.
        -13    1    5    5    0    0 -0.10914357021E+03 -0.10854733924E+03 -0.34900641775E+02  0.15783820378E+03  0.00000000000E+00 0.  1.
          4    1    6    6  503    0  0.41150369945E+02  0.19034895987E+03  0.16501703879E+03  0.25525810969E+03  0.00000000000E+00 0. -1.
         -4    1    6    6    0  503  0.11208006824E+03  0.21750421949E+03  0.30991580011E+03  0.39486431891E+03  0.00000000000E+00 0.  1.
<mgrwt>
<rscale>  0 0.13900246E+04</rscale>
<asrwt>0</asrwt>
<pdfrwt beam="1">  1        2 0.44566478E-01 0.13900246E+04</pdfrwt>
<pdfrwt beam="2">  1       -1 0.25653695E+00 0.13900246E+04</pdfrwt>
<totfact> 0.80604141E+00</totfact>
</mgrwt>
</event>
<event>
12    7  0.1625631E-007  0.1799552E+04  0.7818608E-02  0.8706538E-01
          2   -1    0    0  501    0  0.00000000000E+00  0.00000000000E+00  0.13348255941E+04  0.13348255941E+04  0.00000000000E+00 0. -1.
         -1   -1    0    0    0  501 -0.00000000000E+00 -0.00000000000E+00 -0.60651886463E+03  0.60651886463E+03  0.00000000000E+00 0.  1.
         24    2    1    2    0    0  0.49875791309E+03 -0.44006342281E+03  0.30802033241E+03  0.73689631902E+03  0.75659684399E+02 0.  0.
        254    2    1    2    0    0 -0.49875791309E+03  0.44006342281E+03  0.42028639702E+03  0.12044481397E+04  0.91194264824E+03 0.  0.
         23    2    4    4    0    0 -0.25623117789E+03 -0.41589603358E+02 -0.22690545333E+03  0.35713404260E+03  0.93137146199E+02 0.  0.
         23    2    4    4    0    0 -0.24252673520E+03  0.48165302616E+03  0.64719185036E+03  0.84731409707E+03  0.90967208569E+02 0.  0.
          2    1    3    3  502    0  0.78888525892E+02 -0.47758071301E+02  0.21011201270E+02  0.94581729053E+02  0.00000000000E+00 0. -1.
         -1    1    3    3    0  502  0.41986938720E+03 -0.39230535151E+03  0.28700913114E+03  0.64231458997E+03  0.00000000000E+00 0.  1.
         13    1    5    5    0    0 -0.20802405312E+03 -0.66807856402E+02 -0.20098172057E+03  0.29686857085E+03  0.00000000000E+00 0.  1.
        -13    1    5    5    0    0 -0.48207124771E+02  0.25218253045E+02 -0.25923732757E+02  0.60265471751E+02  0.00000000000E+00 0. -1.
          1    1    6    6  503    0 -0.69281976153E+02  0.62450639235E+02  0.10761715087E+03  0.14241322172E+03  0.00000000000E+00 0. -1.
         -1    1    6    6    0  503 -0.17324475904E+03  0.41920238693E+03  0.53957469949E+03  0.70490087535E+03  0.00000000000E+00 0.  1.
<mgrwt>
<rscale>  0 0.17995521E+04</rscale>
<asrwt>0</asrwt>
<pdfrwt beam="1">  1        2 0.20535778E+00 0.17995521E+04</pdfrwt>
<pdfrwt beam="2">  1       -1 0.93310595E-01 0.17995521E+04</pdfrwt>
<totfact> 0.18928615E+01</totfact>
</mgrwt>
</event>
<event>
12    7  0.1625631E-007  0.1811312E+04  0.7818608E-02  0.8700307E-01
          2   -1    0    0  501    0  0.00000000000E+00  0.00000000000E+00  0.12505971121E+04  0.12505971121E+04  0.00000000000E+00 0. -1.
         -1   -1    0    0    0  501 -0.00000000000E+00 -0.00000000000E+00 -0.65585712561E+03  0.65585712561E+03  0.00000000000E+00 0.  1.
         24    2    1    2    0    0 -0.14275001565E+02  0.18562485268E+03  0.91505146493E+03  0.93709324608E+03  0.78512462575E+02 0.  0.
        254    2    1    2    0    0  0.14275001565E+02 -0.18562485268E+03 -0.32031147841E+03  0.96936099166E+03  0.89576834469E+03 0.  0.
         23    2    4    4    0    0 -0.40604792765E+03 -0.10277280008E+03 -0.42071878944E+01  0.42895092247E+03  0.92433897861E+02 0.  0.
         23    2    4    4    0    0  0.42032292922E+03 -0.82852052603E+02 -0.31610429051E+03  0.54041006919E+03  0.92656855934E+02 0.  0.
          2    1    3    3  502    0 -0.14203201779E+02  0.76449200325E+02  0.21603898764E+03  0.22960630513E+03  0.00000000000E+00 0. -1.
         -1    1    3    3    0  502 -0.71799786217E-01  0.10917565235E+03  0.69901247728E+03  0.70748694095E+03  0.00000000000E+00 0.  1.
         13    1    5    5    0    0 -0.42347479602E+02 -0.36191227037E+02 -0.19147560789E+02  0.58904524675E+02  0.00000000000E+00 0. -1.
        -13    1    5    5    0    0 -0.36370044805E+03 -0.66581573038E+02  0.14940372894E+02  0.37004639780E+03  0.00000000000E+00 0.  1.
          3    1    6    6  503    0  0.64117801667E+02  0.20397815700E+02 -0.43282984427E+02  0.80003625648E+02  0.00000000000E+00 0. -1.
         -3    1    6    6    0  503  0.35620512755E+03 -0.10324986830E+03 -0.27282130609E+03  0.46040644354E+03  0.00000000000E+00 0.  1.
<mgrwt>
<rscale>  0 0.18113123E+04</rscale>
<asrwt>0</asrwt>
<pdfrwt beam="1">  1        2 0.19239956E+00 0.18113123E+04</pdfrwt>
<pdfrwt beam="2">  1       -1 0.10090110E+00 0.18113123E+04</pdfrwt>
<totfact> 0.17746388E+01</totfact>
</mgrwt>
</event>
<event>
12    7  0.1625631E-007  0.1505841E+04  0.7818608E-02  0.8880578E-01
          2   -1    0    0  501    0  0.00000000000E+00  0.00000000000E+00  0.18192872431E+04  0.18192872431E+04  0.00000000000E+00 0. -1.
         -1   -1    0    0    0  501 -0.00000000000E+00 -0.00000000000E+00 -0.31159955628E+03  0.31159955628E+03  0.00000000000E+00 0.  1.
         24    2    1    2    0    0  0.43855027462E+02 -0.46588979041E+03  0.58453617566E+03  0.75359969589E+03  0.85166899378E+02 0.  0.
        254    2    1    2    0    0 -0.43855027462E+02  0.46588979041E+03  0.92315151112E+03  0.13772871034E+04  0.90869934114E+03 0.  0.
         23    2    4    4    0    0 -0.28227101235E+03  0.39905400765E+03  0.92065091231E+02  0.50528888109E+03  0.88993521644E+02 0.  0.
         23    2    4    4    0    0  0.23841598489E+03  0.66835782756E+02  0.83108641989E+03  0.87199822235E+03  0.91471628106E+02 0.  0.
          4    1    3    3  502    0  0.12916297216E+02 -0.33579435385E+03  0.46846433119E+03  0.57652710987E+03  0.00000000000E+00 0. -1.
         -3    1    3    3    0  502  0.30938730246E+02 -0.13009543656E+03  0.11607184447E+03  0.17707258603E+03  0.00000000000E+00 0.  1.
         13    1    5    5    0    0 -0.12903498672E+03  0.25833330641E+03  0.55583745119E+02  0.29406747138E+03  0.00000000000E+00 0. -1.
        -13    1    5    5    0    0 -0.15323602563E+03  0.14072070124E+03  0.36481346112E+02  0.21122140972E+03  0.00000000000E+00 0.  1.
          1    1    6    6  503    0  0.35264443947E+02  0.47473533969E+02  0.21552367652E+03  0.22348998317E+03  0.00000000000E+00 0. -1.
         -1    1    6    6    0  503  0.20315154094E+03  0.19362248787E+02  0.61556274336E+03  0.64850823918E+03  0.00000000000E+00 0.  1.
<mgrwt>
<rscale>  0 0.15058408E+04</rscale>
<asrwt>0</asrwt>
<pdfrwt beam="1">  1        2 0.27989034E+00 0.15058408E+04</pdfrwt>
<pdfrwt beam="2">  1       -1 0.47938394E-01 0.15058408E+04</pdfrwt>
<totfact> 0.40273504E+01</totfact>
</mgrwt>
</event>
<event>
12    7  0.1625631E-007  0.2676561E+04  0.7818608E-02  0.8342650E-01
         -3   -1    0    0    0  501 -0.00000000000E+00  0.00000000000E+00  0.95673199329E+03  0.95673199329E+03  0.00000000000E+00 0.  1.
          2   -1    0    0  501    0  0.00000000000E+00 -0.00000000000E+00 -0.18719920411E+04  0.18719920411E+04  0.00000000000E+00 0. -1.
         24    2    1    2    0    0 -0.32005569650E+03 -0.45483944233E+03  0.70054987976E+03  0.89809679367E+03  0.80580081899E+02 0.  0.
        254    2    1    2    0    0  0.32005569650E+03  0.45483944233E+03 -0.16158099276E+04  0.19306272407E+04  0.89842376048E+03 0.  0.
         23    2    4    4    0    0  0.29782557562E+03  0.10413261161E+03 -0.61085861021E+02  0.33394552076E+03  0.90798976444E+02 0.  0.
         23    2    4    4    0    0  0.22230120881E+02  0.35070683072E+03 -0.15547240665E+04  0.15966817200E+04  0.93467279585E+02 0.  0.
          2    1    3    3  502    0 -0.75954941150E+02 -0.65686448171E+02  0.97038234432E+02  0.13964340837E+03  0.00000000000E+00 0. -1.
         -1    1    3    3    0  502 -0.24410075535E+03 -0.38915299416E+03  0.60351164533E+03  0.75845338530E+03  0.00000000000E+00 0.  1.
         13    1    5    5    0    0  0.18216935962E+03  0.24892789649E+02 -0.61098357533E+02  0.19374812478E+03  0.00000000000E+00 0.  1.
        -13    1    5    5    0    0  0.11565621600E+03  0.79239821962E+02  0.12496511482E-01  0.14019739598E+03  0.00000000000E+00 0. -1.
          4    1    6    6  503    0  0.52786189524E+02  0.29806101231E+03 -0.12835678055E+04  0.13187771079E+04  0.00000000000E+00 0. -1.
         -4    1    6    6    0  503 -0.30556068643E+02  0.52645818418E+02 -0.27115626100E+03  0.27790461206E+03  0.00000000000E+00 0.  1.
<mgrwt>
<rscale>  0 0.26765610E+04</rscale>
<asrwt>0</asrwt>
<pdfrwt beam="1">  1        2 0.28799877E+00 0.26765610E+04</pdfrwt>
<pdfrwt beam="2">  1       -3 0.14718954E+00 0.26765610E+04</pdfrwt>
<totfact> 0.14875099E+00</totfact>
</mgrwt>
</event>
<event>
12    7  0.1625631E-007  0.1197462E+04  0.7818608E-02  0.9115081E-01
          2   -1    0    0  501    0  0.00000000000E+00  0.00000000000E+00  0.47195403837E+04  0.47195403837E+04  0.00000000000E+00 0. -1.
         -1   -1    0    0    0  501 -0.00000000000E+00 -0.00000000000E+00 -0.75956247190E+02  0.75956247190E+02  0.00000000000E+00 0.  1.
         24    2    1    2    0    0 -0.22205540100E+03  0.56998570584E+02  0.64012509599E+03  0.68484882532E+03  0.81855585419E+02 0.  0.
        254    2    1    2    0    0  0.22205540100E+03 -0.56998570584E+02  0.40034590405E+04  0.41106478056E+04  0.90398210942E+03 0.  0.
         23    2    4    4    0    0 -0.30012429682E+03  0.13148836510E+03  0.20416191660E+04  0.20697460659E+04  0.90973484402E+02 0.  0.
         23    2    4    4    0    0  0.52217969782E+03 -0.18848693569E+03  0.19618398745E+04  0.20409017396E+04  0.90913452020E+02 0.  0.
          2    1    3    3  502    0 -0.13983375014E+03  0.66359542434E+02  0.48402333758E+03  0.50816892652E+03  0.00000000000E+00 0. -1.
         -3    1    3    3    0  502 -0.82221650857E+02 -0.93609718501E+01  0.15610175840E+03  0.17667989880E+03  0.00000000000E+00 0.  1.
         13    1    5    5    0    0 -0.58739861781E+02  0.61601339477E+02  0.65910534497E+03  0.66457877799E+03  0.00000000000E+00 0. -1.
        -13    1    5    5    0    0 -0.24138443504E+03  0.69887025626E+02  0.13825138210E+04  0.14051672879E+04  0.00000000000E+00 0.  1.
          2    1    6    6  503    0  0.16602502184E+03 -0.81815031594E+02  0.52226229963E+03  0.55409017036E+03  0.00000000000E+00 0. -1.
         -2    1    6    6    0  503  0.35615467598E+03 -0.10667190409E+03  0.14395775749E+04  0.14868115693E+04  0.00000000000E+00 0.  1.
<mgrwt>
<rscale>  0 0.11974616E+04</rscale>
<asrwt>0</asrwt>
<pdfrwt beam="1">  1        2 0.72608291E+00 0.11974616E+04</pdfrwt>
<pdfrwt beam="2">  1       -1 0.11685580E-01 0.11974616E+04</pdfrwt>
<totfact> 0.43254203E+00</totfact>
</mgrwt>
</event>
<event>
12    7  0.1625631E-007  0.1689360E+04  0.7818608E-02  0.8767456E-01
         -1   -1    0    0    0  501 -0.00000000000E+00  0.00000000000E+00  0.45169112529E+03  0.45169112529E+03  0.00000000000E+00 0.  1.
          2   -1    0    0  501    0  0.00000000000E+00 -0.00000000000E+00 -0.15795851110E+04  0.15795851110E+04  0.00000000000E+00 0. -1.
         24    2    1    2    0    0 -0.21839964229E+03  0.12287703295E+03  0.24975378733E+03  0.36308862909E+03  0.81604101073E+02 0.  0.
        254    2    1    2    0    0  0.21839964229E+03 -0.12287703295E+03 -0.13776477730E+04  0.16681876072E+04  0.90671899577E+03 0.  0.
         23    2    4    4    0    0  0.40739314378E+03  0.90063906781E+02 -0.12853110599E+04  0.13548577059E+04  0.97643236776E+02 0.  0.
         23    2    4    4    0    0 -0.18899350149E+03 -0.21294093974E+03 -0.92336713132E+02  0.31332990128E+03  0.92666989921E+02 0.  0.
          4    1    3    3  502    0 -0.12820061036E+03  0.59032949526E+02  0.85167011105E+02  0.16484448856E+03  0.00000000000E+00 0. -1.
         -3    1    3    3    0  502 -0.90199031926E+02  0.63844083429E+02  0.16458677622E+03  0.19824414054E+03  0.00000000000E+00 0.  1.
         13    1    5    5    0    0  0.40753658584E+03  0.78443858821E+02 -0.12663157292E+04  0.13325895969E+04  0.00000000000E+00 0.  1.
        -13    1    5    5    0    0 -0.14344206143E+00  0.11620047960E+02 -0.18995330679E+02  0.22268108986E+02  0.00000000000E+00 0. -1.
          4    1    6    6  503    0 -0.47490504539E+02 -0.12270919329E+03 -0.39131964246E+02  0.13727419556E+03  0.00000000000E+00 0. -1.
         -4    1    6    6    0  503 -0.14150299695E+03 -0.90231746442E+02 -0.53204748886E+02  0.17605570572E+03  0.00000000000E+00 0.  1.
<mgrwt>
<rscale>  0 0.16893603E+04</rscale>
<asrwt>0</asrwt>
<pdfrwt beam="1">  1        2 0.24301310E+00 0.16893603E+04</pdfrwt>
<pdfrwt beam="2">  1       -1 0.69490942E-01 0.16893603E+04</pdfrwt>
<totfact> 0.26019005E+01</totfact>
</mgrwt>
</event>
<event>
12    7  0.1625631E-007  0.1056964E+04  0.7818608E-02  0.9248184E-01
         -1   -1    0    0    0  501 -0.00000000000E+00  0.00000000000E+00  0.13659475397E+03  0.13659475397E+03  0.00000000000E+00 0.  1.
          2   -1    0    0  501    0  0.00000000000E+00 -0.00000000000E+00 -0.20446829179E+04  0.20446829179E+04  0.00000000000E+00 0. -1.
         24    2    1    2    0    0 -0.16735788140E+02 -0.10995626198E+03 -0.15512101322E+03  0.20757405033E+03  0.81572001789E+02 0.  0.
        254    2    1    2    0    0  0.16735788140E+02  0.10995626198E+03 -0.17529671507E+04  0.19737036215E+04  0.90013426114E+03 0.  0.
         23    2    4    4    0    0 -0.36628537581E+03 -0.28882352827E+00 -0.35711141809E+03  0.51929290270E+03  0.89283223047E+02 0.  0.
         23    2    4    4    0    0  0.38302116395E+03  0.11024508550E+03 -0.13958557326E+04  0.14544107188E+04  0.89655573563E+02 0.  0.
          4    1    3    3  502    0  0.28115323490E+02 -0.28470578326E+02 -0.23497199440E+02  0.46402194201E+02  0.00000000000E+00 0. -1.
         -3    1    3    3    0  502 -0.44851111630E+02 -0.81485683650E+02 -0.13162381378E+03  0.16117185613E+03  0.00000000000E+00 0.  1.
         13    1    5    5    0    0 -0.83950012632E+02  0.24104280873E+02 -0.12756773088E+03  0.15460319188E+03  0.00000000000E+00 0. -1.
        -13    1    5    5    0    0 -0.28233536318E+03 -0.24393104401E+02 -0.22954368720E+03  0.36468971082E+03  0.00000000000E+00 0.  1.
          4    1    6    6  503    0  0.11769982860E+03 -0.12633746103E+00 -0.32452349901E+03  0.34520829512E+03  0.00000000000E+00 0. -1.
         -4    1    6    6    0  503  0.26532133536E+03  0.11037142297E+03 -0.10713322336E+04  0.11092024237E+04  0.00000000000E+00 0.  1.
<mgrwt>
<rscale>  0 0.10569635E+04</rscale>
<asrwt>0</asrwt>
<pdfrwt beam="1">  1        2 0.31456660E+00 0.10569635E+04</pdfrwt>
<pdfrwt beam="2">  1       -1 0.21014578E-01 0.10569635E+04</pdfrwt>
<totfact> 0.13507624E+02</totfact>
</mgrwt>
</event>
<event>
12    7  0.1625631E-007  0.2331831E+04  0.7818608E-02  0.8465475E-01
         -1   -1    0    0    0  501 -0.00000000000E+00  0.00000000000E+00  0.94866316865E+03  0.94866316865E+03  0.00000000000E+00 0.  1.
          2   -1    0    0  501    0  0.00000000000E+00 -0.00000000000E+00 -0.14329201723E+04  0.14329201723E+04  0.00000000000E+00 0. -1.
         24    2    1    2    0    0 -0.40005466707E+03  0.77103550328E+03 -0.68619487199E+03  0.11098044343E+04  0.79139093213E+02 0.  0.
        254    2    1    2    0    0  0.40005466707E+03 -0.77103550328E+03  0.20193786829E+03  0.12717789067E+04  0.90669906856E+03 0.  0.
         23    2    4    4    0    0 -0.34473961849E+02 -0.77286099896E+03 -0.11892904234E+02  0.77891784018E+03  0.89827516994E+02 0.  0.
         23    2    4    4    0    0  0.43452862892E+03  0.18254956858E+01  0.21383077252E+03  0.49286106652E+03  0.91487539219E+02 0.  0.
          4    1    3    3  502    0 -0.40178323766E+03  0.75013590922E+03 -0.67399758419E+03  0.10855442855E+04  0.00000000000E+00 0. -1.
         -3    1    3    3    0  502  0.17285705902E+01  0.20899594058E+02 -0.12197287795E+02  0.24260148755E+02  0.00000000000E+00 0.  1.
         13    1    5    5    0    0 -0.31620404463E+02 -0.84061626412E+02  0.44014837498E+01  0.89919853607E+02  0.00000000000E+00 0.  1.
        -13    1    5    5    0    0 -0.28535573857E+01 -0.68879937255E+03 -0.16294387984E+02  0.68899798657E+03  0.00000000000E+00 0. -1.
          2    1    6    6  503    0  0.14200319573E+03  0.42643219071E+02  0.61284073969E+02  0.16043406575E+03  0.00000000000E+00 0. -1.
         -2    1    6    6    0  503  0.29252543319E+03 -0.40817723385E+02  0.15254669856E+03  0.33242700078E+03  0.00000000000E+00 0.  1.
<mgrwt>
<rscale>  0 0.23318307E+04</rscale>
<asrwt>0</asrwt>
<pdfrwt beam="1">  1        2 0.22044926E+00 0.23318307E+04</pdfrwt>
<pdfrwt beam="2">  1       -1 0.14594818E+00 0.23318307E+04</pdfrwt>
<totfact> 0.53608613E+00</totfact>
</mgrwt>
</event>
<event>
12    7  0.1625631E-007  0.2091789E+04  0.7818608E-02  0.8564869E-01
          2   -1    0    0  501    0  0.00000000000E+00  0.00000000000E+00  0.95097603811E+03  0.95097603811E+03  0.00000000000E+00 0. -1.
         -1   -1    0    0    0  501 -0.00000000000E+00 -0.00000000000E+00 -0.11502872793E+04  0.11502872793E+04  0.00000000000E+00 0.  1.
         24    2    1    2    0    0  0.58942242775E+02  0.10490837140E+03  0.76958620272E+03  0.78307419428E+03  0.80388531284E+02 0.  0.
        254    2    1    2    0    0 -0.58942242775E+02 -0.10490837140E+03 -0.96889744395E+03  0.13181891232E+04  0.88565250135E+03 0.  0.
         23    2    4    4    0    0  0.16839001733E+03  0.15552541705E+03  0.36108079136E+02  0.25160835682E+03  0.97260570403E+02 0.  0.
         23    2    4    4    0    0 -0.22733226011E+03 -0.26043378845E+03 -0.10050055231E+04  0.10665807663E+04  0.89736921320E+02 0.  0.
          2    1    3    3  502    0  0.44960327677E+02  0.11703579874E+03  0.63906064661E+03  0.65124290346E+03  0.00000000000E+00 0. -1.
         -1    1    3    3    0  502  0.13981915098E+02 -0.12127427349E+02  0.13052555611E+03  0.13183129083E+03  0.00000000000E+00 0.  1.
         13    1    5    5    0    0  0.61683453670E+02  0.12035587086E+03  0.33012210706E+02  0.13921275144E+03  0.00000000000E+00 0.  1.
        -13    1    5    5    0    0  0.10670656366E+03  0.35169546198E+02  0.30958684298E+01  0.11239560538E+03  0.00000000000E+00 0. -1.
          2    1    6    6  503    0 -0.52068174301E+02 -0.74706364690E+02 -0.16310380170E+03  0.18680199632E+03  0.00000000000E+00 0. -1.
         -2    1    6    6    0  503 -0.17526408581E+03 -0.18572742376E+03 -0.84190172139E+03  0.87977877002E+03  0.00000000000E+00 0.  1.
<mgrwt>
<rscale>  0 0.20917893E+04</rscale>
<asrwt>0</asrwt>
<pdfrwt beam="1">  1        2 0.14630401E+00 0.20917893E+04</pdfrwt>
<pdfrwt beam="2">  1       -1 0.17696727E+00 0.20917893E+04</pdfrwt>
<totfact> 0.62415425E+00</totfact>
</mgrwt>
</event>
<event>
12    7  0.1625631E-007  0.2385570E+04  0.7818608E-02  0.8444926E-01
          2   -1    0    0  501    0  0.00000000000E+00  0.00000000000E+00  0.11575041103E+04  0.11575041103E+04  0.00000000000E+00 0. -1.
         -1   -1    0    0    0  501 -0.00000000000E+00 -0.00000000000E+00 -0.12291412289E+04  0.12291412289E+04  0.00000000000E+00 0.  1.
         24    2    1    2    0    0  0.58156685680E+03 -0.75151836596E+03 -0.40351171032E+03  0.10356539665E+04  0.82204468853E+02 0.  0.
        254    2    1    2    0    0 -0.58156685680E+03  0.75151836596E+03  0.33187459173E+03  0.13509913727E+04  0.90113100104E+03 0.  0.
         23    2    4    4    0    0 -0.79931585422E+03  0.62660660071E+03  0.16021423068E+03  0.10322938916E+04  0.91762803477E+02 0.  0.
         23    2    4    4    0    0  0.21774899742E+03  0.12491176526E+03  0.17166036105E+03  0.31869748104E+03  0.95305980328E+02 0.  0.
          4    1    3    3  502    0  0.14231996947E+03 -0.16391796981E+03 -0.57768749030E+02  0.22463593413E+03  0.00000000000E+00 0. -1.
         -3    1    3    3    0  502  0.43924688733E+03 -0.58760039615E+03 -0.34574296129E+03  0.81101803240E+03  0.00000000000E+00 0.  1.
         13    1    5    5    0    0 -0.48070150706E+03  0.42622065868E+03  0.12246895247E+03  0.65401577435E+03  0.00000000000E+00 0. -1.
        -13    1    5    5    0    0 -0.31861434716E+03  0.20038594203E+03  0.37745278203E+02  0.37827811727E+03  0.00000000000E+00 0.  1.
          4    1    6    6  503    0  0.31194328300E+01  0.34740058023E+02  0.31242644642E+02  0.46826331661E+02  0.00000000000E+00 0.  1.
         -4    1    6    6    0  503  0.21462956459E+03  0.90171707234E+02  0.14041771641E+03  0.27187114937E+03  0.00000000000E+00 0. -1.
<mgrwt>
<rscale>  0 0.23855700E+04</rscale>
<asrwt>0</asrwt>
<pdfrwt beam="1">  1        2 0.17807756E+00 0.23855700E+04</pdfrwt>
<pdfrwt beam="2">  1       -1 0.18909865E+00 0.23855700E+04</pdfrwt>
<totfact> 0.36967715E+00</totfact>
</mgrwt>
</event>
<event>
12    7  0.1625631E-007  0.2262851E+04  0.7818608E-02  0.8492714E-01
          2   -1    0    0  501    0  0.00000000000E+00  0.00000000000E+00  0.10226257476E+04  0.10226257476E+04  0.00000000000E+00 0. -1.
         -1   -1    0    0    0  501 -0.00000000000E+00 -0.00000000000E+00 -0.12518009477E+04  0.12518009477E+04  0.00000000000E+00 0.  1.
         24    2    1    2    0    0  0.92488496414E+03 -0.10995895338E+03 -0.59808784477E+02  0.93672771027E+03  0.79865788467E+02 0.  0.
        254    2    1    2    0    0 -0.92488496414E+03  0.10995895338E+03 -0.16936641568E+03  0.13376989851E+04  0.94511926421E+03 0.  0.
         23    2    4    4    0    0 -0.16827202089E+03  0.44892070946E+03 -0.11400272522E+03  0.50147987040E+03  0.92952475290E+02 0.  0.
         23    2    4    4    0    0 -0.75661294324E+03 -0.33896175608E+03 -0.55363690463E+02  0.83621911467E+03  0.94016230263E+02 0.  0.
          2    1    3    3  502    0  0.70259682783E+03 -0.57225411572E+02 -0.22800541691E+02  0.70529207773E+03  0.00000000000E+00 0. -1.
         -1    1    3    3    0  502  0.22228813631E+03 -0.52733541805E+02 -0.37008242786E+02  0.23143563254E+03  0.00000000000E+00 0.  1.
         13    1    5    5    0    0 -0.18304345344E+02  0.79671777613E+01  0.53604473599E+01  0.20670253406E+02  0.00000000000E+00 0. -1.
        -13    1    5    5    0    0 -0.14996767555E+03  0.44095353170E+03 -0.11936317258E+03  0.48080961699E+03  0.00000000000E+00 0.  1.
          3    1    6    6  503    0 -0.25561710171E+03 -0.16356295505E+03 -0.26491581198E+02  0.30462230192E+03  0.00000000000E+00 0. -1.
         -3    1    6    6    0  503 -0.50099584153E+03 -0.17539880103E+03 -0.28872109266E+02  0.53159681275E+03  0.00000000000E+00 0.  1.
<mgrwt>
<rscale>  0 0.22628512E+04</rscale>
<asrwt>0</asrwt>
<pdfrwt beam="1">  1        2 0.15732704E+00 0.22628512E+04</pdfrwt>
<pdfrwt beam="2">  1       -1 0.19258476E+00 0.22628512E+04</pdfrwt>
<totfact> 0.42813862E+00</totfact>
</mgrwt>
</event>
<event>
12    7  0.1625631E-007  0.1952812E+04  0.7818608E-02  0.8629006E-01
          2   -1    0    0  501    0  0.00000000000E+00  0.00000000000E+00  0.10415980806E+04  0.10415980806E+04  0.00000000000E+00 0. -1.
         -1   -1    0    0    0  501 -0.00000000000E+00 -0.00000000000E+00 -0.91529424983E+03  0.91529424983E+03  0.00000000000E+00 0.  1.
         24    2    1    2    0    0 -0.27481630556E+03  0.54129910658E+02  0.77412425938E+03  0.82709890005E+03  0.79813360309E+02 0.  0.
        254    2    1    2    0    0  0.27481630556E+03 -0.54129910658E+02 -0.64782042864E+03  0.11297934303E+04  0.88221756866E+03 0.  0.
         23    2    4    4    0    0  0.19763884193E+03  0.17408279612E+03  0.13193271418E+03  0.30840999747E+03  0.91348528849E+02 0.  0.
         23    2    4    4    0    0  0.77177463632E+02 -0.22821270678E+03 -0.77975314282E+03  0.82138343287E+03  0.92835228419E+02 0.  0.
          4    1    3    3  502    0 -0.21179289442E+03  0.73659414591E+02  0.56747183234E+03  0.61016900936E+03  0.00000000000E+00 0. -1.
         -3    1    3    3    0  502 -0.63023411140E+02 -0.19529503934E+02  0.20665242704E+03  0.21692989069E+03  0.00000000000E+00 0.  1.
         13    1    5    5    0    0  0.18693505829E+03  0.15666350710E+03  0.14537637198E+03  0.28394094458E+03  0.00000000000E+00 0. -1.
        -13    1    5    5    0    0  0.10703783632E+02  0.17419289021E+02 -0.13443657805E+02  0.24469052888E+02  0.00000000000E+00 0.  1.
          2    1    6    6  503    0  0.23835638023E+02 -0.18633443395E+01 -0.49030560066E+02  0.54549111015E+02  0.00000000000E+00 0.  1.
         -2    1    6    6    0  503  0.53341825608E+02 -0.22634936244E+03 -0.73072258275E+03  0.76683432186E+03  0.00000000000E+00 0. -1.
<mgrwt>
<rscale>  0 0.19528121E+04</rscale>
<asrwt>0</asrwt>
<pdfrwt beam="1">  1        2 0.16024586E+00 0.19528121E+04</pdfrwt>
<pdfrwt beam="2">  1       -1 0.14081450E+00 0.19528121E+04</pdfrwt>
<totfact> 0.10406919E+01</totfact>
</mgrwt>
</event>
<event>
12    7  0.1625631E-007  0.1794149E+04  0.7818608E-02  0.8709417E-01
          2   -1    0    0  501    0  0.00000000000E+00  0.00000000000E+00  0.21273363708E+04  0.21273363708E+04  0.00000000000E+00 0. -1.
         -1   -1    0    0    0  501 -0.00000000000E+00 -0.00000000000E+00 -0.37828668751E+03  0.37828668751E+03  0.00000000000E+00 0.  1.
         24    2    1    2    0    0  0.22640267846E+03 -0.24426149011E+03  0.15285871783E+04  0.15665530942E+04  0.81166415093E+02 0.  0.
        254    2    1    2    0    0 -0.22640267846E+03  0.24426149011E+03  0.22046250498E+03  0.93906996409E+03  0.84989813095E+03 0.  0.
         23    2    4    4    0    0 -0.47405435112E+03  0.37328120345E+03  0.20777108963E+03  0.64494331062E+03  0.93363073876E+02 0.  0.
         23    2    4    4    0    0  0.24765167266E+03 -0.12901971334E+03  0.12691415353E+02  0.29412665347E+03  0.91498518308E+02 0.  0.
          2    1    3    3  502    0  0.21581807621E+03 -0.22375935396E+03  0.14854573335E+04  0.15176393446E+04  0.00000000000E+00 0. -1.
         -1    1    3    3    0  502  0.10584602251E+02 -0.20502136154E+02  0.43129844748E+02  0.48913749597E+02  0.00000000000E+00 0.  1.
         13    1    5    5    0    0 -0.42143293541E+03  0.36395158632E+03  0.18395772675E+03  0.58643577778E+03  0.00000000000E+00 0.  1.
        -13    1    5    5    0    0 -0.52621415718E+02  0.93296171323E+01  0.23813362872E+02  0.58507532842E+02  0.00000000000E+00 0. -1.
          1    1    6    6  503    0  0.16461551641E+03 -0.39498398519E+02 -0.11394890815E+02  0.16967096176E+03  0.00000000000E+00 0.  1.
         -1    1    6    6    0  503  0.83036156251E+02 -0.89521314824E+02  0.24086306168E+02  0.12445569170E+03  0.00000000000E+00 0. -1.
<mgrwt>
<rscale>  0 0.17941494E+04</rscale>
<asrwt>0</asrwt>
<pdfrwt beam="1">  1        2 0.32728251E+00 0.17941494E+04</pdfrwt>
<pdfrwt beam="2">  1       -1 0.58197953E-01 0.17941494E+04</pdfrwt>
<totfact> 0.18254601E+01</totfact>
</mgrwt>
</event>
<event>
12    7  0.1625631E-007  0.1378268E+04  0.7818608E-02  0.8969701E-01
         -1   -1    0    0    0  501 -0.00000000000E+00  0.00000000000E+00  0.31035936246E+03  0.31035936246E+03  0.00000000000E+00 0.  1.
          2   -1    0    0  501    0  0.00000000000E+00 -0.00000000000E+00 -0.15301797314E+04  0.15301797314E+04  0.00000000000E+00 0. -1.
         24    2    1    2    0    0 -0.26689157379E+03 -0.16781858570E+03 -0.53520024282E+02  0.33033398858E+03  0.82836955205E+02 0.  0.
        254    2    1    2    0    0  0.26689157379E+03  0.16781858570E+03 -0.11663003446E+04  0.15102051052E+04  0.90612845456E+03 0.  0.
         23    2    4    4    0    0  0.56315296762E+03 -0.29996145588E+02 -0.55393876844E+03  0.79582563647E+03  0.91919806285E+02 0.  0.
         23    2    4    4    0    0 -0.29626139383E+03  0.19781473129E+03 -0.61236157617E+03  0.71437946876E+03  0.91923033184E+02 0.  0.
          2    1    3    3  502    0 -0.17604206318E+03 -0.12743535896E+03 -0.72535601253E+02  0.22911130956E+03  0.00000000000E+00 0. -1.
         -1    1    3    3    0  502 -0.90849510610E+02 -0.40383226745E+02  0.19015576971E+02  0.10122267902E+03  0.00000000000E+00 0.  1.
         13    1    5    5    0    0  0.13769274307E+02 -0.44441174491E+01  0.10265358200E+01  0.14505063621E+02  0.00000000000E+00 0.  1.
        -13    1    5    5    0    0  0.54938369331E+03 -0.25552028139E+02 -0.55496530426E+03  0.78132057285E+03  0.00000000000E+00 0. -1.
          4    1    6    6  503    0 -0.25658579977E+03  0.12905109254E+03 -0.50329091896E+03  0.57947580297E+03  0.00000000000E+00 0. -1.
         -4    1    6    6    0  503 -0.39675594067E+02  0.68763638749E+02 -0.10907065722E+03  0.13490366579E+03  0.00000000000E+00 0.  1.
<mgrwt>
<rscale>  0 0.13782679E+04</rscale>
<asrwt>0</asrwt>
<pdfrwt beam="1">  1        2 0.23541227E+00 0.13782679E+04</pdfrwt>
<pdfrwt beam="2">  1       -1 0.47747594E-01 0.13782679E+04</pdfrwt>
<totfact> 0.59385801E+01</totfact>
</mgrwt>
</event>
<event>
12    7  0.1625631E-007  0.1814428E+04  0.7818608E-02  0.8698664E-01
          2   -1    0    0  501    0  0.00000000000E+00  0.00000000000E+00  0.26802589272E+04  0.26802589272E+04  0.00000000000E+00 0. -1.
         -1   -1    0    0    0  501 -0.00000000000E+00 -0.00000000000E+00 -0.30707378537E+03  0.30707378537E+03  0.00000000000E+00 0.  1.
         24    2    1    2    0    0  0.10346481907E+03  0.61342593815E+03  0.44167382284E+03  0.76799965936E+03  0.88041811727E+02 0.  0.
        254    2    1    2    0    0 -0.10346481907E+03 -0.61342593815E+03  0.19315113190E+04  0.22193330532E+04  0.89872513894E+03 0.  0.
         23    2    4    4    0    0 -0.34269341992E+03 -0.46085673021E+03  0.18032284367E+04  0.18944872482E+04  0.87300817125E+02 0.  0.
         23    2    4    4    0    0  0.23922860085E+03 -0.15256920794E+03  0.12828288227E+03  0.32484580505E+03  0.92523578059E+02 0.  0.
          2    1    3    3  502    0  0.73997011931E+02  0.41396300277E+03  0.24683930250E+03  0.48761723380E+03  0.00000000000E+00 0. -1.
         -1    1    3    3    0  502  0.29467807137E+02  0.19946293538E+03  0.19483452034E+03  0.28038242556E+03  0.00000000000E+00 0.  1.
         13    1    5    5    0    0 -0.39376976049E+02 -0.10652984379E+03  0.39688803007E+03  0.41281867966E+03  0.00000000000E+00 0. -1.
        -13    1    5    5    0    0 -0.30331644387E+03 -0.35432688642E+03  0.14063404067E+04  0.14816685685E+04  0.00000000000E+00 0.  1.
          1    1    6    6  503    0  0.13056515360E+03 -0.13598535513E+03  0.80349746499E+02  0.20492768946E+03  0.00000000000E+00 0. -1.
         -1    1    6    6    0  503  0.10866344724E+03 -0.16583852817E+02  0.47933135775E+02  0.11991811559E+03  0.00000000000E+00 0.  1.
<mgrwt>
<rscale>  0 0.18144280E+04</rscale>
<asrwt>0</asrwt>
<pdfrwt beam="1">  1        2 0.41234751E+00 0.18144280E+04</pdfrwt>
<pdfrwt beam="2">  1       -1 0.47242122E-01 0.18144280E+04</pdfrwt>
<totfact> 0.13117985E+01</totfact>
</mgrwt>
</event>
<event>
12    7  0.1829540E-007  0.2034836E+04  0.7818608E-02  0.8590505E-01
          2   -1    0    0  501    0  0.00000000000E+00  0.00000000000E+00  0.12758762606E+04  0.12758762606E+04  0.00000000000E+00 0. -1.
         -1   -1    0    0    0  501 -0.00000000000E+00 -0.00000000000E+00 -0.81131631554E+03  0.81131631554E+03  0.00000000000E+00 0.  1.
         24    2    1    2    0    0 -0.42847613254E+03 -0.75430861794E+02  0.88719505710E+03  0.99132584362E+03  0.79562854575E+02 0.  0.
        254    2    1    2    0    0  0.42847613254E+03  0.75430861794E+02 -0.42263511205E+03  0.10958667325E+04  0.91270030480E+03 0.  0.
         23    2    4    4    0    0  0.67054472259E+03 -0.93817965432E+01 -0.11603498049E+03  0.68630243317E+03  0.88479771595E+02 0.  0.
         23    2    4    4    0    0 -0.24206859005E+03  0.84812658337E+02 -0.30660013156E+03  0.40956429933E+03  0.89156521427E+02 0.  0.
          2    1    3    3  502    0 -0.36189045034E+03 -0.79904469663E+02  0.79863669546E+03  0.88043738769E+03  0.00000000000E+00 0. -1.
         -1    1    3    3    0  502 -0.66585682206E+02  0.44736078687E+01  0.88558361638E+02  0.11088845593E+03  0.00000000000E+00 0.  1.
         13    1    5    5    0    0  0.56655042177E+03 -0.11447546327E+02 -0.12990929019E+03  0.58136636504E+03  0.00000000000E+00 0.  1.
        -13    1    5    5    0    0  0.10399430081E+03  0.20657497834E+01  0.13874309697E+02  0.10493606812E+03  0.00000000000E+00 0. -1.
          2    1    6    6  503    0 -0.24763601582E+03  0.85581144329E+02 -0.30737604371E+03  0.40389077836E+03  0.00000000000E+00 0.  1.
         -2    1    6    6    0  503  0.55674257765E+01 -0.76848599218E+00  0.77591215522E+00  0.56735209676E+01  0.00000000000E+00 0. -1.
<mgrwt>
<rscale>  0 0.20348358E+04</rscale>
<asrwt>0</asrwt>
<pdfrwt beam="1">  1        2 0.19628866E+00 0.20348358E+04</pdfrwt>
<pdfrwt beam="2">  1       -1 0.12481789E+00 0.20348358E+04</pdfrwt>
<totfact> 0.10130745E+01</totfact>
</mgrwt>
</event>
<event>
12    7  0.1625631E-007  0.2607839E+04  0.7818608E-02  0.8365543E-01
         -3   -1    0    0    0  501 -0.00000000000E+00  0.00000000000E+00  0.47808691683E+03  0.47808691683E+03  0.00000000000E+00 0.  1.
          2   -1    0    0  501    0  0.00000000000E+00 -0.00000000000E+00 -0.35562689489E+04  0.35562689489E+04  0.00000000000E+00 0. -1.
         24    2    1    2    0    0 -0.52490147338E+03 -0.93912144744E+03 -0.20113199142E+04  0.22822931803E+04  0.77354468698E+02 0.  0.
        254    2    1    2    0    0  0.52490147338E+03  0.93912144744E+03 -0.10668621178E+04  0.17520626854E+04  0.87980578836E+03 0.  0.
         23    2    4    4    0    0  0.70054203156E+02 -0.14522512559E+03 -0.27621801044E+03  0.33228131191E+03  0.90091911239E+02 0.  0.
         23    2    4    4    0    0  0.45484727022E+03  0.10843465730E+04 -0.79064410738E+03  0.14197813735E+04  0.89260933427E+02 0.  0.
          4    1    3    3  502    0 -0.37398363510E+03 -0.66394122638E+03 -0.14966921680E+04  0.16795145600E+04  0.00000000000E+00 0. -1.
         -3    1    3    3    0  502 -0.15091783827E+03 -0.27518022106E+03 -0.51462774619E+03  0.60277862033E+03  0.00000000000E+00 0.  1.
         13    1    5    5    0    0  0.64956422438E+02 -0.14604891729E+03 -0.28223325686E+03  0.32435356378E+03  0.00000000000E+00 0.  1.
        -13    1    5    5    0    0  0.50977807179E+01  0.82379170683E+00  0.60152464154E+01  0.79277481331E+01  0.00000000000E+00 0. -1.
          3    1    6    6  503    0  0.29211789022E+02  0.14388972741E+03 -0.91124505025E+02  0.17280410206E+03  0.00000000000E+00 0. -1.
         -3    1    6    6    0  503  0.42563548120E+03  0.94045684562E+03 -0.69951960236E+03  0.12469772714E+04  0.00000000000E+00 0.  1.
<mgrwt>
<rscale>  0 0.26078387E+04</rscale>
<asrwt>0</asrwt>
<pdfrwt beam="1">  1        2 0.54711830E+00 0.26078387E+04</pdfrwt>
<pdfrwt beam="2">  1       -3 0.73551834E-01 0.26078387E+04</pdfrwt>
<totfact> 0.73967939E-01</totfact>
</mgrwt>
</event>
<event>
12    7  0.1625631E-007  0.1424286E+04  0.7818608E-02  0.8936425E-01
          2   -1    0    0  501    0  0.00000000000E+00  0.00000000000E+00  0.34413214705E+04  0.34413214705E+04  0.00000000000E+00 0. -1.
         -1   -1    0    0    0  501 -0.00000000000E+00 -0.00000000000E+00 -0.14736996117E+03  0.14736996117E+03  0.00000000000E+00 0.  1.
         24    2    1    2    0    0  0.32067203028E+03  0.11116216644E+03  0.16111808584E+04  0.16482553414E+04  0.75195305296E+02 0.  0.
        254    2    1    2    0    0 -0.32067203028E+03 -0.11116216644E+03  0.16827706510E+04  0.19404360902E+04  0.90464776477E+03 0.  0.
         23    2    4    4    0    0 -0.40211082579E+03 -0.40583897252E+03  0.13968881057E+04  0.15118979812E+04  0.90226037220E+02 0.  0.
         23    2    4    4    0    0  0.81438795511E+02  0.29467680608E+03  0.28588254529E+03  0.42853810909E+03  0.91920529730E+02 0.  0.
          4    1    3    3  502    0  0.18711189755E+03  0.89553919616E+02  0.11051397432E+04  0.11244396910E+04  0.00000000000E+00 0. -1.
         -3    1    3    3    0  502  0.13356013273E+03  0.21608246826E+02  0.50604111521E+03  0.52381565046E+03  0.00000000000E+00 0.  1.
         13    1    5    5    0    0 -0.39305632335E+03 -0.40378882487E+03  0.13912457739E+04  0.15010341408E+04  0.00000000000E+00 0.  1.
        -13    1    5    5    0    0 -0.90545024350E+01 -0.20501476488E+01  0.56423318004E+01  0.10863840383E+02  0.00000000000E+00 0. -1.
          1    1    6    6  503    0  0.87768903896E+02  0.16708460366E+03  0.14241719094E+03  0.23643879027E+03  0.00000000000E+00 0. -1.
         -1    1    6    6    0  503 -0.63301083850E+01  0.12759220242E+03  0.14346535436E+03  0.19209931882E+03  0.00000000000E+00 0.  1.
<mgrwt>
<rscale>  0 0.14242857E+04</rscale>
<asrwt>0</asrwt>
<pdfrwt beam="1">  1        2 0.52943401E+00 0.14242857E+04</pdfrwt>
<pdfrwt beam="2">  1       -1 0.22672304E-01 0.14242857E+04</pdfrwt>
<totfact> 0.16610201E+01</totfact>
</mgrwt>
</event>
<event>
12    7  0.1625631E-007  0.1264804E+04  0.7818608E-02  0.9057951E-01
         -1   -1    0    0    0  501 -0.00000000000E+00  0.00000000000E+00  0.24056315590E+03  0.24056315590E+03  0.00000000000E+00 0.  1.
          2   -1    0    0  501    0  0.00000000000E+00 -0.00000000000E+00 -0.16624826422E+04  0.16624826422E+04  0.00000000000E+00 0. -1.
         24    2    1    2    0    0  0.10921001601E+03 -0.12416648665E+03 -0.76246382477E+03  0.78416776954E+03  0.78891461527E+02 0.  0.
        254    2    1    2    0    0 -0.10921001601E+03  0.12416648665E+03 -0.65945566152E+03  0.11188780285E+04  0.88862935426E+03 0.  0.
         23    2    4    4    0    0  0.87819009678E+02 -0.34951316168E+03 -0.19279021717E+03  0.41927890735E+03  0.93568721592E+02 0.  0.
         23    2    4    4    0    0 -0.19702902569E+03  0.47367964833E+03 -0.46666544434E+03  0.69959912120E+03  0.92029599739E+02 0.  0.
          2    1    3    3  502    0  0.10814836391E+03 -0.13445832056E+03 -0.72885116808E+03  0.74899875420E+03  0.00000000000E+00 0. -1.
         -1    1    3    3    0  502  0.10616521075E+01  0.10291833907E+02 -0.33612656693E+02  0.35169015345E+02  0.00000000000E+00 0.  1.
         13    1    5    5    0    0  0.79706107539E+02 -0.14479222001E+03 -0.10864031779E+03  0.19778920396E+03  0.00000000000E+00 0.  1.
        -13    1    5    5    0    0  0.81129021390E+01 -0.20472094167E+03 -0.84149899380E+02  0.22148970338E+03  0.00000000000E+00 0. -1.
          1    1    6    6  503    0 -0.61769193399E+02  0.23907945873E+03 -0.26304561384E+03  0.36078721680E+03  0.00000000000E+00 0. -1.
         -1    1    6    6    0  503 -0.13525983229E+03  0.23460018960E+03 -0.20361983050E+03  0.33881190440E+03  0.00000000000E+00 0.  1.
<mgrwt>
<rscale>  0 0.12648037E+04</rscale>
<asrwt>0</asrwt>
<pdfrwt beam="1">  1        2 0.25576656E+00 0.12648037E+04</pdfrwt>
<pdfrwt beam="2">  1       -1 0.37009716E-01 0.12648037E+04</pdfrwt>
<totfact> 0.80811321E+01</totfact>
</mgrwt>
</event>
<event>
12    7  0.1625631E-007  0.2995114E+04  0.7818608E-02  0.8245128E-01
         -1   -1    0    0    0  501 -0.00000000000E+00  0.00000000000E+00  0.16184143206E+04  0.16184143206E+04  0.00000000000E+00 0.  1.
          2   -1    0    0  501    0  0.00000000000E+00 -0.00000000000E+00 -0.13857245400E+04  0.13857245400E+04  0.00000000000E+00 0. -1.
         24    2    1    2    0    0 -0.43192066074E+03  0.12246317238E+04 -0.33377317470E+03  0.13430670372E+04  0.78397819222E+02 0.  0.
        254    2    1    2    0    0  0.43192066074E+03 -0.12246317238E+04  0.56646295532E+03  0.16610718234E+04  0.86717991600E+03 0.  0.
         23    2    4    4    0    0  0.12729560258E+03 -0.86922835135E+03  0.74103515134E+03  0.11529451641E+04  0.91582524290E+02 0.  0.
         23    2    4    4    0    0  0.30462505816E+03 -0.35540337246E+03 -0.17457219602E+03  0.50812665930E+03  0.92786136089E+02 0.  0.
          4    1    3    3  502    0 -0.16211222577E+02  0.10212454734E+03 -0.16395258628E+02  0.10469494454E+03  0.00000000000E+00 0. -1.
         -3    1    3    3    0  502 -0.41570943817E+03  0.11225071765E+04 -0.31737791608E+03  0.12383720926E+04  0.00000000000E+00 0.  1.
         13    1    5    5    0    0  0.79879719047E+02 -0.25649759395E+03  0.21977601915E+03  0.34709261561E+03  0.00000000000E+00 0.  1.
        -13    1    5    5    0    0  0.47415883536E+02 -0.61273075740E+03  0.52125913218E+03  0.80585254852E+03  0.00000000000E+00 0. -1.
          3    1    6    6  503    0  0.28225242970E+03 -0.29572587503E+03 -0.17425410308E+03  0.44439252882E+03  0.00000000000E+00 0. -1.
         -3    1    6    6    0  503  0.22372628460E+02 -0.59677497434E+02 -0.31809293417E+00  0.63734130474E+02  0.00000000000E+00 0.  1.
<mgrwt>
<rscale>  0 0.29951136E+04</rscale>
<asrwt>0</asrwt>
<pdfrwt beam="1">  1        2 0.21318839E+00 0.29951136E+04</pdfrwt>
<pdfrwt beam="2">  1       -1 0.24898682E+00 0.29951136E+04</pdfrwt>
<totfact> 0.10180854E+00</totfact>
</mgrwt>
</event>
<event>
12    7  0.1625631E-007  0.2505326E+04  0.7818608E-02  0.8401091E-01
         -1   -1    0    0    0  501 -0.00000000000E+00  0.00000000000E+00  0.83763776964E+03  0.83763776964E+03  0.00000000000E+00 0.  1.
          2   -1    0    0  501    0  0.00000000000E+00 -0.00000000000E+00 -0.18733214823E+04  0.18733214823E+04  0.00000000000E+00 0. -1.
         24    2    1    2    0    0 -0.89875685221E+03  0.57524733654E+03 -0.18826582730E+03  0.10865925567E+04  0.81030765235E+02 0.  0.
        254    2    1    2    0    0  0.89875685221E+03 -0.57524733654E+03 -0.84741788535E+03  0.16243666952E+04  0.88418137880E+03 0.  0.
         23    2    4    4    0    0  0.32518555781E+03 -0.62722260202E+03 -0.74830185909E+03  0.10331186771E+04  0.90690072450E+02 0.  0.
         23    2    4    4    0    0  0.57357129440E+03  0.51975265478E+02 -0.99116026258E+02  0.59124801810E+03  0.89804088264E+02 0.  0.
          2    1    3    3  502    0 -0.24063082165E+02  0.24340569021E+02 -0.18857242974E+02  0.39078009623E+02  0.00000000000E+00 0. -1.
         -1    1    3    3    0  502 -0.87469377005E+03  0.55090676752E+03 -0.16940858433E+03  0.10475145471E+04  0.00000000000E+00 0.  1.
         13    1    5    5    0    0  0.27427582326E+02 -0.14525224193E+02 -0.35175447661E+02  0.46910196421E+02  0.00000000000E+00 0. -1.
        -13    1    5    5    0    0  0.29775797549E+03 -0.61269737783E+03 -0.71312641143E+03  0.98620848072E+03  0.00000000000E+00 0.  1.
          3    1    6    6  503    0  0.12041200405E+03  0.42989572105E+01 -0.58042244174E+02  0.13374017295E+03  0.00000000000E+00 0. -1.
         -3    1    6    6    0  503  0.45315929035E+03  0.47676308268E+02 -0.41073782085E+02  0.45750784515E+03  0.00000000000E+00 0.  1.
<mgrwt>
<rscale>  0 0.25053262E+04</rscale>
<asrwt>0</asrwt>
<pdfrwt beam="1">  1        2 0.28820330E+00 0.25053262E+04</pdfrwt>
<pdfrwt beam="2">  1       -1 0.12886735E+00 0.25053262E+04</pdfrwt>
<totfact> 0.41331025E+00</totfact>
</mgrwt>
</event>
<event>
12    7  0.1625631E-007  0.1506387E+04  0.7818608E-02  0.8880217E-01
          2   -1    0    0  501    0  0.00000000000E+00  0.00000000000E+00  0.76166311527E+03  0.76166311527E+03  0.00000000000E+00 0. -1.
         -1   -1    0    0    0  501 -0.00000000000E+00 -0.00000000000E+00 -0.74481819440E+03  0.74481819440E+03  0.00000000000E+00 0.  1.
         24    2    1    2    0    0 -0.17558485309E+03 -0.68421908367E+02  0.44832245764E+03  0.49643845016E+03  0.99732194364E+02 0.  0.
        254    2    1    2    0    0  0.17558485309E+03  0.68421908367E+02 -0.43147753676E+03  0.10100428595E+04  0.89358945560E+03 0.  0.
         23    2    4    4    0    0  0.19229746932E+03  0.39390942779E+03 -0.49581682955E+03  0.66784946179E+03  0.89697386479E+02 0.  0.
         23    2    4    4    0    0 -0.16712616232E+02 -0.32548751942E+03  0.64339292790E+02  0.34219339773E+03  0.82069117288E+02 0.  0.
          2    1    3    3  502    0 -0.52191692453E+02  0.24754208433E+02  0.14213909544E+03  0.15342837433E+03  0.00000000000E+00 0. -1.
         -1    1    3    3    0  502 -0.12339316063E+03 -0.93176116800E+02  0.30618336220E+03  0.34301007583E+03  0.00000000000E+00 0.  1.
         13    1    5    5    0    0  0.85730771054E+02  0.20186238862E+03 -0.31243405267E+03  0.38172401852E+03  0.00000000000E+00 0. -1.
        -13    1    5    5    0    0  0.10656669826E+03  0.19204703916E+03 -0.18338277688E+03  0.28612544327E+03  0.00000000000E+00 0.  1.
          3    1    6    6  503    0  0.15574489544E+02 -0.22752362568E+03  0.70940729091E+02  0.23883498908E+03  0.00000000000E+00 0. -1.
         -3    1    6    6    0  503 -0.32287105776E+02 -0.97963893744E+02 -0.66014363006E+01  0.10335840865E+03  0.00000000000E+00 0.  1.
<mgrwt>
<rscale>  0 0.15063871E+04</rscale>
<asrwt>0</asrwt>
<pdfrwt beam="1">  1        2 0.11717894E+00 0.15063871E+04</pdfrwt>
<pdfrwt beam="2">  1       -1 0.11458741E+00 0.15063871E+04</pdfrwt>
<totfact> 0.28069781E+01</totfact>
</mgrwt>
</event>
<event>
12    7  0.1625631E-007  0.2851823E+04  0.7818608E-02  0.8287358E-01
         -1   -1    0    0    0  501 -0.00000000000E+00  0.00000000000E+00  0.10348587817E+04  0.10348587817E+04  0.00000000000E+00 0.  1.
          2   -1    0    0  501    0  0.00000000000E+00 -0.00000000000E+00 -0.19647350783E+04  0.19647350783E+04  0.00000000000E+00 0. -1.
         24    2    1    2    0    0  0.36785162896E+03  0.30515127792E+03 -0.16709789417E+04  0.17398709361E+04  0.80920499930E+02 0.  0.
        254    2    1    2    0    0 -0.36785162896E+03 -0.30515127792E+03  0.74110264512E+03  0.12597229238E+04  0.89957578383E+03 0.  0.
         23    2    4    4    0    0 -0.12859691857E+03 -0.48046222215E+03  0.79484593826E+03  0.94199083291E+03  0.90474025700E+02 0.  0.
         23    2    4    4    0    0 -0.23925471039E+03  0.17531094423E+03 -0.53743293139E+02  0.31773209091E+03  0.10044200530E+03 0.  0.
          4    1    3    3  502    0  0.30079092208E+03  0.22070405198E+03 -0.13804578212E+04  0.14299822563E+04  0.00000000000E+00 0. -1.
         -3    1    3    3    0  502  0.67060706872E+02  0.84447225939E+02 -0.29052112055E+03  0.30988867978E+03  0.00000000000E+00 0.  1.
         13    1    5    5    0    0 -0.66322485793E+02 -0.38768127071E+03  0.60152508469E+03  0.71869873194E+03  0.00000000000E+00 0.  1.
        -13    1    5    5    0    0 -0.62274432774E+02 -0.92780951444E+02  0.19332085357E+03  0.22329210097E+03  0.00000000000E+00 0. -1.
          3    1    6    6  503    0 -0.12261298728E+03  0.29209833847E+02 -0.16695389247E+02  0.12714517319E+03  0.00000000000E+00 0. -1.
         -3    1    6    6    0  503 -0.11664172311E+03  0.14610111038E+03 -0.37047903892E+02  0.19058691772E+03  0.00000000000E+00 0.  1.
<mgrwt>
<rscale>  0 0.28518228E+04</rscale>
<asrwt>0</asrwt>
<pdfrwt beam="1">  1        2 0.30226694E+00 0.28518228E+04</pdfrwt>
<pdfrwt beam="2">  1       -1 0.15920904E+00 0.28518228E+04</pdfrwt>
<totfact> 0.20417160E+00</totfact>
</mgrwt>
</event>
<event>
12    7  0.1625631E-007  0.3273767E+04  0.7818608E-02  0.8169603E-01
          2   -1    0    0  501    0  0.00000000000E+00  0.00000000000E+00  0.27035635343E+04  0.27035635343E+04  0.00000000000E+00 0. -1.
         -1   -1    0    0    0  501 -0.00000000000E+00 -0.00000000000E+00 -0.99105750043E+03  0.99105750043E+03  0.00000000000E+00 0.  1.
         24    2    1    2    0    0 -0.86258571713E+03 -0.11412979240E+04  0.13517885575E+04  0.19697562438E+04  0.77409852747E+02 0.  0.
        254    2    1    2    0    0  0.86258571713E+03  0.11412979240E+04  0.36071747635E+03  0.17248647909E+04  0.89354707674E+03 0.  0.
         23    2    4    4    0    0  0.41681425812E+03  0.29537340030E+03  0.53922295675E+03  0.74829127820E+03  0.90547603891E+02 0.  0.
         23    2    4    4    0    0  0.44577145901E+03  0.84592452367E+03 -0.17850548040E+03  0.97657351266E+03  0.86782058498E+02 0.  0.
          4    1    3    3  502    0 -0.78286630428E+03 -0.10069828484E+04  0.12265789397E+04  0.17695733956E+04  0.00000000000E+00 0. -1.
         -3    1    3    3    0  502 -0.79719412856E+02 -0.13431507561E+03  0.12520961782E+03  0.20018284821E+03  0.00000000000E+00 0.  1.
         13    1    5    5    0    0  0.25652711870E+03  0.22666983816E+03  0.32463149783E+03  0.47177429725E+03  0.00000000000E+00 0.  1.
        -13    1    5    5    0    0  0.16028713943E+03  0.68703562134E+02  0.21459145892E+03  0.27651698096E+03  0.00000000000E+00 0. -1.
          2    1    6    6  503    0  0.14482755037E+02  0.49654592762E+02  0.70119707716E+01  0.52196709761E+02  0.00000000000E+00 0. -1.
         -2    1    6    6    0  503  0.43128870397E+03  0.79626993091E+03 -0.18551745117E+03  0.92437680290E+03  0.00000000000E+00 0.  1.
<mgrwt>
<rscale>  0 0.32737666E+04</rscale>
<asrwt>0</asrwt>
<pdfrwt beam="1">  1        2 0.41593285E+00 0.32737666E+04</pdfrwt>
<pdfrwt beam="2">  1       -1 0.15247039E+00 0.32737666E+04</pdfrwt>
<totfact> 0.83846422E-01</totfact>
</mgrwt>
</event>
<event>
12    7  0.1625631E-007  0.1726022E+04  0.7818608E-02  0.8746661E-01
          2   -1    0    0  501    0  0.00000000000E+00  0.00000000000E+00  0.12227161713E+04  0.12227161713E+04  0.00000000000E+00 0. -1.
         -1   -1    0    0    0  501 -0.00000000000E+00 -0.00000000000E+00 -0.60912571421E+03  0.60912571421E+03  0.00000000000E+00 0.  1.
         24    2    1    2    0    0  0.43219277627E+03 -0.42425405800E+03  0.34003035410E+02  0.61205908834E+03  0.81719150831E+02 0.  0.
        254    2    1    2    0    0 -0.43219277627E+03  0.42425405800E+03  0.57958742168E+03  0.12197827972E+04  0.88609615241E+03 0.  0.
         23    2    4    4    0    0  0.11605977399E+03  0.39992911136E+03  0.49914250797E+03  0.65662717130E+03  0.92751461286E+02 0.  0.
         23    2    4    4    0    0 -0.54825255026E+03  0.24324946643E+02  0.80444913701E+02  0.56315562587E+03  0.97469548688E+02 0.  0.
          4    1    3    3  502    0  0.14867051408E+03 -0.16345607859E+03  0.49840687025E+02  0.22650586189E+03  0.00000000000E+00 0. -1.
         -3    1    3    3    0  502  0.28352226219E+03 -0.26079797941E+03 -0.15837651614E+02  0.38555322645E+03  0.00000000000E+00 0.  1.
         13    1    5    5    0    0  0.41529628257E+02  0.23744926022E+03  0.34327934917E+03  0.41946105036E+03  0.00000000000E+00 0. -1.
        -13    1    5    5    0    0  0.74530145729E+02  0.16247985114E+03  0.15586315880E+03  0.23716612094E+03  0.00000000000E+00 0.  1.
          3    1    6    6  503    0 -0.14577842524E+03 -0.20546585697E+02 -0.12206146567E+02  0.14772441052E+03  0.00000000000E+00 0. -1.
         -3    1    6    6    0  503 -0.40247412502E+03  0.44871532341E+02  0.92651060268E+02  0.41543121536E+03  0.00000000000E+00 0.  1.
<mgrwt>
<rscale>  0 0.17260219E+04</rscale>
<asrwt>0</asrwt>
<pdfrwt beam="1">  1        2 0.18811018E+00 0.17260219E+04</pdfrwt>
<pdfrwt beam="2">  1       -1 0.93711648E-01 0.17260219E+04</pdfrwt>
<totfact> 0.21949318E+01</totfact>
</mgrwt>
</event>
<event>
12    7  0.1625631E-007  0.1854465E+04  0.7818608E-02  0.8677860E-01
          2   -1    0    0  501    0  0.00000000000E+00  0.00000000000E+00  0.62292429101E+03  0.62292429101E+03  0.00000000000E+00 0. -1.
         -1   -1    0    0    0  501 -0.00000000000E+00 -0.00000000000E+00 -0.13802000671E+04  0.13802000671E+04  0.00000000000E+00 0.  1.
         24    2    1    2    0    0 -0.16478079656E+03  0.45505761033E+03  0.27153505222E+03  0.56038208996E+03  0.77888783066E+02 0.  0.
        254    2    1    2    0    0  0.16478079656E+03 -0.45505761033E+03 -0.10288108283E+04  0.14427422682E+04  0.88815730153E+03 0.  0.
         23    2    4    4    0    0  0.14422496429E+03 -0.27930935199E+03 -0.11595546468E+04  0.12046170967E+04  0.87868176092E+02 0.  0.
         23    2    4    4    0    0  0.20555832275E+02 -0.17574825834E+03  0.13074381845E+03  0.23812517147E+03  0.91102462519E+02 0.  0.
          2    1    3    3  502    0 -0.22632072701E+02  0.43780613809E+02  0.56583669576E+02  0.75037753983E+02  0.00000000000E+00 0. -1.
         -1    1    3    3    0  502 -0.14214872386E+03  0.41127699652E+03  0.21495138265E+03  0.48534433598E+03  0.00000000000E+00 0.  1.
         13    1    5    5    0    0  0.22798868548E+02 -0.58511998583E+02 -0.38546662403E+03  0.39054828207E+03  0.00000000000E+00 0. -1.
        -13    1    5    5    0    0  0.12142609574E+03 -0.22079735341E+03 -0.77408802276E+03  0.81406881465E+03  0.00000000000E+00 0.  1.
          4    1    6    6  503    0 -0.11509655879E+01 -0.20797431632E+02 -0.13903704844E+02  0.25043380216E+02  0.00000000000E+00 0. -1.
         -4    1    6    6    0  503  0.21706797863E+02 -0.15495082671E+03  0.14464752329E+03  0.21308179126E+03  0.00000000000E+00 0.  1.
<mgrwt>
<rscale>  0 0.18544650E+04</rscale>
<asrwt>0</asrwt>
<pdfrwt beam="1">  1        2 0.95834507E-01 0.18544650E+04</pdfrwt>
<pdfrwt beam="2">  1       -1 0.21233847E+00 0.18544650E+04</pdfrwt>
<totfact> 0.63035199E+00</totfact>
</mgrwt>
</event>
<event>
12    7  0.1625631E-007  0.2647522E+04  0.7818608E-02  0.8352236E-01
          2   -1    0    0  501    0  0.00000000000E+00  0.00000000000E+00  0.21888085970E+04  0.21888085970E+04  0.00000000000E+00 0. -1.
         -1   -1    0    0    0  501 -0.00000000000E+00 -0.00000000000E+00 -0.80059225366E+03  0.80059225366E+03  0.00000000000E+00 0.  1.
         24    2    1    2    0    0 -0.41728609186E+03  0.10612037756E+04  0.89970654009E+03  0.14547986627E+04  0.81768912293E+02 0.  0.
        254    2    1    2    0    0  0.41728609186E+03 -0.10612037756E+04  0.48850980327E+03  0.15346021880E+04  0.90337196746E+03 0.  0.
         23    2    4    4    0    0 -0.12732154728E+03  0.83706834801E+02  0.16371576747E+02  0.17875116361E+03  0.92012713100E+02 0.  0.
         23    2    4    4    0    0  0.54460763914E+03 -0.11449106104E+04  0.47213822653E+03  0.13558510243E+04  0.89441091537E+02 0.  0.
          4    1    3    3  502    0 -0.25654303816E+02  0.28075581517E+02  0.36453955325E+02  0.52680854593E+02  0.00000000000E+00 0. -1.
         -3    1    3    3    0  502 -0.39163178804E+03  0.10331281941E+04  0.86325258477E+03  0.14021178081E+04  0.00000000000E+00 0.  1.
         13    1    5    5    0    0  0.40527515712E+01 -0.89245443031E+01  0.15095530254E+02  0.17998536606E+02  0.00000000000E+00 0. -1.
        -13    1    5    5    0    0 -0.13137429885E+03  0.92631379104E+02  0.12760464927E+01  0.16075262700E+03  0.00000000000E+00 0.  1.
          2    1    6    6  503    0  0.17711915533E+03 -0.41844099482E+03  0.20996893126E+03  0.50055071014E+03  0.00000000000E+00 0. -1.
         -2    1    6    6    0  503  0.36748848381E+03 -0.72646961558E+03  0.26216929527E+03  0.85530031420E+03  0.00000000000E+00 0.  1.
<mgrwt>
<rscale>  0 0.26475220E+04</rscale>
<asrwt>0</asrwt>
<pdfrwt beam="1">  1        2 0.33673978E+00 0.26475220E+04</pdfrwt>
<pdfrwt beam="2">  1       -1 0.12316804E+00 0.26475220E+04</pdfrwt>
<totfact> 0.30478868E+00</totfact>
</mgrwt>
</event>
<event>
12    7  0.1625631E-007  0.2090638E+04  0.7818608E-02  0.8565379E-01
          2   -1    0    0  501    0  0.00000000000E+00  0.00000000000E+00  0.54103137773E+03  0.54103137773E+03  0.00000000000E+00 0. -1.
         -1   -1    0    0    0  501 -0.00000000000E+00 -0.00000000000E+00 -0.20196465719E+04  0.20196465719E+04  0.00000000000E+00 0.  1.
         24    2    1    2    0    0  0.59426392769E+03  0.47152485109E+03 -0.10837988638E+04  0.13253325920E+04  0.80007508344E+02 0.  0.
        254    2    1    2    0    0 -0.59426392769E+03 -0.47152485109E+03 -0.39481633033E+03  0.12353453576E+04  0.89146672219E+03 0.  0.
         23    2    4    4    0    0 -0.48235509027E+03  0.43481509841E+01  0.13494846642E+03  0.50874624607E+03  0.89029853315E+02 0.  0.
         23    2    4    4    0    0 -0.11190883743E+03 -0.47587300208E+03 -0.52976479675E+03  0.72659911148E+03  0.91196638796E+02 0.  0.
          2    1    3    3  502    0  0.18085947895E+03  0.16638206670E+03 -0.29514636273E+03  0.38406317017E+03  0.00000000000E+00 0. -1.
         -1    1    3    3    0  502  0.41340444874E+03  0.30514278439E+03 -0.78865250108E+03  0.94126942188E+03  0.00000000000E+00 0.  1.
         13    1    5    5    0    0 -0.26965752561E+03 -0.17229285063E+01  0.12082393986E+03  0.29549378004E+03  0.00000000000E+00 0. -1.
        -13    1    5    5    0    0 -0.21269756466E+03  0.60710794904E+01  0.14124526557E+02  0.21325246603E+03  0.00000000000E+00 0.  1.
          4    1    6    6  503    0 -0.95691658123E+02 -0.28966122985E+03 -0.37858806212E+03  0.48619897397E+03  0.00000000000E+00 0. -1.
         -4    1    6    6    0  503 -0.16217179305E+02 -0.18621177222E+03 -0.15117673463E+03  0.24040013750E+03  0.00000000000E+00 0.  1.
<mgrwt>
<rscale>  0 0.20906383E+04</rscale>
<asrwt>0</asrwt>
<pdfrwt beam="1">  1        2 0.83235597E-01 0.20906383E+04</pdfrwt>
<pdfrwt beam="2">  1       -1 0.31071486E+00 0.20906383E+04</pdfrwt>
<totfact> 0.16644964E+00</totfact>
</mgrwt>
</event>
<event>
12    7  0.1625631E-007  0.3022439E+04  0.7818608E-02  0.8237352E-01
          2   -1    0    0  501    0  0.00000000000E+00  0.00000000000E+00  0.32857626881E+04  0.32857626881E+04  0.00000000000E+00 0. -1.
         -1   -1    0    0    0  501 -0.00000000000E+00 -0.00000000000E+00 -0.69505449093E+03  0.69505449093E+03  0.00000000000E+00 0.  1.
         24    2    1    2    0    0  0.75126756321E+03  0.20528347246E+03  0.26722858266E+04  0.27845049940E+04  0.76238226284E+02 0.  0.
        254    2    1    2    0    0 -0.75126756321E+03 -0.20528347246E+03 -0.81577629362E+02  0.11963121851E+04  0.90441344469E+03 0.  0.
         23    2    4    4    0    0 -0.38399899557E+03 -0.17869919545E+03  0.39503366253E+03  0.58632115095E+03  0.91281249242E+02 0.  0.
         23    2    4    4    0    0 -0.36726856763E+03 -0.26584277007E+02 -0.47661129190E+03  0.60999103412E+03  0.96632363020E+02 0.  0.
          2    1    3    3  502    0  0.67023826057E+03  0.18624706448E+03  0.24606527399E+04  0.25570919423E+04  0.00000000000E+00 0. -1.
         -1    1    3    3    0  502  0.81029302636E+02  0.19036407976E+02  0.21163308666E+03  0.22741305170E+03  0.00000000000E+00 0.  1.
         13    1    5    5    0    0 -0.19219180810E+03 -0.10444289189E+03  0.14442125057E+03  0.26211353720E+03  0.00000000000E+00 0.  1.
        -13    1    5    5    0    0 -0.19180718748E+03 -0.74256303560E+02  0.25061241196E+03  0.32420761375E+03  0.00000000000E+00 0. -1.
          3    1    6    6  503    0 -0.11323733680E+03 -0.40387678135E+02 -0.10489513179E+03  0.15955202181E+03  0.00000000000E+00 0. -1.
         -3    1    6    6    0  503 -0.25403123084E+03  0.13803401128E+02 -0.37171616011E+03  0.45043901231E+03  0.00000000000E+00 0.  1.
<mgrwt>
<rscale>  0 0.30224388E+04</rscale>
<asrwt>0</asrwt>
<pdfrwt beam="1">  1        2 0.50550194E+00 0.30224388E+04</pdfrwt>
<pdfrwt beam="2">  1       -1 0.10693146E+00 0.30224388E+04</pdfrwt>
<totfact> 0.90081323E-01</totfact>
</mgrwt>
</event>
<event>
12    7  0.1625631E-007  0.2107243E+04  0.7818608E-02  0.8558059E-01
         -1   -1    0    0    0  501 -0.00000000000E+00  0.00000000000E+00  0.48621780181E+03  0.48621780181E+03  0.00000000000E+00 0.  1.
          2   -1    0    0  501    0  0.00000000000E+00 -0.00000000000E+00 -0.22831708017E+04  0.22831708017E+04  0.00000000000E+00 0. -1.
         24    2    1    2    0    0  0.55543131871E+03  0.20415244004E+03 -0.15505226410E+04  0.16615359675E+04  0.79994639608E+02 0.  0.
        254    2    1    2    0    0 -0.55543131871E+03 -0.20415244004E+03 -0.24643035889E+03  0.11078526360E+04  0.90356370711E+03 0.  0.
         23    2    4    4    0    0 -0.37716996505E+03  0.67321517303E+02 -0.53502950792E+03  0.66456334869E+03  0.92728101676E+02 0.  0.
         23    2    4    4    0    0 -0.17826135366E+03 -0.27147395734E+03  0.28859914903E+03  0.44328928735E+03  0.87981269226E+02 0.  0.
          2    1    3    3  502    0  0.40198986815E+03  0.14690220397E+03 -0.12149783659E+04  0.12881570328E+04  0.00000000000E+00 0. -1.
         -1    1    3    3    0  502  0.15344145056E+03  0.57250236073E+02 -0.33554427510E+03  0.37337893464E+03  0.00000000000E+00 0.  1.
         13    1    5    5    0    0 -0.50486396058E+02 -0.10514259465E+02 -0.12049032510E+03  0.13106236791E+03  0.00000000000E+00 0. -1.
        -13    1    5    5    0    0 -0.32668356899E+03  0.77835776768E+02 -0.41453918282E+03  0.53350098078E+03  0.00000000000E+00 0.  1.
          1    1    6    6  503    0 -0.31407754329E+02 -0.45571357283E+01  0.24279339455E+02  0.39958739250E+02  0.00000000000E+00 0. -1.
         -1    1    6    6    0  503 -0.14685359933E+03 -0.26691682161E+03  0.26431980958E+03  0.40333054810E+03  0.00000000000E+00 0.  1.
<mgrwt>
<rscale>  0 0.21072430E+04</rscale>
<asrwt>0</asrwt>
<pdfrwt beam="1">  1        2 0.35125705E+00 0.21072430E+04</pdfrwt>
<pdfrwt beam="2">  1       -1 0.74802739E-01 0.21072430E+04</pdfrwt>
<totfact> 0.87342195E+00</totfact>
</mgrwt>
</event>
<event>
12    7  0.1625631E-007  0.1159715E+04  0.7818608E-02  0.9148868E-01
         -1   -1    0    0    0  501 -0.00000000000E+00  0.00000000000E+00  0.12008994906E+03  0.12008994906E+03  0.00000000000E+00 0.  1.
          2   -1    0    0  501    0  0.00000000000E+00 -0.00000000000E+00 -0.27998552165E+04  0.27998552165E+04  0.00000000000E+00 0. -1.
         24    2    1    2    0    0 -0.17289747143E+03  0.12256480740E+03 -0.57883873467E+03  0.62148990625E+03  0.79244906309E+02 0.  0.
        254    2    1    2    0    0  0.17289747143E+03 -0.12256480740E+03 -0.21009265328E+04  0.22984552594E+04  0.90779326685E+03 0.  0.
         23    2    4    4    0    0 -0.14648901102E+03  0.30534359879E+03 -0.11708063223E+04  0.12220771673E+04  0.89394713333E+02 0.  0.
         23    2    4    4    0    0  0.31938648245E+03 -0.42790840619E+03 -0.93012021049E+03  0.10763780921E+04  0.91393992365E+02 0.  0.
          4    1    3    3  502    0 -0.98495228409E+02  0.11498843729E+03 -0.39474150697E+03  0.42278186817E+03  0.00000000000E+00 0. -1.
         -3    1    3    3    0  502 -0.74402243019E+02  0.75763701159E+01 -0.18409722771E+03  0.19870803809E+03  0.00000000000E+00 0.  1.
         13    1    5    5    0    0 -0.26965616976E+02  0.10442407435E+03 -0.25431344992E+03  0.27623696822E+03  0.00000000000E+00 0. -1.
        -13    1    5    5    0    0 -0.11952339404E+03  0.20091952444E+03 -0.91649287241E+03  0.94584019908E+03  0.00000000000E+00 0.  1.
          1    1    6    6  503    0  0.23630963630E+02 -0.16650468232E+02 -0.21265060302E+02  0.35886812676E+02  0.00000000000E+00 0. -1.
         -1    1    6    6    0  503  0.29575551882E+03 -0.41125793796E+03 -0.90885515019E+03  0.10404912794E+04  0.00000000000E+00 0.  1.
<mgrwt>
<rscale>  0 0.11597146E+04</rscale>
<asrwt>0</asrwt>
<pdfrwt beam="1">  1        2 0.43074697E+00 0.11597146E+04</pdfrwt>
<pdfrwt beam="2">  1       -1 0.18475376E-01 0.11597146E+04</pdfrwt>
<totfact> 0.61600211E+01</totfact>
</mgrwt>
</event>
<event>
12    7  0.1625631E-007  0.1541500E+04  0.7818608E-02  0.8857316E-01
          2   -1    0    0  501    0  0.00000000000E+00  0.00000000000E+00  0.60338755762E+03  0.60338755762E+03  0.00000000000E+00 0. -1.
         -1   -1    0    0    0  501 -0.00000000000E+00 -0.00000000000E+00 -0.98453345180E+03  0.98453345180E+03  0.00000000000E+00 0.  1.
         24    2    1    2    0    0 -0.25874650060E+03  0.37089553182E+03  0.99022497111E+02  0.46992873241E+03  0.80711284925E+02 0.  0.
        254    2    1    2    0    0  0.25874650060E+03 -0.37089553182E+03 -0.48016839129E+03  0.11179922770E+04  0.90268034229E+03 0.  0.
         23    2    4    4    0    0 -0.11586894644E+03 -0.46638217184E+03 -0.52546313845E+03  0.71733262889E+03  0.86698602286E+02 0.  0.
         23    2    4    4    0    0  0.37461544703E+03  0.95486640022E+02  0.45294747165E+02  0.40065964812E+03  0.94984777358E+02 0.  0.
          2    1    3    3  502    0 -0.17295401435E+03  0.23160240513E+03  0.10138011959E+03  0.30631796191E+03  0.00000000000E+00 0. -1.
         -1    1    3    3    0  502 -0.85792486245E+02  0.13929312669E+03 -0.23576224738E+01  0.16361077050E+03  0.00000000000E+00 0.  1.
         13    1    5    5    0    0 -0.85461085246E+02 -0.43448799414E+03 -0.49251759157E+03  0.66231185415E+03  0.00000000000E+00 0.  1.
        -13    1    5    5    0    0 -0.30407861191E+02 -0.31894177699E+02 -0.32945546881E+02  0.55020774737E+02  0.00000000000E+00 0. -1.
          2    1    6    6  503    0  0.17967387549E+03  0.21341823380E+02 -0.20178424188E+02  0.18205862727E+03  0.00000000000E+00 0. -1.
         -2    1    6    6    0  503  0.19494157154E+03  0.74144816642E+02  0.65473171353E+02  0.21860102085E+03  0.00000000000E+00 0.  1.
<mgrwt>
<rscale>  0 0.15414996E+04</rscale>
<asrwt>0</asrwt>
<pdfrwt beam="1">  1        2 0.92828855E-01 0.15414996E+04</pdfrwt>
<pdfrwt beam="2">  1       -1 0.15146668E+00 0.15414996E+04</pdfrwt>
<totfact> 0.18424008E+01</totfact>
</mgrwt>
</event>
<event>
12    7  0.1625631E-007  0.1939210E+04  0.7818608E-02  0.8635582E-01
         -1   -1    0    0    0  501 -0.00000000000E+00  0.00000000000E+00  0.38543161830E+03  0.38543161830E+03  0.00000000000E+00 0.  1.
          2   -1    0    0  501    0  0.00000000000E+00 -0.00000000000E+00 -0.24391711679E+04  0.24391711679E+04  0.00000000000E+00 0. -1.
         24    2    1    2    0    0 -0.96147924757E+02  0.49436611046E+03 -0.16414358263E+04  0.17186763675E+04  0.76776360335E+02 0.  0.
        254    2    1    2    0    0  0.96147924757E+02 -0.49436611046E+03 -0.41230372329E+03  0.11059264187E+04  0.89411219030E+03 0.  0.
         23    2    4    4    0    0 -0.33576200594E+03 -0.35148647806E+03 -0.40961144102E+03  0.64214638291E+03  0.91058089025E+02 0.  0.
         23    2    4    4    0    0  0.43190993070E+03 -0.14287963240E+03 -0.26922822655E+01  0.46378003584E+03  0.90132655970E+02 0.  0.
          2    1    3    3  502    0 -0.10518368072E+03  0.39130706204E+03 -0.13447542210E+04  0.14044745418E+04  0.00000000000E+00 0. -1.
         -1    1    3    3    0  502  0.90357559634E+01  0.10305904841E+03 -0.29668160529E+03  0.31420182568E+03  0.00000000000E+00 0.  1.
         13    1    5    5    0    0 -0.24968983916E+03 -0.23568936448E+03 -0.23717152689E+03  0.41730663243E+03  0.00000000000E+00 0.  1.
        -13    1    5    5    0    0 -0.86072166784E+02 -0.11579711358E+03 -0.17243991413E+03  0.22483975047E+03  0.00000000000E+00 0. -1.
          4    1    6    6  503    0  0.20458484840E+02 -0.27224275846E+02  0.12063501763E+02  0.36128089792E+02  0.00000000000E+00 0. -1.
         -4    1    6    6    0  503  0.41145144586E+03 -0.11565535656E+03 -0.14755784028E+02  0.42765194605E+03  0.00000000000E+00 0.  1.
<mgrwt>
<rscale>  0 0.19392098E+04</rscale>
<asrwt>0</asrwt>
<pdfrwt beam="1">  1        2 0.37525711E+00 0.19392098E+04</pdfrwt>
<pdfrwt beam="2">  1       -1 0.59297171E-01 0.19392098E+04</pdfrwt>
<totfact> 0.11573012E+01</totfact>
</mgrwt>
</event>
<event>
12    7  0.1625631E-007  0.1863585E+04  0.7818608E-02  0.8673198E-01
         -1   -1    0    0    0  501 -0.00000000000E+00  0.00000000000E+00  0.59382760337E+03  0.59382760337E+03  0.00000000000E+00 0.  1.
          2   -1    0    0  501    0  0.00000000000E+00 -0.00000000000E+00 -0.14621031907E+04  0.14621031907E+04  0.00000000000E+00 0. -1.
         24    2    1    2    0    0 -0.26415007179E+03 -0.39133055917E+03 -0.88662343382E+03  0.10080377204E+04  0.84404178689E+02 0.  0.
        254    2    1    2    0    0  0.26415007179E+03  0.39133055917E+03  0.18347846500E+02  0.10478930737E+04  0.93532260927E+03 0.  0.
         23    2    4    4    0    0  0.60501918029E+03  0.20083464789E+03 -0.24262196384E+02  0.64448200940E+03  0.91573150864E+02 0.  0.
         23    2    4    4    0    0 -0.34086910850E+03  0.19049591128E+03  0.42610042884E+02  0.40341106427E+03  0.91893578014E+02 0.  0.
          2    1    3    3  502    0 -0.26259268861E+02 -0.63517809223E+02 -0.19225474813E+03  0.20417137279E+03  0.00000000000E+00 0. -1.
         -1    1    3    3    0  502 -0.23789080293E+03 -0.32781274994E+03 -0.69436868569E+03  0.80386634761E+03  0.00000000000E+00 0.  1.
         13    1    5    5    0    0  0.11245875670E+03  0.19548145763E+02 -0.35377952503E+02  0.11950188905E+03  0.00000000000E+00 0. -1.
        -13    1    5    5    0    0  0.49256042358E+03  0.18128650212E+03  0.11115756119E+02  0.52498012035E+03  0.00000000000E+00 0.  1.
          3    1    6    6  503    0 -0.17850856745E+03  0.14890001693E+03  0.39421542460E+02  0.23577655037E+03  0.00000000000E+00 0. -1.
         -3    1    6    6    0  503 -0.16236054105E+03  0.41595894349E+02  0.31885004242E+01  0.16763451390E+03  0.00000000000E+00 0.  1.
<mgrwt>
<rscale>  0 0.18635850E+04</rscale>
<asrwt>0</asrwt>
<pdfrwt beam="1">  1        2 0.22493895E+00 0.18635850E+04</pdfrwt>
<pdfrwt beam="2">  1       -1 0.91358094E-01 0.18635850E+04</pdfrwt>
<totfact> 0.16681326E+01</totfact>
</mgrwt>
</event>
<event>
12    7  0.1625631E-007  0.1319721E+04  0.7818608E-02  0.9014071E-01
         -1   -1    0    0    0  501 -0.00000000000E+00  0.00000000000E+00  0.17110791229E+03  0.17110791229E+03  0.00000000000E+00 0.  1.
          2   -1    0    0  501    0  0.00000000000E+00 -0.00000000000E+00 -0.25446847785E+04  0.25446847785E+04  0.00000000000E+00 0. -1.
         24    2    1    2    0    0  0.21845570857E+02 -0.33722975226E+03 -0.79555921592E+03  0.86732122269E+03  0.71627526314E+02 0.  0.
        254    2    1    2    0    0 -0.21845570857E+02  0.33722975226E+03 -0.15780176503E+04  0.18484714681E+04  0.90139110766E+03 0.  0.
         23    2    4    4    0    0  0.22710438339E+03  0.55192956423E+03 -0.11706590648E+04  0.13170366428E+04  0.89107955369E+02 0.  0.
         23    2    4    4    0    0 -0.24894995425E+03 -0.21469981197E+03 -0.40735858548E+03  0.53143482527E+03  0.91705328990E+02 0.  0.
          4    1    3    3  502    0  0.22203760474E+02 -0.30927976810E+03 -0.66409546675E+03  0.73291866595E+03  0.00000000000E+00 0. -1.
         -3    1    3    3    0  502 -0.35818961730E+00 -0.27949984156E+02 -0.13146374917E+03  0.13440255675E+03  0.00000000000E+00 0.  1.
         13    1    5    5    0    0  0.78062221894E+02  0.28862333126E+03 -0.63391525914E+03  0.70088921636E+03  0.00000000000E+00 0.  1.
        -13    1    5    5    0    0  0.14904216150E+03  0.26330623297E+03 -0.53674380564E+03  0.61614742645E+03  0.00000000000E+00 0. -1.
          4    1    6    6  503    0 -0.19221927500E+03 -0.10935287566E+03 -0.27783405975E+03  0.35510289474E+03  0.00000000000E+00 0.  1.
         -4    1    6    6    0  503 -0.56730679248E+02 -0.10534693631E+03 -0.12952452573E+03  0.17633193053E+03  0.00000000000E+00 0. -1.
<mgrwt>
<rscale>  0 0.13197207E+04</rscale>
<asrwt>0</asrwt>
<pdfrwt beam="1">  1        2 0.39148996E+00 0.13197207E+04</pdfrwt>
<pdfrwt beam="2">  1       -1 0.26324295E-01 0.13197207E+04</pdfrwt>
<totfact> 0.47079530E+01</totfact>
</mgrwt>
</event>
<event>
12    7  0.1625631E-007  0.1411902E+04  0.7818608E-02  0.8945248E-01
         -1   -1    0    0    0  501 -0.00000000000E+00  0.00000000000E+00  0.20203447691E+03  0.20203447691E+03  0.00000000000E+00 0.  1.
          2   -1    0    0  501    0  0.00000000000E+00 -0.00000000000E+00 -0.24667418562E+04  0.24667418562E+04  0.00000000000E+00 0. -1.
         24    2    1    2    0    0 -0.33938612218E+03 -0.18363259069E+03 -0.91544137384E+03  0.99669467352E+03  0.80395864356E+02 0.  0.
        254    2    1    2    0    0  0.33938612218E+03  0.18363259069E+03 -0.13492660055E+04  0.16720816596E+04  0.90908440453E+03 0.  0.
         23    2    4    4    0    0  0.14142425460E+03  0.25892024199E+03 -0.61834719953E+01  0.30927617291E+03  0.92590519497E+02 0.  0.
         23    2    4    4    0    0  0.19796186758E+03 -0.75287651301E+02 -0.13430825335E+04  0.13628054867E+04  0.92254926018E+02 0.  0.
          2    1    3    3  502    0 -0.30771711979E+03 -0.15652871065E+03 -0.74308712564E+03  0.81937142943E+03  0.00000000000E+00 0. -1.
         -1    1    3    3    0  502 -0.31669002392E+02 -0.27103880043E+02 -0.17235424819E+03  0.17732324409E+03  0.00000000000E+00 0.  1.
         13    1    5    5    0    0  0.44434444834E+02  0.17483296627E+03  0.46794723133E+01  0.18045188678E+03  0.00000000000E+00 0.  1.
        -13    1    5    5    0    0  0.96989809768E+02  0.84087275725E+02 -0.10862944309E+02  0.12882428613E+03  0.00000000000E+00 0. -1.
          2    1    6    6  503    0  0.19450232247E+03 -0.77284666765E+02 -0.11025100106E+04  0.11221998025E+04  0.00000000000E+00 0.  1.
         -2    1    6    6    0  503  0.34595451090E+01  0.19970154638E+01 -0.24057252282E+03  0.24060568418E+03  0.00000000000E+00 0. -1.
<mgrwt>
<rscale>  0 0.14119021E+04</rscale>
<asrwt>0</asrwt>
<pdfrwt beam="1">  1        2 0.37949873E+00 0.14119021E+04</pdfrwt>
<pdfrwt beam="2">  1       -1 0.31082229E-01 0.14119021E+04</pdfrwt>
<totfact> 0.38762896E+01</totfact>
</mgrwt>
</event>
<event>
12    7  0.1625631E-007  0.1159912E+04  0.7818608E-02  0.9148687E-01
         -1   -1    0    0    0  501 -0.00000000000E+00  0.00000000000E+00  0.94907519522E+02  0.94907519522E+02  0.00000000000E+00 0.  1.
          2   -1    0    0  501    0  0.00000000000E+00 -0.00000000000E+00 -0.35439673412E+04  0.35439673412E+04  0.00000000000E+00 0. -1.
         24    2    1    2    0    0 -0.28882532421E+02  0.12715311382E+02 -0.13068662662E+04  0.13098794964E+04  0.82999865029E+02 0.  0.
        254    2    1    2    0    0  0.28882532421E+02 -0.12715311382E+02 -0.21421935555E+04  0.23289953643E+04  0.91336208482E+03 0.  0.
         23    2    4    4    0    0 -0.27128638233E+03 -0.24452434167E+03 -0.42230619196E+03  0.56546218358E+03  0.89534945031E+02 0.  0.
         23    2    4    4    0    0  0.30016891475E+03  0.23180903028E+03 -0.17198873636E+04  0.17635331808E+04  0.90553478234E+02 0.  0.
          2    1    3    3  502    0 -0.11525624498E+01 -0.32563179541E+02 -0.34041370506E+03  0.34196955955E+03  0.00000000000E+00 0. -1.
         -1    1    3    3    0  502 -0.27729969972E+02  0.45278490923E+02 -0.96645256109E+03  0.96790993683E+03  0.00000000000E+00 0.  1.
         13    1    5    5    0    0 -0.12478663177E+01  0.41367693493E+01  0.16868332295E+01  0.46384736002E+01  0.00000000000E+00 0. -1.
        -13    1    5    5    0    0 -0.27003851601E+03 -0.24866111101E+03 -0.42399302519E+03  0.56082370998E+03  0.00000000000E+00 0.  1.
          3    1    6    6  503    0  0.13741043635E+03  0.62063905218E+02 -0.55311376394E+03  0.57329607727E+03  0.00000000000E+00 0. -1.
         -3    1    6    6    0  503  0.16275847840E+03  0.16974512507E+03 -0.11667735996E+04  0.11902371035E+04  0.00000000000E+00 0.  1.
<mgrwt>
<rscale>  0 0.11599123E+04</rscale>
<asrwt>0</asrwt>
<pdfrwt beam="1">  1        2 0.54522576E+00 0.11599123E+04</pdfrwt>
<pdfrwt beam="2">  1       -1 0.14601156E-01 0.11599123E+04</pdfrwt>
<totfact> 0.30194269E+01</totfact>
</mgrwt>
</event>
<event>
12    7  0.1625631E-007  0.1590521E+04  0.7818608E-02  0.8826393E-01
         -1   -1    0    0    0  501 -0.00000000000E+00  0.00000000000E+00  0.57025782824E+03  0.57025782824E+03  0.00000000000E+00 0.  1.
          2   -1    0    0  501    0  0.00000000000E+00 -0.00000000000E+00 -0.11090405866E+04  0.11090405866E+04  0.00000000000E+00 0. -1.
         24    2    1    2    0    0  0.27477656012E+03 -0.36200923355E+03  0.97111135568E+02  0.47180020949E+03  0.81314339785E+02 0.  0.
        254    2    1    2    0    0 -0.27477656012E+03  0.36200923355E+03 -0.63589389391E+03  0.12074982053E+04  0.92040101501E+03 0.  0.
         23    2    4    4    0    0 -0.22181805027E+03  0.16914295047E+03  0.19118503444E+03  0.35153056497E+03  0.95965804303E+02 0.  0.
         23    2    4    4    0    0 -0.52958509857E+02  0.19286628308E+03 -0.82707892836E+03  0.85596764037E+03  0.92838788866E+02 0.  0.
          2    1    3    3  502    0  0.10412865365E+03 -0.12480875148E+03 -0.40081759436E+01  0.16259171698E+03  0.00000000000E+00 0. -1.
         -1    1    3    3    0  502  0.17064790647E+03 -0.23720048207E+03  0.10111931151E+03  0.30920849251E+03  0.00000000000E+00 0.  1.
         13    1    5    5    0    0 -0.22499835156E+03  0.16956919695E+03  0.16779705986E+03  0.32792350336E+03  0.00000000000E+00 0.  1.
        -13    1    5    5    0    0  0.31803012958E+01 -0.42624648505E+00  0.23387974588E+02  0.23607061608E+02  0.00000000000E+00 0. -1.
          2    1    6    6  503    0  0.26341219306E+02  0.61750023522E+02 -0.26603305205E+03  0.27437293967E+03  0.00000000000E+00 0. -1.
         -2    1    6    6    0  503 -0.79299729164E+02  0.13111625956E+03 -0.56104587630E+03  0.58159470070E+03  0.00000000000E+00 0.  1.
<mgrwt>
<rscale>  0 0.15905208E+04</rscale>
<asrwt>0</asrwt>
<pdfrwt beam="1">  1        2 0.17062163E+00 0.15905208E+04</pdfrwt>
<pdfrwt beam="2">  1       -1 0.87731975E-01 0.15905208E+04</pdfrwt>
<totfact> 0.30084718E+01</totfact>
</mgrwt>
</event>
<event>
12    7  0.1625631E-007  0.1515328E+04  0.7818608E-02  0.8874323E-01
         -3   -1    0    0    0  501 -0.00000000000E+00  0.00000000000E+00  0.12336397504E+04  0.12336397504E+04  0.00000000000E+00 0.  1.
          2   -1    0    0  501    0  0.00000000000E+00 -0.00000000000E+00 -0.46533427056E+03  0.46533427056E+03  0.00000000000E+00 0. -1.
         24    2    1    2    0    0 -0.60213823891E+01  0.10241057720E+03  0.79063587880E+03  0.80082917025E+03  0.75485652337E+02 0.  0.
        254    2    1    2    0    0  0.60213823891E+01 -0.10241057720E+03 -0.22330398923E+02  0.89814485075E+03  0.89198729971E+03 0.  0.
         23    2    4    4    0    0  0.25229306586E+03  0.26882438430E+03 -0.17529690825E+03  0.41860600487E+03  0.92647938982E+02 0.  0.
         23    2    4    4    0    0 -0.24627168347E+03 -0.37123496150E+03  0.15296650933E+03  0.47953884588E+03  0.89964509771E+02 0.  0.
          4    1    3    3  502    0  0.20746785011E+01 -0.11898330210E+02  0.54096411793E+02  0.55428298923E+02  0.00000000000E+00 0. -1.
         -1    1    3    3    0  502 -0.80960608901E+01  0.11430890741E+03  0.73653946700E+03  0.74540087132E+03  0.00000000000E+00 0.  1.
         13    1    5    5    0    0  0.48726031574E+02  0.58705377476E+02  0.23653988019E+01  0.76329172726E+02  0.00000000000E+00 0. -1.
        -13    1    5    5    0    0  0.20356703428E+03  0.21011900682E+03 -0.17766230705E+03  0.34227683214E+03  0.00000000000E+00 0.  1.
          4    1    6    6  503    0 -0.14326308868E+02 -0.22604832318E+02 -0.12189542139E+02  0.29407592684E+02  0.00000000000E+00 0. -1.
         -4    1    6    6    0  503 -0.23194537460E+03 -0.34863012918E+03  0.16515605147E+03  0.45013125320E+03  0.00000000000E+00 0.  1.
<mgrwt>
<rscale>  0 0.15153282E+04</rscale>
<asrwt>0</asrwt>
<pdfrwt beam="1">  1        2 0.71589888E-01 0.15153282E+04</pdfrwt>
<pdfrwt beam="2">  1       -3 0.18979073E+00 0.15153282E+04</pdfrwt>
<totfact> 0.68818568E+00</totfact>
</mgrwt>
</event>
<event>
12    7  0.1625631E-007  0.4025130E+04  0.7818608E-02  0.7999496E-01
         -1   -1    0    0    0  501 -0.00000000000E+00  0.00000000000E+00  0.15848037546E+04  0.15848037546E+04  0.00000000000E+00 0.  1.
          2   -1    0    0  501    0  0.00000000000E+00 -0.00000000000E+00 -0.25557854708E+04  0.25557854708E+04  0.00000000000E+00 0. -1.
         24    2    1    2    0    0  0.65864534525E+03  0.16730130916E+04  0.20613903169E+03  0.18117689515E+04  0.85011398923E+02 0.  0.
        254    2    1    2    0    0 -0.65864534525E+03 -0.16730130916E+04 -0.11771207479E+04  0.23288202739E+04  0.89722021698E+03 0.  0.
         23    2    4    4    0    0  0.18269521990E+03 -0.40868090850E+03 -0.45455924784E+03  0.64452539933E+03  0.91603778520E+02 0.  0.
         23    2    4    4    0    0 -0.84134056515E+03 -0.12643321831E+04 -0.72256150001E+03  0.16842948746E+04  0.91456478819E+02 0.  0.
          2    1    3    3  502    0  0.20798712308E+03  0.51137082055E+03  0.10235605480E+03  0.56145838798E+03  0.00000000000E+00 0. -1.
         -3    1    3    3    0  502  0.45065822217E+03  0.11616422710E+04  0.10378297689E+03  0.12503105635E+04  0.00000000000E+00 0.  1.
         13    1    5    5    0    0  0.18510930941E+03 -0.40771389787E+03 -0.43325082254E+03  0.62305886895E+03  0.00000000000E+00 0.  1.
        -13    1    5    5    0    0 -0.24140895077E+01 -0.96701062662E+00 -0.21308425302E+02  0.21466530380E+02  0.00000000000E+00 0. -1.
          2    1    6    6  503    0 -0.12009324506E+03 -0.24353209869E+03 -0.13080260410E+03  0.30139607137E+03  0.00000000000E+00 0. -1.
         -2    1    6    6    0  503 -0.72124732009E+03 -0.10208000844E+04 -0.59175889592E+03  0.13828988032E+04  0.00000000000E+00 0.  1.
<mgrwt>
<rscale>  0 0.40251303E+04</rscale>
<asrwt>0</asrwt>
<pdfrwt beam="1">  1        2 0.39319776E+00 0.40251303E+04</pdfrwt>
<pdfrwt beam="2">  1       -1 0.24381596E+00 0.40251303E+04</pdfrwt>
<totfact> 0.22118972E-01</totfact>
</mgrwt>
</event>
<event>
12    7  0.1625631E-007  0.2137970E+04  0.7818608E-02  0.8544699E-01
          2   -1    0    0  501    0  0.00000000000E+00  0.00000000000E+00  0.25940251689E+04  0.25940251689E+04  0.00000000000E+00 0. -1.
         -1   -1    0    0    0  501 -0.00000000000E+00 -0.00000000000E+00 -0.44052339487E+03  0.44052339487E+03  0.00000000000E+00 0.  1.
         24    2    1    2    0    0 -0.62366393614E+03 -0.61129408852E+03  0.97086825935E+03  0.13080640968E+04  0.76219003829E+02 0.  0.
        254    2    1    2    0    0  0.62366393614E+03  0.61129408852E+03  0.11826335147E+04  0.17264844670E+04  0.90525654741E+03 0.  0.
         23    2    4    4    0    0  0.61555338758E+03  0.34854708155E+03  0.25450270835E+03  0.75720873510E+03  0.90567096350E+02 0.  0.
         23    2    4    4    0    0  0.81105485589E+01  0.26274700696E+03  0.92813080637E+03  0.96927573186E+03  0.94693611075E+02 0.  0.
          2    1    3    3  502    0 -0.16499263425E+02 -0.58137165189E+01  0.96972242507E+01  0.20001528729E+02  0.00000000000E+00 0. -1.
         -1    1    3    3    0  502 -0.60716467271E+03 -0.60548037200E+03  0.96117103510E+03  0.12880625681E+04  0.00000000000E+00 0.  1.
         13    1    5    5    0    0  0.46627613315E+03  0.23908337958E+03  0.22282144250E+03  0.56940643655E+03  0.00000000000E+00 0.  1.
        -13    1    5    5    0    0  0.14927725442E+03  0.10946370197E+03  0.31681265849E+02  0.18780229856E+03  0.00000000000E+00 0. -1.
          3    1    6    6  503    0  0.29449665743E+02  0.33041424850E+02  0.95169393597E+02  0.10495823953E+03  0.00000000000E+00 0. -1.
         -3    1    6    6    0  503 -0.21339117184E+02  0.22970558211E+03  0.83296141277E+03  0.86431749233E+03  0.00000000000E+00 0.  1.
<mgrwt>
<rscale>  0 0.21379699E+04</rscale>
<asrwt>0</asrwt>
<pdfrwt beam="1">  1        2 0.39908079E+00 0.21379699E+04</pdfrwt>
<pdfrwt beam="2">  1       -1 0.67772831E-01 0.21379699E+04</pdfrwt>
<totfact> 0.70741597E+00</totfact>
</mgrwt>
</event>
<event>
12    7  0.1625631E-007  0.3602503E+04  0.7818608E-02  0.8089918E-01
         -1   -1    0    0    0  501 -0.00000000000E+00  0.00000000000E+00  0.92392864759E+03  0.92392864759E+03  0.00000000000E+00 0.  1.
          2   -1    0    0  501    0  0.00000000000E+00 -0.00000000000E+00 -0.35116433173E+04  0.35116433173E+04  0.00000000000E+00 0. -1.
         24    2    1    2    0    0  0.98682844283E+03  0.67871884486E+02 -0.28476803723E+04  0.30156663423E+04  0.80765195281E+02 0.  0.
        254    2    1    2    0    0 -0.98682844283E+03 -0.67871884486E+02  0.25996570267E+03  0.14199056226E+04  0.98494306542E+03 0.  0.
         23    2    4    4    0    0 -0.51255344612E+03 -0.30592793430E+03  0.54246405282E+03  0.81179710038E+03  0.91893130681E+02 0.  0.
         23    2    4    4    0    0 -0.47427499671E+03  0.23805604982E+03 -0.28249835015E+03  0.60810852218E+03  0.91559824950E+02 0.  0.
          2    1    3    3  502    0  0.86850265594E+03  0.85917623666E+02 -0.24987099769E+04  0.26467395509E+04  0.00000000000E+00 0. -1.
         -1    1    3    3    0  502  0.11832578689E+03 -0.18045739180E+02 -0.34897039542E+03  0.36892679142E+03  0.00000000000E+00 0.  1.
         13    1    5    5    0    0 -0.43175958984E+02 -0.43358561382E+02  0.27144301334E+02  0.66939833987E+02  0.00000000000E+00 0. -1.
        -13    1    5    5    0    0 -0.46937748714E+03 -0.26256937292E+03  0.51531975148E+03  0.74485726639E+03  0.00000000000E+00 0.  1.
          2    1    6    6  503    0 -0.12387985341E+03  0.98231110144E+02 -0.11406849860E+03  0.19495433171E+03  0.00000000000E+00 0. -1.
         -2    1    6    6    0  503 -0.35039514330E+03  0.13982493967E+03 -0.16842985155E+03  0.41315419046E+03  0.00000000000E+00 0.  1.
<mgrwt>
<rscale>  0 0.36025035E+04</rscale>
<asrwt>0</asrwt>
<pdfrwt beam="1">  1        2 0.54025282E+00 0.36025035E+04</pdfrwt>
<pdfrwt beam="2">  1       -1 0.14214287E+00 0.36025035E+04</pdfrwt>
<totfact> 0.29669563E-01</totfact>
</mgrwt>
</event>
<event>
12    7  0.1625631E-007  0.1162562E+04  0.7818608E-02  0.9146272E-01
          2   -1    0    0  501    0  0.00000000000E+00  0.00000000000E+00  0.84642298440E+03  0.84642298440E+03  0.00000000000E+00 0. -1.
         -1   -1    0    0    0  501 -0.00000000000E+00 -0.00000000000E+00 -0.39919481795E+03  0.39919481795E+03  0.00000000000E+00 0.  1.
         24    2    1    2    0    0  0.16108016582E+03 -0.10941719901E+03  0.21122872416E+03  0.29599125822E+03  0.71234175592E+02 0.  0.
        254    2    1    2    0    0 -0.16108016582E+03  0.10941719901E+03  0.23599944230E+03  0.94962654413E+03  0.89898603620E+03 0.  0.
         23    2    4    4    0    0 -0.41266613692E+03  0.33972904911E+03  0.33475257224E+02  0.54275387767E+03  0.88045508174E+02 0.  0.
         23    2    4    4    0    0  0.25158597110E+03 -0.23031185009E+03  0.20252418507E+03  0.40687266646E+03  0.90500121711E+02 0.  0.
          4    1    3    3  502    0  0.32790355583E+02 -0.55612502741E+02  0.94187630549E+02  0.11418961261E+03  0.00000000000E+00 0. -1.
         -3    1    3    3    0  502  0.12828981024E+03 -0.53804696272E+02  0.11704109361E+03  0.18180164561E+03  0.00000000000E+00 0.  1.
         13    1    5    5    0    0 -0.11425712969E+03  0.14549426013E+03 -0.13469008183E+01  0.18500023124E+03  0.00000000000E+00 0. -1.
        -13    1    5    5    0    0 -0.29840900723E+03  0.19423478898E+03  0.34822158043E+02  0.35775364643E+03  0.00000000000E+00 0.  1.
          2    1    6    6  503    0  0.33529424919E+02 -0.73624150222E+02  0.72072014346E+02  0.10834718770E+03  0.00000000000E+00 0. -1.
         -2    1    6    6    0  503  0.21805654618E+03 -0.15668769987E+03  0.13045217073E+03  0.29852547876E+03  0.00000000000E+00 0.  1.
<mgrwt>
<rscale>  0 0.11625621E+04</rscale>
<asrwt>0</asrwt>
<pdfrwt beam="1">  1        2 0.13021892E+00 0.11625621E+04</pdfrwt>
<pdfrwt beam="2">  1       -1 0.61414588E-01 0.11625621E+04</pdfrwt>
<totfact> 0.96914052E+01</totfact>
</mgrwt>
</event>
<event>
12    7  0.1625631E-007  0.1448265E+04  0.7818608E-02  0.8919604E-01
          2   -1    0    0  501    0  0.00000000000E+00  0.00000000000E+00  0.21426150593E+04  0.21426150593E+04  0.00000000000E+00 0. -1.
         -1   -1    0    0    0  501 -0.00000000000E+00 -0.00000000000E+00 -0.24473254834E+03  0.24473254834E+03  0.00000000000E+00 0.  1.
         24    2    1    2    0    0  0.21511194506E+03 -0.37725490180E+03  0.65352975363E+03  0.78864921535E+03  0.79196187809E+02 0.  0.
        254    2    1    2    0    0 -0.21511194506E+03  0.37725490180E+03  0.12443527573E+04  0.15986983923E+04  0.90489134982E+03 0.  0.
         23    2    4    4    0    0  0.85747584851E+02 -0.29278458326E+02 -0.97338903175E+02  0.16196720715E+03  0.92458843224E+02 0.  0.
         23    2    4    4    0    0 -0.30085952991E+03  0.40653336013E+03  0.13416916605E+04  0.14367311851E+04  0.90962392411E+02 0.  0.
          4    1    3    3  502    0  0.62279433291E+02 -0.61921893191E+02  0.17185832087E+03  0.19299826715E+03  0.00000000000E+00 0. -1.
         -3    1    3    3    0  502  0.15283251177E+03 -0.31533300861E+03  0.48167143275E+03  0.59565094821E+03  0.00000000000E+00 0.  1.
         13    1    5    5    0    0  0.21363693906E+02  0.11909100045E+02  0.13033385103E+02  0.27714674965E+02  0.00000000000E+00 0. -1.
        -13    1    5    5    0    0  0.64383890945E+02 -0.41187558371E+02 -0.11037228828E+03  0.13425253218E+03  0.00000000000E+00 0.  1.
          4    1    6    6  503    0 -0.85450727393E+02  0.71964368793E+02  0.22386062641E+03  0.25018848344E+03  0.00000000000E+00 0. -1.
         -4    1    6    6    0  503 -0.21540880252E+03  0.33456899133E+03  0.11178310341E+04  0.11865427017E+04  0.00000000000E+00 0.  1.
<mgrwt>
<rscale>  0 0.14482647E+04</rscale>
<asrwt>0</asrwt>
<pdfrwt beam="1">  1        2 0.32963307E+00 0.14482647E+04</pdfrwt>
<pdfrwt beam="2">  1       -1 0.37651163E-01 0.14482647E+04</pdfrwt>
<totfact> 0.41834780E+01</totfact>
</mgrwt>
</event>
<event>
12    7  0.1625631E-007  0.1772798E+04  0.7818608E-02  0.8720901E-01
          2   -1    0    0  501    0  0.00000000000E+00  0.00000000000E+00  0.33317469417E+04  0.33317469417E+04  0.00000000000E+00 0. -1.
         -1   -1    0    0    0  501 -0.00000000000E+00 -0.00000000000E+00 -0.23582311316E+03  0.23582311316E+03  0.00000000000E+00 0.  1.
         24    2    1    2    0    0  0.66857731655E+02  0.58633256791E+03  0.17555307723E+04  0.18542817009E+04  0.90644897018E+02 0.  0.
        254    2    1    2    0    0 -0.66857731655E+02 -0.58633256791E+03  0.13403930562E+04  0.17132883539E+04  0.88907120193E+03 0.  0.
         23    2    4    4    0    0  0.23850882834E+03  0.76144766282E+02  0.13000766393E+03  0.29715568335E+03  0.93354275960E+02 0.  0.
         23    2    4    4    0    0 -0.30536655999E+03 -0.66247733419E+03  0.12103853923E+04  0.14161326706E+04  0.90961467494E+02 0.  0.
          2    1    3    3  502    0  0.44817316825E+02  0.39320075376E+03  0.10378555239E+04  0.11107472769E+04  0.00000000000E+00 0. -1.
         -1    1    3    3    0  502  0.22040414830E+02  0.19313181415E+03  0.71767524841E+03  0.74353442402E+03  0.00000000000E+00 0.  1.
         13    1    5    5    0    0  0.10643478913E+03  0.64682380568E+02  0.10354840464E+03  0.16197051212E+03  0.00000000000E+00 0.  1.
        -13    1    5    5    0    0  0.13207403921E+03  0.11462385714E+02  0.26459259296E+02  0.13518517123E+03  0.00000000000E+00 0. -1.
          3    1    6    6  503    0 -0.25785101809E+03 -0.57271537097E+03  0.10956051270E+04  0.12628700005E+04  0.00000000000E+00 0. -1.
         -3    1    6    6    0  503 -0.47515541896E+02 -0.89761963229E+02  0.11478026525E+03  0.15326267013E+03  0.00000000000E+00 0.  1.
<mgrwt>
<rscale>  0 0.17727977E+04</rscale>
<asrwt>0</asrwt>
<pdfrwt beam="1">  1        2 0.51257642E+00 0.17727977E+04</pdfrwt>
<pdfrwt beam="2">  1       -1 0.36280481E-01 0.17727977E+04</pdfrwt>
<totfact> 0.83675282E+00</totfact>
</mgrwt>
</event>
<event>
12    7  0.1625631E-007  0.1773715E+04  0.7818608E-02  0.8720404E-01
         -1   -1    0    0    0  501 -0.00000000000E+00  0.00000000000E+00  0.36312953716E+03  0.36312953716E+03  0.00000000000E+00 0.  1.
          2   -1    0    0  501    0  0.00000000000E+00 -0.00000000000E+00 -0.21659384614E+04  0.21659384614E+04  0.00000000000E+00 0. -1.
         24    2    1    2    0    0  0.57886706625E+03  0.11006618491E+03 -0.25335347156E+03  0.64621853707E+03  0.78795752828E+02 0.  0.
        254    2    1    2    0    0 -0.57886706625E+03 -0.11006618491E+03 -0.15494554527E+04  0.18828494615E+04  0.89280918977E+03 0.  0.
         23    2    4    4    0    0 -0.19223785985E+03 -0.55776501611E+02 -0.14537500724E+04  0.14703580159E+04  0.92179222920E+02 0.  0.
         23    2    4    4    0    0 -0.38662920640E+03 -0.54289683296E+02 -0.95705380305E+02  0.41249144557E+03  0.92521132166E+02 0.  0.
          2    1    3    3  502    0  0.44084307413E+02  0.30969601262E+02 -0.22025108578E+02  0.58203503075E+02  0.00000000000E+00 0. -1.
         -1    1    3    3    0  502  0.53478275883E+03  0.79096583645E+02 -0.23132836298E+03  0.58801503400E+03  0.00000000000E+00 0.  1.
         13    1    5    5    0    0 -0.49595453243E+02 -0.59560911301E+02 -0.53979697273E+03  0.54533291016E+03  0.00000000000E+00 0. -1.
        -13    1    5    5    0    0 -0.14264240660E+03  0.37844096898E+01 -0.91395309965E+03  0.92502510575E+03  0.00000000000E+00 0.  1.
          4    1    6    6  503    0 -0.10642438055E+03 -0.55325816674E+02 -0.42669003265E+02  0.12730961709E+03  0.00000000000E+00 0. -1.
         -4    1    6    6    0  503 -0.28020482585E+03  0.10361333780E+01 -0.53036377040E+02  0.28518182848E+03  0.00000000000E+00 0.  1.
<mgrwt>
<rscale>  0 0.17737150E+04</rscale>
<asrwt>0</asrwt>
<pdfrwt beam="1">  1        2 0.33322131E+00 0.17737150E+04</pdfrwt>
<pdfrwt beam="2">  1       -1 0.55866082E-01 0.17737150E+04</pdfrwt>
<totfact> 0.18848217E+01</totfact>
</mgrwt>
</event>
<event>
12    7  0.1625631E-007  0.1719211E+04  0.7818608E-02  0.8750483E-01
          2   -1    0    0  501    0  0.00000000000E+00  0.00000000000E+00  0.11229766518E+04  0.11229766518E+04  0.00000000000E+00 0. -1.
         -1   -1    0    0    0  501 -0.00000000000E+00 -0.00000000000E+00 -0.65800231455E+03  0.65800231455E+03  0.00000000000E+00 0.  1.
         24    2    1    2    0    0  0.16121465623E+02  0.49943169356E+03  0.56023882261E+03  0.75506230847E+03  0.80991562103E+02 0.  0.
        254    2    1    2    0    0 -0.16121465623E+02 -0.49943169356E+03 -0.95264485370E+02  0.10259166579E+04  0.89091960834E+03 0.  0.
         23    2    4    4    0    0  0.81859311094E+02  0.22626494002E+03 -0.12645705576E+03  0.28737170940E+03  0.93243458312E+02 0.  0.
         23    2    4    4    0    0 -0.97980776717E+02 -0.72569663358E+03  0.31192570389E+02  0.73854494846E+03  0.90773497558E+02 0.  0.
          2    1    3    3  502    0 -0.30832338954E+02  0.24867907824E+03  0.29470659307E+03  0.38683832938E+03  0.00000000000E+00 0. -1.
         -1    1    3    3    0  502  0.46953804577E+02  0.25075261531E+03  0.26553222954E+03  0.36822397909E+03  0.00000000000E+00 0.  1.
         13    1    5    5    0    0  0.10184955277E+03  0.18788910445E+03 -0.95034965084E+02  0.23389589898E+03  0.00000000000E+00 0.  1.
        -13    1    5    5    0    0 -0.19990241676E+02  0.38375835571E+02 -0.31422090675E+02  0.53475810424E+02  0.00000000000E+00 0. -1.
          1    1    6    6  503    0 -0.61119664691E+01 -0.79242270742E+02 -0.24648271169E+02  0.83211963552E+02  0.00000000000E+00 0. -1.
         -1    1    6    6    0  503 -0.91868810248E+02 -0.64645436283E+03  0.55840841558E+02  0.65533298491E+03  0.00000000000E+00 0.  1.
<mgrwt>
<rscale>  0 0.17192106E+04</rscale>
<asrwt>0</asrwt>
<pdfrwt beam="1">  1        2 0.17276564E+00 0.17192106E+04</pdfrwt>
<pdfrwt beam="2">  1       -1 0.10123113E+00 0.17192106E+04</pdfrwt>
<totfact> 0.21179083E+01</totfact>
</mgrwt>
</event>
<event>
12    7  0.1625631E-007  0.1507134E+04  0.7818608E-02  0.8879723E-01
         -1   -1    0    0    0  501 -0.00000000000E+00  0.00000000000E+00  0.45413744991E+03  0.45413744991E+03  0.00000000000E+00 0.  1.
          2   -1    0    0  501    0  0.00000000000E+00 -0.00000000000E+00 -0.12504215946E+04  0.12504215946E+04  0.00000000000E+00 0. -1.
         24    2    1    2    0    0 -0.14770269318E+03 -0.46391196423E+03 -0.36631095467E+03  0.61444204418E+03  0.79529328046E+02 0.  0.
        254    2    1    2    0    0  0.14770269318E+03  0.46391196423E+03 -0.42997318997E+03  0.10901170003E+04  0.87547000754E+03 0.  0.
         23    2    4    4    0    0 -0.17616039765E+03  0.23983061437E+03 -0.58109518166E+03  0.65865134957E+03  0.87170986279E+02 0.  0.
         23    2    4    4    0    0  0.32386309083E+03  0.22408134986E+03  0.15112199169E+03  0.43146565072E+03  0.90691777040E+02 0.  0.
          4    1    3    3  502    0 -0.98251954328E+02 -0.31343011385E+03 -0.29193049972E+03  0.43944885876E+03  0.00000000000E+00 0. -1.
         -3    1    3    3    0  502 -0.49450738852E+02 -0.15048185038E+03 -0.74380454956E+02  0.17499318543E+03  0.00000000000E+00 0.  1.
         13    1    5    5    0    0 -0.16282480821E+03  0.24610095963E+03 -0.54731535169E+03  0.62179714915E+03  0.00000000000E+00 0. -1.
        -13    1    5    5    0    0 -0.13335589439E+02 -0.62703452590E+01 -0.33779829972E+02  0.36854200415E+02  0.00000000000E+00 0.  1.
          1    1    6    6  503    0  0.15047741601E+03  0.90342172078E+02  0.11421670635E+03  0.20940538865E+03  0.00000000000E+00 0. -1.
         -1    1    6    6    0  503  0.17338567482E+03  0.13373917778E+03  0.36905285340E+02  0.22206026207E+03  0.00000000000E+00 0.  1.
<mgrwt>
<rscale>  0 0.15071341E+04</rscale>
<asrwt>0</asrwt>
<pdfrwt beam="1">  1        2 0.19237255E+00 0.15071341E+04</pdfrwt>
<pdfrwt beam="2">  1       -1 0.69867302E-01 0.15071341E+04</pdfrwt>
<totfact> 0.40314762E+01</totfact>
</mgrwt>
</event>
<event>
12    7  0.1625631E-007  0.1583047E+04  0.7818608E-02  0.8831031E-01
         -1   -1    0    0    0  501 -0.00000000000E+00  0.00000000000E+00  0.86353389958E+03  0.86353389958E+03  0.00000000000E+00 0.  1.
          2   -1    0    0  501    0  0.00000000000E+00 -0.00000000000E+00 -0.72551821881E+03  0.72551821881E+03  0.00000000000E+00 0. -1.
         24    2    1    2    0    0  0.36328485208E+03 -0.35803834451E+03 -0.93991466772E+02  0.52465917076E+03  0.79154972962E+02 0.  0.
        254    2    1    2    0    0 -0.36328485208E+03  0.35803834451E+03  0.23200714754E+03  0.10643929476E+04  0.90495176145E+03 0.  0.
         23    2    4    4    0    0  0.26363000435E+03  0.26821206753E+03  0.16795546098E+03  0.42169314372E+03  0.90429963088E+02 0.  0.
         23    2    4    4    0    0 -0.62691485643E+03  0.89826276983E+02  0.64051686553E+02  0.64269980391E+03  0.88709763504E+02 0.  0.
          2    1    3    3  502    0  0.19658370610E+03 -0.23587949398E+03 -0.81107993346E+02  0.31758903597E+03  0.00000000000E+00 0. -1.
         -1    1    3    3    0  502  0.16670114598E+03 -0.12215885054E+03 -0.12883473426E+02  0.20707013479E+03  0.00000000000E+00 0.  1.
         13    1    5    5    0    0  0.12316107108E+03  0.15908190363E+03  0.13082271369E+03  0.23997975729E+03  0.00000000000E+00 0. -1.
        -13    1    5    5    0    0  0.14046893326E+03  0.10913016390E+03  0.37132747297E+02  0.18171338643E+03  0.00000000000E+00 0.  1.
          3    1    6    6  503    0 -0.18290781466E+03  0.25729030445E+02 -0.21663828206E+02  0.18597465721E+03  0.00000000000E+00 0. -1.
         -3    1    6    6    0  503 -0.44400704177E+03  0.64097246539E+02  0.85715514759E+02  0.45672514670E+03  0.00000000000E+00 0.  1.
<mgrwt>
<rscale>  0 0.15830472E+04</rscale>
<asrwt>0</asrwt>
<pdfrwt beam="1">  1        2 0.11161819E+00 0.15830472E+04</pdfrwt>
<pdfrwt beam="2">  1       -1 0.13285137E+00 0.15830472E+04</pdfrwt>
<totfact> 0.20603413E+01</totfact>
</mgrwt>
</event>
<event>
12    7  0.1625631E-007  0.1428147E+04  0.7818608E-02  0.8933693E-01
          2   -1    0    0  501    0  0.00000000000E+00  0.00000000000E+00  0.17070605276E+04  0.17070605276E+04  0.00000000000E+00 0. -1.
         -1   -1    0    0    0  501 -0.00000000000E+00 -0.00000000000E+00 -0.29870102664E+03  0.29870102664E+03  0.00000000000E+00 0.  1.
         24    2    1    2    0    0  0.12256601693E+03 -0.13822284310E+03 -0.13505145436E+03  0.24220117428E+03  0.79338078084E+02 0.  0.
        254    2    1    2    0    0 -0.12256601693E+03  0.13822284310E+03  0.15434109553E+04  0.17635603799E+04  0.83300651493E+03 0.  0.
         23    2    4    4    0    0  0.96017861630E+02  0.42278239974E+03  0.56400130150E+03  0.71657675258E+03  0.86141667964E+02 0.  0.
         23    2    4    4    0    0 -0.21858387857E+03 -0.28455955664E+03  0.97940965378E+03  0.10469836274E+04  0.90434466757E+02 0.  0.
          4    1    3    3  502    0  0.70661177958E+01 -0.56989400767E+02 -0.56761655947E+02  0.80744085891E+02  0.00000000000E+00 0. -1.
         -3    1    3    3    0  502  0.11549989914E+03 -0.81233442336E+02 -0.78289798413E+02  0.16145708839E+03  0.00000000000E+00 0.  1.
         13    1    5    5    0    0  0.54237510086E+02  0.30565321788E+03  0.45733705760E+03  0.55274115222E+03  0.00000000000E+00 0.  1.
        -13    1    5    5    0    0  0.41780351545E+02  0.11712918186E+03  0.10666424390E+03  0.16383560036E+03  0.00000000000E+00 0. -1.
          4    1    6    6  503    0 -0.42976633411E+02 -0.56376526300E+02  0.31479940857E+03  0.32268246214E+03  0.00000000000E+00 0. -1.
         -4    1    6    6    0  503 -0.17560724515E+03 -0.22818303034E+03  0.66461024521E+03  0.72430116521E+03  0.00000000000E+00 0.  1.
<mgrwt>
<rscale>  0 0.14281467E+04</rscale>
<asrwt>0</asrwt>
<pdfrwt beam="1">  1        2 0.26262469E+00 0.14281467E+04</pdfrwt>
<pdfrwt beam="2">  1       -1 0.45954005E-01 0.14281467E+04</pdfrwt>
<totfact> 0.50637204E+01</totfact>
</mgrwt>
</event>
<event>
12    7  0.1625631E-007  0.1967692E+04  0.7818608E-02  0.8621877E-01
          2   -1    0    0  501    0  0.00000000000E+00  0.00000000000E+00  0.87174482074E+03  0.87174482074E+03  0.00000000000E+00 0. -1.
         -1   -1    0    0    0  501 -0.00000000000E+00 -0.00000000000E+00 -0.11103624390E+04  0.11103624390E+04  0.00000000000E+00 0.  1.
         24    2    1    2    0    0  0.58004331661E+03  0.66498803640E+02 -0.68616798921E+03  0.90387812753E+03  0.72779255128E+02 0.  0.
        254    2    1    2    0    0 -0.58004331661E+03 -0.66498803640E+02  0.44755037090E+03  0.10782291323E+04  0.78829206967E+03 0.  0.
         23    2    4    4    0    0 -0.69207051793E+03  0.14565582952E+03  0.25374484058E+03  0.75652304208E+03  0.88110422857E+02 0.  0.
         23    2    4    4    0    0  0.11202720132E+03 -0.21215463316E+03  0.19380553033E+03  0.32170609017E+03  0.91512527336E+02 0.  0.
          2    1    3    3  502    0  0.56678787403E+03  0.66294748987E+02 -0.68341769760E+03  0.89033883285E+03  0.00000000000E+00 0. -1.
         -1    1    3    3    0  502  0.13255442588E+02  0.20405465292E+00 -0.27502916087E+01  0.13539294680E+02  0.00000000000E+00 0.  1.
         13    1    5    5    0    0 -0.37239048501E+02 -0.19048374379E+01 -0.39714637114E+01  0.37498635481E+02  0.00000000000E+00 0. -1.
        -13    1    5    5    0    0 -0.65483146943E+03  0.14756066696E+03  0.25771630429E+03  0.71902440660E+03  0.00000000000E+00 0.  1.
          4    1    6    6  503    0 -0.43219430571E+01 -0.79047026430E+01 -0.78859529805E+01  0.11972959955E+02  0.00000000000E+00 0. -1.
         -4    1    6    6    0  503  0.11634914438E+03 -0.20424993052E+03  0.20169148331E+03  0.30973313022E+03  0.00000000000E+00 0.  1.
<mgrwt>
<rscale>  0 0.19676917E+04</rscale>
<asrwt>0</asrwt>
<pdfrwt beam="1">  1        2 0.13411459E+00 0.19676917E+04</pdfrwt>
<pdfrwt beam="2">  1       -1 0.17082499E+00 0.19676917E+04</pdfrwt>
<totfact> 0.79062410E+00</totfact>
</mgrwt>
</event>
<event>
12    7  0.1625631E-007  0.1151337E+04  0.7818608E-02  0.9156551E-01
          2   -1    0    0  501    0  0.00000000000E+00  0.00000000000E+00  0.18176099065E+04  0.18176099065E+04  0.00000000000E+00 0. -1.
         -1   -1    0    0    0  501 -0.00000000000E+00 -0.00000000000E+00 -0.18232429422E+03  0.18232429422E+03  0.00000000000E+00 0.  1.
         24    2    1    2    0    0  0.34437281995E+02 -0.29941091180E+02 -0.40748768513E+02  0.10115305593E+03  0.80554846263E+02 0.  0.
        254    2    1    2    0    0 -0.34437281995E+02  0.29941091180E+02  0.16760343808E+04  0.18987811447E+04  0.89117685945E+03 0.  0.
         23    2    4    4    0    0 -0.29530193570E+03  0.30671720195E+03  0.12392388903E+04  0.13128506913E+04  0.81149461259E+02 0.  0.
         23    2    4    4    0    0  0.26086465370E+03 -0.27677611077E+03  0.43679549040E+03  0.58593045345E+03  0.88706328959E+02 0.  0.
          2    1    3    3  502    0  0.55542274253E+02 -0.40686486540E+02 -0.31748048405E+02  0.75817366043E+02  0.00000000000E+00 0. -1.
         -1    1    3    3    0  502 -0.21104992257E+02  0.10745395360E+02 -0.90007201083E+01  0.25335689888E+02  0.00000000000E+00 0.  1.
         13    1    5    5    0    0 -0.72257562349E+02  0.32461382523E+02  0.19897934987E+03  0.21416740730E+03  0.00000000000E+00 0. -1.
        -13    1    5    5    0    0 -0.22304437335E+03  0.27425581943E+03  0.10402595405E+04  0.10986832840E+04  0.00000000000E+00 0.  1.
          3    1    6    6  503    0  0.70381987324E+01  0.24209936150E+01 -0.14935298175E+01  0.75913162756E+01  0.00000000000E+00 0. -1.
         -3    1    6    6    0  503  0.25382645497E+03 -0.27919710439E+03  0.43828902022E+03  0.57833913718E+03  0.00000000000E+00 0.  1.
<mgrwt>
<rscale>  0 0.11513374E+04</rscale>
<asrwt>0</asrwt>
<pdfrwt beam="1">  1        2 0.27963228E+00 0.11513374E+04</pdfrwt>
<pdfrwt beam="2">  1       -1 0.28049893E-01 0.11513374E+04</pdfrwt>
<totfact> 0.10924124E+02</totfact>
</mgrwt>
</event>
<event>
12    7  0.1625631E-007  0.1487123E+04  0.7818608E-02  0.8893061E-01
          2   -1    0    0  501    0  0.00000000000E+00  0.00000000000E+00  0.42583005689E+03  0.42583005689E+03  0.00000000000E+00 0. -1.
         -1   -1    0    0    0  501 -0.00000000000E+00 -0.00000000000E+00 -0.12983669985E+04  0.12983669985E+04  0.00000000000E+00 0.  1.
         24    2    1    2    0    0  0.38228477156E+03 -0.14105737863E+02 -0.62690415517E+03  0.73881606355E+03  0.80620949996E+02 0.  0.
        254    2    1    2    0    0 -0.38228477156E+03  0.14105737863E+02 -0.24563278642E+03  0.98538099181E+03  0.87424230900E+03 0.  0.
         23    2    4    4    0    0 -0.25349771199E+03 -0.37727306938E+03  0.57014250070E+02  0.46710359878E+03  0.91318609365E+02 0.  0.
         23    2    4    4    0    0 -0.12878705958E+03  0.39137880725E+03 -0.30264703649E+03  0.51827739303E+03  0.85163078607E+02 0.  0.
          2    1    3    3  502    0  0.11774314546E+03 -0.80143660839E+01 -0.26869378151E+03  0.29346895336E+03  0.00000000000E+00 0. -1.
         -3    1    3    3    0  502  0.26454162611E+03 -0.60913717792E+01 -0.35821037367E+03  0.44534711019E+03  0.00000000000E+00 0.  1.
         13    1    5    5    0    0 -0.28658015728E+02 -0.10073073346E+03  0.33342873440E+02  0.10990773284E+03  0.00000000000E+00 0. -1.
        -13    1    5    5    0    0 -0.22483969626E+03 -0.27654233592E+03  0.23671376629E+02  0.35719586594E+03  0.00000000000E+00 0.  1.
          3    1    6    6  503    0 -0.37350542442E+02  0.70802446110E+02 -0.23370308182E+02  0.83391970240E+02  0.00000000000E+00 0. -1.
         -3    1    6    6    0  503 -0.91436517135E+02  0.32057636114E+03 -0.27927672830E+03  0.43488542279E+03  0.00000000000E+00 0.  1.
<mgrwt>
<rscale>  0 0.14871230E+04</rscale>
<asrwt>0</asrwt>
<pdfrwt beam="1">  1        2 0.65512317E-01 0.14871230E+04</pdfrwt>
<pdfrwt beam="2">  1       -1 0.19974877E+00 0.14871230E+04</pdfrwt>
<totfact> 0.12380277E+01</totfact>
</mgrwt>
</event>
<event>
12    7  0.1625631E-007  0.1937093E+04  0.7818608E-02  0.8636610E-01
          2   -1    0    0  501    0  0.00000000000E+00  0.00000000000E+00  0.36649078117E+04  0.36649078117E+04  0.00000000000E+00 0. -1.
         -1   -1    0    0    0  501 -0.00000000000E+00 -0.00000000000E+00 -0.25596329480E+03  0.25596329480E+03  0.00000000000E+00 0.  1.
         24    2    1    2    0    0 -0.24952286995E+02 -0.10026558902E+03  0.28120615568E+04  0.28150925578E+04  0.79875558125E+02 0.  0.
        254    2    1    2    0    0  0.24952286995E+02  0.10026558902E+03  0.59688296014E+03  0.11057785487E+04  0.92509519821E+03 0.  0.
         23    2    4    4    0    0  0.15921620274E+02 -0.34157984391E+03 -0.40555665417E+01  0.35451326677E+03  0.93450098645E+02 0.  0.
         23    2    4    4    0    0  0.90306667212E+01  0.44184543293E+03  0.60093852668E+03  0.75126528196E+03  0.89238284859E+02 0.  0.
          2    1    3    3  502    0  0.14365861540E+02 -0.84147136921E+02  0.21288089040E+04  0.21305197649E+04  0.00000000000E+00 0. -1.
         -1    1    3    3    0  502 -0.39318148534E+02 -0.16118452102E+02  0.68325265274E+03  0.68457279290E+03  0.00000000000E+00 0.  1.
         13    1    5    5    0    0  0.16113385025E+02 -0.19850527481E+02 -0.19892443261E+02  0.32394350081E+02  0.00000000000E+00 0.  1.
        -13    1    5    5    0    0 -0.19176475178E+00 -0.32172931643E+03  0.15836876719E+02  0.32211891669E+03  0.00000000000E+00 0. -1.
          2    1    6    6  503    0 -0.27521842597E+02  0.30195307379E+03  0.36453689330E+03  0.47415214559E+03  0.00000000000E+00 0. -1.
         -2    1    6    6    0  503  0.36552509318E+02  0.13989235915E+03  0.23640163338E+03  0.27711313637E+03  0.00000000000E+00 0.  1.
<mgrwt>
<rscale>  0 0.19370925E+04</rscale>
<asrwt>0</asrwt>
<pdfrwt beam="1">  1        2 0.56383193E+00 0.19370925E+04</pdfrwt>
<pdfrwt beam="2">  1       -1 0.39378971E-01 0.19370925E+04</pdfrwt>
<totfact> 0.41597875E+00</totfact>
</mgrwt>
</event>
<event>
12    7  0.1625631E-007  0.1978977E+04  0.7818608E-02  0.8616513E-01
          2   -1    0    0  501    0  0.00000000000E+00  0.00000000000E+00  0.26880125833E+04  0.26880125833E+04  0.00000000000E+00 0. -1.
         -1   -1    0    0    0  501 -0.00000000000E+00 -0.00000000000E+00 -0.36424214669E+03  0.36424214669E+03  0.00000000000E+00 0.  1.
         24    2    1    2    0    0  0.25832249457E+03  0.35386768690E+03  0.19193316904E+04  0.19715430400E+04  0.10580628334E+03 0.  0.
        254    2    1    2    0    0 -0.25832249457E+03 -0.35386768690E+03  0.40443874623E+03  0.10807116900E+04  0.90134022795E+03 0.  0.
         23    2    4    4    0    0 -0.38720532600E+03 -0.59275495359E+03  0.25470227912E+03  0.75783832079E+03  0.90328677492E+02 0.  0.
         23    2    4    4    0    0  0.12888283144E+03  0.23888726669E+03  0.14973646711E+03  0.32287336926E+03  0.90267893348E+02 0.  0.
          2    1    3    3  502    0  0.21845731787E+03  0.31903529217E+03  0.17989577349E+04  0.18400424042E+04  0.00000000000E+00 0. -1.
         -1    1    3    3    0  502  0.39865176702E+02  0.34832394731E+02  0.12037395552E+03  0.13150063576E+03  0.00000000000E+00 0.  1.
         13    1    5    5    0    0 -0.21585227589E+03 -0.25884679710E+03  0.96771591585E+02  0.35065454555E+03  0.00000000000E+00 0. -1.
        -13    1    5    5    0    0 -0.17135305011E+03 -0.33390815650E+03  0.15793068754E+03  0.40718377524E+03  0.00000000000E+00 0.  1.
          3    1    6    6  503    0  0.10439559354E+03  0.17798090651E+03  0.15342059704E+03  0.25712549976E+03  0.00000000000E+00 0. -1.
         -3    1    6    6    0  503  0.24487237897E+02  0.60906360174E+02 -0.36841299310E+01  0.65747869492E+02  0.00000000000E+00 0.  1.
<mgrwt>
<rscale>  0 0.19789770E+04</rscale>
<asrwt>0</asrwt>
<pdfrwt beam="1">  1        2 0.41354038E+00 0.19789770E+04</pdfrwt>
<pdfrwt beam="2">  1       -1 0.56037255E-01 0.19789770E+04</pdfrwt>
<totfact> 0.92241458E+00</totfact>
</mgrwt>
</event>
<event>
12    7  0.1625631E-007  0.1729197E+04  0.7818608E-02  0.8744885E-01
          2   -1    0    0  501    0  0.00000000000E+00  0.00000000000E+00  0.17526010575E+04  0.17526010575E+04  0.00000000000E+00 0. -1.
         -1   -1    0    0    0  501 -0.00000000000E+00 -0.00000000000E+00 -0.42652655205E+03  0.42652655205E+03  0.00000000000E+00 0.  1.
         24    2    1    2    0    0  0.32422780657E+03 -0.51077331048E+03  0.27993580592E+03  0.67135942833E+03  0.79664178376E+02 0.  0.
        254    2    1    2    0    0 -0.32422780657E+03  0.51077331048E+03  0.10461386996E+04  0.15077681813E+04  0.90163499511E+03 0.  0.
         23    2    4    4    0    0 -0.58874810028E+03  0.49296101987E+03  0.59038004235E+03  0.97287980785E+03  0.91168160073E+02 0.  0.
         23    2    4    4    0    0  0.26452029371E+03  0.17812290611E+02  0.45575865723E+03  0.53488837341E+03  0.90007526865E+02 0.  0.
          2    1    3    3  502    0  0.10178769279E+03 -0.20836496892E+03  0.13901943969E+03  0.27037584820E+03  0.00000000000E+00 0. -1.
         -1    1    3    3    0  502  0.22244011378E+03 -0.30240834156E+03  0.14091636623E+03  0.40098358013E+03  0.00000000000E+00 0.  1.
         13    1    5    5    0    0 -0.10238010941E+03  0.13052894497E+03  0.10870547669E+03  0.19833399341E+03  0.00000000000E+00 0. -1.
        -13    1    5    5    0    0 -0.48636799087E+03  0.36243207490E+03  0.48167456565E+03  0.77454581444E+03  0.00000000000E+00 0.  1.
          4    1    6    6  503    0  0.20385415161E+02  0.11437973941E+02  0.77271412992E+01  0.24619120858E+02  0.00000000000E+00 0. -1.
         -4    1    6    6    0  503  0.24413487855E+03  0.63743166703E+01  0.44803151593E+03  0.51026925255E+03  0.00000000000E+00 0.  1.
<mgrwt>
<rscale>  0 0.17291974E+04</rscale>
<asrwt>0</asrwt>
<pdfrwt beam="1">  1        2 0.26963093E+00 0.17291974E+04</pdfrwt>
<pdfrwt beam="2">  1       -1 0.65619470E-01 0.17291974E+04</pdfrwt>
<totfact> 0.23338789E+01</totfact>
</mgrwt>
</event>
<event>
12    7  0.1625631E-007  0.2188944E+04  0.7818608E-02  0.8523044E-01
          2   -1    0    0  501    0  0.00000000000E+00  0.00000000000E+00  0.17068773591E+04  0.17068773591E+04  0.00000000000E+00 0. -1.
         -1   -1    0    0    0  501 -0.00000000000E+00 -0.00000000000E+00 -0.70178992295E+03  0.70178992295E+03  0.00000000000E+00 0.  1.
         24    2    1    2    0    0  0.57364659669E+03 -0.31180688429E+02 -0.35320387475E+03  0.67902434768E+03  0.79236572237E+02 0.  0.
        254    2    1    2    0    0 -0.57364659669E+03  0.31180688429E+02  0.13582913109E+04  0.17296429344E+04  0.90369615579E+03 0.  0.
         23    2    4    4    0    0 -0.75466390931E+03  0.22203787796E+03  0.10258650569E+04  0.12959692817E+04  0.91207614405E+02 0.  0.
         23    2    4    4    0    0  0.18101731262E+03 -0.19085718953E+03  0.33242625400E+03  0.43367365267E+03  0.91498024043E+02 0.  0.
          2    1    3    3  502    0  0.89850648522E+02 -0.27386828067E+02 -0.36504452202E+02  0.10077575314E+03  0.00000000000E+00 0. -1.
         -1    1    3    3    0  502  0.48379594816E+03 -0.37938603626E+01 -0.31669942255E+03  0.57824859453E+03  0.00000000000E+00 0.  1.
         13    1    5    5    0    0 -0.46280728899E+03  0.17325337289E+03  0.59830295670E+03  0.77599854765E+03  0.00000000000E+00 0.  1.
        -13    1    5    5    0    0 -0.29185662032E+03  0.48784505076E+02  0.42756210022E+03  0.51997073408E+03  0.00000000000E+00 0. -1.
          3    1    6    6  503    0  0.60013200824E+02 -0.10784940764E+02  0.61733463836E+02  0.86769348145E+02  0.00000000000E+00 0. -1.
         -3    1    6    6    0  503  0.12100411180E+03 -0.18007224877E+03  0.27069279017E+03  0.34690430452E+03  0.00000000000E+00 0.  1.
<mgrwt>
<rscale>  0 0.21889443E+04</rscale>
<asrwt>0</asrwt>
<pdfrwt beam="1">  1        2 0.26259652E+00 0.21889443E+04</pdfrwt>
<pdfrwt beam="2">  1       -1 0.10796768E+00 0.21889443E+04</pdfrwt>
<totfact> 0.80766862E+00</totfact>
</mgrwt>
</event>
<event>
12    7  0.1625631E-007  0.1271401E+04  0.7818608E-02  0.9052557E-01
          2   -1    0    0  501    0  0.00000000000E+00  0.00000000000E+00  0.10105102195E+04  0.10105102195E+04  0.00000000000E+00 0. -1.
         -1   -1    0    0    0  501 -0.00000000000E+00 -0.00000000000E+00 -0.39991178975E+03  0.39991178975E+03  0.00000000000E+00 0.  1.
         24    2    1    2    0    0  0.76775404818E+02 -0.14070786391E+03  0.42659214782E+03  0.46262122204E+03  0.79651545828E+02 0.  0.
        254    2    1    2    0    0 -0.76775404818E+02  0.14070786391E+03  0.18400628197E+03  0.94780078725E+03  0.91584652358E+03 0.  0.
         23    2    4    4    0    0 -0.30564089624E+03  0.39279560380E+03 -0.73873972460E+02  0.51133558750E+03  0.91115176666E+02 0.  0.
         23    2    4    4    0    0  0.22886549142E+03 -0.25208773989E+03  0.25788025443E+03  0.43646519975E+03  0.89844327581E+02 0.  0.
          4    1    3    3  502    0  0.68079474006E+02 -0.48228992048E+02  0.24195852441E+03  0.25593901224E+03  0.00000000000E+00 0. -1.
         -3    1    3    3    0  502  0.86959308119E+01 -0.92478871860E+02  0.18463362341E+03  0.20668220980E+03  0.00000000000E+00 0.  1.
         13    1    5    5    0    0 -0.17553483023E+03  0.21851927711E+03 -0.86920920856E+02  0.29345936273E+03  0.00000000000E+00 0.  1.
        -13    1    5    5    0    0 -0.13010606601E+03  0.17427632669E+03  0.13046948397E+02  0.21787622476E+03  0.00000000000E+00 0. -1.
          1    1    6    6  503    0  0.21657251185E+03 -0.24761116006E+03  0.21836232235E+03  0.39483799627E+03  0.00000000000E+00 0. -1.
         -1    1    6    6    0  503  0.12292979570E+02 -0.44765798341E+01  0.39517932079E+02  0.41627203479E+02  0.00000000000E+00 0.  1.
<mgrwt>
<rscale>  0 0.12714007E+04</rscale>
<asrwt>0</asrwt>
<pdfrwt beam="1">  1        2 0.15546311E+00 0.12714007E+04</pdfrwt>
<pdfrwt beam="2">  1       -1 0.61524891E-01 0.12714007E+04</pdfrwt>
<totfact> 0.74447322E+01</totfact>
</mgrwt>
</event>
<event>
12    7  0.1625631E-007  0.1345474E+04  0.7818608E-02  0.8994261E-01
         -1   -1    0    0    0  501 -0.00000000000E+00  0.00000000000E+00  0.50051031975E+03  0.50051031975E+03  0.00000000000E+00 0.  1.
          2   -1    0    0  501    0  0.00000000000E+00 -0.00000000000E+00 -0.90422789782E+03  0.90422789782E+03  0.00000000000E+00 0. -1.
         24    2    1    2    0    0  0.30365691780E+03  0.22622075425E+02 -0.31689219968E+03  0.44679044327E+03  0.80509328399E+02 0.  0.
        254    2    1    2    0    0 -0.30365691780E+03 -0.22622075425E+02 -0.86825378387E+02  0.95794777430E+03  0.90410508788E+03 0.  0.
         23    2    4    4    0    0 -0.29287954538E+03 -0.36090515933E+03 -0.28756772893E+03  0.55356895816E+03  0.87820445119E+02 0.  0.
         23    2    4    4    0    0 -0.10777372415E+02  0.33828308390E+03  0.20074235055E+03  0.40437881614E+03  0.93129689317E+02 0.  0.
          4    1    3    3  502    0  0.19876142814E+03 -0.17580165329E+02 -0.23187439551E+03  0.30590995868E+03  0.00000000000E+00 0. -1.
         -3    1    3    3    0  502  0.10489548966E+03  0.40202240755E+02 -0.85017804175E+02  0.14088048459E+03  0.00000000000E+00 0.  1.
         13    1    5    5    0    0 -0.21479270980E+03 -0.29010248803E+03 -0.18147509378E+03  0.40401555837E+03  0.00000000000E+00 0. -1.
        -13    1    5    5    0    0 -0.78086835585E+02 -0.70802671295E+02 -0.10609263515E+03  0.14955339979E+03  0.00000000000E+00 0.  1.
          4    1    6    6  503    0 -0.35618595156E+02  0.20497506135E+03  0.16101438532E+03  0.26307621021E+03  0.00000000000E+00 0. -1.
         -4    1    6    6    0  503  0.24841222741E+02  0.13330802255E+03  0.39727965228E+02  0.14130260594E+03  0.00000000000E+00 0.  1.
<mgrwt>
<rscale>  0 0.13454745E+04</rscale>
<asrwt>0</asrwt>
<pdfrwt beam="1">  1        2 0.13911198E+00 0.13454745E+04</pdfrwt>
<pdfrwt beam="2">  1       -1 0.77001588E-01 0.13454745E+04</pdfrwt>
<totfact> 0.54961950E+01</totfact>
</mgrwt>
</event>
<event>
12    7  0.1625631E-007  0.1284326E+04  0.7818608E-02  0.9042088E-01
         -1   -1    0    0    0  501 -0.00000000000E+00  0.00000000000E+00  0.13529222356E+03  0.13529222356E+03  0.00000000000E+00 0.  1.
          2   -1    0    0  501    0  0.00000000000E+00 -0.00000000000E+00 -0.30480176015E+04  0.30480176015E+04  0.00000000000E+00 0. -1.
         24    2    1    2    0    0  0.23665013070E+03 -0.17776194536E+03 -0.10601904119E+04  0.11036197433E+04  0.79813750508E+02 0.  0.
        254    2    1    2    0    0 -0.23665013070E+03  0.17776194536E+03 -0.18525349660E+04  0.20796900817E+04  0.89756472863E+03 0.  0.
         23    2    4    4    0    0  0.31938092047E+03  0.13214309706E+03 -0.50826143918E+03  0.62127326135E+03  0.90469907995E+02 0.  0.
         23    2    4    4    0    0 -0.55603105116E+03  0.45618848305E+02 -0.13442735268E+04  0.14584168203E+04  0.93041376788E+02 0.  0.
          2    1    3    3  502    0  0.22442403323E+03 -0.18319834136E+03 -0.10383484453E+04  0.10780052286E+04  0.00000000000E+00 0. -1.
         -1    1    3    3    0  502  0.12226097468E+02  0.54363960012E+01 -0.21841966636E+02  0.25614514778E+02  0.00000000000E+00 0.  1.
         13    1    5    5    0    0  0.21577697225E+03  0.10643748831E+03 -0.27923991691E+03  0.36859676052E+03  0.00000000000E+00 0. -1.
        -13    1    5    5    0    0  0.10360394821E+03  0.25705608743E+02 -0.22902152227E+03  0.25267650083E+03  0.00000000000E+00 0.  1.
          1    1    6    6  503    0 -0.47041876398E+03  0.58374953083E+01 -0.11463931246E+04  0.12391711286E+04  0.00000000000E+00 0. -1.
         -1    1    6    6    0  503 -0.85612287188E+02  0.39781352996E+02 -0.19788040220E+03  0.21924569172E+03  0.00000000000E+00 0.  1.
<mgrwt>
<rscale>  0 0.12843256E+04</rscale>
<asrwt>0</asrwt>
<pdfrwt beam="1">  1        2 0.46892579E+00 0.12843256E+04</pdfrwt>
<pdfrwt beam="2">  1       -1 0.20814188E-01 0.12843256E+04</pdfrwt>
<totfact> 0.35156191E+01</totfact>
</mgrwt>
</event>
<event>
12    7  0.1625631E-007  0.1496336E+04  0.7818608E-02  0.8886893E-01
          2   -1    0    0  501    0  0.00000000000E+00  0.00000000000E+00  0.65422310201E+03  0.65422310201E+03  0.00000000000E+00 0. -1.
         -1   -1    0    0    0  501 -0.00000000000E+00 -0.00000000000E+00 -0.85560280389E+03  0.85560280389E+03  0.00000000000E+00 0.  1.
         24    2    1    2    0    0 -0.23842905231E+03 -0.12218029426E+03 -0.46870607673E+03  0.54552910820E+03  0.78359327742E+02 0.  0.
        254    2    1    2    0    0  0.23842905231E+03  0.12218029426E+03  0.26732637484E+03  0.96429679770E+03  0.88692078906E+03 0.  0.
         23    2    4    4    0    0  0.39982826652E+03  0.27063959731E+03  0.44753632874E+03  0.66501237938E+03  0.94043951636E+02 0.  0.
         23    2    4    4    0    0 -0.16139921421E+03 -0.14845930305E+03 -0.18020995390E+03  0.29928441832E+03  0.94898179932E+02 0.  0.
          4    1    3    3  502    0 -0.11256084069E+03 -0.63150983023E+02 -0.30225279660E+03  0.32865596384E+03  0.00000000000E+00 0. -1.
         -3    1    3    3    0  502 -0.12586821162E+03 -0.59029311235E+02 -0.16645328013E+03  0.21687314436E+03  0.00000000000E+00 0.  1.
         13    1    5    5    0    0  0.25303619162E+03  0.14009708641E+03  0.21370470386E+03  0.35961675204E+03  0.00000000000E+00 0.  1.
        -13    1    5    5    0    0  0.14679207490E+03  0.13054251090E+03  0.23383162488E+03  0.30539562734E+03  0.00000000000E+00 0. -1.
          2    1    6    6  503    0 -0.16876782645E+02 -0.47730495413E+02 -0.50768561355E+01  0.50880256023E+02  0.00000000000E+00 0.  1.
         -2    1    6    6    0  503 -0.14452243157E+03 -0.10072880764E+03 -0.17513309776E+03  0.24840416230E+03  0.00000000000E+00 0. -1.
<mgrwt>
<rscale>  0 0.14963357E+04</rscale>
<asrwt>0</asrwt>
<pdfrwt beam="1">  1        2 0.10064971E+00 0.14963357E+04</pdfrwt>
<pdfrwt beam="2">  1       -1 0.13163120E+00 0.14963357E+04</pdfrwt>
<totfact> 0.24202346E+01</totfact>
</mgrwt>
</event>
<event>
12    7  0.1625631E-007  0.1172999E+04  0.7818608E-02  0.9136824E-01
          2   -1    0    0  501    0  0.00000000000E+00  0.00000000000E+00  0.15345252344E+04  0.15345252344E+04  0.00000000000E+00 0. -1.
         -1   -1    0    0    0  501 -0.00000000000E+00 -0.00000000000E+00 -0.22416165181E+03  0.22416165181E+03  0.00000000000E+00 0.  1.
         24    2    1    2    0    0 -0.77115987985E+02 -0.62289594549E+02 -0.29014160942E+02  0.13056267584E+03  0.79861890765E+02 0.  0.
        254    2    1    2    0    0  0.77115987985E+02  0.62289594549E+02  0.13393777436E+04  0.16281242104E+04  0.92034169488E+03 0.  0.
         23    2    4    4    0    0 -0.20233082830E+03 -0.12931233537E+03  0.12349714579E+04  0.12613735873E+04  0.90826101766E+02 0.  0.
         23    2    4    4    0    0  0.27944681629E+03  0.19160192992E+03  0.10440628564E+03  0.36675062307E+03  0.93827098203E+02 0.  0.
          4    1    3    3  502    0 -0.23408341513E+02  0.14324747355E+01  0.22573480132E+02  0.32550951469E+02  0.00000000000E+00 0. -1.
         -3    1    3    3    0  502 -0.53707646472E+02 -0.63722069284E+02 -0.51587641074E+02  0.98011724375E+02  0.00000000000E+00 0.  1.
         13    1    5    5    0    0 -0.16682737703E+03 -0.12489004269E+03  0.11565641669E+04  0.11751891629E+04  0.00000000000E+00 0.  1.
        -13    1    5    5    0    0 -0.35503451273E+02 -0.44222926741E+01  0.78407291040E+02  0.86184424423E+02  0.00000000000E+00 0. -1.
          2    1    6    6  503    0  0.98128854564E+02  0.18943731378E+02  0.43971539954E+02  0.10918623257E+03  0.00000000000E+00 0. -1.
         -2    1    6    6    0  503  0.18131796172E+03  0.17265819854E+03  0.60434745685E+02  0.25756439050E+03  0.00000000000E+00 0.  1.
<mgrwt>
<rscale>  0 0.11729991E+04</rscale>
<asrwt>0</asrwt>
<pdfrwt beam="1">  1        2 0.23608080E+00 0.11729991E+04</pdfrwt>
<pdfrwt beam="2">  1       -1 0.34486409E-01 0.11729991E+04</pdfrwt>
<totfact> 0.10886321E+02</totfact>
</mgrwt>
</event>
<event>
12    7  0.1625631E-007  0.1440754E+04  0.7818608E-02  0.8924836E-01
         -1   -1    0    0    0  501 -0.00000000000E+00  0.00000000000E+00  0.36805748006E+03  0.36805748006E+03  0.00000000000E+00 0.  1.
          2   -1    0    0  501    0  0.00000000000E+00 -0.00000000000E+00 -0.14099506523E+04  0.14099506523E+04  0.00000000000E+00 0. -1.
         24    2    1    2    0    0  0.21346527845E+03 -0.12405396431E+03 -0.78503786228E+03  0.82688083289E+03  0.80564603994E+02 0.  0.
        254    2    1    2    0    0 -0.21346527845E+03  0.12405396431E+03 -0.25685530998E+03  0.95112729949E+03  0.88187962807E+03 0.  0.
         23    2    4    4    0    0 -0.23441625772E+03 -0.19508495137E+03  0.20833812639E+03  0.37934534989E+03  0.86539005320E+02 0.  0.
         23    2    4    4    0    0  0.20950979273E+02  0.31913891568E+03 -0.46519343637E+03  0.57178194959E+03  0.90780359154E+02 0.  0.
          4    1    3    3  502    0  0.13438315744E+03 -0.66901627129E+02 -0.34651116572E+03  0.37763030689E+03  0.00000000000E+00 0. -1.
         -3    1    3    3    0  502  0.79082121010E+02 -0.57152337181E+02 -0.43852669656E+03  0.44925052600E+03  0.00000000000E+00 0.  1.
         13    1    5    5    0    0 -0.16357391663E+03 -0.96188280078E+02  0.91479036521E+02  0.21065855204E+03  0.00000000000E+00 0.  1.
        -13    1    5    5    0    0 -0.70842341096E+02 -0.98896671289E+02  0.11685908987E+03  0.16868679785E+03  0.00000000000E+00 0. -1.
          4    1    6    6  503    0  0.14287562953E+02  0.31714384639E+03 -0.42225442715E+03  0.52828321477E+03  0.00000000000E+00 0. -1.
         -4    1    6    6    0  503  0.66634163200E+01  0.19950692829E+01 -0.42939009217E+02  0.43498734821E+02  0.00000000000E+00 0.  1.
<mgrwt>
<rscale>  0 0.14407538E+04</rscale>
<asrwt>0</asrwt>
<pdfrwt beam="1">  1        2 0.21691549E+00 0.14407538E+04</pdfrwt>
<pdfrwt beam="2">  1       -1 0.56624227E-01 0.14407538E+04</pdfrwt>
<totfact> 0.49859519E+01</totfact>
</mgrwt>
</event>
<event>
12    7  0.1625631E-007  0.1177832E+04  0.7818608E-02  0.9132485E-01
          2   -1    0    0  501    0  0.00000000000E+00  0.00000000000E+00  0.29395508848E+03  0.29395508848E+03  0.00000000000E+00 0. -1.
         -1   -1    0    0    0  501 -0.00000000000E+00 -0.00000000000E+00 -0.11798461834E+04  0.11798461834E+04  0.00000000000E+00 0.  1.
         24    2    1    2    0    0 -0.10862449792E+03 -0.17039932732E+03 -0.30733684462E+03  0.37614695691E+03  0.78710766941E+02 0.  0.
        254    2    1    2    0    0  0.10862449792E+03  0.17039932732E+03 -0.57855425029E+03  0.10976543150E+04  0.91065073565E+03 0.  0.
         23    2    4    4    0    0 -0.27078808467E+03 -0.65170412618E+01  0.93343161083E+02  0.30071416474E+03  0.91364131532E+02 0.  0.
         23    2    4    4    0    0  0.37941258259E+03  0.17691636858E+03 -0.67189741137E+03  0.79694015022E+03  0.91728743245E+02 0.  0.
          4    1    3    3  502    0 -0.28836799845E+02 -0.86625260226E+00 -0.31781753409E+02  0.42923085497E+02  0.00000000000E+00 0. -1.
         -3    1    3    3    0  502 -0.79787698074E+02 -0.16953307471E+03 -0.27555509121E+03  0.33322387141E+03  0.00000000000E+00 0.  1.
         13    1    5    5    0    0 -0.23958728171E+03  0.24288385744E+02  0.88665285851E+02  0.25661941500E+03  0.00000000000E+00 0.  1.
        -13    1    5    5    0    0 -0.31200802958E+02 -0.30805427006E+02  0.46778752320E+01  0.44094749744E+02  0.00000000000E+00 0. -1.
          1    1    6    6  503    0  0.33389458388E+03  0.17991124165E+03 -0.62791265760E+03  0.73357205071E+03  0.00000000000E+00 0.  1.
         -1    1    6    6    0  503  0.45517998711E+02 -0.29948730728E+01 -0.43984753771E+02  0.63368099511E+02  0.00000000000E+00 0. -1.
<mgrwt>
<rscale>  0 0.11778315E+04</rscale>
<asrwt>0</asrwt>
<pdfrwt beam="1">  1        2 0.45223861E-01 0.11778315E+04</pdfrwt>
<pdfrwt beam="2">  1       -1 0.18151479E+00 0.11778315E+04</pdfrwt>
<totfact> 0.25815302E+01</totfact>
</mgrwt>
</event>
<event>
12    7  0.1625631E-007  0.1256763E+04  0.7818608E-02  0.9064573E-01
         -1   -1    0    0    0  501 -0.00000000000E+00  0.00000000000E+00  0.56411346529E+03  0.56411346529E+03  0.00000000000E+00 0.  1.
          2   -1    0    0  501    0  0.00000000000E+00 -0.00000000000E+00 -0.69997162218E+03  0.69997162218E+03  0.00000000000E+00 0. -1.
         24    2    1    2    0    0 -0.20250793890E+03 -0.61077942246E+02  0.17814786422E+03  0.28722745833E+03  0.77607802081E+02 0.  0.
        254    2    1    2    0    0  0.20250793890E+03  0.61077942246E+02 -0.31400602111E+03  0.97685762914E+03  0.90050600552E+03 0.  0.
         23    2    4    4    0    0 -0.21391251377E+02 -0.36781876599E+03  0.23398403736E+02  0.38008447246E+03  0.90379702682E+02 0.  0.
         23    2    4    4    0    0  0.22389919028E+03  0.42889670824E+03 -0.33740442484E+03  0.59677315668E+03  0.90626822104E+02 0.  0.
          4    1    3    3  502    0 -0.95195046059E+01  0.98029331569E+01  0.32545023893E+02  0.35297266843E+02  0.00000000000E+00 0. -1.
         -3    1    3    3    0  502 -0.19298843430E+03 -0.70880875403E+02  0.14560284033E+03  0.25193019148E+03  0.00000000000E+00 0.  1.
         13    1    5    5    0    0  0.30635663151E+02 -0.12837173286E+03 -0.11938400457E+02  0.13251555026E+03  0.00000000000E+00 0.  1.
        -13    1    5    5    0    0 -0.52026914528E+02 -0.23944703313E+03  0.35336804193E+02  0.24756892220E+03  0.00000000000E+00 0. -1.
          1    1    6    6  503    0  0.23196793020E+03  0.42156363310E+03 -0.32755662526E+03  0.58208105977E+03  0.00000000000E+00 0. -1.
         -1    1    6    6    0  503 -0.80687399228E+01  0.73330751401E+01 -0.98477995775E+01  0.14692096905E+02  0.00000000000E+00 0.  1.
<mgrwt>
<rscale>  0 0.12567632E+04</rscale>
<asrwt>0</asrwt>
<pdfrwt beam="1">  1        2 0.10768794E+00 0.12567632E+04</pdfrwt>
<pdfrwt beam="2">  1       -1 0.86786687E-01 0.12567632E+04</pdfrwt>
<totfact> 0.60230317E+01</totfact>
</mgrwt>
</event>
<event>
12    7  0.1625631E-007  0.1926403E+04  0.7818608E-02  0.8641825E-01
         -1   -1    0    0    0  501 -0.00000000000E+00  0.00000000000E+00  0.98445613340E+03  0.98445613340E+03  0.00000000000E+00 0.  1.
          2   -1    0    0  501    0  0.00000000000E+00 -0.00000000000E+00 -0.94240531376E+03  0.94240531376E+03  0.00000000000E+00 0. -1.
         24    2    1    2    0    0 -0.45003195665E+03 -0.10152559234E+03 -0.57504747305E+03  0.74166432744E+03  0.80933123221E+02 0.  0.
        254    2    1    2    0    0  0.45003195665E+03  0.10152559234E+03  0.61709829269E+03  0.11851971197E+04  0.90058075810E+03 0.  0.
         23    2    4    4    0    0 -0.15318380560E+03  0.90833621877E+02 -0.11517899502E+03  0.23231072218E+03  0.94794755051E+02 0.  0.
         23    2    4    4    0    0  0.60321576225E+03  0.10691970466E+02  0.73227728771E+03  0.95288639754E+03  0.88197995820E+02 0.  0.
          4    1    3    3  502    0 -0.14933445167E+03 -0.24154894314E+02 -0.13274235436E+03  0.20125796882E+03  0.00000000000E+00 0. -1.
         -3    1    3    3    0  502 -0.30069750498E+03 -0.77370698030E+02 -0.44230511869E+03  0.54040635862E+03  0.00000000000E+00 0.  1.
         13    1    5    5    0    0 -0.51206363681E+02  0.73393455361E+02 -0.19929707200E+02  0.91683609224E+02  0.00000000000E+00 0. -1.
        -13    1    5    5    0    0 -0.10197744192E+03  0.17440166516E+02 -0.95249287823E+02  0.14062711296E+03  0.00000000000E+00 0.  1.
          2    1    6    6  503    0  0.38768265114E+03  0.43101887811E+02  0.50327092934E+03  0.63673953783E+03  0.00000000000E+00 0. -1.
         -2    1    6    6    0  503  0.21553311111E+03 -0.32409917345E+02  0.22900635837E+03  0.31614685971E+03  0.00000000000E+00 0.  1.
<mgrwt>
<rscale>  0 0.19264025E+04</rscale>
<asrwt>0</asrwt>
<pdfrwt beam="1">  1        2 0.14498543E+00 0.19264025E+04</pdfrwt>
<pdfrwt beam="2">  1       -1 0.15145479E+00 0.19264025E+04</pdfrwt>
<totfact> 0.99551560E+00</totfact>
</mgrwt>
</event>
<event>
12    7  0.1625631E-007  0.2521910E+04  0.7818608E-02  0.8395221E-01
         -1   -1    0    0    0  501 -0.00000000000E+00  0.00000000000E+00  0.82506366995E+03  0.82506366995E+03  0.00000000000E+00 0.  1.
          2   -1    0    0  501    0  0.00000000000E+00 -0.00000000000E+00 -0.19271333702E+04  0.19271333702E+04  0.00000000000E+00 0. -1.
         24    2    1    2    0    0 -0.77865494082E+03 -0.70834689100E+03 -0.13665972536E+03  0.10644935792E+04  0.80074120463E+02 0.  0.
        254    2    1    2    0    0  0.77865494082E+03  0.70834689100E+03 -0.96540997490E+03  0.16877034610E+04  0.89903710580E+03 0.  0.
         23    2    4    4    0    0  0.97516144254E+02  0.35327828412E+03  0.81181164423E+02  0.38623473449E+03  0.90950229487E+02 0.  0.
         23    2    4    4    0    0  0.68113879657E+03  0.35506860688E+03 -0.10465911393E+04  0.13014687265E+04  0.91891551721E+02 0.  0.
          2    1    3    3  502    0 -0.17145877404E+03 -0.14045188203E+03 -0.59812456434E+02  0.22956997257E+03  0.00000000000E+00 0. -1.
         -1    1    3    3    0  502 -0.60719616678E+03 -0.56789500897E+03 -0.76847268925E+02  0.83492360663E+03  0.00000000000E+00 0.  1.
         13    1    5    5    0    0  0.66652340161E+02  0.25089783844E+03  0.14055765561E+02  0.25998043066E+03  0.00000000000E+00 0. -1.
        -13    1    5    5    0    0  0.30863804094E+02  0.10238044569E+03  0.67125398863E+02  0.12625430382E+03  0.00000000000E+00 0.  1.
          4    1    6    6  503    0  0.52800287952E+03  0.31507106217E+03 -0.81364238176E+03  0.10198385855E+04  0.00000000000E+00 0.  1.
         -4    1    6    6    0  503  0.15313591704E+03  0.39997544715E+02 -0.23294875757E+03  0.28163014101E+03  0.00000000000E+00 0. -1.
<mgrwt>
<rscale>  0 0.25219102E+04</rscale>
<asrwt>0</asrwt>
<pdfrwt beam="1">  1        2 0.29648205E+00 0.25219102E+04</pdfrwt>
<pdfrwt beam="2">  1       -1 0.12693287E+00 0.25219102E+04</pdfrwt>
<totfact> 0.40018859E+00</totfact>
</mgrwt>
</event>
<event>
12    7  0.1625631E-007  0.2967679E+04  0.7818608E-02  0.8253021E-01
          2   -1    0    0  501    0  0.00000000000E+00  0.00000000000E+00  0.13244119951E+04  0.13244119951E+04  0.00000000000E+00 0. -1.
         -1   -1    0    0    0  501 -0.00000000000E+00 -0.00000000000E+00 -0.16624584043E+04  0.16624584043E+04  0.00000000000E+00 0.  1.
         24    2    1    2    0    0  0.29253032745E+03  0.13091412965E+04 -0.29857057441E+03  0.13764569412E+04  0.77874233420E+02 0.  0.
        254    2    1    2    0    0 -0.29253032745E+03 -0.13091412965E+04 -0.39475834766E+02  0.16104134582E+04  0.89019561783E+03 0.  0.
         23    2    4    4    0    0  0.10696080479E+03 -0.82537373929E+03  0.30291706624E+03  0.89036685502E+03  0.91169974368E+02 0.  0.
         23    2    4    4    0    0 -0.39949113224E+03 -0.48376755725E+03 -0.34239290101E+03  0.72004660317E+03  0.87235301857E+02 0.  0.
          4    1    3    3  502    0  0.26163101979E+03  0.12059450998E+04 -0.29451292633E+03  0.12686576520E+04  0.00000000000E+00 0. -1.
         -3    1    3    3    0  502  0.30899307658E+02  0.10319619675E+03 -0.40576480756E+01  0.10779928917E+03  0.00000000000E+00 0.  1.
         13    1    5    5    0    0  0.12175042880E+03 -0.75927790851E+03  0.28701712837E+03  0.82079531020E+03  0.00000000000E+00 0. -1.
        -13    1    5    5    0    0 -0.14789624006E+02 -0.66095830781E+02  0.15899937875E+02  0.69571544824E+02  0.00000000000E+00 0.  1.
          2    1    6    6  503    0 -0.35163924123E+03 -0.38896734079E+03 -0.25791618129E+03  0.58435135384E+03  0.00000000000E+00 0. -1.
         -2    1    6    6    0  503 -0.47851891014E+02 -0.94800216464E+02 -0.84476719720E+02  0.13569524933E+03  0.00000000000E+00 0.  1.
<mgrwt>
<rscale>  0 0.29676791E+04</rscale>
<asrwt>0</asrwt>
<pdfrwt beam="1">  1        2 0.20375569E+00 0.29676791E+04</pdfrwt>
<pdfrwt beam="2">  1       -1 0.25576283E+00 0.29676791E+04</pdfrwt>
<totfact> 0.99997493E-01</totfact>
</mgrwt>
</event>
<event>
12    7  0.1625631E-007  0.1646289E+04  0.7818608E-02  0.8792605E-01
         -1   -1    0    0    0  501 -0.00000000000E+00  0.00000000000E+00  0.36823613502E+03  0.36823613502E+03  0.00000000000E+00 0.  1.
          2   -1    0    0  501    0  0.00000000000E+00 -0.00000000000E+00 -0.18400335072E+04  0.18400335072E+04  0.00000000000E+00 0. -1.
         24    2    1    2    0    0  0.14203195178E+03  0.54159463001E+03 -0.69762973165E+03  0.89815307446E+03  0.80584639287E+02 0.  0.
        254    2    1    2    0    0 -0.14203195178E+03 -0.54159463001E+03 -0.77416764049E+03  0.13101165677E+04  0.89642181301E+03 0.  0.
         23    2    4    4    0    0 -0.39663708678E+03 -0.40981116563E+03 -0.82220203885E+03  0.10053238953E+04  0.96921471834E+02 0.  0.
         23    2    4    4    0    0  0.25460513500E+03 -0.13178346438E+03  0.48034398357E+02  0.30479267241E+03  0.91654860634E+02 0.  0.
          4    1    3    3  502    0  0.84025842480E+02  0.44049826276E+03 -0.53536825119E+03  0.69836825965E+03  0.00000000000E+00 0. -1.
         -3    1    3    3    0  502  0.58006109297E+02  0.10109636725E+03 -0.16226148046E+03  0.19978481481E+03  0.00000000000E+00 0.  1.
         13    1    5    5    0    0 -0.23632591339E+03 -0.28575057343E+03 -0.46659210238E+03  0.59599623955E+03  0.00000000000E+00 0.  1.
        -13    1    5    5    0    0 -0.16031117339E+03 -0.12406059220E+03 -0.35560993647E+03  0.40932765576E+03  0.00000000000E+00 0. -1.
          4    1    6    6  503    0  0.25613467843E+03 -0.13492837873E+03  0.57098123322E+02  0.29507767887E+03  0.00000000000E+00 0.  1.
         -4    1    6    6    0  503 -0.15295434255E+01  0.31449143475E+01 -0.90637249647E+01  0.97149935450E+01  0.00000000000E+00 0. -1.
<mgrwt>
<rscale>  0 0.16462890E+04</rscale>
<asrwt>0</asrwt>
<pdfrwt beam="1">  1        2 0.28308209E+00 0.16462890E+04</pdfrwt>
<pdfrwt beam="2">  1       -1 0.56651712E-01 0.16462890E+04</pdfrwt>
<totfact> 0.28142375E+01</totfact>
</mgrwt>
</event>
<event>
12    7  0.1625631E-007  0.1382346E+04  0.7818608E-02  0.8966697E-01
         -1   -1    0    0    0  501 -0.00000000000E+00  0.00000000000E+00  0.58248055124E+03  0.58248055124E+03  0.00000000000E+00 0.  1.
          2   -1    0    0  501    0  0.00000000000E+00 -0.00000000000E+00 -0.82014825338E+03  0.82014825338E+03  0.00000000000E+00 0. -1.
         24    2    1    2    0    0 -0.26130222948E+03 -0.52288860261E+01  0.22396120596E+03  0.35323762197E+03  0.79448092600E+02 0.  0.
        254    2    1    2    0    0  0.26130222948E+03  0.52288860261E+01 -0.46162890809E+03  0.10493911826E+04  0.90543603256E+03 0.  0.
         23    2    4    4    0    0  0.10992598671E+03 -0.18572823821E+03  0.21668114663E+03  0.32282149008E+03  0.10336485927E+03 0.  0.
         23    2    4    4    0    0  0.15137624277E+03  0.19095712424E+03 -0.67831005472E+03  0.72656969257E+03  0.91758365569E+02 0.  0.
          2    1    3    3  502    0 -0.59152962181E+02 -0.34427739779E+02  0.65428261882E+02  0.94684738232E+02  0.00000000000E+00 0. -1.
         -1    1    3    3    0  502 -0.20214926730E+03  0.29198853753E+02  0.15853294408E+03  0.25855288374E+03  0.00000000000E+00 0.  1.
         13    1    5    5    0    0 -0.51506173536E+01 -0.85531477362E+02  0.92518267987E+02  0.12610230922E+03  0.00000000000E+00 0.  1.
        -13    1    5    5    0    0  0.11507660407E+03 -0.10019676085E+03  0.12416287864E+03  0.19671918086E+03  0.00000000000E+00 0. -1.
          2    1    6    6  503    0  0.10116352910E+03  0.16427010889E+03 -0.59662677402E+03  0.62704245133E+03  0.00000000000E+00 0. -1.
         -2    1    6    6    0  503  0.50212713668E+02  0.26687015344E+02 -0.81683280698E+02  0.99527241233E+02  0.00000000000E+00 0.  1.
<mgrwt>
<rscale>  0 0.13823464E+04</rscale>
<asrwt>0</asrwt>
<pdfrwt beam="1">  1        2 0.12617665E+00 0.13823464E+04</pdfrwt>
<pdfrwt beam="2">  1       -1 0.89612393E-01 0.13823464E+04</pdfrwt>
<totfact> 0.45222243E+01</totfact>
</mgrwt>
</event>
<event>
12    7  0.1625631E-007  0.1504101E+04  0.7818608E-02  0.8881731E-01
          2   -1    0    0  501    0  0.00000000000E+00  0.00000000000E+00  0.11009928379E+04  0.11009928379E+04  0.00000000000E+00 0. -1.
         -1   -1    0    0    0  501 -0.00000000000E+00 -0.00000000000E+00 -0.51369980386E+03  0.51369980386E+03  0.00000000000E+00 0.  1.
         24    2    1    2    0    0 -0.13123904028E+02 -0.11174047644E+03 -0.28704651506E+03  0.31828394983E+03  0.79062000834E+02 0.  0.
        254    2    1    2    0    0  0.13123904028E+02  0.11174047644E+03  0.87433954912E+03  0.12964086920E+04  0.95055124979E+03 0.  0.
         23    2    4    4    0    0 -0.28425116784E+02 -0.38228186274E+03  0.60995555761E+03  0.72711532833E+03  0.98506388529E+02 0.  0.
         23    2    4    4    0    0  0.41549020812E+02  0.49402233919E+03  0.26438399151E+03  0.56929336362E+03  0.91715026869E+02 0.  0.
          2    1    3    3  502    0 -0.20410084809E+02  0.50199411571E+00 -0.20291335414E+02  0.28784750353E+02  0.00000000000E+00 0. -1.
         -1    1    3    3    0  502  0.72861807803E+01 -0.11224247056E+03 -0.26675517965E+03  0.28949919947E+03  0.00000000000E+00 0.  1.
         13    1    5    5    0    0 -0.47232799705E+02 -0.23618479612E+03  0.30666314718E+03  0.38994420258E+03  0.00000000000E+00 0. -1.
        -13    1    5    5    0    0  0.18807682921E+02 -0.14609706662E+03  0.30329241044E+03  0.33717112575E+03  0.00000000000E+00 0.  1.
          1    1    6    6  503    0  0.39161263081E+02  0.24302490837E+03  0.17823698434E+03  0.30391303558E+03  0.00000000000E+00 0. -1.
         -1    1    6    6    0  503  0.23877577318E+01  0.25099743082E+03  0.86147007170E+02  0.26538032804E+03  0.00000000000E+00 0.  1.
<mgrwt>
<rscale>  0 0.15041008E+04</rscale>
<asrwt>0</asrwt>
<pdfrwt beam="1">  1        2 0.16938351E+00 0.15041008E+04</pdfrwt>
<pdfrwt beam="2">  1       -1 0.79030739E-01 0.15041008E+04</pdfrwt>
<totfact> 0.38376036E+01</totfact>
</mgrwt>
</event>
<event>
12    7  0.1625631E-007  0.1283561E+04  0.7818608E-02  0.9042704E-01
          2   -1    0    0  501    0  0.00000000000E+00  0.00000000000E+00  0.28699813171E+04  0.28699813171E+04  0.00000000000E+00 0. -1.
         -1   -1    0    0    0  501 -0.00000000000E+00 -0.00000000000E+00 -0.14351385114E+03  0.14351385114E+03  0.00000000000E+00 0.  1.
         24    2    1    2    0    0 -0.26839593396E+03 -0.16687973215E+02  0.10879449775E+04  0.11234577417E+04  0.78855295596E+02 0.  0.
        254    2    1    2    0    0  0.26839593396E+03  0.16687973215E+02  0.16385224885E+04  0.18900374265E+04  0.90286802053E+03 0.  0.
         23    2    4    4    0    0  0.71676586823E+02  0.14404618267E+03  0.16287404944E+04  0.16390952030E+04  0.89166420643E+02 0.  0.
         23    2    4    4    0    0  0.19671934714E+03 -0.12735820946E+03  0.97819941411E+01  0.25094222355E+03  0.89205925231E+02 0.  0.
          2    1    3    3  502    0 -0.26142249507E+03 -0.27397879147E+02  0.10671817833E+04  0.10990765775E+04  0.00000000000E+00 0. -1.
         -1    1    3    3    0  502 -0.69734388889E+01  0.10709905931E+02  0.20763194197E+02  0.24381164210E+02  0.00000000000E+00 0.  1.
         13    1    5    5    0    0  0.37776485756E+02  0.13722791990E+03  0.14551329848E+04  0.14620774837E+04  0.00000000000E+00 0. -1.
        -13    1    5    5    0    0  0.33900101067E+02  0.68182627707E+01  0.17360750960E+03  0.17701771931E+03  0.00000000000E+00 0.  1.
          2    1    6    6  503    0  0.48544930095E+02  0.63827847850E+01  0.15186050366E+02  0.51263693832E+02  0.00000000000E+00 0.  1.
         -2    1    6    6    0  503  0.14817441704E+03 -0.13374099424E+03 -0.54040562247E+01  0.19967852972E+03  0.00000000000E+00 0. -1.
<mgrwt>
<rscale>  0 0.12835608E+04</rscale>
<asrwt>0</asrwt>
<pdfrwt beam="1">  1        2 0.44153554E+00 0.12835608E+04</pdfrwt>
<pdfrwt beam="2">  1       -1 0.22079056E-01 0.12835608E+04</pdfrwt>
<totfact> 0.40962506E+01</totfact>
</mgrwt>
</event>
<event>
12    7  0.1625631E-007  0.1113954E+04  0.7818608E-02  0.9191697E-01
         -1   -1    0    0    0  501 -0.00000000000E+00  0.00000000000E+00  0.28019177902E+03  0.28019177902E+03  0.00000000000E+00 0.  1.
          2   -1    0    0  501    0  0.00000000000E+00 -0.00000000000E+00 -0.11071816931E+04  0.11071816931E+04  0.00000000000E+00 0. -1.
         24    2    1    2    0    0 -0.37575585876E+02 -0.89414935551E+01  0.60218360575E+02  0.10674483955E+03  0.79223322696E+02 0.  0.
        254    2    1    2    0    0  0.37575585876E+02  0.89414935551E+01 -0.88720827464E+03  0.12806286326E+04  0.92270217132E+03 0.  0.
         23    2    4    4    0    0 -0.27341835232E+03  0.29094899989E+03 -0.70349032827E+03  0.81384629730E+03  0.89656219700E+02 0.  0.
         23    2    4    4    0    0  0.31099393820E+03 -0.28200750634E+03 -0.18371794637E+03  0.46678233525E+03  0.88814421449E+02 0.  0.
          4    1    3    3  502    0  0.45450406011E+01  0.30252536774E+02  0.20139416697E+02  0.36626076506E+02  0.00000000000E+00 0. -1.
         -3    1    3    3    0  502 -0.42120626477E+02 -0.39194030329E+02  0.40078943878E+02  0.70118763043E+02  0.00000000000E+00 0.  1.
         13    1    5    5    0    0 -0.24629092536E+03  0.24033569764E+03 -0.64947687574E+03  0.73501066631E+03  0.00000000000E+00 0.  1.
        -13    1    5    5    0    0 -0.27127426963E+02  0.50613302252E+02 -0.54013452534E+02  0.78835630987E+02  0.00000000000E+00 0. -1.
          4    1    6    6  503    0  0.16981614770E+03 -0.10064208346E+03 -0.10666459774E+03  0.22437399447E+03  0.00000000000E+00 0.  1.
         -4    1    6    6    0  503  0.14117779050E+03 -0.18136542288E+03 -0.77053348628E+02  0.24240834078E+03  0.00000000000E+00 0. -1.
<mgrwt>
<rscale>  0 0.11139537E+04</rscale>
<asrwt>0</asrwt>
<pdfrwt beam="1">  1        2 0.17033565E+00 0.11139537E+04</pdfrwt>
<pdfrwt beam="2">  1       -1 0.43106427E-01 0.11139537E+04</pdfrwt>
<totfact> 0.12933378E+02</totfact>
</mgrwt>
</event>
<event>
12    7  0.1625631E-007  0.1345722E+04  0.7818608E-02  0.8994073E-01
          2   -1    0    0  501    0  0.00000000000E+00  0.00000000000E+00  0.18500460436E+04  0.18500460436E+04  0.00000000000E+00 0. -1.
         -1   -1    0    0    0  501 -0.00000000000E+00 -0.00000000000E+00 -0.24471939722E+03  0.24471939722E+03  0.00000000000E+00 0.  1.
         24    2    1    2    0    0 -0.52883306422E+02  0.32824625102E+03  0.22134708866E+03  0.40783191399E+03  0.82402008498E+02 0.  0.
        254    2    1    2    0    0  0.52883306422E+02 -0.32824625102E+03  0.13839795578E+04  0.16869335269E+04  0.90542976668E+03 0.  0.
         23    2    4    4    0    0  0.33237303270E+03 -0.50832074670E+03  0.97526474899E+03  0.11521843706E+04  0.86750671082E+02 0.  0.
         23    2    4    4    0    0 -0.27948972628E+03  0.18007449568E+03  0.40871480877E+03  0.53474915624E+03  0.91474226402E+02 0.  0.
          2    1    3    3  502    0 -0.12210092419E+02  0.47004201544E+02  0.15659339964E+01  0.48589437833E+02  0.00000000000E+00 0. -1.
         -1    1    3    3    0  502 -0.40673214003E+02  0.28124204947E+03  0.21978115466E+03  0.35924247616E+03  0.00000000000E+00 0.  1.
         13    1    5    5    0    0  0.24160365161E+03 -0.29419358835E+03  0.58947309796E+03  0.70171270839E+03  0.00000000000E+00 0.  1.
        -13    1    5    5    0    0  0.90769381095E+02 -0.21412715835E+03  0.38579165103E+03  0.45047166225E+03  0.00000000000E+00 0. -1.
          1    1    6    6  503    0 -0.93246372387E+02  0.84866104092E+02  0.95745563346E+02  0.15831725897E+03  0.00000000000E+00 0. -1.
         -1    1    6    6    0  503 -0.18624335389E+03  0.95208391589E+02  0.31296924543E+03  0.37643189727E+03  0.00000000000E+00 0.  1.
<mgrwt>
<rscale>  0 0.13457223E+04</rscale>
<asrwt>0</asrwt>
<pdfrwt beam="1">  1        2 0.28462246E+00 0.13457223E+04</pdfrwt>
<pdfrwt beam="2">  1       -1 0.37649139E-01 0.13457223E+04</pdfrwt>
<totfact> 0.61298347E+01</totfact>
</mgrwt>
</event>
<event>
12    7  0.1625631E-007  0.2221247E+04  0.7818608E-02  0.8509636E-01
         -1   -1    0    0    0  501 -0.00000000000E+00  0.00000000000E+00  0.58546389412E+03  0.58546389412E+03  0.00000000000E+00 0.  1.
          2   -1    0    0  501    0  0.00000000000E+00 -0.00000000000E+00 -0.21068507971E+04  0.21068507971E+04  0.00000000000E+00 0. -1.
         24    2    1    2    0    0  0.20178027968E+03 -0.76153094632E+03 -0.41103461659E+02  0.79315652306E+03  0.82238142218E+02 0.  0.
        254    2    1    2    0    0 -0.20178027968E+03  0.76153094632E+03 -0.14802834413E+04  0.18991581682E+04  0.89158175037E+03 0.  0.
         23    2    4    4    0    0 -0.32984556938E+03  0.88030915275E+03 -0.13935981777E+04  0.16836002373E+04  0.93013837518E+02 0.  0.
         23    2    4    4    0    0  0.12806528970E+03 -0.11877820643E+03 -0.86685263628E+02  0.21555793091E+03  0.91879844892E+02 0.  0.
          4    1    3    3  502    0  0.78425127918E+02 -0.44053677297E+03 -0.40311739737E+02  0.44927517780E+03  0.00000000000E+00 0. -1.
         -3    1    3    3    0  502  0.12335515176E+03 -0.32099417335E+03 -0.79172192250E+00  0.34388134525E+03  0.00000000000E+00 0.  1.
         13    1    5    5    0    0 -0.10185241023E+03  0.21014457972E+03 -0.40848397537E+03  0.47052504290E+03  0.00000000000E+00 0.  1.
        -13    1    5    5    0    0 -0.22799315914E+03  0.67016457304E+03 -0.98511420234E+03  0.12130751944E+04  0.00000000000E+00 0. -1.
          3    1    6    6  503    0  0.85022769443E+02 -0.11330630151E+03 -0.96073967580E+02  0.17116482271E+03  0.00000000000E+00 0. -1.
         -3    1    6    6    0  503  0.43042520258E+02 -0.54719049177E+01  0.93887039518E+01  0.44393108198E+02  0.00000000000E+00 0.  1.
<mgrwt>
<rscale>  0 0.22212475E+04</rscale>
<asrwt>0</asrwt>
<pdfrwt beam="1">  1        2 0.32413089E+00 0.22212475E+04</pdfrwt>
<pdfrwt beam="2">  1       -1 0.90071369E-01 0.22212475E+04</pdfrwt>
<totfact> 0.72924706E+00</totfact>
</mgrwt>
</event>
<event>
12    7  0.1625631E-007  0.2243206E+04  0.7818608E-02  0.8500657E-01
          2   -1    0    0  501    0  0.00000000000E+00  0.00000000000E+00  0.16732035878E+04  0.16732035878E+04  0.00000000000E+00 0. -1.
         -1   -1    0    0    0  501 -0.00000000000E+00 -0.00000000000E+00 -0.75184685122E+03  0.75184685122E+03  0.00000000000E+00 0.  1.
         24    2    1    2    0    0  0.63170904661E+03  0.66381740899E+03  0.59953990620E+03  0.10980945393E+04  0.81569884515E+02 0.  0.
        254    2    1    2    0    0 -0.63170904661E+03 -0.66381740899E+03  0.32181683040E+03  0.13269558997E+04  0.90417698240E+03 0.  0.
         23    2    4    4    0    0 -0.35867147963E+03 -0.86080545270E+03  0.26098924345E+03  0.97260548080E+03  0.90635414660E+02 0.  0.
         23    2    4    4    0    0 -0.27303756698E+03  0.19698804372E+03  0.60827586944E+02  0.35435041894E+03  0.92251946981E+02 0.  0.
          2    1    3    3  502    0  0.49469526592E+03  0.49343476002E+03  0.49112318884E+03  0.85405108462E+03  0.00000000000E+00 0. -1.
         -1    1    3    3    0  502  0.13701378068E+03  0.17038264896E+03  0.10841671736E+03  0.24404345467E+03  0.00000000000E+00 0.  1.
         13    1    5    5    0    0 -0.24905809877E+03 -0.50776141410E+03  0.12899941244E+03  0.58007968299E+03  0.00000000000E+00 0. -1.
        -13    1    5    5    0    0 -0.10961338086E+03 -0.35304403860E+03  0.13198983101E+03  0.39252579781E+03  0.00000000000E+00 0.  1.
          2    1    6    6  503    0  0.57765674536E+01  0.12724568008E+02  0.76924105877E+01  0.15951694053E+02  0.00000000000E+00 0. -1.
         -2    1    6    6    0  503 -0.27881413443E+03  0.18426347571E+03  0.53135176357E+02  0.33839872489E+03  0.00000000000E+00 0.  1.
<mgrwt>
<rscale>  0 0.22432056E+04</rscale>
<asrwt>0</asrwt>
<pdfrwt beam="1">  1        2 0.25741594E+00 0.22432056E+04</pdfrwt>
<pdfrwt beam="2">  1       -1 0.11566875E+00 0.22432056E+04</pdfrwt>
<totfact> 0.71260851E+00</totfact>
</mgrwt>
</event>
<event>
12    7  0.1625631E-007  0.1287607E+04  0.7818608E-02  0.9039451E-01
          2   -1    0    0  501    0  0.00000000000E+00  0.00000000000E+00  0.15515660207E+04  0.15515660207E+04  0.00000000000E+00 0. -1.
         -1   -1    0    0    0  501 -0.00000000000E+00 -0.00000000000E+00 -0.26713847313E+03  0.26713847313E+03  0.00000000000E+00 0.  1.
         24    2    1    2    0    0 -0.23276462642E+03 -0.21449843872E+03  0.29494409950E+03  0.44020749913E+03  0.81250654968E+02 0.  0.
        254    2    1    2    0    0  0.23276462642E+03  0.21449843872E+03  0.98948344809E+03  0.13784969947E+04  0.90608361583E+03 0.  0.
         23    2    4    4    0    0  0.56494330053E+02 -0.16303337761E+03 -0.91506158074E+02  0.21642333624E+03  0.93242650988E+02 0.  0.
         23    2    4    4    0    0  0.17627029636E+03  0.37753181633E+03  0.10809896062E+04  0.11620736585E+04  0.90967957943E+02 0.  0.
          2    1    3    3  502    0 -0.13617083989E+03 -0.74149967008E+02  0.16063314433E+03  0.22325707671E+03  0.00000000000E+00 0. -1.
         -1    1    3    3    0  502 -0.96593786524E+02 -0.14034847172E+03  0.13431095517E+03  0.21695042242E+03  0.00000000000E+00 0.  1.
         13    1    5    5    0    0  0.99870009083E+01 -0.66213197172E+02  0.11104879308E+02  0.67876697115E+02  0.00000000000E+00 0. -1.
        -13    1    5    5    0    0  0.46507329145E+02 -0.96820180434E+02 -0.10261103738E+03  0.14854663913E+03  0.00000000000E+00 0.  1.
          2    1    6    6  503    0  0.77277684307E+01  0.22586349356E+01  0.36076410855E+01  0.88224095854E+01  0.00000000000E+00 0. -1.
         -2    1    6    6    0  503  0.16854252793E+03  0.37527318139E+03  0.10773819651E+04  0.11532512489E+04  0.00000000000E+00 0.  1.
<mgrwt>
<rscale>  0 0.12876070E+04</rscale>
<asrwt>0</asrwt>
<pdfrwt beam="1">  1        2 0.23870246E+00 0.12876070E+04</pdfrwt>
<pdfrwt beam="2">  1       -1 0.41098228E-01 0.12876070E+04</pdfrwt>
<totfact> 0.76880017E+01</totfact>
</mgrwt>
</event>
<event>
12    7  0.1625631E-007  0.2410289E+04  0.7818608E-02  0.8435662E-01
         -1   -1    0    0    0  501 -0.00000000000E+00  0.00000000000E+00  0.76822775494E+03  0.76822775494E+03  0.00000000000E+00 0.  1.
          2   -1    0    0  501    0  0.00000000000E+00 -0.00000000000E+00 -0.18905505618E+04  0.18905505618E+04  0.00000000000E+00 0. -1.
         24    2    1    2    0    0  0.70395857820E+03 -0.59648398341E+03 -0.10047468501E+04  0.13680761303E+04  0.10375568979E+03 0.  0.
        254    2    1    2    0    0 -0.70395857820E+03  0.59648398341E+03 -0.11757595676E+03  0.12907021865E+04  0.89483920693E+03 0.  0.
         23    2    4    4    0    0 -0.25346428912E+01  0.56967064782E+03 -0.49660013369E+02  0.57945242257E+03  0.93637181120E+02 0.  0.
         23    2    4    4    0    0 -0.70142393531E+03  0.26813335582E+02 -0.67915943391E+02  0.71124976390E+03  0.92461663893E+02 0.  0.
          2    1    3    3  502    0  0.65802672118E+03 -0.56035627327E+03 -0.97350902943E+03  0.13018134080E+04  0.00000000000E+00 0. -1.
         -1    1    3    3    0  502  0.45931857022E+02 -0.36127710135E+02 -0.31237820708E+02  0.66262722339E+02  0.00000000000E+00 0.  1.
         13    1    5    5    0    0  0.49434497383E+01  0.37370901968E+03 -0.76587051548E+02  0.38150811990E+03  0.00000000000E+00 0. -1.
        -13    1    5    5    0    0 -0.74780926295E+01  0.19596162814E+03  0.26927038179E+02  0.19794430267E+03  0.00000000000E+00 0.  1.
          4    1    6    6  503    0 -0.50995060021E+03  0.45045215005E+02 -0.16701103496E+02  0.51220856387E+03  0.00000000000E+00 0. -1.
         -4    1    6    6    0  503 -0.19147333510E+03 -0.18231879423E+02 -0.51214839895E+02  0.19904120002E+03  0.00000000000E+00 0.  1.
<mgrwt>
<rscale>  0 0.24102891E+04</rscale>
<asrwt>0</asrwt>
<pdfrwt beam="1">  1        2 0.29085393E+00 0.24102891E+04</pdfrwt>
<pdfrwt beam="2">  1       -1 0.11818889E+00 0.24102891E+04</pdfrwt>
<totfact> 0.50499758E+00</totfact>
</mgrwt>
</event>
<event>
12    7  0.1625631E-007  0.1960902E+04  0.7818608E-02  0.8625122E-01
          2   -1    0    0  501    0  0.00000000000E+00  0.00000000000E+00  0.20617983347E+04  0.20617983347E+04  0.00000000000E+00 0. -1.
         -1   -1    0    0    0  501 -0.00000000000E+00 -0.00000000000E+00 -0.46623565501E+03  0.46623565501E+03  0.00000000000E+00 0.  1.
         24    2    1    2    0    0  0.75524403202E+03 -0.64158537246E+02  0.83178303054E+03  0.11283860249E+04  0.82958697132E+02 0.  0.
        254    2    1    2    0    0 -0.75524403202E+03  0.64158537246E+02  0.76377964914E+03  0.13996479648E+04  0.89506715233E+03 0.  0.
         23    2    4    4    0    0 -0.31985214782E+03 -0.29607841718E+03 -0.37483076709E-01  0.44544558989E+03  0.91945345483E+02 0.  0.
         23    2    4    4    0    0 -0.43539188420E+03  0.36023695443E+03  0.76381713221E+03  0.95420237493E+03  0.88027295188E+02 0.  0.
          4    1    3    3  502    0  0.39387249696E+02 -0.22532652451E+02  0.46565313862E+02  0.65018492140E+02  0.00000000000E+00 0. -1.
         -3    1    3    3    0  502  0.71585678232E+03 -0.41625884794E+02  0.78521771668E+03  0.10633675327E+04  0.00000000000E+00 0.  1.
         13    1    5    5    0    0 -0.11901032299E+03 -0.16084920771E+03 -0.26674827529E+02  0.20186002829E+03  0.00000000000E+00 0. -1.
        -13    1    5    5    0    0 -0.20084182484E+03 -0.13522920948E+03  0.26637344453E+02  0.24358556160E+03  0.00000000000E+00 0.  1.
          3    1    6    6  503    0 -0.39732433438E+03  0.35372362752E+03  0.69414867363E+03  0.87454526038E+03  0.00000000000E+00 0. -1.
         -3    1    6    6    0  503 -0.38067549814E+02  0.65133269100E+01  0.69668458589E+02  0.79657114550E+02  0.00000000000E+00 0.  1.
<mgrwt>
<rscale>  0 0.19609017E+04</rscale>
<asrwt>0</asrwt>
<pdfrwt beam="1">  1        2 0.31719974E+00 0.19609017E+04</pdfrwt>
<pdfrwt beam="2">  1       -1 0.71728563E-01 0.19609017E+04</pdfrwt>
<totfact> 0.12848830E+01</totfact>
</mgrwt>
</event>
<event>
12    7  0.1625631E-007  0.1781476E+04  0.7818608E-02  0.8716213E-01
         -1   -1    0    0    0  501 -0.00000000000E+00  0.00000000000E+00  0.78688066450E+03  0.78688066450E+03  0.00000000000E+00 0.  1.
          2   -1    0    0  501    0  0.00000000000E+00 -0.00000000000E+00 -0.10083031055E+04  0.10083031055E+04  0.00000000000E+00 0. -1.
         24    2    1    2    0    0 -0.96237775645E+02  0.35507008572E+03 -0.63495541529E+03  0.73827247528E+03  0.80878879331E+02 0.  0.
        254    2    1    2    0    0  0.96237775645E+02 -0.35507008572E+03  0.41353297432E+03  0.10569112947E+04  0.90039740602E+03 0.  0.
         23    2    4    4    0    0 -0.17588057803E+03  0.24056828218E+03  0.11640568668E+03  0.33204381639E+03  0.88857954028E+02 0.  0.
         23    2    4    4    0    0  0.27211835368E+03 -0.59563836790E+03  0.29712728764E+03  0.72486747830E+03  0.91185373345E+02 0.  0.
          2    1    3    3  502    0 -0.25482680119E+02  0.18439698772E+03 -0.38293563334E+03  0.42578317880E+03  0.00000000000E+00 0. -1.
         -1    1    3    3    0  502 -0.70755095526E+02  0.17067309800E+03 -0.25201978194E+03  0.31248929648E+03  0.00000000000E+00 0.  1.
         13    1    5    5    0    0 -0.60408227111E+02  0.13446742962E+03  0.22114508718E+02  0.14906272179E+03  0.00000000000E+00 0.  1.
        -13    1    5    5    0    0 -0.11547235092E+03  0.10610085256E+03  0.94291177967E+02  0.18298109461E+03  0.00000000000E+00 0. -1.
          3    1    6    6  503    0  0.35997165984E+02 -0.26243619850E+02  0.15502290988E+02  0.47168258051E+02  0.00000000000E+00 0. -1.
         -3    1    6    6    0  503  0.23612118769E+03 -0.56939474805E+03  0.28162499665E+03  0.67769922025E+03  0.00000000000E+00 0.  1.
<mgrwt>
<rscale>  0 0.17814760E+04</rscale>
<asrwt>0</asrwt>
<pdfrwt beam="1">  1        2 0.15512355E+00 0.17814760E+04</pdfrwt>
<pdfrwt beam="2">  1       -1 0.12105856E+00 0.17814760E+04</pdfrwt>
<totfact> 0.16261874E+01</totfact>
</mgrwt>
</event>
<event>
12    7  0.1625631E-007  0.1672575E+04  0.7818608E-02  0.8777162E-01
         -1   -1    0    0    0  501 -0.00000000000E+00  0.00000000000E+00  0.97449451630E+03  0.97449451630E+03  0.00000000000E+00 0.  1.
          2   -1    0    0  501    0  0.00000000000E+00 -0.00000000000E+00 -0.71768155737E+03  0.71768155737E+03  0.00000000000E+00 0. -1.
         24    2    1    2    0    0  0.58707125977E+02  0.18898862143E+03  0.65638436649E+03  0.69019186275E+03  0.79756787571E+02 0.  0.
        254    2    1    2    0    0 -0.58707125977E+02 -0.18898862143E+03 -0.39957140757E+03  0.10019842109E+04  0.89730252620E+03 0.  0.
         23    2    4    4    0    0 -0.13961305743E+03  0.33199915430E+03 -0.24588167773E+03  0.44524536777E+03  0.89835370609E+02 0.  0.
         23    2    4    4    0    0  0.80905931457E+02 -0.52098777572E+03 -0.15368972983E+03  0.55673884315E+03  0.91452579088E+02 0.  0.
          2    1    3    3  502    0 -0.15403493118E+02  0.52711468302E+02  0.23001529096E+03  0.23648002150E+03  0.00000000000E+00 0. -1.
         -1    1    3    3    0  502  0.74110619094E+02  0.13627715312E+03  0.42636907553E+03  0.45371184126E+03  0.00000000000E+00 0.  1.
         13    1    5    5    0    0 -0.10976226847E+03  0.31987362421E+03 -0.23229791252E+03  0.41027943064E+03  0.00000000000E+00 0. -1.
        -13    1    5    5    0    0 -0.29850788965E+02  0.12125530083E+02 -0.13583765217E+02  0.34965937125E+02  0.00000000000E+00 0.  1.
          2    1    6    6  503    0  0.89794889877E+02 -0.49998986866E+03 -0.13108154137E+03  0.52462878448E+03  0.00000000000E+00 0. -1.
         -2    1    6    6    0  503 -0.88889584202E+01 -0.20997907062E+02 -0.22608188462E+02  0.32110058678E+02  0.00000000000E+00 0.  1.
<mgrwt>
<rscale>  0 0.16725750E+04</rscale>
<asrwt>0</asrwt>
<pdfrwt beam="1">  1        2 0.11041255E+00 0.16725750E+04</pdfrwt>
<pdfrwt beam="2">  1       -1 0.14992223E+00 0.16725750E+04</pdfrwt>
<totfact> 0.15102102E+01</totfact>
</mgrwt>
</event>
<event>
12    7  0.1625631E-007  0.1777622E+04  0.7818608E-02  0.8718291E-01
          2   -1    0    0  501    0  0.00000000000E+00  0.00000000000E+00  0.10312541736E+04  0.10312541736E+04  0.00000000000E+00 0. -1.
         -1   -1    0    0    0  501 -0.00000000000E+00 -0.00000000000E+00 -0.76604256383E+03  0.76604256383E+03  0.00000000000E+00 0.  1.
         24    2    1    2    0    0  0.23738925478E+03  0.52646476168E+03  0.18758695779E+03  0.61324052065E+03  0.85768676429E+02 0.  0.
        254    2    1    2    0    0 -0.23738925478E+03 -0.52646476168E+03  0.77624651932E+02  0.11840562167E+04  0.10307495982E+04 0.  0.
         23    2    4    4    0    0 -0.60275278125E+03 -0.32923603891E+03 -0.13661223726E+03  0.70607564195E+03  0.90402567268E+02 0.  0.
         23    2    4    4    0    0  0.36536352646E+03 -0.19722872277E+03  0.21423688920E+03  0.47798057479E+03  0.10088760890E+03 0.  0.
          4    1    3    3  502    0  0.63438963001E+02  0.80229022885E+02  0.55739941633E+02  0.11648235589E+03  0.00000000000E+00 0. -1.
         -3    1    3    3    0  502  0.17395029178E+03  0.44623573880E+03  0.13184701616E+03  0.49675816476E+03  0.00000000000E+00 0.  1.
         13    1    5    5    0    0 -0.16630185261E+03 -0.99831708326E+02 -0.79822858580E+02  0.20974833711E+03  0.00000000000E+00 0.  1.
        -13    1    5    5    0    0 -0.43645092864E+03 -0.22940433058E+03 -0.56789378683E+02  0.49632730484E+03  0.00000000000E+00 0. -1.
          2    1    6    6  503    0  0.11181823199E+03 -0.28214361689E+02  0.21167129641E+02  0.11724936924E+03  0.00000000000E+00 0. -1.
         -2    1    6    6    0  503  0.25354529448E+03 -0.16901436108E+03  0.19306975955E+03  0.36073120555E+03  0.00000000000E+00 0.  1.
<mgrwt>
<rscale>  0 0.17776215E+04</rscale>
<asrwt>0</asrwt>
<pdfrwt beam="1">  1        2 0.15865449E+00 0.17776215E+04</pdfrwt>
<pdfrwt beam="2">  1       -1 0.11785270E+00 0.17776215E+04</pdfrwt>
<totfact> 0.16794402E+01</totfact>
</mgrwt>
</event>
<event>
12    7  0.1625631E-007  0.3089117E+04  0.7818608E-02  0.8218731E-01
          2   -1    0    0  501    0  0.00000000000E+00  0.00000000000E+00  0.17252967548E+04  0.17252967548E+04  0.00000000000E+00 0. -1.
         -1   -1    0    0    0  501 -0.00000000000E+00 -0.00000000000E+00 -0.13827538624E+04  0.13827538624E+04  0.00000000000E+00 0.  1.
         24    2    1    2    0    0  0.12341991329E+04  0.40007684957E+03 -0.39332899718E+03  0.13579939694E+04  0.78300290927E+02 0.  0.
        254    2    1    2    0    0 -0.12341991329E+04 -0.40007684957E+03  0.73587188956E+03  0.17500566478E+04  0.91535886274E+03 0.  0.
         23    2    4    4    0    0 -0.13832241127E+02  0.18206375526E+03  0.21827989285E+03  0.29930173998E+03  0.92719351060E+02 0.  0.
         23    2    4    4    0    0 -0.12203668918E+04 -0.58214060483E+03  0.51759199671E+03  0.14507549079E+04  0.92764720041E+02 0.  0.
          4    1    3    3  502    0  0.56485502749E+02  0.16990975402E+01 -0.17940869198E+02  0.59290587287E+02  0.00000000000E+00 0. -1.
         -3    1    3    3    0  502  0.11777136302E+04  0.39837775203E+03 -0.37538812799E+03  0.12987033821E+04  0.00000000000E+00 0.  1.
         13    1    5    5    0    0  0.12820517136E+02  0.17460488534E+03  0.20150883747E+03  0.26694014913E+03  0.00000000000E+00 0. -1.
        -13    1    5    5    0    0 -0.26652758263E+02  0.74588699194E+01  0.16771055387E+02  0.32361590850E+02  0.00000000000E+00 0.  1.
          1    1    6    6  503    0 -0.74940754738E+03 -0.38833016347E+03  0.28486322341E+03  0.89081931051E+03  0.00000000000E+00 0. -1.
         -1    1    6    6    0  503 -0.47095934439E+03 -0.19381044136E+03  0.23272877330E+03  0.55993559734E+03  0.00000000000E+00 0.  1.
<mgrwt>
<rscale>  0 0.30891169E+04</rscale>
<asrwt>0</asrwt>
<pdfrwt beam="1">  1        2 0.26543027E+00 0.30891169E+04</pdfrwt>
<pdfrwt beam="2">  1       -1 0.21273136E+00 0.30891169E+04</pdfrwt>
<totfact> 0.11311767E+00</totfact>
</mgrwt>
</event>
<event>
12    7  0.1625631E-007  0.1981681E+04  0.7818608E-02  0.8615233E-01
          2   -1    0    0  501    0  0.00000000000E+00  0.00000000000E+00  0.14092847307E+04  0.14092847307E+04  0.00000000000E+00 0. -1.
         -1   -1    0    0    0  501 -0.00000000000E+00 -0.00000000000E+00 -0.69664080125E+03  0.69664080125E+03  0.00000000000E+00 0.  1.
         24    2    1    2    0    0  0.31306489793E+03 -0.63217492990E+00  0.10490304875E+04  0.10976027242E+04  0.79099598253E+02 0.  0.
        254    2    1    2    0    0 -0.31306489793E+03  0.63217492990E+00 -0.33638655804E+03  0.10083228078E+04  0.89752378146E+03 0.  0.
         23    2    4    4    0    0  0.10132181133E+03 -0.22672052730E+03  0.16612477744E+03  0.31262367463E+03  0.92020722174E+02 0.  0.
         23    2    4    4    0    0 -0.41438670926E+03  0.22735270223E+03 -0.50251133549E+03  0.69569913315E+03  0.89855692909E+02 0.  0.
          4    1    3    3  502    0  0.28983475371E+03 -0.49638654306E+01  0.87005304102E+03  0.91707203567E+03  0.00000000000E+00 0. -1.
         -3    1    3    3    0  502  0.23230144223E+02  0.43316905007E+01  0.17897744647E+03  0.18053068849E+03  0.00000000000E+00 0.  1.
         13    1    5    5    0    0 -0.27208749961E+01 -0.38393235787E+01  0.32231321127E+02  0.32573019938E+02  0.00000000000E+00 0. -1.
        -13    1    5    5    0    0  0.10404268633E+03 -0.22288120372E+03  0.13389345632E+03  0.28005065469E+03  0.00000000000E+00 0.  1.
          3    1    6    6  503    0 -0.24915489969E+03  0.11924157258E+03 -0.23160753921E+03  0.36047020528E+03  0.00000000000E+00 0. -1.
         -3    1    6    6    0  503 -0.16523180957E+03  0.10811112965E+03 -0.27090379627E+03  0.33522892787E+03  0.00000000000E+00 0.  1.
<mgrwt>
<rscale>  0 0.19816814E+04</rscale>
<asrwt>0</asrwt>
<pdfrwt beam="1">  1        2 0.21681303E+00 0.19816814E+04</pdfrwt>
<pdfrwt beam="2">  1       -1 0.10717551E+00 0.19816814E+04</pdfrwt>
<totfact> 0.12299823E+01</totfact>
</mgrwt>
</event>
<event>
12    7  0.1625631E-007  0.1451209E+04  0.7818608E-02  0.8917563E-01
          2   -1    0    0  501    0  0.00000000000E+00  0.00000000000E+00  0.12169200357E+04  0.12169200357E+04  0.00000000000E+00 0. -1.
         -1   -1    0    0    0  501 -0.00000000000E+00 -0.00000000000E+00 -0.43265107699E+03  0.43265107699E+03  0.00000000000E+00 0.  1.
         24    2    1    2    0    0 -0.25470860611E+03  0.16978830827E+03 -0.11890603029E+03  0.33802294833E+03  0.80101971913E+02 0.  0.
        254    2    1    2    0    0  0.25470860611E+03 -0.16978830827E+03  0.90317498900E+03  0.13115481644E+04  0.90040489952E+03 0.  0.
         23    2    4    4    0    0 -0.31344271334E+03 -0.18115010582E+03  0.39546732361E+03  0.54398096253E+03  0.91973845020E+02 0.  0.
         23    2    4    4    0    0  0.56815131946E+03  0.11361797547E+02  0.50770766540E+03  0.76756720185E+03  0.92018061348E+02 0.  0.
          4    1    3    3  502    0 -0.37588491798E+02  0.11562642562E+02  0.91964665294E+01  0.40387676528E+02  0.00000000000E+00 0. -1.
         -3    1    3    3    0  502 -0.21712011431E+03  0.15822566571E+03 -0.12810249682E+03  0.29763527180E+03  0.00000000000E+00 0.  1.
         13    1    5    5    0    0 -0.16942131113E+03 -0.49208536973E+02  0.21426310644E+03  0.27754952631E+03  0.00000000000E+00 0. -1.
        -13    1    5    5    0    0 -0.14402140222E+03 -0.13194156884E+03  0.18120421717E+03  0.26643143622E+03  0.00000000000E+00 0.  1.
          3    1    6    6  503    0  0.34198714100E+02  0.22589193016E+02  0.27527338348E+02  0.49371834519E+02  0.00000000000E+00 0. -1.
         -3    1    6    6    0  503  0.53395260536E+03 -0.11227395469E+02  0.48018032705E+03  0.71819536733E+03  0.00000000000E+00 0.  1.
<mgrwt>
<rscale>  0 0.14512088E+04</rscale>
<asrwt>0</asrwt>
<pdfrwt beam="1">  1        2 0.18721847E+00 0.14512088E+04</pdfrwt>
<pdfrwt beam="2">  1       -1 0.66561705E-01 0.14512088E+04</pdfrwt>
<totfact> 0.46793758E+01</totfact>
</mgrwt>
</event>
<event>
12    7  0.1625631E-007  0.1568338E+04  0.7818608E-02  0.8840239E-01
         -1   -1    0    0    0  501 -0.00000000000E+00  0.00000000000E+00  0.53551140819E+03  0.53551140819E+03  0.00000000000E+00 0.  1.
          2   -1    0    0  501    0  0.00000000000E+00 -0.00000000000E+00 -0.11482867313E+04  0.11482867313E+04  0.00000000000E+00 0. -1.
         24    2    1    2    0    0 -0.16655111220E+03  0.49938676088E+03 -0.27615622540E+03  0.59952392482E+03  0.77719146200E+02 0.  0.
        254    2    1    2    0    0  0.16655111220E+03 -0.49938676088E+03 -0.33661909773E+03  0.10842742147E+04  0.88612174434E+03 0.  0.
         23    2    4    4    0    0 -0.24429394390E+03 -0.50857227643E+03 -0.45931659381E+02  0.57299162063E+03  0.88794079797E+02 0.  0.
         23    2    4    4    0    0  0.41084505610E+03  0.91855155492E+01 -0.29068743835E+03  0.51128259406E+03  0.89625165879E+02 0.  0.
          4    1    3    3  502    0 -0.15560795028E+03  0.41389804340E+03 -0.25625602589E+03  0.51107002977E+03  0.00000000000E+00 0. -1.
         -3    1    3    3    0  502 -0.10943161916E+02  0.85488717480E+02 -0.19900199508E+02  0.88453895051E+02  0.00000000000E+00 0.  1.
         13    1    5    5    0    0 -0.18028697559E+03 -0.27422583647E+03 -0.29560624743E+02  0.32951029345E+03  0.00000000000E+00 0. -1.
        -13    1    5    5    0    0 -0.64006968318E+02 -0.23434643995E+03 -0.16371034639E+02  0.24348132718E+03  0.00000000000E+00 0.  1.
          4    1    6    6  503    0  0.37028867673E+02 -0.23384295231E+02 -0.17611366830E+02  0.47202992979E+02  0.00000000000E+00 0. -1.
         -4    1    6    6    0  503  0.37381618843E+03  0.32569810780E+02 -0.27307607152E+03  0.46407960108E+03  0.00000000000E+00 0.  1.
<mgrwt>
<rscale>  0 0.15683375E+04</rscale>
<asrwt>0</asrwt>
<pdfrwt beam="1">  1        2 0.17665950E+00 0.15683375E+04</pdfrwt>
<pdfrwt beam="2">  1       -1 0.82386371E-01 0.15683375E+04</pdfrwt>
<totfact> 0.32681661E+01</totfact>
</mgrwt>
</event>
<event>
12    7  0.1625631E-007  0.1865966E+04  0.7818608E-02  0.8671985E-01
         -1   -1    0    0    0  501 -0.00000000000E+00  0.00000000000E+00  0.11718169148E+04  0.11718169148E+04  0.00000000000E+00 0.  1.
          2   -1    0    0  501    0  0.00000000000E+00 -0.00000000000E+00 -0.74282735622E+03  0.74282735622E+03  0.00000000000E+00 0. -1.
         24    2    1    2    0    0  0.44434674514E+03  0.41377578077E+02  0.73439492574E+03  0.86297423733E+03  0.78946142741E+02 0.  0.
        254    2    1    2    0    0 -0.44434674514E+03 -0.41377578077E+02 -0.30540536720E+03  0.10516700337E+04  0.90198740982E+03 0.  0.
         23    2    4    4    0    0  0.22469857173E+03 -0.90622895242E+02  0.83001287559E+02  0.27115741032E+03  0.89079572057E+02 0.  0.
         23    2    4    4    0    0 -0.66904531687E+03  0.49245317165E+02 -0.38840665476E+03  0.78051262333E+03  0.91068591855E+02 0.  0.
          2    1    3    3  502    0  0.17020397764E+03 -0.16138985789E+02  0.31963239903E+03  0.36248411190E+03  0.00000000000E+00 0. -1.
         -1    1    3    3    0  502  0.27414276751E+03  0.57516563867E+02  0.41476252671E+03  0.50049012543E+03  0.00000000000E+00 0.  1.
         13    1    5    5    0    0  0.11266159873E+03 -0.56987272657E+02  0.88287010099E+02  0.15406096594E+03  0.00000000000E+00 0. -1.
        -13    1    5    5    0    0  0.11203697299E+03 -0.33635622585E+02 -0.52857225396E+01  0.11709644438E+03  0.00000000000E+00 0.  1.
          2    1    6    6  503    0 -0.52986398464E+03  0.72854380972E+02 -0.32412779312E+03  0.62539781685E+03  0.00000000000E+00 0. -1.
         -2    1    6    6    0  503 -0.13918133223E+03 -0.23609063808E+02 -0.64278861640E+02  0.15511480648E+03  0.00000000000E+00 0.  1.
<mgrwt>
<rscale>  0 0.18659664E+04</rscale>
<asrwt>0</asrwt>
<pdfrwt beam="1">  1        2 0.11428113E+00 0.18659664E+04</pdfrwt>
<pdfrwt beam="2">  1       -1 0.18027953E+00 0.18659664E+04</pdfrwt>
<totfact> 0.84319833E+00</totfact>
</mgrwt>
</event>
<event>
12    7  0.1625631E-007  0.1632981E+04  0.7818608E-02  0.8800539E-01
         -1   -1    0    0    0  501 -0.00000000000E+00  0.00000000000E+00  0.45271560419E+03  0.45271560419E+03  0.00000000000E+00 0.  1.
          2   -1    0    0  501    0  0.00000000000E+00 -0.00000000000E+00 -0.14725727335E+04  0.14725727335E+04  0.00000000000E+00 0. -1.
         24    2    1    2    0    0 -0.36641543492E+03  0.38036915119E+03 -0.61148966997E+03  0.81189502535E+03  0.79454097316E+02 0.  0.
        254    2    1    2    0    0  0.36641543492E+03 -0.38036915119E+03 -0.40836745930E+03  0.11133933123E+04  0.89103295332E+03 0.  0.
         23    2    4    4    0    0 -0.23319885463E+03 -0.29214730278E+03 -0.30791964822E+03  0.49219967137E+03  0.87830828332E+02 0.  0.
         23    2    4    4    0    0  0.59961428956E+03 -0.88221848411E+02 -0.10044781108E+03  0.62119364093E+03  0.92040132542E+02 0.  0.
          2    1    3    3  502    0 -0.24118797841E+03  0.21459021131E+03 -0.41648635876E+03  0.52695491909E+03  0.00000000000E+00 0. -1.
         -1    1    3    3    0  502 -0.12522745651E+03  0.16577893988E+03 -0.19500331121E+03  0.28494010626E+03  0.00000000000E+00 0.  1.
         13    1    5    5    0    0 -0.19231299758E+03 -0.27999863096E+03 -0.28699683239E+03  0.44469169565E+03  0.00000000000E+00 0.  1.
        -13    1    5    5    0    0 -0.40885857056E+02 -0.12148671820E+02 -0.20922815829E+02  0.47507975713E+02  0.00000000000E+00 0. -1.
          2    1    6    6  503    0  0.18624056015E+03  0.57126037404E+01 -0.58075790635E+02  0.19516909987E+03  0.00000000000E+00 0. -1.
         -2    1    6    6    0  503  0.41337372941E+03 -0.93934452151E+02 -0.42372020444E+02  0.42602454105E+03  0.00000000000E+00 0.  1.
<mgrwt>
<rscale>  0 0.16329809E+04</rscale>
<asrwt>0</asrwt>
<pdfrwt beam="1">  1        2 0.22654965E+00 0.16329809E+04</pdfrwt>
<pdfrwt beam="2">  1       -1 0.69648555E-01 0.16329809E+04</pdfrwt>
<totfact> 0.29894326E+01</totfact>
</mgrwt>
</event>
<event>
12    7  0.1625631E-007  0.2039889E+04  0.7818608E-02  0.8588195E-01
         -1   -1    0    0    0  501 -0.00000000000E+00  0.00000000000E+00  0.42492632682E+03  0.42492632682E+03  0.00000000000E+00 0.  1.
          2   -1    0    0  501    0  0.00000000000E+00 -0.00000000000E+00 -0.24481591142E+04  0.24481591142E+04  0.00000000000E+00 0. -1.
         24    2    1    2    0    0 -0.65337143662E+03 -0.45303944314E+03 -0.55457864175E+03  0.97283862885E+03  0.81966802206E+02 0.  0.
        254    2    1    2    0    0  0.65337143662E+03  0.45303944314E+03 -0.14686541457E+04  0.19002468122E+04  0.90656162309E+03 0.  0.
         23    2    4    4    0    0  0.86679525712E+03  0.37698034067E+03 -0.12681052224E+04  0.15843812287E+04  0.93406786971E+02 0.  0.
         23    2    4    4    0    0 -0.21342382050E+03  0.76059102470E+02 -0.20054892325E+03  0.31586558346E+03  0.90644812165E+02 0.  0.
          4    1    3    3  502    0 -0.10091659596E+02 -0.20507785132E+01 -0.20285766076E+02  0.22749936070E+02  0.00000000000E+00 0. -1.
         -3    1    3    3    0  502 -0.64327977703E+03 -0.45098866463E+03 -0.53429287568E+03  0.95008869278E+03  0.00000000000E+00 0.  1.
         13    1    5    5    0    0  0.69800810192E+03  0.29464361481E+03 -0.10735007689E+04  0.13139383817E+04  0.00000000000E+00 0.  1.
        -13    1    5    5    0    0  0.16878715520E+03  0.82336725859E+02 -0.19460445355E+03  0.27044284706E+03  0.00000000000E+00 0. -1.
          2    1    6    6  503    0 -0.56118687042E+02 -0.20122315933E+02 -0.46734113556E+02  0.75751514860E+02  0.00000000000E+00 0. -1.
         -2    1    6    6    0  503 -0.15730513345E+03  0.96181418403E+02 -0.15381480969E+03  0.24011406860E+03  0.00000000000E+00 0.  1.
<mgrwt>
<rscale>  0 0.20398895E+04</rscale>
<asrwt>0</asrwt>
<pdfrwt beam="1">  1        2 0.37663987E+00 0.20398895E+04</pdfrwt>
<pdfrwt beam="2">  1       -1 0.65373280E-01 0.20398895E+04</pdfrwt>
<totfact> 0.93296458E+00</totfact>
</mgrwt>
</event>
<event>
12    7  0.1625631E-007  0.1693824E+04  0.7818608E-02  0.8764895E-01
         -1   -1    0    0    0  501 -0.00000000000E+00  0.00000000000E+00  0.29805450144E+03  0.29805450144E+03  0.00000000000E+00 0.  1.
          2   -1    0    0  501    0  0.00000000000E+00 -0.00000000000E+00 -0.24064728568E+04  0.24064728568E+04  0.00000000000E+00 0. -1.
         24    2    1    2    0    0 -0.15604289227E+03 -0.11333133768E+03 -0.16881775321E+04  0.17011543430E+04  0.82397466905E+02 0.  0.
        254    2    1    2    0    0  0.15604289227E+03  0.11333133768E+03 -0.42024082318E+03  0.10033730151E+04  0.89048395928E+03 0.  0.
         23    2    4    4    0    0  0.19411624639E+03  0.26808334174E+03 -0.63421189359E+03  0.72142484628E+03  0.93162694387E+02 0.  0.
         23    2    4    4    0    0 -0.38073354119E+02 -0.15475200405E+03  0.21397107041E+03  0.28194816887E+03  0.91177781856E+02 0.  0.
          2    1    3    3  502    0 -0.70532675518E+02 -0.60798038520E+02 -0.11452349516E+04  0.11490145144E+04  0.00000000000E+00 0. -1.
         -1    1    3    3    0  502 -0.85510216752E+02 -0.52533299161E+02 -0.54294258052E+03  0.55213982870E+03  0.00000000000E+00 0.  1.
         13    1    5    5    0    0  0.80452601585E+01  0.32837743848E+02 -0.23933417883E+02  0.41422845431E+02  0.00000000000E+00 0.  1.
        -13    1    5    5    0    0  0.18607098623E+03  0.23524559789E+03 -0.61027847571E+03  0.68000200084E+03  0.00000000000E+00 0. -1.
          1    1    6    6  503    0  0.86140930024E+01 -0.91315394209E+02  0.16619846450E+03  0.18982790474E+03  0.00000000000E+00 0. -1.
         -1    1    6    6    0  503 -0.46687447121E+02 -0.63436609846E+02  0.47772605916E+02  0.92120264130E+02  0.00000000000E+00 0.  1.
<mgrwt>
<rscale>  0 0.16938242E+04</rscale>
<asrwt>0</asrwt>
<pdfrwt beam="1">  1        2 0.37022660E+00 0.16938242E+04</pdfrwt>
<pdfrwt beam="2">  1       -1 0.45854538E-01 0.16938242E+04</pdfrwt>
<totfact> 0.20227863E+01</totfact>
</mgrwt>
</event>
<event>
12    7  0.1625631E-007  0.2478754E+04  0.7818608E-02  0.8410594E-01
          2   -1    0    0  501    0  0.00000000000E+00  0.00000000000E+00  0.15825477940E+04  0.15825477940E+04  0.00000000000E+00 0. -1.
         -1   -1    0    0    0  501 -0.00000000000E+00 -0.00000000000E+00 -0.97062154729E+03  0.97062154729E+03  0.00000000000E+00 0.  1.
         24    2    1    2    0    0  0.37095768339E+03  0.99213256675E+03  0.45428295748E+02  0.10630045560E+04  0.77319617418E+02 0.  0.
        254    2    1    2    0    0 -0.37095768339E+03 -0.99213256675E+03  0.56649795101E+03  0.14901647853E+04  0.88189258187E+03 0.  0.
         23    2    4    4    0    0  0.77835139498E+02 -0.80853368695E+03  0.12464584409E+03  0.82675685494E+03  0.90582994383E+02 0.  0.
         23    2    4    4    0    0 -0.44879282289E+03 -0.18359887980E+03  0.44185210692E+03  0.66340793035E+03  0.98758549632E+02 0.  0.
          4    1    3    3  502    0  0.20768898259E+03  0.58653967490E+03  0.63174608768E+02  0.62542348446E+03  0.00000000000E+00 0. -1.
         -3    1    3    3    0  502  0.16326870080E+03  0.40559289185E+03 -0.17746313020E+02  0.43758107158E+03  0.00000000000E+00 0.  1.
         13    1    5    5    0    0  0.54930752388E+02 -0.73328938669E+03  0.13432027893E+03  0.74751096949E+03  0.00000000000E+00 0. -1.
        -13    1    5    5    0    0  0.22904387110E+02 -0.75244300264E+02 -0.96744348327E+01  0.79245885448E+02  0.00000000000E+00 0.  1.
          2    1    6    6  503    0 -0.44541518670E+03 -0.18962186851E+03  0.42138460115E+03  0.64180692085E+03  0.00000000000E+00 0. -1.
         -2    1    6    6    0  503 -0.33776361888E+01  0.60229887135E+01  0.20467505766E+02  0.21601009503E+02  0.00000000000E+00 0.  1.
<mgrwt>
<rscale>  0 0.24787537E+04</rscale>
<asrwt>0</asrwt>
<pdfrwt beam="1">  1        2 0.24346889E+00 0.24787537E+04</pdfrwt>
<pdfrwt beam="2">  1       -1 0.14932639E+00 0.24787537E+04</pdfrwt>
<totfact> 0.40985879E+00</totfact>
</mgrwt>
</event>
<event>
12    7  0.1625631E-007  0.1636527E+04  0.7818608E-02  0.8798417E-01
         -1   -1    0    0    0  501 -0.00000000000E+00  0.00000000000E+00  0.25322449962E+03  0.25322449962E+03  0.00000000000E+00 0.  1.
          2   -1    0    0  501    0  0.00000000000E+00 -0.00000000000E+00 -0.26441163923E+04  0.26441163923E+04  0.00000000000E+00 0. -1.
         24    2    1    2    0    0  0.31156033139E+03 -0.28785895659E+03 -0.15699783591E+04  0.16285437227E+04  0.85965050944E+02 0.  0.
        254    2    1    2    0    0 -0.31156033139E+03  0.28785895659E+03 -0.82091353359E+03  0.12687971692E+04  0.86949100503E+03 0.  0.
         23    2    4    4    0    0  0.22633096757E+02  0.81077217778E+02  0.16332268983E+03  0.20506036012E+03  0.91047668648E+02 0.  0.
         23    2    4    4    0    0 -0.33419342815E+03  0.20678173881E+03 -0.98423622343E+03  0.10637368090E+04  0.91493827441E+02 0.  0.
          4    1    3    3  502    0  0.26853443124E+03 -0.26094452045E+03 -0.14627155975E+04  0.15098806916E+04  0.00000000000E+00 0. -1.
         -3    1    3    3    0  502  0.43025900152E+02 -0.26914436138E+02 -0.10726276154E+03  0.11866303118E+03  0.00000000000E+00 0.  1.
         13    1    5    5    0    0 -0.68067602281E+01 -0.17792670801E+02  0.39814100014E+02  0.44136987652E+02  0.00000000000E+00 0. -1.
        -13    1    5    5    0    0  0.29439856985E+02  0.98869888580E+02  0.12350858982E+03  0.16092337247E+03  0.00000000000E+00 0.  1.
          1    1    6    6  503    0 -0.60342731150E+02  0.49262173138E+02 -0.30231485830E+03  0.31218949447E+03  0.00000000000E+00 0. -1.
         -1    1    6    6    0  503 -0.27385069700E+03  0.15751956567E+03 -0.68192136512E+03  0.75154731456E+03  0.00000000000E+00 0.  1.
<mgrwt>
<rscale>  0 0.16365269E+04</rscale>
<asrwt>0</asrwt>
<pdfrwt beam="1">  1        2 0.40678715E+00 0.16365269E+04</pdfrwt>
<pdfrwt beam="2">  1       -1 0.38957614E-01 0.16365269E+04</pdfrwt>
<totfact> 0.20007415E+01</totfact>
</mgrwt>
</event>
<event>
12    7  0.1625631E-007  0.1553502E+04  0.7818608E-02  0.8849634E-01
         -1   -1    0    0    0  501 -0.00000000000E+00  0.00000000000E+00  0.40863726405E+03  0.40863726405E+03  0.00000000000E+00 0.  1.
          2   -1    0    0  501    0  0.00000000000E+00 -0.00000000000E+00 -0.14764728377E+04  0.14764728377E+04  0.00000000000E+00 0. -1.
         24    2    1    2    0    0 -0.50478551527E+03 -0.86469022248E+02 -0.38632688035E+03  0.64653146996E+03  0.80431181318E+02 0.  0.
        254    2    1    2    0    0  0.50478551527E+03  0.86469022248E+02 -0.68150869334E+03  0.12385786318E+04  0.89851968253E+03 0.  0.
         23    2    4    4    0    0  0.37040879508E+03 -0.71724999068E+02 -0.86446106860E+03  0.94769035908E+03  0.92070226433E+02 0.  0.
         23    2    4    4    0    0  0.13437672019E+03  0.15819402132E+03  0.18295237526E+03  0.29088827275E+03  0.89788441909E+02 0.  0.
          2    1    3    3  502    0 -0.40348030211E+03 -0.75301218168E+02 -0.26720924165E+03  0.48976260216E+03  0.00000000000E+00 0. -1.
         -1    1    3    3    0  502 -0.10130521316E+03 -0.11167804081E+02 -0.11911763870E+03  0.15676886780E+03  0.00000000000E+00 0.  1.
         13    1    5    5    0    0  0.27557584868E+02  0.19269912263E+02 -0.72689596059E+02  0.80090744644E+02  0.00000000000E+00 0. -1.
        -13    1    5    5    0    0  0.34285121022E+03 -0.90994911331E+02 -0.79177147254E+03  0.86759961443E+03  0.00000000000E+00 0.  1.
          1    1    6    6  503    0  0.64415050089E+02  0.16626130799E+02  0.38445489273E+02  0.76836075828E+02  0.00000000000E+00 0. -1.
         -1    1    6    6    0  503  0.69961670102E+02  0.14156789052E+03  0.14450688599E+03  0.21405219692E+03  0.00000000000E+00 0.  1.
<mgrwt>
<rscale>  0 0.15535016E+04</rscale>
<asrwt>0</asrwt>
<pdfrwt beam="1">  1        2 0.22714967E+00 0.15535016E+04</pdfrwt>
<pdfrwt beam="2">  1       -1 0.62867270E-01 0.15535016E+04</pdfrwt>
<totfact> 0.36834415E+01</totfact>
</mgrwt>
</event>
<event>
12    7  0.1625631E-007  0.1750531E+04  0.7818608E-02  0.8733058E-01
         -1   -1    0    0    0  501 -0.00000000000E+00  0.00000000000E+00  0.10481808944E+04  0.10481808944E+04  0.00000000000E+00 0.  1.
          2   -1    0    0  501    0  0.00000000000E+00 -0.00000000000E+00 -0.73087517900E+03  0.73087517900E+03  0.00000000000E+00 0. -1.
         24    2    1    2    0    0 -0.16262661490E+03  0.36971947265E+03  0.64538962426E+03  0.76536707393E+03  0.78224589599E+02 0.  0.
        254    2    1    2    0    0  0.16262661490E+03 -0.36971947265E+03 -0.32808390885E+03  0.10136889995E+04  0.86993472864E+03 0.  0.
         23    2    4    4    0    0  0.28340012342E+03  0.17909201396E+03 -0.27340978585E+03  0.44221737252E+03  0.91726300137E+02 0.  0.
         23    2    4    4    0    0 -0.12077350852E+03 -0.54881148661E+03 -0.54674123001E+02  0.57147162696E+03  0.88375746105E+02 0.  0.
          4    1    3    3  502    0 -0.54678365230E+02  0.12928447338E+03  0.15850751436E+03  0.21172820027E+03  0.00000000000E+00 0. -1.
         -3    1    3    3    0  502 -0.10794824967E+03  0.24043499926E+03  0.48688210990E+03  0.55363887365E+03  0.00000000000E+00 0.  1.
         13    1    5    5    0    0  0.25519956198E+03  0.14447315702E+03 -0.19559123447E+03  0.35249856813E+03  0.00000000000E+00 0. -1.
        -13    1    5    5    0    0  0.28200561447E+02  0.34618856949E+02 -0.77818551380E+02  0.89718804391E+02  0.00000000000E+00 0.  1.
          4    1    6    6  503    0 -0.81230505728E+02 -0.44037730616E+03 -0.75679959398E+02  0.45415638616E+03  0.00000000000E+00 0. -1.
         -4    1    6    6    0  503 -0.39543002796E+02 -0.10843418046E+03  0.21005836397E+02  0.11731524080E+03  0.00000000000E+00 0.  1.
<mgrwt>
<rscale>  0 0.17505307E+04</rscale>
<asrwt>0</asrwt>
<pdfrwt beam="1">  1        2 0.11244234E+00 0.17505307E+04</pdfrwt>
<pdfrwt beam="2">  1       -1 0.16125860E+00 0.17505307E+04</pdfrwt>
<totfact> 0.11996423E+01</totfact>
</mgrwt>
</event>
<event>
12    7  0.1625631E-007  0.2284471E+04  0.7818608E-02  0.8484069E-01
          2   -1    0    0  501    0  0.00000000000E+00  0.00000000000E+00  0.14535293797E+04  0.14535293797E+04  0.00000000000E+00 0. -1.
         -1   -1    0    0    0  501 -0.00000000000E+00 -0.00000000000E+00 -0.89760950414E+03  0.89760950414E+03  0.00000000000E+00 0.  1.
         24    2    1    2    0    0  0.21334908484E+03  0.90617040181E+03 -0.57231547819E+02  0.93600882738E+03  0.78577641520E+02 0.  0.
        254    2    1    2    0    0 -0.21334908484E+03 -0.90617040181E+03  0.61315142338E+03  0.14151300565E+04  0.87176589724E+03 0.  0.
         23    2    4    4    0    0 -0.10823485068E+03 -0.21050099029E+03 -0.20916015613E+03  0.32888645547E+03  0.91612662137E+02 0.  0.
         23    2    4    4    0    0 -0.10511423417E+03 -0.69566941152E+03  0.82231157951E+03  0.10862436010E+04  0.93401790990E+02 0.  0.
          4    1    3    3  502    0  0.84545010694E+01  0.59255755885E+02 -0.22578299851E+02  0.63972672431E+02  0.00000000000E+00 0. -1.
         -3    1    3    3    0  502  0.20489458377E+03  0.84691464592E+03 -0.34653247967E+02  0.87203615495E+03  0.00000000000E+00 0.  1.
         13    1    5    5    0    0 -0.34903616502E+02 -0.11168402623E+03 -0.15558695353E+03  0.19467635775E+03  0.00000000000E+00 0. -1.
        -13    1    5    5    0    0 -0.73331234175E+02 -0.98816964067E+02 -0.53573202605E+02  0.13421009772E+03  0.00000000000E+00 0.  1.
          3    1    6    6  503    0 -0.11386407733E+03 -0.57464830181E+03  0.71424579214E+03  0.92376011522E+03  0.00000000000E+00 0. -1.
         -3    1    6    6    0  503  0.87498431634E+01 -0.12102110970E+03  0.10806578737E+03  0.16248348578E+03  0.00000000000E+00 0.  1.
<mgrwt>
<rscale>  0 0.22844709E+04</rscale>
<asrwt>0</asrwt>
<pdfrwt beam="1">  1        2 0.22361990E+00 0.22844709E+04</pdfrwt>
<pdfrwt beam="2">  1       -1 0.13809377E+00 0.22844709E+04</pdfrwt>
<totfact> 0.60601810E+00</totfact>
</mgrwt>
</event>
<event>
12    7  0.1625631E-007  0.2310662E+04  0.7818608E-02  0.8473729E-01
          2   -1    0    0  501    0  0.00000000000E+00  0.00000000000E+00  0.15400457753E+04  0.15400457753E+04  0.00000000000E+00 0. -1.
         -1   -1    0    0    0  501 -0.00000000000E+00 -0.00000000000E+00 -0.86672083081E+03  0.86672083081E+03  0.00000000000E+00 0.  1.
         24    2    1    2    0    0 -0.58103874737E+03  0.52494246429E+03  0.90275793283E+03  0.11976211214E+04  0.78446468738E+02 0.  0.
        254    2    1    2    0    0  0.58103874737E+03 -0.52494246429E+03 -0.22943298832E+03  0.12091454847E+04  0.89231311223E+03 0.  0.
         23    2    4    4    0    0  0.65071836108E+03 -0.13790233064E+02 -0.66750913524E+02  0.66074717737E+03  0.92231187605E+02 0.  0.
         23    2    4    4    0    0 -0.69679613715E+02 -0.51115223123E+03 -0.16268207480E+03  0.54839830732E+03  0.90240755504E+02 0.  0.
          4    1    3    3  502    0 -0.49659040589E+03  0.47652704814E+03  0.81315589724E+03  0.10653180614E+04  0.00000000000E+00 0. -1.
         -3    1    3    3    0  502 -0.84448341479E+02  0.48415416151E+02  0.89602035583E+02  0.13230305998E+03  0.00000000000E+00 0.  1.
         13    1    5    5    0    0  0.46050668725E+03 -0.51635641077E+02 -0.50129237874E+02  0.46609611554E+03  0.00000000000E+00 0.  1.
        -13    1    5    5    0    0  0.19021167383E+03  0.37845408013E+02 -0.16621675649E+02  0.19465106183E+03  0.00000000000E+00 0. -1.
          3    1    6    6  503    0  0.12674756803E+02 -0.11019295695E+03 -0.61173701809E+02  0.12667027676E+03  0.00000000000E+00 0. -1.
         -3    1    6    6    0  503 -0.82354370518E+02 -0.40095927428E+03 -0.10150837299E+03  0.42172803056E+03  0.00000000000E+00 0.  1.
<mgrwt>
<rscale>  0 0.23106620E+04</rscale>
<asrwt>0</asrwt>
<pdfrwt beam="1">  1        2 0.23693012E+00 0.23106620E+04</pdfrwt>
<pdfrwt beam="2">  1       -1 0.13334167E+00 0.23106620E+04</pdfrwt>
<totfact> 0.59117204E+00</totfact>
</mgrwt>
</event>
<event>
12    7  0.1637602E-007  0.1989605E+04  0.7818608E-02  0.8611496E-01
          2   -1    0    0  501    0  0.00000000000E+00  0.00000000000E+00  0.12263926829E+04  0.12263926829E+04  0.00000000000E+00 0. -1.
         -1   -1    0    0    0  501 -0.00000000000E+00 -0.00000000000E+00 -0.80694583913E+03  0.80694583913E+03  0.00000000000E+00 0.  1.
         24    2    1    2    0    0  0.61108939416E+02  0.42480595078E+03  0.85885830864E+03  0.96341732872E+03  0.79630124197E+02 0.  0.
        254    2    1    2    0    0 -0.61108939416E+02 -0.42480595078E+03 -0.43941146490E+03  0.10699211933E+04  0.87604481964E+03 0.  0.
         23    2    4    4    0    0 -0.28745297473E+03 -0.38947762097E+03  0.77538807491E+02  0.49750455642E+03  0.84714149209E+02 0.  0.
         23    2    4    4    0    0  0.22634403531E+03 -0.35328329811E+02 -0.51695027239E+03  0.57241663685E+03  0.89126364244E+02 0.  0.
          4    1    3    3  502    0  0.67375034368E+02  0.41077161045E+03  0.84781751273E+03  0.94449311596E+03  0.00000000000E+00 0. -1.
         -3    1    3    3    0  502 -0.62660949522E+01  0.14034340329E+02  0.11040795904E+02  0.18924212761E+02  0.00000000000E+00 0.  1.
         13    1    5    5    0    0 -0.28226479997E+03 -0.39071124100E+03  0.68276257520E+02  0.48681653473E+03  0.00000000000E+00 0.  1.
        -13    1    5    5    0    0 -0.51881747621E+01  0.12336200305E+01  0.92625499710E+01  0.10688021693E+02  0.00000000000E+00 0. -1.
          3    1    6    6  503    0  0.67922505063E+02  0.29883345652E+02 -0.14376760624E+03  0.16178876860E+03  0.00000000000E+00 0. -1.
         -3    1    6    6    0  503  0.15842153025E+03 -0.65211675463E+02 -0.37318266615E+03  0.41062786825E+03  0.00000000000E+00 0.  1.
<mgrwt>
<rscale>  0 0.19896055E+04</rscale>
<asrwt>0</asrwt>
<pdfrwt beam="1">  1        2 0.18867580E+00 0.19896055E+04</pdfrwt>
<pdfrwt beam="2">  1       -1 0.12414551E+00 0.19896055E+04</pdfrwt>
<totfact> 0.11024523E+01</totfact>
</mgrwt>
</event>
<event>
12    7  0.1625631E-007  0.1671475E+04  0.7818608E-02  0.8777802E-01
          2   -1    0    0  501    0  0.00000000000E+00  0.00000000000E+00  0.58270495314E+03  0.58270495314E+03  0.00000000000E+00 0. -1.
         -1   -1    0    0    0  501 -0.00000000000E+00 -0.00000000000E+00 -0.11986470502E+04  0.11986470502E+04  0.00000000000E+00 0.  1.
         24    2    1    2    0    0  0.72423026025E+01  0.45471911462E+03 -0.66496822338E+03  0.80957379699E+03  0.80031684530E+02 0.  0.
        254    2    1    2    0    0 -0.72423026025E+01 -0.45471911462E+03  0.49026126353E+02  0.97177820631E+03  0.85739570622E+03 0.  0.
         23    2    4    4    0    0 -0.18771221142E+03 -0.21004894217E+03 -0.35198987896E+03  0.46017160362E+03  0.92220374463E+02 0.  0.
         23    2    4    4    0    0  0.18046990882E+03 -0.24467017245E+03  0.40101600532E+03  0.51160660269E+03  0.92166144088E+02 0.  0.
          2    1    3    3  502    0 -0.25732283239E+02  0.82523334268E+02 -0.15335782244E+03  0.17604224721E+03  0.00000000000E+00 0. -1.
         -1    1    3    3    0  502  0.32974585842E+02  0.37219578035E+03 -0.51161040094E+03  0.63353154978E+03  0.00000000000E+00 0.  1.
         13    1    5    5    0    0 -0.14550020779E+02 -0.71502672268E+02 -0.10930007899E+03  0.13141857750E+03  0.00000000000E+00 0.  1.
        -13    1    5    5    0    0 -0.17316219064E+03 -0.13854626990E+03 -0.24268979998E+03  0.32875302612E+03  0.00000000000E+00 0. -1.
          1    1    6    6  503    0  0.13893977180E+03 -0.11223356855E+03  0.21481184955E+03  0.27936493123E+03  0.00000000000E+00 0. -1.
         -1    1    6    6    0  503  0.41530137020E+02 -0.13243660390E+03  0.18620415577E+03  0.23224167145E+03  0.00000000000E+00 0.  1.
<mgrwt>
<rscale>  0 0.16714755E+04</rscale>
<asrwt>0</asrwt>
<pdfrwt beam="1">  1        2 0.89646917E-01 0.16714755E+04</pdfrwt>
<pdfrwt beam="2">  1       -1 0.18440724E+00 0.16714755E+04</pdfrwt>
<totfact> 0.10833544E+01</totfact>
</mgrwt>
</event>
<event>
12    7  0.1625631E-007  0.1403081E+04  0.7818608E-02  0.8951591E-01
          2   -1    0    0  501    0  0.00000000000E+00  0.00000000000E+00  0.98646327074E+03  0.98646327074E+03  0.00000000000E+00 0. -1.
         -1   -1    0    0    0  501 -0.00000000000E+00 -0.00000000000E+00 -0.49891287195E+03  0.49891287195E+03  0.00000000000E+00 0.  1.
         24    2    1    2    0    0 -0.14132833744E+03 -0.13118247860E+03 -0.24316437748E+03  0.32076156324E+03  0.81095772515E+02 0.  0.
        254    2    1    2    0    0  0.14132833744E+03  0.13118247860E+03  0.73071477627E+03  0.11646145795E+04  0.88611539472E+03 0.  0.
         23    2    4    4    0    0  0.44758047050E+03  0.20278740020E+03  0.66413808924E+03  0.83107891799E+03  0.90342454552E+02 0.  0.
         23    2    4    4    0    0 -0.30625213306E+03 -0.71604921599E+02  0.66576687025E+02  0.33353566146E+03  0.88859149266E+02 0.  0.
          4    1    3    3  502    0 -0.77389352487E+01  0.14477921245E+01  0.49628647307E+01  0.93068387304E+01  0.00000000000E+00 0. -1.
         -3    1    3    3    0  502 -0.13358940219E+03 -0.13263027073E+03 -0.24812724221E+03  0.31145472451E+03  0.00000000000E+00 0.  1.
         13    1    5    5    0    0  0.78900705697E+02  0.36163227935E+02  0.66353369904E+02  0.10925140783E+03  0.00000000000E+00 0. -1.
        -13    1    5    5    0    0  0.36867976480E+03  0.16662417227E+03  0.59778471934E+03  0.72182751017E+03  0.00000000000E+00 0.  1.
          4    1    6    6  503    0 -0.53593109029E+02 -0.46055682454E+02 -0.12919742761E+01  0.70675430096E+02  0.00000000000E+00 0.  1.
         -4    1    6    6    0  503 -0.25265902403E+03 -0.25549239145E+02  0.67868661301E+02  0.26286023137E+03  0.00000000000E+00 0. -1.
<mgrwt>
<rscale>  0 0.14030812E+04</rscale>
<asrwt>0</asrwt>
<pdfrwt beam="1">  1        2 0.15176358E+00 0.14030812E+04</pdfrwt>
<pdfrwt beam="2">  1       -1 0.76755827E-01 0.14030812E+04</pdfrwt>
<totfact> 0.48605257E+01</totfact>
</mgrwt>
</event>
<event>
12    7  0.1625631E-007  0.2440644E+04  0.7818608E-02  0.8424442E-01
          2   -1    0    0  501    0  0.00000000000E+00  0.00000000000E+00  0.21080796984E+04  0.21080796984E+04  0.00000000000E+00 0. -1.
         -1   -1    0    0    0  501 -0.00000000000E+00 -0.00000000000E+00 -0.70641821333E+03  0.70641821333E+03  0.00000000000E+00 0.  1.
         24    2    1    2    0    0  0.85195787739E+03  0.53866776981E+03  0.91211664422E+03  0.13617174548E+04  0.79513917112E+02 0.  0.
        254    2    1    2    0    0 -0.85195787739E+03 -0.53866776981E+03  0.48954484085E+03  0.14527804569E+04  0.92461976710E+03 0.  0.
         23    2    4    4    0    0  0.17418364446E+03 -0.13786174183E+03  0.19495004484E+03  0.30879731642E+03  0.89467652191E+02 0.  0.
         23    2    4    4    0    0 -0.10261415218E+04 -0.40080602798E+03  0.29459479601E+03  0.11439831405E+04  0.91101245746E+02 0.  0.
          2    1    3    3  502    0  0.85253952796E+03  0.54030443945E+03  0.91094306530E+03  0.13596211981E+04  0.00000000000E+00 0. -1.
         -1    1    3    3    0  502 -0.58165057163E+00 -0.16366696340E+01  0.11735789208E+01  0.20962567499E+01  0.00000000000E+00 0.  1.
         13    1    5    5    0    0  0.17612073874E+03 -0.10332245152E+03  0.15801086695E+03  0.25818884112E+03  0.00000000000E+00 0.  1.
        -13    1    5    5    0    0 -0.19370942838E+01 -0.34539290310E+02  0.36939177892E+02  0.50608475306E+02  0.00000000000E+00 0. -1.
          3    1    6    6  503    0 -0.16044593930E+03 -0.79464402853E+02  0.79210209156E+02  0.19578495344E+03  0.00000000000E+00 0. -1.
         -3    1    6    6    0  503 -0.86569558255E+03 -0.32134162513E+03  0.21538458685E+03  0.94819818706E+03  0.00000000000E+00 0.  1.
<mgrwt>
<rscale>  0 0.24406441E+04</rscale>
<asrwt>0</asrwt>
<pdfrwt beam="1">  1        2 0.32431995E+00 0.24406441E+04</pdfrwt>
<pdfrwt beam="2">  1       -1 0.10867973E+00 0.24406441E+04</pdfrwt>
<totfact> 0.46560256E+00</totfact>
</mgrwt>
</event>
<event>
12    7  0.1625631E-007  0.1145857E+04  0.7818608E-02  0.9161614E-01
          2   -1    0    0  501    0  0.00000000000E+00  0.00000000000E+00  0.29126273740E+04  0.29126273740E+04  0.00000000000E+00 0. -1.
         -1   -1    0    0    0  501 -0.00000000000E+00 -0.00000000000E+00 -0.11269786673E+03  0.11269786673E+03  0.00000000000E+00 0.  1.
         24    2    1    2    0    0  0.80331965027E+02  0.18432863902E+02  0.10722189234E+04  0.10779439952E+04  0.74275445672E+02 0.  0.
        254    2    1    2    0    0 -0.80331965027E+02 -0.18432863902E+02  0.17277105838E+04  0.19473812456E+04  0.89471607735E+03 0.  0.
         23    2    4    4    0    0  0.11475767856E+03 -0.41892759807E+03  0.83874160916E+03  0.94876162225E+03  0.89395031789E+02 0.  0.
         23    2    4    4    0    0 -0.19508964358E+03  0.40049473417E+03  0.88896897467E+03  0.99861962332E+03  0.92300124765E+02 0.  0.
          4    1    3    3  502    0  0.82681686057E+02 -0.92168553093E+01  0.79894684859E+03  0.80326662977E+03  0.00000000000E+00 0. -1.
         -3    1    3    3    0  502 -0.23497210299E+01  0.27649719211E+02  0.27327207485E+03  0.27467736539E+03  0.00000000000E+00 0.  1.
         13    1    5    5    0    0  0.30538765552E+02 -0.21581057514E+03  0.34229484996E+03  0.40579869991E+03  0.00000000000E+00 0. -1.
        -13    1    5    5    0    0  0.84218913004E+02 -0.20311702293E+03  0.49644675921E+03  0.54296292234E+03  0.00000000000E+00 0.  1.
          4    1    6    6  503    0 -0.29803167574E+02  0.47429261382E+02  0.19232732939E+03  0.20031865930E+03  0.00000000000E+00 0. -1.
         -4    1    6    6    0  503 -0.16528647601E+03  0.35306547279E+03  0.69664164527E+03  0.79830096402E+03  0.00000000000E+00 0.  1.
<mgrwt>
<rscale>  0 0.11458567E+04</rscale>
<asrwt>0</asrwt>
<pdfrwt beam="1">  1        2 0.44809646E+00 0.11458567E+04</pdfrwt>
<pdfrwt beam="2">  1       -1 0.17338135E-01 0.11458567E+04</pdfrwt>
<totfact> 0.58599477E+01</totfact>
</mgrwt>
</event>
<event>
12    7  0.1625631E-007  0.1574321E+04  0.7818608E-02  0.8836481E-01
         -1   -1    0    0    0  501 -0.00000000000E+00  0.00000000000E+00  0.43390256656E+03  0.43390256656E+03  0.00000000000E+00 0.  1.
          2   -1    0    0  501    0  0.00000000000E+00 -0.00000000000E+00 -0.14280202757E+04  0.14280202757E+04  0.00000000000E+00 0. -1.
         24    2    1    2    0    0  0.17779519955E+03  0.18690115650E+03  0.20258543272E+03  0.33803616650E+03  0.81758284145E+02 0.  0.
        254    2    1    2    0    0 -0.17779519955E+03 -0.18690115650E+03 -0.11967031418E+04  0.15238866757E+04  0.90751805246E+03 0.  0.
         23    2    4    4    0    0 -0.21312872714E+03 -0.39280256676E+03 -0.19356636244E+03  0.49530448795E+03  0.90226871422E+02 0.  0.
         23    2    4    4    0    0  0.35333527590E+02  0.20590141026E+03 -0.10031367794E+04  0.10285821878E+04  0.89744470455E+02 0.  0.
          2    1    3    3  502    0  0.67556436547E+02  0.21794171194E+02  0.67136486383E+02  0.97704482092E+02  0.00000000000E+00 0. -1.
         -1    1    3    3    0  502  0.11023876300E+03  0.16510698531E+03  0.13544894633E+03  0.24033168440E+03  0.00000000000E+00 0.  1.
         13    1    5    5    0    0 -0.21264755871E+02 -0.87237509554E+01 -0.25278040115E+02  0.34165376992E+02  0.00000000000E+00 0. -1.
        -13    1    5    5    0    0 -0.19186397127E+03 -0.38407881581E+03 -0.16828832233E+03  0.46113911096E+03  0.00000000000E+00 0.  1.
          2    1    6    6  503    0  0.19232533662E+02  0.36434619279E+01 -0.16869717237E+03  0.16982903501E+03  0.00000000000E+00 0. -1.
         -2    1    6    6    0  503  0.16100993928E+02  0.20225794833E+03 -0.83443960699E+03  0.85875315276E+03  0.00000000000E+00 0.  1.
<mgrwt>
<rscale>  0 0.15743210E+04</rscale>
<asrwt>0</asrwt>
<pdfrwt beam="1">  1        2 0.21969542E+00 0.15743210E+04</pdfrwt>
<pdfrwt beam="2">  1       -1 0.66754242E-01 0.15743210E+04</pdfrwt>
<totfact> 0.34720716E+01</totfact>
</mgrwt>
</event>
<event>
12    7  0.1625631E-007  0.2359362E+04  0.7818608E-02  0.8454877E-01
         -1   -1    0    0    0  501 -0.00000000000E+00  0.00000000000E+00  0.13071392052E+04  0.13071392052E+04  0.00000000000E+00 0.  1.
          2   -1    0    0  501    0  0.00000000000E+00 -0.00000000000E+00 -0.10646507617E+04  0.10646507617E+04  0.00000000000E+00 0. -1.
         24    2    1    2    0    0 -0.73995152216E+02 -0.35216801738E+03  0.10453321966E+04  0.11084498702E+04  0.80275266657E+02 0.  0.
        254    2    1    2    0    0  0.73995152216E+02  0.35216801738E+03 -0.80284375308E+03  0.12633400968E+04  0.90662699789E+03 0.  0.
         23    2    4    4    0    0  0.41162973081E+03 -0.60845155740E+02 -0.27484585948E+03  0.50732527403E+03  0.93260489677E+02 0.  0.
         23    2    4    4    0    0 -0.33763457860E+03  0.41301317312E+03 -0.52799789360E+03  0.75601482276E+03  0.90551900895E+02 0.  0.
          4    1    3    3  502    0 -0.10558715994E+02 -0.77971588852E+02  0.34121667360E+03  0.35017120598E+03  0.00000000000E+00 0. -1.
         -3    1    3    3    0  502 -0.63436436223E+02 -0.27419642853E+03  0.70411552298E+03  0.75827866418E+03  0.00000000000E+00 0.  1.
         13    1    5    5    0    0  0.25150094758E+03 -0.64714923603E+02 -0.12591435851E+03  0.28860903252E+03  0.00000000000E+00 0.  1.
        -13    1    5    5    0    0  0.16012878323E+03  0.38697678632E+01 -0.14893150097E+03  0.21871624152E+03  0.00000000000E+00 0. -1.
          3    1    6    6  503    0 -0.16605486956E+03  0.13398430334E+03 -0.19936093922E+03  0.29201163904E+03  0.00000000000E+00 0. -1.
         -3    1    6    6    0  503 -0.17157970904E+03  0.27902886978E+03 -0.32863695437E+03  0.46400318372E+03  0.00000000000E+00 0.  1.
<mgrwt>
<rscale>  0 0.23593616E+04</rscale>
<asrwt>0</asrwt>
<pdfrwt beam="1">  1        2 0.16379243E+00 0.23593616E+04</pdfrwt>
<pdfrwt beam="2">  1       -1 0.20109834E+00 0.23593616E+04</pdfrwt>
<totfact> 0.34866132E+00</totfact>
</mgrwt>
</event>
<event>
12    7  0.1625631E-007  0.1257469E+04  0.7818608E-02  0.9063990E-01
          2   -1    0    0  501    0  0.00000000000E+00  0.00000000000E+00  0.93561971790E+03  0.93561971790E+03  0.00000000000E+00 0. -1.
         -1   -1    0    0    0  501 -0.00000000000E+00 -0.00000000000E+00 -0.42250825746E+03  0.42250825746E+03  0.00000000000E+00 0.  1.
         24    2    1    2    0    0 -0.63117585542E+02  0.14262522368E+03  0.42195034386E+03  0.45705545422E+03  0.80819623322E+02 0.  0.
        254    2    1    2    0    0  0.63117585542E+02 -0.14262522368E+03  0.91161116581E+02  0.90107252113E+03  0.88277718317E+03 0.  0.
         23    2    4    4    0    0  0.34109322089E+03 -0.33040414931E+03  0.21847467551E+03  0.53053964176E+03  0.90717365639E+02 0.  0.
         23    2    4    4    0    0 -0.27797563534E+03  0.18777892562E+03 -0.12731355893E+03  0.37053287937E+03  0.92490505744E+02 0.  0.
          2    1    3    3  502    0 -0.65772935253E+02  0.15103917055E+03  0.41222743843E+03  0.44392608737E+03  0.00000000000E+00 0. -1.
         -1    1    3    3    0  502  0.26553497107E+01 -0.84139468643E+01  0.97229054253E+01  0.13129366848E+02  0.00000000000E+00 0.  1.
         13    1    5    5    0    0  0.12461412294E+03 -0.70181024601E+02  0.43454410951E+02  0.14947354843E+03  0.00000000000E+00 0. -1.
        -13    1    5    5    0    0  0.21647909795E+03 -0.26022312471E+03  0.17502026456E+03  0.38106609333E+03  0.00000000000E+00 0.  1.
          3    1    6    6  503    0 -0.21807163148E+03  0.98452748897E+02 -0.73711623793E+02  0.25036290401E+03  0.00000000000E+00 0. -1.
         -3    1    6    6    0  503 -0.59904003864E+02  0.89326176726E+02 -0.53601935137E+02  0.12016997536E+03  0.00000000000E+00 0.  1.
<mgrwt>
<rscale>  0 0.12574690E+04</rscale>
<asrwt>0</asrwt>
<pdfrwt beam="1">  1        2 0.14394149E+00 0.12574690E+04</pdfrwt>
<pdfrwt beam="2">  1       -1 0.65001271E-01 0.12574690E+04</pdfrwt>
<totfact> 0.74703654E+01</totfact>
</mgrwt>
</event>
<event>
12    7  0.1625631E-007  0.2390560E+04  0.7818608E-02  0.8443046E-01
          2   -1    0    0  501    0  0.00000000000E+00  0.00000000000E+00  0.19378934667E+04  0.19378934667E+04  0.00000000000E+00 0. -1.
         -1   -1    0    0    0  501 -0.00000000000E+00 -0.00000000000E+00 -0.73724097116E+03  0.73724097116E+03  0.00000000000E+00 0.  1.
         24    2    1    2    0    0  0.89061208021E+03  0.47065088123E+03  0.31330060629E+03  0.10581498334E+04  0.82593405173E+02 0.  0.
        254    2    1    2    0    0 -0.89061208021E+03 -0.47065088123E+03  0.88735188921E+03  0.16169846044E+04  0.90141206242E+03 0.  0.
         23    2    4    4    0    0 -0.52937333034E+03 -0.15491742548E+03  0.97207964563E+03  0.11213083154E+04  0.90321477027E+02 0.  0.
         23    2    4    4    0    0 -0.36123874987E+03 -0.31573345574E+03 -0.84727756423E+02  0.49567628900E+03  0.91296994942E+02 0.  0.
          4    1    3    3  502    0  0.80747274705E+03  0.42539788675E+03  0.25764947680E+03  0.94834532327E+03  0.00000000000E+00 0. -1.
         -3    1    3    3    0  502  0.83139333159E+02  0.45252994473E+02  0.55651129491E+02  0.10980451011E+03  0.00000000000E+00 0.  1.
         13    1    5    5    0    0 -0.28782532627E+03 -0.12740944981E+03  0.58227009528E+03  0.66190259873E+03  0.00000000000E+00 0. -1.
        -13    1    5    5    0    0 -0.24154800407E+03 -0.27507975670E+02  0.38980955035E+03  0.45940571670E+03  0.00000000000E+00 0.  1.
          1    1    6    6  503    0 -0.12411382645E+02  0.57616884427E+01 -0.53768588484E+01  0.14702043530E+02  0.00000000000E+00 0. -1.
         -1    1    6    6    0  503 -0.34882736722E+03 -0.32149514418E+03 -0.79350897574E+02  0.48097424547E+03  0.00000000000E+00 0.  1.
<mgrwt>
<rscale>  0 0.23905602E+04</rscale>
<asrwt>0</asrwt>
<pdfrwt beam="1">  1        2 0.29813745E+00 0.23905602E+04</pdfrwt>
<pdfrwt beam="2">  1       -1 0.11342169E+00 0.23905602E+04</pdfrwt>
<totfact> 0.52568879E+00</totfact>
</mgrwt>
</event>
<event>
12    7  0.1625631E-007  0.2204146E+04  0.7818608E-02  0.8516704E-01
          2   -1    0    0  501    0  0.00000000000E+00  0.00000000000E+00  0.19441625802E+04  0.19441625802E+04  0.00000000000E+00 0. -1.
         -1   -1    0    0    0  501 -0.00000000000E+00 -0.00000000000E+00 -0.62472410432E+03  0.62472410432E+03  0.00000000000E+00 0.  1.
         24    2    1    2    0    0 -0.89300344586E+02 -0.31650169856E+03  0.15389848486E+04  0.15757205605E+04  0.79202548850E+02 0.  0.
        254    2    1    2    0    0  0.89300344586E+02  0.31650169856E+03 -0.21954637274E+03  0.99316612402E+03  0.91106007672E+03 0.  0.
         23    2    4    4    0    0  0.39926881217E+03  0.13867007750E+03  0.16308803908E+03  0.46150181982E+03  0.87984353371E+02 0.  0.
         23    2    4    4    0    0 -0.30996846758E+03  0.17783162106E+03 -0.38263441182E+03  0.53166430421E+03  0.92484068423E+02 0.  0.
          4    1    3    3  502    0 -0.88306890462E+02 -0.26208063458E+03  0.11413785356E+04  0.11744059466E+04  0.00000000000E+00 0. -1.
         -3    1    3    3    0  502 -0.99345412414E+00 -0.54421063982E+02  0.39760631302E+03  0.40131461387E+03  0.00000000000E+00 0.  1.
         13    1    5    5    0    0  0.61626759822E+02  0.56540455246E+02  0.22125895148E+02  0.86511478092E+02  0.00000000000E+00 0.  1.
        -13    1    5    5    0    0  0.33764205235E+03  0.82129622256E+02  0.14096214393E+03  0.37499034172E+03  0.00000000000E+00 0. -1.
          1    1    6    6  503    0 -0.17083081572E+03  0.60958381499E+02 -0.14325771246E+03  0.23113170283E+03  0.00000000000E+00 0. -1.
         -1    1    6    6    0  503 -0.13913765186E+03  0.11687323956E+03 -0.23937669937E+03  0.30053260138E+03  0.00000000000E+00 0.  1.
<mgrwt>
<rscale>  0 0.22041463E+04</rscale>
<asrwt>0</asrwt>
<pdfrwt beam="1">  1        2 0.29910193E+00 0.22041463E+04</pdfrwt>
<pdfrwt beam="2">  1       -1 0.96111402E-01 0.22041463E+04</pdfrwt>
<totfact> 0.77851924E+00</totfact>
</mgrwt>
</event>
<event>
12    7  0.1625631E-007  0.1154539E+04  0.7818608E-02  0.9153606E-01
         -1   -1    0    0    0  501 -0.00000000000E+00  0.00000000000E+00  0.17616350847E+03  0.17616350847E+03  0.00000000000E+00 0.  1.
          2   -1    0    0  501    0  0.00000000000E+00 -0.00000000000E+00 -0.18916516356E+04  0.18916516356E+04  0.00000000000E+00 0. -1.
         24    2    1    2    0    0 -0.13939361163E+03  0.14629017477E+03 -0.35067063009E+03  0.41255902461E+03  0.80022895359E+02 0.  0.
        254    2    1    2    0    0  0.13939361163E+03 -0.14629017477E+03 -0.13648174970E+04  0.16552561194E+04  0.91450239287E+03 0.  0.
         23    2    4    4    0    0  0.30988017668E+03 -0.34225957727E+03 -0.30598209106E+03  0.56120445366E+03  0.90321960965E+02 0.  0.
         23    2    4    4    0    0 -0.17048656505E+03  0.19596940250E+03 -0.10588354059E+04  0.10940516658E+04  0.91361670892E+02 0.  0.
          2    1    3    3  502    0 -0.13045689699E+03  0.14124332001E+03 -0.27128099991E+03  0.33250873421E+03  0.00000000000E+00 0. -1.
         -1    1    3    3    0  502 -0.89367146382E+01  0.50468547628E+01 -0.79389630184E+02  0.80050290394E+02  0.00000000000E+00 0.  1.
         13    1    5    5    0    0  0.28100132141E+03 -0.33748619437E+03 -0.27294776240E+03  0.51706784373E+03  0.00000000000E+00 0. -1.
        -13    1    5    5    0    0  0.28878855270E+02 -0.47733828979E+01 -0.33034328668E+02  0.44136609935E+02  0.00000000000E+00 0.  1.
          3    1    6    6  503    0 -0.12902314987E+03  0.17688776038E+03 -0.96728240352E+03  0.99175173362E+03  0.00000000000E+00 0. -1.
         -3    1    6    6    0  503 -0.41463415185E+02  0.19081642111E+02 -0.91553002408E+02  0.10229993213E+03  0.00000000000E+00 0.  1.
<mgrwt>
<rscale>  0 0.11545388E+04</rscale>
<asrwt>0</asrwt>
<pdfrwt beam="1">  1        2 0.29102334E+00 0.11545388E+04</pdfrwt>
<pdfrwt beam="2">  1       -1 0.27102078E-01 0.11545388E+04</pdfrwt>
<totfact> 0.10552126E+02</totfact>
</mgrwt>
</event>
<event>
12    7  0.1625631E-007  0.2165608E+04  0.7818608E-02  0.8532881E-01
         -1   -1    0    0    0  501 -0.00000000000E+00  0.00000000000E+00  0.60922972258E+03  0.60922972258E+03  0.00000000000E+00 0.  1.
          2   -1    0    0  501    0  0.00000000000E+00 -0.00000000000E+00 -0.19245031311E+04  0.19245031311E+04  0.00000000000E+00 0. -1.
         24    2    1    2    0    0  0.27612359683E+03  0.85523228466E+03 -0.42701770617E+03  0.99807147420E+03  0.78332909925E+02 0.  0.
        254    2    1    2    0    0 -0.27612359683E+03 -0.85523228466E+03 -0.88825570234E+03  0.15356613795E+04  0.87269191483E+03 0.  0.
         23    2    4    4    0    0  0.15751921624E+03  0.85348936054E+02 -0.22673025576E+03  0.30344644355E+03  0.92608805510E+02 0.  0.
         23    2    4    4    0    0 -0.43364281307E+03 -0.94058122072E+03 -0.66152544658E+03  0.12322149359E+04  0.89434946970E+02 0.  0.
          4    1    3    3  502    0  0.38772365343E+02  0.54322301455E+02 -0.33753246823E+02  0.74789641133E+02  0.00000000000E+00 0. -1.
         -3    1    3    3    0  502  0.23735123149E+03  0.80090998321E+03 -0.39326445935E+03  0.92328183307E+03  0.00000000000E+00 0.  1.
         13    1    5    5    0    0  0.14114239916E+03  0.85346270544E+02 -0.23337077328E+03  0.28577452749E+03  0.00000000000E+00 0. -1.
        -13    1    5    5    0    0  0.16376817072E+02  0.26655104225E-02  0.66405175213E+01  0.17671916066E+02  0.00000000000E+00 0.  1.
          2    1    6    6  503    0 -0.43311058463E+03 -0.93330294338E+03 -0.66394653316E+03  0.12245260967E+04  0.00000000000E+00 0. -1.
         -2    1    6    6    0  503 -0.53222844082E+00 -0.72782773365E+01  0.24210865800E+01  0.76888392055E+01  0.00000000000E+00 0.  1.
<mgrwt>
<rscale>  0 0.21656080E+04</rscale>
<asrwt>0</asrwt>
<pdfrwt beam="1">  1        2 0.29607740E+00 0.21656080E+04</pdfrwt>
<pdfrwt beam="2">  1       -1 0.93727650E-01 0.21656080E+04</pdfrwt>
<totfact> 0.84746946E+00</totfact>
</mgrwt>
</event>
<event>
12    7  0.1625631E-007  0.2699202E+04  0.7818608E-02  0.8335264E-01
          2   -1    0    0  501    0  0.00000000000E+00  0.00000000000E+00  0.25252715544E+04  0.25252715544E+04  0.00000000000E+00 0. -1.
         -1   -1    0    0    0  501 -0.00000000000E+00 -0.00000000000E+00 -0.72127824765E+03  0.72127824765E+03  0.00000000000E+00 0.  1.
         24    2    1    2    0    0  0.46371129772E+03 -0.11017367478E+04  0.90157914945E+03  0.14993338758E+04  0.79404530548E+02 0.  0.
        254    2    1    2    0    0 -0.46371129772E+03  0.11017367478E+04  0.90241415734E+03  0.17472159262E+04  0.89975560706E+03 0.  0.
         23    2    4    4    0    0 -0.26114602955E+03  0.10505804194E+04  0.10203672102E+04  0.14903956311E+04  0.90627960966E+02 0.  0.
         23    2    4    4    0    0 -0.20256526818E+03  0.51156328422E+02 -0.11795305287E+03  0.25682029510E+03  0.91619230987E+02 0.  0.
          4    1    3    3  502    0  0.16621328839E+03 -0.35920113091E+03  0.34245418980E+03  0.52338053249E+03  0.00000000000E+00 0. -1.
         -3    1    3    3    0  502  0.29749800934E+03 -0.74253561688E+03  0.55912495965E+03  0.97595334335E+03  0.00000000000E+00 0.  1.
         13    1    5    5    0    0 -0.13074337118E+03  0.47665612318E+03  0.52578894299E+03  0.72162933799E+03  0.00000000000E+00 0.  1.
        -13    1    5    5    0    0 -0.13040265837E+03  0.57392429619E+03  0.49457826721E+03  0.76876629314E+03  0.00000000000E+00 0. -1.
          4    1    6    6  503    0 -0.22332458333E+01 -0.84371209266E+01  0.87892688614E+01  0.12386429816E+02  0.00000000000E+00 0. -1.
         -4    1    6    6    0  503 -0.20033202234E+03  0.59593449348E+02 -0.12674232173E+03  0.24443386529E+03  0.00000000000E+00 0.  1.
<mgrwt>
<rscale>  0 0.26992024E+04</rscale>
<asrwt>0</asrwt>
<pdfrwt beam="1">  1        2 0.38850331E+00 0.26992024E+04</pdfrwt>
<pdfrwt beam="2">  1       -1 0.11096589E+00 0.26992024E+04</pdfrwt>
<totfact> 0.25088460E+00</totfact>
</mgrwt>
</event>
<event>
12    7  0.1625631E-007  0.1325775E+04  0.7818608E-02  0.9009372E-01
          2   -1    0    0  501    0  0.00000000000E+00  0.00000000000E+00  0.25947336746E+04  0.25947336746E+04  0.00000000000E+00 0. -1.
         -1   -1    0    0    0  501 -0.00000000000E+00 -0.00000000000E+00 -0.16935062708E+03  0.16935062708E+03  0.00000000000E+00 0.  1.
         24    2    1    2    0    0  0.28932478494E+03  0.82078900085E+02  0.10965857890E+04  0.11398236319E+04  0.79067958689E+02 0.  0.
        254    2    1    2    0    0 -0.28932478494E+03 -0.82078900085E+02  0.13287972585E+04  0.16242606698E+04  0.88434992636E+03 0.  0.
         23    2    4    4    0    0 -0.14935538135E+03  0.50738814069E+02  0.13905581894E+04  0.14023858456E+04  0.90291331548E+02 0.  0.
         23    2    4    4    0    0 -0.13996940360E+03 -0.13281771415E+03 -0.61760930944E+02  0.22187482419E+03  0.90454662025E+02 0.  0.
          2    1    3    3  502    0  0.20444076485E+03  0.19229068695E+02  0.72440672979E+03  0.75294813472E+03  0.00000000000E+00 0. -1.
         -1    1    3    3    0  502  0.84884020095E+02  0.62849831390E+02  0.37217905924E+03  0.38687549717E+03  0.00000000000E+00 0.  1.
         13    1    5    5    0    0 -0.42904955471E+02  0.34920698165E+02  0.81345611756E+03  0.81533498978E+03  0.00000000000E+00 0. -1.
        -13    1    5    5    0    0 -0.10645042588E+03  0.15818115905E+02  0.57710207188E+03  0.58705085583E+03  0.00000000000E+00 0.  1.
          1    1    6    6  503    0 -0.13297947462E+03 -0.13753238478E+03 -0.35864714016E+02  0.19464063103E+03  0.00000000000E+00 0. -1.
         -1    1    6    6    0  503 -0.69899289719E+01  0.47146706257E+01 -0.25896216928E+02  0.27234193164E+02  0.00000000000E+00 0.  1.
<mgrwt>
<rscale>  0 0.13257749E+04</rscale>
<asrwt>0</asrwt>
<pdfrwt beam="1">  1        2 0.39918977E+00 0.13257749E+04</pdfrwt>
<pdfrwt beam="2">  1       -1 0.26053945E-01 0.13257749E+04</pdfrwt>
<totfact> 0.44801708E+01</totfact>
</mgrwt>
</event>
<event>
12    7  0.1625631E-007  0.2205627E+04  0.7818608E-02  0.8516090E-01
         -1   -1    0    0    0  501 -0.00000000000E+00  0.00000000000E+00  0.34682181444E+03  0.34682181444E+03  0.00000000000E+00 0.  1.
          2   -1    0    0  501    0  0.00000000000E+00 -0.00000000000E+00 -0.35066914195E+04  0.35066914195E+04  0.00000000000E+00 0. -1.
         24    2    1    2    0    0  0.50411533851E+03 -0.29390373028E+03 -0.89593470083E+02  0.59588449919E+03  0.80868221848E+02 0.  0.
        254    2    1    2    0    0 -0.50411533851E+03  0.29390373028E+03 -0.30702761349E+04  0.32576287347E+04  0.91925934930E+03 0.  0.
         23    2    4    4    0    0 -0.11545366065E+03 -0.23169688362E+03 -0.18500573098E+04  0.18702376352E+04  0.89798490308E+02 0.  0.
         23    2    4    4    0    0 -0.38866167786E+03  0.52560061390E+03 -0.12202188251E+04  0.13873910995E+04  0.92769481364E+02 0.  0.
          4    1    3    3  502    0  0.68224125438E+02 -0.10218511594E+02 -0.12996613667E+02  0.70198726753E+02  0.00000000000E+00 0. -1.
         -3    1    3    3    0  502  0.43589121307E+03 -0.28368521868E+03 -0.76596856416E+02  0.52568577244E+03  0.00000000000E+00 0.  1.
         13    1    5    5    0    0 -0.10228537681E+03 -0.13255095708E+03 -0.95006228344E+03  0.96470223227E+03  0.00000000000E+00 0.  1.
        -13    1    5    5    0    0 -0.13168283836E+02 -0.99145926538E+02 -0.89999502638E+03  0.90553540293E+03  0.00000000000E+00 0. -1.
          4    1    6    6  503    0 -0.11928321121E+03  0.22340545640E+03 -0.41596544804E+03  0.48699664926E+03  0.00000000000E+00 0.  1.
         -4    1    6    6    0  503 -0.26937846665E+03  0.30219515749E+03 -0.80425337708E+03  0.90039445025E+03  0.00000000000E+00 0. -1.
<mgrwt>
<rscale>  0 0.22056265E+04</rscale>
<asrwt>0</asrwt>
<pdfrwt beam="1">  1        2 0.53949101E+00 0.22056265E+04</pdfrwt>
<pdfrwt beam="2">  1       -1 0.53357200E-01 0.22056265E+04</pdfrwt>
<totfact> 0.29727361E+00</totfact>
</mgrwt>
</event>
<event>
12    7  0.1625631E-007  0.2168304E+04  0.7818608E-02  0.8531738E-01
         -1   -1    0    0    0  501 -0.00000000000E+00  0.00000000000E+00  0.11254272623E+04  0.11254272623E+04  0.00000000000E+00 0.  1.
          2   -1    0    0  501    0  0.00000000000E+00 -0.00000000000E+00 -0.10443901199E+04  0.10443901199E+04  0.00000000000E+00 0. -1.
         24    2    1    2    0    0 -0.12638194462E+03 -0.83764962177E+03  0.33256686437E+03  0.91364494889E+03  0.80728486777E+02 0.  0.
        254    2    1    2    0    0  0.12638194462E+03  0.83764962177E+03 -0.25152972194E+03  0.12561724332E+04  0.89278927874E+03 0.  0.
         23    2    4    4    0    0 -0.37117486231E+03  0.46489372094E+03 -0.13901577839E+03  0.61776597087E+03  0.91719452385E+02 0.  0.
         23    2    4    4    0    0  0.49755680693E+03  0.37275590084E+03 -0.11251394355E+03  0.63840646237E+03  0.91617061590E+02 0.  0.
          2    1    3    3  502    0 -0.20317570405E-01 -0.96818829163E+02  0.15866200264E+02  0.98110256366E+02  0.00000000000E+00 0. -1.
         -1    1    3    3    0  502 -0.12636162705E+03 -0.74083079261E+03  0.31670066410E+03  0.81553469252E+03  0.00000000000E+00 0.  1.
         13    1    5    5    0    0 -0.17125589116E+03  0.14384992813E+03 -0.56046216937E+02  0.23057007723E+03  0.00000000000E+00 0. -1.
        -13    1    5    5    0    0 -0.19991897115E+03  0.32104379280E+03 -0.82969561457E+02  0.38719589364E+03  0.00000000000E+00 0.  1.
          1    1    6    6  503    0  0.20058302892E+03  0.17094172236E+03 -0.49709466763E+01  0.26358932878E+03  0.00000000000E+00 0. -1.
         -1    1    6    6    0  503  0.29697377802E+03  0.20181417847E+03 -0.10754299687E+03  0.37481713360E+03  0.00000000000E+00 0.  1.
<mgrwt>
<rscale>  0 0.21683036E+04</rscale>
<asrwt>0</asrwt>
<pdfrwt beam="1">  1        2 0.16067540E+00 0.21683036E+04</pdfrwt>
<pdfrwt beam="2">  1       -1 0.17314266E+00 0.21683036E+04</pdfrwt>
<totfact> 0.57555295E+00</totfact>
</mgrwt>
</event>
<event>
12    7  0.1625631E-007  0.3334114E+04  0.7818608E-02  0.8154269E-01
          2   -1    0    0  501    0  0.00000000000E+00  0.00000000000E+00  0.34286792922E+04  0.34286792922E+04  0.00000000000E+00 0. -1.
         -1   -1    0    0    0  501 -0.00000000000E+00 -0.00000000000E+00 -0.81053922765E+03  0.81053922765E+03  0.00000000000E+00 0.  1.
         24    2    1    2    0    0 -0.26366510611E+03  0.12933164636E+04  0.22204046056E+04  0.25843079943E+04  0.79148174596E+02 0.  0.
        254    2    1    2    0    0  0.26366510611E+03 -0.12933164636E+04  0.39773545894E+03  0.16549105256E+04  0.91561377731E+03 0.  0.
         23    2    4    4    0    0  0.27504348276E+03 -0.45144985677E+03 -0.24626626273E+03  0.59003593235E+03  0.89662917197E+02 0.  0.
         23    2    4    4    0    0 -0.11378376649E+02 -0.84186660682E+03  0.64400172167E+03  0.10648745932E+04  0.10173903211E+03 0.  0.
          4    1    3    3  502    0 -0.18754356560E+03  0.10671000588E+04  0.18042005111E+04  0.21045224182E+04  0.00000000000E+00 0. -1.
         -3    1    3    3    0  502 -0.76121540504E+02  0.22621640481E+03  0.41620409453E+03  0.47978557611E+03  0.00000000000E+00 0.  1.
         13    1    5    5    0    0  0.90748761961E+02 -0.23124014023E+03 -0.10006293124E+03  0.26780577003E+03  0.00000000000E+00 0.  1.
        -13    1    5    5    0    0  0.18429472080E+03 -0.22020971654E+03 -0.14620333150E+03  0.32223016233E+03  0.00000000000E+00 0. -1.
          3    1    6    6  503    0 -0.29841755254E+02 -0.71805655282E+02  0.56652560328E+02  0.96208601897E+02  0.00000000000E+00 0. -1.
         -3    1    6    6    0  503  0.18463378606E+02 -0.77006095153E+03  0.58734916135E+03  0.96866599133E+03  0.00000000000E+00 0.  1.
<mgrwt>
<rscale>  0 0.33341140E+04</rscale>
<asrwt>0</asrwt>
<pdfrwt beam="1">  1        2 0.52748911E+00 0.33341140E+04</pdfrwt>
<pdfrwt beam="2">  1       -1 0.12469834E+00 0.33341140E+04</pdfrwt>
<totfact> 0.48447988E-01</totfact>
</mgrwt>
</event>
<event>
12    7  0.1625631E-007  0.1488927E+04  0.7818608E-02  0.8891850E-01
         -1   -1    0    0    0  501 -0.00000000000E+00  0.00000000000E+00  0.54365837578E+03  0.54365837578E+03  0.00000000000E+00 0.  1.
          2   -1    0    0  501    0  0.00000000000E+00 -0.00000000000E+00 -0.10194380100E+04  0.10194380100E+04  0.00000000000E+00 0. -1.
         24    2    1    2    0    0 -0.43068896703E+03 -0.14034873116E+03 -0.29052319809E+02  0.46054638863E+03  0.77898563127E+02 0.  0.
        254    2    1    2    0    0  0.43068896703E+03  0.14034873116E+03 -0.44672731447E+03  0.11025499972E+04  0.90047790099E+03 0.  0.
         23    2    4    4    0    0 -0.46196422449E+02  0.40142323736E+03 -0.37346753546E+02  0.41584553214E+03  0.90873547623E+02 0.  0.
         23    2    4    4    0    0  0.47688538948E+03 -0.26107450620E+03 -0.40938056092E+03  0.68670446506E+03  0.91602435493E+02 0.  0.
          2    1    3    3  502    0 -0.14149548634E+03 -0.70889403891E+02 -0.38880031299E+02  0.16296606111E+03  0.00000000000E+00 0. -1.
         -1    1    3    3    0  502 -0.28919348068E+03 -0.69459327266E+02  0.98277114903E+01  0.29758032752E+03  0.00000000000E+00 0.  1.
         13    1    5    5    0    0 -0.56150826321E+01  0.16756752023E+03 -0.58451558139E+02  0.17755840627E+03  0.00000000000E+00 0. -1.
        -13    1    5    5    0    0 -0.40581339817E+02  0.23385571713E+03  0.21104804592E+02  0.23828712587E+03  0.00000000000E+00 0.  1.
          4    1    6    6  503    0  0.38177498042E+03 -0.23809558437E+03 -0.30461619145E+03  0.54335316974E+03  0.00000000000E+00 0. -1.
         -4    1    6    6    0  503  0.95110409061E+02 -0.22978921829E+02 -0.10476436947E+03  0.14335129532E+03  0.00000000000E+00 0.  1.
<mgrwt>
<rscale>  0 0.14889271E+04</rscale>
<asrwt>0</asrwt>
<pdfrwt beam="1">  1        2 0.15683661E+00 0.14889271E+04</pdfrwt>
<pdfrwt beam="2">  1       -1 0.83639751E-01 0.14889271E+04</pdfrwt>
<totfact> 0.38291888E+01</totfact>
</mgrwt>
</event>
<event>
12    7  0.1625631E-007  0.1390598E+04  0.7818608E-02  0.8960652E-01
         -1   -1    0    0    0  501 -0.00000000000E+00  0.00000000000E+00  0.31208771533E+03  0.31208771533E+03  0.00000000000E+00 0.  1.
          2   -1    0    0  501    0  0.00000000000E+00 -0.00000000000E+00 -0.15490548808E+04  0.15490548808E+04  0.00000000000E+00 0. -1.
         24    2    1    2    0    0  0.27158773611E+03  0.28128722639E+03 -0.33092877199E+03  0.51844284674E+03  0.79917026159E+02 0.  0.
        254    2    1    2    0    0 -0.27158773611E+03 -0.28128722639E+03 -0.90603839343E+03  0.13426997494E+04  0.91052437880E+03 0.  0.
         23    2    4    4    0    0 -0.44717195019E+03 -0.32067850254E+03 -0.17411250688E+03  0.58422669257E+03  0.90599162391E+02 0.  0.
         23    2    4    4    0    0  0.17558421408E+03  0.39391276152E+02 -0.73192588655E+03  0.75847305678E+03  0.84760754998E+02 0.  0.
          2    1    3    3  502    0  0.25846999452E+03  0.26961334797E+03 -0.33347005686E+03  0.50069988446E+03  0.00000000000E+00 0. -1.
         -1    1    3    3    0  502  0.13117741595E+02  0.11673878412E+02  0.25412848733E+01  0.17742962282E+02  0.00000000000E+00 0.  1.
         13    1    5    5    0    0 -0.19486748881E+03 -0.11819258276E+03 -0.11530005615E+03  0.25541520660E+03  0.00000000000E+00 0.  1.
        -13    1    5    5    0    0 -0.25230446139E+03 -0.20248591977E+03 -0.58812450728E+02  0.32881148597E+03  0.00000000000E+00 0. -1.
          1    1    6    6  503    0  0.51870797480E+02  0.17153137828E+02 -0.39692086700E+03  0.40066318077E+03  0.00000000000E+00 0. -1.
         -1    1    6    6    0  503  0.12371341660E+03  0.22238138324E+02 -0.33500501956E+03  0.35780987601E+03  0.00000000000E+00 0.  1.
<mgrwt>
<rscale>  0 0.13905984E+04</rscale>
<asrwt>0</asrwt>
<pdfrwt beam="1">  1        2 0.23831613E+00 0.13905984E+04</pdfrwt>
<pdfrwt beam="2">  1       -1 0.48013495E-01 0.13905984E+04</pdfrwt>
<totfact> 0.57294342E+01</totfact>
</mgrwt>
</event>
<event>
12    7  0.1625631E-007  0.1596000E+04  0.7818608E-02  0.8823009E-01
          2   -1    0    0  501    0  0.00000000000E+00  0.00000000000E+00  0.13281158618E+04  0.13281158618E+04  0.00000000000E+00 0. -1.
         -1   -1    0    0    0  501 -0.00000000000E+00 -0.00000000000E+00 -0.47947928359E+03  0.47947928359E+03  0.00000000000E+00 0.  1.
         24    2    1    2    0    0  0.34778385254E+03 -0.66496522825E+02 -0.17438514995E+03  0.40301676368E+03  0.81467390116E+02 0.  0.
        254    2    1    2    0    0 -0.34778385254E+03  0.66496522825E+02  0.10230217281E+04  0.14045783817E+04  0.89492545969E+03 0.  0.
         23    2    4    4    0    0 -0.26164100751E+03  0.45360606983E+03  0.42988029983E+03  0.68373270387E+03  0.92080696967E+02 0.  0.
         23    2    4    4    0    0 -0.86142845027E+02 -0.38710954700E+03  0.59314142830E+03  0.72084567781E+03  0.10260285631E+03 0.  0.
          2    1    3    3  502    0  0.27082458694E+02 -0.10221572534E+02 -0.43155585399E+02  0.51964840663E+02  0.00000000000E+00 0. -1.
         -1    1    3    3    0  502  0.32070139385E+03 -0.56274950291E+02 -0.13122956455E+03  0.35105192302E+03  0.00000000000E+00 0.  1.
         13    1    5    5    0    0 -0.25675454627E+03  0.45050287286E+03  0.43435438809E+03  0.67641663931E+03  0.00000000000E+00 0. -1.
        -13    1    5    5    0    0 -0.48864612439E+01  0.31031969714E+01 -0.44740882531E+01  0.73160645588E+01  0.00000000000E+00 0.  1.
          4    1    6    6  503    0 -0.10128376313E+03 -0.28450825889E+03  0.39519898157E+03  0.49737871394E+03  0.00000000000E+00 0. -1.
         -4    1    6    6    0  503  0.15140918099E+02 -0.10260128812E+03  0.19794244673E+03  0.22346696387E+03  0.00000000000E+00 0.  1.
<mgrwt>
<rscale>  0 0.15960001E+04</rscale>
<asrwt>0</asrwt>
<pdfrwt beam="1">  1        2 0.20432552E+00 0.15960001E+04</pdfrwt>
<pdfrwt beam="2">  1       -1 0.73766044E-01 0.15960001E+04</pdfrwt>
<totfact> 0.32222150E+01</totfact>
</mgrwt>
</event>
<event>
12    7  0.1625631E-007  0.2151484E+04  0.7818608E-02  0.8538897E-01
          2   -1    0    0  501    0  0.00000000000E+00  0.00000000000E+00  0.25910256349E+04  0.25910256349E+04  0.00000000000E+00 0. -1.
         -1   -1    0    0    0  501 -0.00000000000E+00 -0.00000000000E+00 -0.44662666560E+03  0.44662666560E+03  0.00000000000E+00 0.  1.
         24    2    1    2    0    0 -0.83413110951E+03  0.28754883403E+03  0.95520981107E+03  0.13028098695E+04  0.80179380221E+02 0.  0.
        254    2    1    2    0    0  0.83413110951E+03 -0.28754883403E+03  0.11891891582E+04  0.17348424310E+04  0.90390727769E+03 0.  0.
         23    2    4    4    0    0  0.15198500959E+03 -0.17243284881E+03  0.97472365898E+03  0.10057749455E+04  0.93083291694E+02 0.  0.
         23    2    4    4    0    0  0.68214609991E+03 -0.11511598522E+03  0.21446549922E+03  0.72906748548E+03  0.83480275241E+02 0.  0.
          4    1    3    3  502    0 -0.73773365022E+03  0.22982809559E+03  0.81391970842E+03  0.11222910424E+04  0.00000000000E+00 0. -1.
         -3    1    3    3    0  502 -0.96397459281E+02  0.57720738440E+02  0.14129010265E+03  0.18051882702E+03  0.00000000000E+00 0.  1.
         13    1    5    5    0    0  0.11325544999E+03 -0.84741140863E+02  0.42963373772E+03  0.45231958447E+03  0.00000000000E+00 0.  1.
        -13    1    5    5    0    0  0.38729559609E+02 -0.87691707947E+02  0.54508992126E+03  0.55345536106E+03  0.00000000000E+00 0. -1.
          3    1    6    6  503    0  0.53866250974E+03 -0.12114431171E+03  0.18645629849E+03  0.58275140061E+03  0.00000000000E+00 0. -1.
         -3    1    6    6    0  503  0.14348359017E+03  0.60283264899E+01  0.28009200733E+02  0.14631608488E+03  0.00000000000E+00 0.  1.
<mgrwt>
<rscale>  0 0.21514843E+04</rscale>
<asrwt>0</asrwt>
<pdfrwt beam="1">  1        2 0.39861932E+00 0.21514843E+04</pdfrwt>
<pdfrwt beam="2">  1       -1 0.68711796E-01 0.21514843E+04</pdfrwt>
<totfact> 0.68978370E+00</totfact>
</mgrwt>
</event>
<event>
12    7  0.1625631E-007  0.2083004E+04  0.7818608E-02  0.8568767E-01
         -1   -1    0    0    0  501 -0.00000000000E+00  0.00000000000E+00  0.80100549373E+03  0.80100549373E+03  0.00000000000E+00 0.  1.
          2   -1    0    0  501    0  0.00000000000E+00 -0.00000000000E+00 -0.13542063317E+04  0.13542063317E+04  0.00000000000E+00 0. -1.
         24    2    1    2    0    0 -0.61728599919E+03 -0.47172919269E+03  0.11800723113E+03  0.78995882920E+03  0.80862903712E+02 0.  0.
        254    2    1    2    0    0  0.61728599919E+03  0.47172919269E+03 -0.67120806911E+03  0.13652529962E+04  0.89990279235E+03 0.  0.
         23    2    4    4    0    0  0.31223718636E+03  0.64868641143E+03 -0.68877430054E+03  0.10004676773E+04  0.90771224962E+02 0.  0.
         23    2    4    4    0    0  0.30504881283E+03 -0.17695721873E+03  0.17566231428E+02  0.36478531896E+03  0.91603062026E+02 0.  0.
          4    1    3    3  502    0 -0.93309294031E+02 -0.11066001104E+03  0.23476145046E+02  0.14664034841E+03  0.00000000000E+00 0. -1.
         -3    1    3    3    0  502 -0.52397670516E+03 -0.36106918166E+03  0.94531086084E+02  0.64331848079E+03  0.00000000000E+00 0.  1.
         13    1    5    5    0    0  0.11363706784E+03  0.15400297440E+03 -0.15744123789E+03  0.24782663840E+03  0.00000000000E+00 0. -1.
        -13    1    5    5    0    0  0.19860011852E+03  0.49468343702E+03 -0.53133306265E+03  0.75264103888E+03  0.00000000000E+00 0.  1.
          3    1    6    6  503    0  0.65333948447E+02 -0.51425518405E+02  0.41886767200E+02  0.93100000158E+02  0.00000000000E+00 0. -1.
         -3    1    6    6    0  503  0.23971486438E+03 -0.12553170033E+03 -0.24320535771E+02  0.27168531880E+03  0.00000000000E+00 0.  1.
<mgrwt>
<rscale>  0 0.20830043E+04</rscale>
<asrwt>0</asrwt>
<pdfrwt beam="1">  1        2 0.20833943E+00 0.20830043E+04</pdfrwt>
<pdfrwt beam="2">  1       -1 0.12323162E+00 0.20830043E+04</pdfrwt>
<totfact> 0.93765956E+00</totfact>
</mgrwt>
</event>
<event>
12    7  0.1625631E-007  0.1817049E+04  0.7818608E-02  0.8697285E-01
          2   -1    0    0  501    0  0.00000000000E+00  0.00000000000E+00  0.20751155571E+04  0.20751155571E+04  0.00000000000E+00 0. -1.
         -1   -1    0    0    0  501 -0.00000000000E+00 -0.00000000000E+00 -0.39776885163E+03  0.39776885163E+03  0.00000000000E+00 0.  1.
         24    2    1    2    0    0  0.47655800166E+03 -0.88710908317E+02  0.12776021314E+04  0.13688132916E+04  0.80034159398E+02 0.  0.
        254    2    1    2    0    0 -0.47655800166E+03  0.88710908317E+02  0.39974457405E+03  0.11040711172E+04  0.90785469827E+03 0.  0.
         23    2    4    4    0    0 -0.28074405290E+03  0.48179428842E+03  0.12379614006E+03  0.57831041559E+03  0.90412902219E+02 0.  0.
         23    2    4    4    0    0 -0.19581394876E+03 -0.39308338010E+03  0.27594843399E+03  0.52576070162E+03  0.86134377009E+02 0.  0.
          4    1    3    3  502    0  0.43584810079E+03 -0.89459502513E+02  0.10994574693E+04  0.11860747432E+04  0.00000000000E+00 0. -1.
         -3    1    3    3    0  502  0.40709900872E+02  0.74859419663E+00  0.17814466210E+03  0.18273854836E+03  0.00000000000E+00 0.  1.
         13    1    5    5    0    0 -0.13060430568E+03  0.16306987334E+03  0.78090408478E+02  0.22304120729E+03  0.00000000000E+00 0. -1.
        -13    1    5    5    0    0 -0.15013974722E+03  0.31872441508E+03  0.45705731583E+02  0.35526920830E+03  0.00000000000E+00 0.  1.
          3    1    6    6  503    0 -0.78424051123E+01 -0.84319695101E+02  0.36811449512E+02  0.92338492056E+02  0.00000000000E+00 0. -1.
         -3    1    6    6    0  503 -0.18797154365E+03 -0.30876368500E+03  0.23913698448E+03  0.43342220957E+03  0.00000000000E+00 0.  1.
<mgrwt>
<rscale>  0 0.18170485E+04</rscale>
<asrwt>0</asrwt>
<pdfrwt beam="1">  1        2 0.31924854E+00 0.18170485E+04</pdfrwt>
<pdfrwt beam="2">  1       -1 0.61195209E-01 0.18170485E+04</pdfrwt>
<totfact> 0.17642165E+01</totfact>
</mgrwt>
</event>
<event>
12    7  0.1625631E-007  0.1378547E+04  0.7818608E-02  0.8969496E-01
         -1   -1    0    0    0  501 -0.00000000000E+00  0.00000000000E+00  0.25447113893E+03  0.25447113893E+03  0.00000000000E+00 0.  1.
          2   -1    0    0  501    0  0.00000000000E+00 -0.00000000000E+00 -0.18670006787E+04  0.18670006787E+04  0.00000000000E+00 0. -1.
         24    2    1    2    0    0  0.29324435041E+03  0.49416932807E+02 -0.78046167150E+02  0.31775531363E+03  0.80268006319E+02 0.  0.
        254    2    1    2    0    0 -0.29324435041E+03 -0.49416932807E+02 -0.15344833726E+04  0.18037165040E+04  0.90017760671E+03 0.  0.
         23    2    4    4    0    0 -0.44711595480E+03 -0.13946081430E+02 -0.27772576099E+03  0.53383680839E+03  0.87994144433E+02 0.  0.
         23    2    4    4    0    0  0.15387160438E+03 -0.35470851376E+02 -0.12567576116E+04  0.12698796956E+04  0.90664739424E+02 0.  0.
          2    1    3    3  502    0  0.58360653407E+02 -0.19281066549E+02 -0.20281937702E+01  0.61496658148E+02  0.00000000000E+00 0. -1.
         -1    1    3    3    0  502  0.23488369701E+03  0.68697999356E+02 -0.76017973380E+02  0.25625865549E+03  0.00000000000E+00 0.  1.
         13    1    5    5    0    0 -0.22389203061E+03  0.28488110666E+02 -0.16890698208E+03  0.28190207948E+03  0.00000000000E+00 0. -1.
        -13    1    5    5    0    0 -0.22322392419E+03 -0.42434192097E+02 -0.10881877892E+03  0.25193472892E+03  0.00000000000E+00 0.  1.
          3    1    6    6  503    0  0.12516486246E+03 -0.45667894088E+02 -0.71772846714E+03  0.72999037794E+03  0.00000000000E+00 0. -1.
         -3    1    6    6    0  503  0.28706741927E+02  0.10197042711E+02 -0.53902914451E+03  0.53988931767E+03  0.00000000000E+00 0.  1.
<mgrwt>
<rscale>  0 0.13785468E+04</rscale>
<asrwt>0</asrwt>
<pdfrwt beam="1">  1        2 0.28723087E+00 0.13785468E+04</pdfrwt>
<pdfrwt beam="2">  1       -1 0.39149407E-01 0.13785468E+04</pdfrwt>
<totfact> 0.55736367E+01</totfact>
</mgrwt>
</event>
<event>
12    7  0.1625631E-007  0.2391900E+04  0.7818608E-02  0.8442542E-01
         -1   -1    0    0    0  501 -0.00000000000E+00  0.00000000000E+00  0.59749912155E+03  0.59749912155E+03  0.00000000000E+00 0.  1.
          2   -1    0    0  501    0  0.00000000000E+00 -0.00000000000E+00 -0.23938053364E+04  0.23938053364E+04  0.00000000000E+00 0. -1.
         24    2    1    2    0    0 -0.15836852894E+03  0.77385531130E+03  0.40429821615E+02  0.79494183566E+03  0.79782941886E+02 0.  0.
        254    2    1    2    0    0  0.15836852894E+03 -0.77385531130E+03 -0.18367360365E+04  0.21963626223E+04  0.90910773134E+03 0.  0.
         23    2    4    4    0    0  0.32772453086E+03 -0.85544901276E+03 -0.11208170294E+04  0.14504152628E+04  0.90979335818E+02 0.  0.
         23    2    4    4    0    0 -0.16935600192E+03  0.81593701457E+02 -0.71591900712E+03  0.74594735957E+03  0.92511896431E+02 0.  0.
          2    1    3    3  502    0 -0.32961721749E+02  0.20307016307E+03  0.44694918897E+02  0.21052696266E+03  0.00000000000E+00 0. -1.
         -1    1    3    3    0  502 -0.12540680719E+03  0.57078514823E+03 -0.42650972826E+01  0.58441487300E+03  0.00000000000E+00 0.  1.
         13    1    5    5    0    0  0.28128971893E+03 -0.80131517452E+03 -0.10321749623E+04  0.13366432088E+04  0.00000000000E+00 0.  1.
        -13    1    5    5    0    0  0.46434811927E+02 -0.54133838241E+02 -0.88642067138E+02  0.11377205398E+03  0.00000000000E+00 0. -1.
          4    1    6    6  503    0 -0.75061751626E+02  0.20114488354E+01 -0.39604199343E+03  0.40309747338E+03  0.00000000000E+00 0. -1.
         -4    1    6    6    0  503 -0.94294250290E+02  0.79582252621E+02 -0.31987701369E+03  0.34284988619E+03  0.00000000000E+00 0.  1.
<mgrwt>
<rscale>  0 0.23919002E+04</rscale>
<asrwt>0</asrwt>
<pdfrwt beam="1">  1        2 0.36827774E+00 0.23919002E+04</pdfrwt>
<pdfrwt beam="2">  1       -1 0.91922943E-01 0.23919002E+04</pdfrwt>
<totfact> 0.47285580E+00</totfact>
</mgrwt>
</event>
<event>
12    7  0.1625631E-007  0.1486063E+04  0.7818608E-02  0.8893774E-01
         -1   -1    0    0    0  501 -0.00000000000E+00  0.00000000000E+00  0.55738100631E+03  0.55738100631E+03  0.00000000000E+00 0.  1.
          2   -1    0    0  501    0  0.00000000000E+00 -0.00000000000E+00 -0.99051720924E+03  0.99051720924E+03  0.00000000000E+00 0. -1.
         24    2    1    2    0    0 -0.81363797662E+02 -0.68574381428E+02 -0.55918669072E+03  0.57466752960E+03  0.78933523580E+02 0.  0.
        254    2    1    2    0    0  0.81363797662E+02  0.68574381428E+02  0.12605048779E+03  0.97323068594E+03  0.95914896092E+03 0.  0.
         23    2    4    4    0    0 -0.27142853789E+02  0.18835438050E+03  0.50702779545E+03  0.54944149131E+03  0.92707388362E+02 0.  0.
         23    2    4    4    0    0  0.10850665145E+03 -0.11977999907E+03 -0.38097730766E+03  0.42378919463E+03  0.91283245712E+02 0.  0.
          2    1    3    3  502    0 -0.43969396303E+02 -0.59077687768E+02 -0.48954109870E+03  0.49504946048E+03  0.00000000000E+00 0. -1.
         -1    1    3    3    0  502 -0.37394401359E+02 -0.94966936600E+01 -0.69645592016E+02  0.79618069122E+02  0.00000000000E+00 0.  1.
         13    1    5    5    0    0 -0.41238450976E+02  0.35559683260E+02  0.18279253636E+03  0.19073073234E+03  0.00000000000E+00 0. -1.
        -13    1    5    5    0    0  0.14095597188E+02  0.15279469724E+03  0.32423525909E+03  0.35871075897E+03  0.00000000000E+00 0.  1.
          4    1    6    6  503    0 -0.40146833941E+01  0.11179101627E+02 -0.37846464072E+02  0.39666671636E+02  0.00000000000E+00 0.  1.
         -4    1    6    6    0  503  0.11252133484E+03 -0.13095910069E+03 -0.34313084359E+03  0.38412252299E+03  0.00000000000E+00 0. -1.
<mgrwt>
<rscale>  0 0.14860626E+04</rscale>
<asrwt>0</asrwt>
<pdfrwt beam="1">  1        2 0.15238726E+00 0.14860626E+04</pdfrwt>
<pdfrwt beam="2">  1       -1 0.85750924E-01 0.14860626E+04</pdfrwt>
<totfact> 0.37873527E+01</totfact>
</mgrwt>
</event>
<event>
12    7  0.1625631E-007  0.3482609E+04  0.7818608E-02  0.8117924E-01
          2   -1    0    0  501    0  0.00000000000E+00  0.00000000000E+00  0.10488088833E+04  0.10488088833E+04  0.00000000000E+00 0. -1.
         -3   -1    0    0    0  501 -0.00000000000E+00 -0.00000000000E+00 -0.28910330328E+04  0.28910330328E+04  0.00000000000E+00 0.  1.
         24    2    1    2    0    0 -0.41660993570E+02  0.97168025454E+03 -0.23296300732E+04  0.25256096184E+04  0.75030070210E+02 0.  0.
        254    2    1    2    0    0  0.41660993570E+02 -0.97168025454E+03  0.48740592372E+03  0.14142322977E+04  0.90365386176E+03 0.  0.
         23    2    4    4    0    0 -0.39629108604E+03 -0.50252443165E+03  0.40051906570E+03  0.76020680404E+03  0.89002436180E+02 0.  0.
         23    2    4    4    0    0  0.43795207961E+03 -0.46915582289E+03  0.86886858026E+02  0.65402549364E+03  0.91053885373E+02 0.  0.
          4    1    3    3  502    0 -0.44351335150E+02  0.27919250339E+03 -0.70289053890E+03  0.75760847709E+03  0.00000000000E+00 0. -1.
         -3    1    3    3    0  502  0.26903415800E+01  0.69248775115E+03 -0.16267395343E+04  0.17680011414E+04  0.00000000000E+00 0.  1.
         13    1    5    5    0    0 -0.15564539113E+03 -0.26868411495E+03  0.18636057091E+03  0.36214210443E+03  0.00000000000E+00 0.  1.
        -13    1    5    5    0    0 -0.24064569491E+03 -0.23384031669E+03  0.21415849478E+03  0.39806469961E+03  0.00000000000E+00 0. -1.
          3    1    6    6  503    0  0.14596251509E+02 -0.49798643513E+02  0.13560121612E+02  0.53636110522E+02  0.00000000000E+00 0. -1.
         -3    1    6    6    0  503  0.42335582810E+03 -0.41935717938E+03  0.73326736415E+02  0.60038938312E+03  0.00000000000E+00 0.  1.
<mgrwt>
<rscale>  0 0.34826089E+04</rscale>
<asrwt>0</asrwt>
<pdfrwt beam="1">  1        2 0.16135521E+00 0.34826089E+04</pdfrwt>
<pdfrwt beam="2">  1       -3 0.44477432E+00 0.34826089E+04</pdfrwt>
<totfact> 0.72178860E-02</totfact>
</mgrwt>
</event>
<event>
12    7  0.1625631E-007  0.2425777E+04  0.7818608E-02  0.8429916E-01
          2   -1    0    0  501    0  0.00000000000E+00  0.00000000000E+00  0.34495540316E+04  0.34495540316E+04  0.00000000000E+00 0. -1.
         -1   -1    0    0    0  501 -0.00000000000E+00 -0.00000000000E+00 -0.42646057260E+03  0.42646057260E+03  0.00000000000E+00 0.  1.
         24    2    1    2    0    0 -0.27175703810E+03 -0.59673073676E+02 -0.30323233260E+03  0.41955675420E+03  0.81641037369E+02 0.  0.
        254    2    1    2    0    0  0.27175703810E+03  0.59673073676E+02  0.33263257916E+04  0.34564578500E+04  0.89735435224E+03 0.  0.
         23    2    4    4    0    0 -0.22828235694E+03 -0.24667996994E+03  0.12486631347E+04  0.12957554122E+04  0.82816800040E+02 0.  0.
         23    2    4    4    0    0  0.50003939504E+03  0.30635304362E+03  0.20776626569E+04  0.21607024378E+04  0.89784879949E+02 0.  0.
          2    1    3    3  502    0 -0.14086549597E+02  0.14383110121E+02 -0.10875378117E+02  0.22881839644E+02  0.00000000000E+00 0. -1.
         -1    1    3    3    0  502 -0.25767048850E+03 -0.74056183797E+02 -0.29235695448E+03  0.39667491455E+03  0.00000000000E+00 0.  1.
         13    1    5    5    0    0 -0.13507494217E+03 -0.87063879280E+02  0.54241463063E+03  0.56571988705E+03  0.00000000000E+00 0.  1.
        -13    1    5    5    0    0 -0.93207414768E+02 -0.15961609066E+03  0.70624850404E+03  0.73003552518E+03  0.00000000000E+00 0. -1.
          2    1    6    6  503    0  0.13197693003E+03  0.82149833422E+02  0.41719117788E+03  0.44521341410E+03  0.00000000000E+00 0. -1.
         -2    1    6    6    0  503  0.36806246501E+03  0.22420321020E+03  0.16604714791E+04  0.17154890237E+04  0.00000000000E+00 0.  1.
<mgrwt>
<rscale>  0 0.24257772E+04</rscale>
<asrwt>0</asrwt>
<pdfrwt beam="1">  1        2 0.53070060E+00 0.24257772E+04</pdfrwt>
<pdfrwt beam="2">  1       -1 0.65609321E-01 0.24257772E+04</pdfrwt>
<totfact> 0.21218715E+00</totfact>
</mgrwt>
</event>
<event>
12    7  0.1625631E-007  0.1520847E+04  0.7818608E-02  0.8870707E-01
          2   -1    0    0  501    0  0.00000000000E+00  0.00000000000E+00  0.31199898015E+03  0.31199898015E+03  0.00000000000E+00 0. -1.
         -1   -1    0    0    0  501 -0.00000000000E+00 -0.00000000000E+00 -0.18533515895E+04  0.18533515895E+04  0.00000000000E+00 0.  1.
         24    2    1    2    0    0  0.46955343471E+03  0.11280035600E+03 -0.49477620624E+03  0.69589593840E+03  0.79141104744E+02 0.  0.
        254    2    1    2    0    0 -0.46955343471E+03 -0.11280035600E+03 -0.10465764031E+04  0.14694546312E+04  0.91146607032E+03 0.  0.
         23    2    4    4    0    0 -0.21520528673E+03  0.16268874050E+03 -0.10461698834E+04  0.10842488336E+04  0.91340935526E+02 0.  0.
         23    2    4    4    0    0 -0.25434814799E+03 -0.27548909650E+03 -0.40651963645E+00  0.38520579757E+03  0.88295631566E+02 0.  0.
          4    1    3    3  502    0  0.32162271625E+03  0.10884758121E+03 -0.31621377842E+03  0.46398288892E+03  0.00000000000E+00 0. -1.
         -3    1    3    3    0  502  0.14793071846E+03  0.39527747840E+01 -0.17856242781E+03  0.23191304948E+03  0.00000000000E+00 0.  1.
         13    1    5    5    0    0 -0.10560279940E+03  0.88855728555E+02 -0.36164808250E+03  0.38708736393E+03  0.00000000000E+00 0. -1.
        -13    1    5    5    0    0 -0.10960248733E+03  0.73833011945E+02 -0.68452180093E+03  0.69716146970E+03  0.00000000000E+00 0.  1.
          3    1    6    6  503    0 -0.13953907758E+02 -0.76748317979E+01 -0.19065984092E+02  0.24842027579E+02  0.00000000000E+00 0. -1.
         -3    1    6    6    0  503 -0.24039424023E+03 -0.26781426470E+03  0.18659464455E+02  0.36036377000E+03  0.00000000000E+00 0.  1.
<mgrwt>
<rscale>  0 0.15208469E+04</rscale>
<asrwt>0</asrwt>
<pdfrwt beam="1">  1        2 0.47999842E-01 0.15208469E+04</pdfrwt>
<pdfrwt beam="2">  1       -1 0.28513102E+00 0.15208469E+04</pdfrwt>
<totfact> 0.47936958E+00</totfact>
</mgrwt>
</event>
<event>
12    7  0.1625631E-007  0.1200707E+04  0.7818608E-02  0.9112238E-01
          2   -1    0    0  501    0  0.00000000000E+00  0.00000000000E+00  0.24421488776E+04  0.24421488776E+04  0.00000000000E+00 0. -1.
         -1   -1    0    0    0  501 -0.00000000000E+00 -0.00000000000E+00 -0.14758485665E+03  0.14758485665E+03  0.00000000000E+00 0.  1.
         24    2    1    2    0    0  0.20407999505E+03  0.81191558075E+02  0.28463659473E+03  0.37571342818E+03  0.10909571747E+03 0.  0.
        254    2    1    2    0    0 -0.20407999505E+03 -0.81191558075E+02  0.20099274262E+04  0.22140203060E+04  0.90212911690E+03 0.  0.
         23    2    4    4    0    0  0.15322813298E+03 -0.21447433798E+03  0.16760429829E+04  0.16989439672E+04  0.88387899805E+02 0.  0.
         23    2    4    4    0    0 -0.35730812803E+03  0.13328277990E+03  0.33388444325E+03  0.51507633879E+03  0.91604669999E+02 0.  0.
          4    1    3    3  502    0  0.38257438036E+02  0.60730096555E+02  0.12768706643E+03  0.14647785883E+03  0.00000000000E+00 0. -1.
         -3    1    3    3    0  502  0.16582255701E+03  0.20461461521E+02  0.15694952830E+03  0.22923556935E+03  0.00000000000E+00 0.  1.
         13    1    5    5    0    0  0.45273262702E+02 -0.13817334570E+03  0.83151748751E+03  0.84413439322E+03  0.00000000000E+00 0. -1.
        -13    1    5    5    0    0  0.10795487028E+03 -0.76300992274E+02  0.84452549542E+03  0.85480957403E+03  0.00000000000E+00 0.  1.
          1    1    6    6  503    0 -0.26682066014E+03  0.13288525064E+03  0.22479787772E+03  0.37334413125E+03  0.00000000000E+00 0. -1.
         -1    1    6    6    0  503 -0.90487467884E+02  0.39752926680E+00  0.10908656553E+03  0.14173220754E+03  0.00000000000E+00 0.  1.
<mgrwt>
<rscale>  0 0.12007068E+04</rscale>
<asrwt>0</asrwt>
<pdfrwt beam="1">  1        2 0.37571518E+00 0.12007068E+04</pdfrwt>
<pdfrwt beam="2">  1       -1 0.22705364E-01 0.12007068E+04</pdfrwt>
<totfact> 0.70166283E+01</totfact>
</mgrwt>
</event>
<event>
12    7  0.1625631E-007  0.3763355E+04  0.7818608E-02  0.8054065E-01
         -1   -1    0    0    0  501 -0.00000000000E+00  0.00000000000E+00  0.15816777230E+04  0.15816777230E+04  0.00000000000E+00 0.  1.
          2   -1    0    0  501    0  0.00000000000E+00 -0.00000000000E+00 -0.22385782610E+04  0.22385782610E+04  0.00000000000E+00 0. -1.
         24    2    1    2    0    0  0.60592478914E+03 -0.76661677073E+03  0.11932124046E+04  0.15443784901E+04  0.80640901711E+02 0.  0.
        254    2    1    2    0    0 -0.60592478914E+03  0.76661677073E+03 -0.18501129427E+04  0.22758774939E+04  0.89546320049E+03 0.  0.
         23    2    4    4    0    0 -0.52160616557E+03  0.84055053868E+03 -0.98482797144E+03  0.13988376220E+04  0.90897520544E+02 0.  0.
         23    2    4    4    0    0 -0.84318623577E+02 -0.73933767947E+02 -0.86528497122E+03  0.87703987195E+03  0.88910197718E+02 0.  0.
          2    1    3    3  502    0  0.24700429150E+03 -0.32314456479E+03  0.55902488618E+03  0.69133374946E+03  0.00000000000E+00 0. -1.
         -1    1    3    3    0  502  0.35892049764E+03 -0.44347220594E+03  0.63418751842E+03  0.85304474067E+03  0.00000000000E+00 0.  1.
         13    1    5    5    0    0 -0.47632155482E+03  0.78435766107E+03 -0.87885111935E+03  0.12706212866E+04  0.00000000000E+00 0. -1.
        -13    1    5    5    0    0 -0.45284610748E+02  0.56192877604E+02 -0.10597685209E+03  0.12821633532E+03  0.00000000000E+00 0.  1.
          1    1    6    6  503    0 -0.92857121311E+02 -0.65387199150E+02 -0.55401935493E+03  0.56553989818E+03  0.00000000000E+00 0. -1.
         -1    1    6    6    0  503  0.85384977333E+01 -0.85465687969E+01 -0.31126561629E+03  0.31149997378E+03  0.00000000000E+00 0.  1.
<mgrwt>
<rscale>  0 0.37633545E+04</rscale>
<asrwt>0</asrwt>
<pdfrwt beam="1">  1        2 0.34439665E+00 0.37633545E+04</pdfrwt>
<pdfrwt beam="2">  1       -1 0.24333503E+00 0.37633545E+04</pdfrwt>
<totfact> 0.34623228E-01</totfact>
</mgrwt>
</event>
<event>
12    7  0.1625631E-007  0.1340708E+04  0.7818608E-02  0.8997892E-01
         -1   -1    0    0    0  501 -0.00000000000E+00  0.00000000000E+00  0.23137755542E+03  0.23137755542E+03  0.00000000000E+00 0.  1.
          2   -1    0    0  501    0  0.00000000000E+00 -0.00000000000E+00 -0.19421692557E+04  0.19421692557E+04  0.00000000000E+00 0. -1.
         24    2    1    2    0    0  0.17769858752E+03 -0.28018266903E+03 -0.70892089201E+03  0.78663407245E+03  0.78391433064E+02 0.  0.
        254    2    1    2    0    0 -0.17769858752E+03  0.28018266903E+03 -0.10018708083E+04  0.13869127387E+04  0.89983482497E+03 0.  0.
         23    2    4    4    0    0  0.10866696980E+03 -0.24738827722E+03 -0.10632296441E+03  0.30415473008E+03  0.90532077407E+02 0.  0.
         23    2    4    4    0    0 -0.28636555732E+03  0.52757094625E+03 -0.89554784390E+03  0.10827580086E+04  0.10011308001E+03 0.  0.
          4    1    3    3  502    0  0.13900301923E+03 -0.26513088026E+03 -0.62632009225E+03  0.69418519213E+03  0.00000000000E+00 0. -1.
         -3    1    3    3    0  502  0.38695568288E+02 -0.15051788769E+02 -0.82600799768E+02  0.92448880321E+02  0.00000000000E+00 0.  1.
         13    1    5    5    0    0  0.86746229733E+02 -0.14375726402E+03 -0.23174359376E+02  0.16949368798E+03  0.00000000000E+00 0. -1.
        -13    1    5    5    0    0  0.21920740066E+02 -0.10363101320E+03 -0.83148605037E+02  0.13466104211E+03  0.00000000000E+00 0.  1.
          3    1    6    6  503    0 -0.21684430906E+03  0.29991635705E+03 -0.52474094248E+03  0.64212485726E+03  0.00000000000E+00 0. -1.
         -3    1    6    6    0  503 -0.69521248260E+02  0.22765458920E+03 -0.37080690142E+03  0.44063315137E+03  0.00000000000E+00 0.  1.
<mgrwt>
<rscale>  0 0.13407078E+04</rscale>
<asrwt>0</asrwt>
<pdfrwt beam="1">  1        2 0.29879526E+00 0.13407078E+04</pdfrwt>
<pdfrwt beam="2">  1       -1 0.35596549E-01 0.13407078E+04</pdfrwt>
<totfact> 0.60334573E+01</totfact>
</mgrwt>
</event>
<event>
12    7  0.1625631E-007  0.1287419E+04  0.7818608E-02  0.9039602E-01
         -1   -1    0    0    0  501 -0.00000000000E+00  0.00000000000E+00  0.13441655858E+03  0.13441655858E+03  0.00000000000E+00 0.  1.
          2   -1    0    0  501    0  0.00000000000E+00 -0.00000000000E+00 -0.30826701569E+04  0.30826701569E+04  0.00000000000E+00 0. -1.
         24    2    1    2    0    0 -0.23849214802E+03  0.10859785303E+03 -0.12154493848E+04  0.12463109154E+04  0.85449941296E+02 0.  0.
        254    2    1    2    0    0  0.23849214802E+03 -0.10859785303E+03 -0.17328042135E+04  0.19707758001E+04  0.90148478270E+03 0.  0.
         23    2    4    4    0    0 -0.13179935233E+03  0.32331612393E+03 -0.65422931986E+03  0.74765547830E+03  0.95227758552E+02 0.  0.
         23    2    4    4    0    0  0.37029150035E+03 -0.43191397697E+03 -0.10785748937E+04  0.12231203218E+04  0.95047575351E+02 0.  0.
          2    1    3    3  502    0 -0.58246794708E+02  0.66057635835E+02 -0.47166204791E+03  0.47981390954E+03  0.00000000000E+00 0. -1.
         -1    1    3    3    0  502 -0.18024535331E+03  0.42540217199E+02 -0.74378733686E+03  0.76649700583E+03  0.00000000000E+00 0.  1.
         13    1    5    5    0    0 -0.51911646281E+01  0.15068761490E+02 -0.31409554039E+01  0.16244425625E+02  0.00000000000E+00 0. -1.
        -13    1    5    5    0    0 -0.12660818770E+03  0.30824736244E+03 -0.65108836446E+03  0.73141105268E+03  0.00000000000E+00 0.  1.
          1    1    6    6  503    0  0.42748990072E+01  0.51293822319E+01 -0.14453453807E+02  0.15921295505E+02  0.00000000000E+00 0. -1.
         -1    1    6    6    0  503  0.36601660135E+03 -0.43704335920E+03 -0.10641214399E+04  0.12071990263E+04  0.00000000000E+00 0.  1.
<mgrwt>
<rscale>  0 0.12874190E+04</rscale>
<asrwt>0</asrwt>
<pdfrwt beam="1">  1        2 0.47425694E+00 0.12874190E+04</pdfrwt>
<pdfrwt beam="2">  1       -1 0.20679471E-01 0.12874190E+04</pdfrwt>
<totfact> 0.33795716E+01</totfact>
</mgrwt>
</event>
<event>
12    7  0.1625631E-007  0.2780187E+04  0.7818608E-02  0.8309446E-01
         -1   -1    0    0    0  501 -0.00000000000E+00  0.00000000000E+00  0.62344465555E+03  0.62344465555E+03  0.00000000000E+00 0.  1.
          2   -1    0    0  501    0  0.00000000000E+00 -0.00000000000E+00 -0.30994884274E+04  0.30994884274E+04  0.00000000000E+00 0. -1.
         24    2    1    2    0    0  0.96764053799E+03  0.69568148615E+03 -0.62784501073E+03  0.13493824853E+04  0.79641655608E+02 0.  0.
        254    2    1    2    0    0 -0.96764053799E+03 -0.69568148615E+03 -0.18481987611E+04  0.23735505976E+04  0.89308613130E+03 0.  0.
         23    2    4    4    0    0 -0.99085071211E+03 -0.79687714129E+03 -0.18359790852E+04  0.22351149628E+04  0.90118719335E+02 0.  0.
         23    2    4    4    0    0  0.23210174125E+02  0.10119565514E+03 -0.12219675865E+02  0.13843563479E+03  0.90751483174E+02 0.  0.
          2    1    3    3  502    0  0.73872436439E+03  0.53978278123E+03 -0.51842517383E+03  0.10515910794E+04  0.00000000000E+00 0. -1.
         -1    1    3    3    0  502  0.22891617360E+03  0.15589870492E+03 -0.10941983689E+03  0.29779140591E+03  0.00000000000E+00 0.  1.
         13    1    5    5    0    0 -0.81222351857E+02 -0.97707268379E+02 -0.16712598181E+03  0.20994016893E+03  0.00000000000E+00 0. -1.
        -13    1    5    5    0    0 -0.90962836026E+03 -0.69916987291E+03 -0.16688531034E+04  0.20251747939E+04  0.00000000000E+00 0.  1.
          4    1    6    6  503    0 -0.14707413532E+02  0.32297269885E+01 -0.28403796107E+02  0.32148324723E+02  0.00000000000E+00 0. -1.
         -4    1    6    6    0  503  0.37917587658E+02  0.97965928151E+02  0.16184120242E+02  0.10628731006E+03  0.00000000000E+00 0.  1.
<mgrwt>
<rscale>  0 0.27801867E+04</rscale>
<asrwt>0</asrwt>
<pdfrwt beam="1">  1        2 0.47684436E+00 0.27801867E+04</pdfrwt>
<pdfrwt beam="2">  1       -1 0.95914565E-01 0.27801867E+04</pdfrwt>
<totfact> 0.15627057E+00</totfact>
</mgrwt>
</event>
<event>
12    7  0.1625631E-007  0.1508037E+04  0.7818608E-02  0.8879126E-01
         -3   -1    0    0    0  501 -0.00000000000E+00  0.00000000000E+00  0.24980807371E+03  0.24980807371E+03  0.00000000000E+00 0.  1.
          2   -1    0    0  501    0  0.00000000000E+00 -0.00000000000E+00 -0.22759223873E+04  0.22759223873E+04  0.00000000000E+00 0. -1.
         24    2    1    2    0    0  0.41659215619E+03  0.17273166492E+03 -0.90084404026E+03  0.10106057043E+04  0.80116490139E+02 0.  0.
        254    2    1    2    0    0 -0.41659215619E+03 -0.17273166492E+03 -0.11252702733E+04  0.15151247567E+04  0.90883694235E+03 0.  0.
         23    2    4    4    0    0 -0.64106923777E+02 -0.19547752802E+03  0.94079040942E+02  0.24268660082E+03  0.87890606063E+02 0.  0.
         23    2    4    4    0    0 -0.35248523241E+03  0.22745863104E+02 -0.12193493143E+04  0.12724381559E+04  0.86734635923E+02 0.  0.
          2    1    3    3  502    0  0.29406611471E+03  0.96820917321E+02 -0.67610325285E+03  0.74361601541E+03  0.00000000000E+00 0. -1.
         -1    1    3    3    0  502  0.12252604148E+03  0.75910747596E+02 -0.22474078740E+03  0.26698968887E+03  0.00000000000E+00 0.  1.
         13    1    5    5    0    0 -0.27611318867E+02 -0.72023296411E+02  0.83257444633E+02  0.11349688208E+03  0.00000000000E+00 0.  1.
        -13    1    5    5    0    0 -0.36495604910E+02 -0.12345423161E+03  0.10821596309E+02  0.12918971873E+03  0.00000000000E+00 0. -1.
          3    1    6    6  503    0 -0.57170637869E+02  0.29820819841E+02 -0.29783306662E+03  0.30473315983E+03  0.00000000000E+00 0. -1.
         -3    1    6    6    0  503 -0.29531459454E+03 -0.70749567370E+01 -0.92151624766E+03  0.96770499609E+03  0.00000000000E+00 0.  1.
<mgrwt>
<rscale>  0 0.15080369E+04</rscale>
<asrwt>0</asrwt>
<pdfrwt beam="1">  1        2 0.35014190E+00 0.15080369E+04</pdfrwt>
<pdfrwt beam="2">  1       -3 0.38432011E-01 0.15080369E+04</pdfrwt>
<totfact> 0.19640043E+01</totfact>
</mgrwt>
</event>
<event>
12    7  0.1625631E-007  0.1107249E+04  0.7818608E-02  0.9198155E-01
          2   -1    0    0  501    0  0.00000000000E+00  0.00000000000E+00  0.17318067599E+04  0.17318067599E+04  0.00000000000E+00 0. -1.
         -1   -1    0    0    0  501 -0.00000000000E+00 -0.00000000000E+00 -0.17698286652E+03  0.17698286652E+03  0.00000000000E+00 0.  1.
         24    2    1    2    0    0  0.94582476929E+02  0.11915628933E+03  0.38293981758E+03  0.41968818532E+03  0.79694433838E+02 0.  0.
        254    2    1    2    0    0 -0.94582476929E+02 -0.11915628933E+03  0.11718840758E+04  0.14891014411E+04  0.90607215418E+03 0.  0.
         23    2    4    4    0    0 -0.19405306064E+03  0.17616035417E+03  0.11259589888E+04  0.11598297409E+04  0.93446897712E+02 0.  0.
         23    2    4    4    0    0  0.99470583713E+02 -0.29531664350E+03  0.45925087011E+02  0.32927170021E+03  0.95939678931E+02 0.  0.
          4    1    3    3  502    0  0.23309881976E+02  0.81097495348E+02  0.25275683149E+03  0.26646982984E+03  0.00000000000E+00 0. -1.
         -3    1    3    3    0  502  0.71272594953E+02  0.38058793981E+02  0.13018298609E+03  0.15321835548E+03  0.00000000000E+00 0.  1.
         13    1    5    5    0    0  0.62257660980E+01  0.25685702650E+02  0.78417138421E+02  0.82751211968E+02  0.00000000000E+00 0.  1.
        -13    1    5    5    0    0 -0.20027882674E+03  0.15047465152E+03  0.10475418504E+04  0.10770785290E+04  0.00000000000E+00 0. -1.
          4    1    6    6  503    0  0.10306154507E+03 -0.19782952267E+03  0.59281527976E+02  0.23080836568E+03  0.00000000000E+00 0. -1.
         -4    1    6    6    0  503 -0.35909613557E+01 -0.97487120830E+02 -0.13356440965E+02  0.98463334528E+02  0.00000000000E+00 0.  1.
<mgrwt>
<rscale>  0 0.11072491E+04</rscale>
<asrwt>0</asrwt>
<pdfrwt beam="1">  1        2 0.26643180E+00 0.11072491E+04</pdfrwt>
<pdfrwt beam="2">  1       -1 0.27228135E-01 0.11072491E+04</pdfrwt>
<totfact> 0.12869091E+02</totfact>
</mgrwt>
</event>
<event>
12    7  0.1625631E-007  0.3751383E+04  0.7818608E-02  0.8056669E-01
         -1   -1    0    0    0  501 -0.00000000000E+00  0.00000000000E+00  0.99928642075E+03  0.99928642075E+03  0.00000000000E+00 0.  1.
          2   -1    0    0  501    0  0.00000000000E+00 -0.00000000000E+00 -0.35207308643E+04  0.35207308643E+04  0.00000000000E+00 0. -1.
         24    2    1    2    0    0  0.13628661923E+04  0.10459216626E+04 -0.81017333732E+03  0.19010751347E+04  0.79683428197E+02 0.  0.
        254    2    1    2    0    0 -0.13628661923E+04 -0.10459216626E+04 -0.17112711063E+04  0.26189421504E+04  0.98947097260E+03 0.  0.
         23    2    4    4    0    0 -0.50391193345E+03  0.12412313211E+03 -0.50305877512E+03  0.72836355847E+03  0.90064163132E+02 0.  0.
         23    2    4    4    0    0 -0.85895425882E+03 -0.11700447947E+04 -0.12082123311E+04  0.18905785919E+04  0.87767503668E+02 0.  0.
          2    1    3    3  502    0  0.58718840772E+03  0.46700736662E+03 -0.39513310658E+03  0.84794827587E+03  0.00000000000E+00 0. -1.
         -1    1    3    3    0  502  0.77567778456E+03  0.57891429601E+03 -0.41504023074E+03  0.10531268588E+04  0.00000000000E+00 0.  1.
         13    1    5    5    0    0 -0.36258556718E+03  0.58688607295E+02 -0.31246042135E+03  0.48222832876E+03  0.00000000000E+00 0. -1.
        -13    1    5    5    0    0 -0.14132636627E+03  0.65434524814E+02 -0.19059835378E+03  0.24613522971E+03  0.00000000000E+00 0.  1.
          1    1    6    6  503    0 -0.65118625089E+03 -0.88839595515E+03 -0.96457569729E+03  0.14641370094E+04  0.00000000000E+00 0. -1.
         -1    1    6    6    0  503 -0.20776800793E+03 -0.28164883960E+03 -0.24363663386E+03  0.42644158255E+03  0.00000000000E+00 0.  1.
<mgrwt>
<rscale>  0 0.37513830E+04</rscale>
<asrwt>0</asrwt>
<pdfrwt beam="1">  1        2 0.54165091E+00 0.37513830E+04</pdfrwt>
<pdfrwt beam="2">  1       -1 0.15373637E+00 0.37513830E+04</pdfrwt>
<totfact> 0.23398530E-01</totfact>
</mgrwt>
</event>
<event>
12    7  0.1625631E-007  0.1117368E+04  0.7818608E-02  0.9188427E-01
         -1   -1    0    0    0  501 -0.00000000000E+00  0.00000000000E+00  0.33062140089E+03  0.33062140089E+03  0.00000000000E+00 0.  1.
          2   -1    0    0  501    0  0.00000000000E+00 -0.00000000000E+00 -0.94406374461E+03  0.94406374461E+03  0.00000000000E+00 0. -1.
         24    2    1    2    0    0  0.26623483745E+02 -0.64834218732E+02 -0.29896271217E+03  0.31751348478E+03  0.80770192155E+02 0.  0.
        254    2    1    2    0    0 -0.26623483745E+02  0.64834218732E+02 -0.31447963155E+03  0.95717166072E+03  0.90131451982E+03 0.  0.
         23    2    4    4    0    0  0.28046072959E+03  0.35340573442E+03 -0.24054962023E+03  0.51901621494E+03  0.89218146218E+02 0.  0.
         23    2    4    4    0    0 -0.30708421334E+03 -0.28857151568E+03 -0.73930011317E+02  0.43815544579E+03  0.94553235562E+02 0.  0.
          4    1    3    3  502    0  0.44171225950E+01 -0.25400176217E+02 -0.24808130420E+03  0.24941734787E+03  0.00000000000E+00 0. -1.
         -3    1    3    3    0  502  0.22206361150E+02 -0.39434042515E+02 -0.50881407967E+02  0.68096136904E+02  0.00000000000E+00 0.  1.
         13    1    5    5    0    0  0.17628205144E+03  0.22534615409E+03 -0.19984032665E+03  0.34898768887E+03  0.00000000000E+00 0. -1.
        -13    1    5    5    0    0  0.10417867815E+03  0.12805958033E+03 -0.40709293575E+02  0.17002852607E+03  0.00000000000E+00 0.  1.
          1    1    6    6  503    0 -0.28246910700E+03 -0.23621684048E+03 -0.38292651770E+02  0.37020740041E+03  0.00000000000E+00 0. -1.
         -1    1    6    6    0  503 -0.24615106336E+02 -0.52354675202E+02 -0.35637359548E+02  0.67948045380E+02  0.00000000000E+00 0.  1.
<mgrwt>
<rscale>  0 0.11173678E+04</rscale>
<asrwt>0</asrwt>
<pdfrwt beam="1">  1        2 0.14524057E+00 0.11173678E+04</pdfrwt>
<pdfrwt beam="2">  1       -1 0.50864832E-01 0.11173678E+04</pdfrwt>
<totfact> 0.12037725E+02</totfact>
</mgrwt>
</event>
<event>
12    7  0.1625631E-007  0.1757418E+04  0.7818608E-02  0.8729277E-01
         -1   -1    0    0    0  501 -0.00000000000E+00  0.00000000000E+00  0.37771526721E+03  0.37771526721E+03  0.00000000000E+00 0.  1.
          2   -1    0    0  501    0  0.00000000000E+00 -0.00000000000E+00 -0.20442112631E+04  0.20442112631E+04  0.00000000000E+00 0. -1.
         24    2    1    2    0    0 -0.99514637707E+02 -0.25301030136E+03 -0.14218766149E+04  0.14498634305E+04  0.80333575687E+02 0.  0.
        254    2    1    2    0    0  0.99514637707E+02  0.25301030136E+03 -0.24461938106E+03  0.97206309988E+03  0.90063902472E+03 0.  0.
         23    2    4    4    0    0 -0.25353973048E+03 -0.16750810692E+03 -0.26780586440E+03  0.41497561457E+03  0.90240893497E+02 0.  0.
         23    2    4    4    0    0  0.35305436819E+03  0.42051840827E+03  0.23186483346E+02  0.55708748532E+03  0.91245463938E+02 0.  0.
          2    1    3    3  502    0 -0.64138318804E+02 -0.22217953187E+03 -0.12707072781E+04  0.12915782807E+04  0.00000000000E+00 0. -1.
         -1    1    3    3    0  502 -0.35376318902E+02 -0.30830769484E+02 -0.15116933671E+03  0.15828514980E+03  0.00000000000E+00 0.  1.
         13    1    5    5    0    0 -0.20400648719E+02 -0.18107672764E+01  0.34638899642E+01  0.20771708644E+02  0.00000000000E+00 0. -1.
        -13    1    5    5    0    0 -0.23313908176E+03 -0.16569733964E+03 -0.27126975437E+03  0.39420390592E+03  0.00000000000E+00 0.  1.
          3    1    6    6  503    0  0.11967813545E+03  0.10459205653E+03 -0.26653884753E+02  0.16116073954E+03  0.00000000000E+00 0. -1.
         -3    1    6    6    0  503  0.23337623274E+03  0.31592635174E+03  0.49840368099E+02  0.39592674578E+03  0.00000000000E+00 0.  1.
<mgrwt>
<rscale>  0 0.17574183E+04</rscale>
<asrwt>0</asrwt>
<pdfrwt beam="1">  1        2 0.31449404E+00 0.17574183E+04</pdfrwt>
<pdfrwt beam="2">  1       -1 0.58110041E-01 0.17574183E+04</pdfrwt>
<totfact> 0.20435592E+01</totfact>
</mgrwt>
</event>
<event>
12    7  0.1625631E-007  0.1760381E+04  0.7818608E-02  0.8727657E-01
         -1   -1    0    0    0  501 -0.00000000000E+00  0.00000000000E+00  0.38366439307E+03  0.38366439307E+03  0.00000000000E+00 0.  1.
          2   -1    0    0  501    0  0.00000000000E+00 -0.00000000000E+00 -0.20193040155E+04  0.20193040155E+04  0.00000000000E+00 0. -1.
         24    2    1    2    0    0  0.15697113341E+03  0.16689386630E+03 -0.14128720789E+04  0.14336441754E+04  0.81453121009E+02 0.  0.
        254    2    1    2    0    0 -0.15697113341E+03 -0.16689386630E+03 -0.22276754351E+03  0.96932423317E+03  0.91513419302E+03 0.  0.
         23    2    4    4    0    0 -0.28951570161E+03 -0.16844706567E+03 -0.52358338252E+03  0.62810768008E+03  0.90476206339E+02 0.  0.
         23    2    4    4    0    0  0.13254456821E+03  0.15531993643E+01  0.30081583901E+03  0.34121655309E+03  0.91477276478E+02 0.  0.
          4    1    3    3  502    0  0.11477017457E+03  0.91069761353E+02 -0.10689269272E+04  0.10789210675E+04  0.00000000000E+00 0. -1.
         -3    1    3    3    0  502  0.42200958831E+02  0.75824104952E+02 -0.34394515180E+03  0.35472310788E+03  0.00000000000E+00 0.  1.
         13    1    5    5    0    0 -0.66548094235E+01 -0.89520389264E+01  0.94743378005E+00  0.11194780934E+02  0.00000000000E+00 0. -1.
        -13    1    5    5    0    0 -0.28286089219E+03 -0.15949502674E+03 -0.52453081630E+03  0.61691289915E+03  0.00000000000E+00 0.  1.
          3    1    6    6  503    0  0.16235356302E+02  0.26748546377E+02  0.22545180359E+02  0.38566263559E+02  0.00000000000E+00 0. -1.
         -3    1    6    6    0  503  0.11630921191E+03 -0.25195347012E+02  0.27827065865E+03  0.30265028953E+03  0.00000000000E+00 0.  1.
<mgrwt>
<rscale>  0 0.17603807E+04</rscale>
<asrwt>0</asrwt>
<pdfrwt beam="1">  1        2 0.31066215E+00 0.17603807E+04</pdfrwt>
<pdfrwt beam="2">  1       -1 0.59025292E-01 0.17603807E+04</pdfrwt>
<totfact> 0.20453787E+01</totfact>
</mgrwt>
</event>
<event>
12    7  0.1625631E-007  0.2142622E+04  0.7818608E-02  0.8542697E-01
          2   -1    0    0  501    0  0.00000000000E+00  0.00000000000E+00  0.17839484271E+04  0.17839484271E+04  0.00000000000E+00 0. -1.
         -1   -1    0    0    0  501 -0.00000000000E+00 -0.00000000000E+00 -0.64335200911E+03  0.64335200911E+03  0.00000000000E+00 0.  1.
         24    2    1    2    0    0 -0.30868375482E+03  0.34789183010E+03  0.13205519254E+04  0.14019289008E+04  0.72338574169E+02 0.  0.
        254    2    1    2    0    0  0.30868375482E+03 -0.34789183010E+03 -0.17995550738E+03  0.10253715354E+04  0.89592880024E+03 0.  0.
         23    2    4    4    0    0 -0.19456396129E+03 -0.87388500923E+02 -0.35583557573E+03  0.42527106917E+03  0.93512780916E+02 0.  0.
         23    2    4    4    0    0  0.50324771612E+03 -0.26050332918E+03  0.17588006834E+03  0.60010046626E+03  0.89813823419E+02 0.  0.
          4    1    3    3  502    0 -0.26748158302E+03  0.26193981699E+03  0.10875591017E+04  0.11501928815E+04  0.00000000000E+00 0. -1.
         -1    1    3    3    0  502 -0.41202171798E+02  0.85952013114E+02  0.23299282366E+03  0.25173601926E+03  0.00000000000E+00 0.  1.
         13    1    5    5    0    0 -0.19955973933E+03 -0.72035316472E+02 -0.34737975089E+03  0.40704528950E+03  0.00000000000E+00 0.  1.
        -13    1    5    5    0    0  0.49957780324E+01 -0.15353184451E+02 -0.84558248419E+01  0.18225779673E+02  0.00000000000E+00 0. -1.
          4    1    6    6  503    0  0.28110442556E+03 -0.10166390992E+03  0.11518444344E+03  0.32034778704E+03  0.00000000000E+00 0. -1.
         -4    1    6    6    0  503  0.22214329056E+03 -0.15883941926E+03  0.60695624903E+02  0.27975267922E+03  0.00000000000E+00 0.  1.
<mgrwt>
<rscale>  0 0.21426216E+04</rscale>
<asrwt>0</asrwt>
<pdfrwt beam="1">  1        2 0.27445360E+00 0.21426216E+04</pdfrwt>
<pdfrwt beam="2">  1       -1 0.98977233E-01 0.21426216E+04</pdfrwt>
<totfact> 0.89866608E+00</totfact>
</mgrwt>
</event>
<event>
12    7  0.1625631E-007  0.2115773E+04  0.7818608E-02  0.8554327E-01
         -1   -1    0    0    0  501 -0.00000000000E+00  0.00000000000E+00  0.49272921855E+03  0.49272921855E+03  0.00000000000E+00 0.  1.
          2   -1    0    0  501    0  0.00000000000E+00 -0.00000000000E+00 -0.22712759303E+04  0.22712759303E+04  0.00000000000E+00 0. -1.
         24    2    1    2    0    0  0.28808845905E+02  0.60973947743E+03 -0.15241549811E+04  0.16438970778E+04  0.82079328025E+02 0.  0.
        254    2    1    2    0    0 -0.28808845905E+02 -0.60973947743E+03 -0.25439173062E+03  0.11201080710E+04  0.90405462124E+03 0.  0.
         23    2    4    4    0    0  0.37429498707E+03 -0.27367218869E+03 -0.33732850560E+03  0.58086410216E+03  0.92840617662E+02 0.  0.
         23    2    4    4    0    0 -0.40310383297E+03 -0.33606728873E+03  0.82936774977E+02  0.53924396884E+03  0.92041439444E+02 0.  0.
          2    1    3    3  502    0  0.13162110252E+02  0.47119890822E+03 -0.12584030679E+04  0.13437931142E+04  0.00000000000E+00 0. -1.
         -1    1    3    3    0  502  0.15646735653E+02  0.13854056921E+03 -0.26575191316E+03  0.30010396366E+03  0.00000000000E+00 0.  1.
         13    1    5    5    0    0  0.13907732488E+03 -0.49895448183E+02 -0.93734692567E+02  0.17498071504E+03  0.00000000000E+00 0.  1.
        -13    1    5    5    0    0  0.23521766219E+03 -0.22377674051E+03 -0.24359381303E+03  0.40588338713E+03  0.00000000000E+00 0. -1.
          1    1    6    6  503    0 -0.24461896975E+03 -0.16198441896E+03  0.78803058595E+02  0.30378827230E+03  0.00000000000E+00 0. -1.
         -1    1    6    6    0  503 -0.15848486322E+03 -0.17408286978E+03  0.41337163825E+01  0.23545569654E+03  0.00000000000E+00 0.  1.
<mgrwt>
<rscale>  0 0.21157732E+04</rscale>
<asrwt>0</asrwt>
<pdfrwt beam="1">  1        2 0.34942706E+00 0.21157732E+04</pdfrwt>
<pdfrwt beam="2">  1       -1 0.75804496E-01 0.21157732E+04</pdfrwt>
<totfact> 0.86204923E+00</totfact>
</mgrwt>
</event>
<event>
12    7  0.1625631E-007  0.1802662E+04  0.7818608E-02  0.8704885E-01
          2   -1    0    0  501    0  0.00000000000E+00  0.00000000000E+00  0.15610361313E+04  0.15610361313E+04  0.00000000000E+00 0. -1.
         -1   -1    0    0    0  501 -0.00000000000E+00 -0.00000000000E+00 -0.52042220111E+03  0.52042220111E+03  0.00000000000E+00 0.  1.
         24    2    1    2    0    0  0.67239279648E+02 -0.51985935090E+03 -0.10766463431E+03  0.54126497675E+03  0.81247991513E+02 0.  0.
        254    2    1    2    0    0 -0.67239279648E+02  0.51985935090E+03  0.11482785645E+04  0.15401933557E+04  0.88254010996E+03 0.  0.
         23    2    4    4    0    0  0.10137236539E+03  0.43425260550E+03  0.93591703857E+02  0.46484867137E+03  0.92049977734E+02 0.  0.
         23    2    4    4    0    0 -0.16861164504E+03  0.85606745404E+02  0.10546868606E+04  0.10753446843E+04  0.90793250435E+02 0.  0.
          4    1    3    3  502    0  0.38049946977E+02 -0.80385833937E+02 -0.53602206861E+01  0.89097770615E+02  0.00000000000E+00 0. -1.
         -3    1    3    3    0  502  0.29189332671E+02 -0.43947351696E+03 -0.10230441362E+03  0.45216720613E+03  0.00000000000E+00 0.  1.
         13    1    5    5    0    0  0.67286332051E+02  0.39098821825E+03  0.10069195626E+03  0.40931419149E+03  0.00000000000E+00 0.  1.
        -13    1    5    5    0    0  0.34086033337E+02  0.43264387242E+02 -0.71002524079E+01  0.55534479888E+02  0.00000000000E+00 0. -1.
          4    1    6    6  503    0 -0.79207243181E+02  0.21534088000E+02  0.24890181932E+03  0.26208704657E+03  0.00000000000E+00 0. -1.
         -4    1    6    6    0  503 -0.89404401856E+02  0.64072657404E+02  0.80578504131E+03  0.81325763771E+03  0.00000000000E+00 0.  1.
<mgrwt>
<rscale>  0 0.18026623E+04</rscale>
<asrwt>0</asrwt>
<pdfrwt beam="1">  1        2 0.24015940E+00 0.18026623E+04</pdfrwt>
<pdfrwt beam="2">  1       -1 0.80064955E-01 0.18026623E+04</pdfrwt>
<totfact> 0.19638217E+01</totfact>
</mgrwt>
</event>
<event>
12    7  0.1625631E-007  0.1715063E+04  0.7818608E-02  0.8752820E-01
         -1   -1    0    0    0  501 -0.00000000000E+00  0.00000000000E+00  0.39815105631E+03  0.39815105631E+03  0.00000000000E+00 0.  1.
          2   -1    0    0  501    0  0.00000000000E+00 -0.00000000000E+00 -0.18469375064E+04  0.18469375064E+04  0.00000000000E+00 0. -1.
         24    2    1    2    0    0  0.51146593063E+03  0.37755870354E+02 -0.84530197998E+02  0.52586276997E+03  0.79770887719E+02 0.  0.
        254    2    1    2    0    0 -0.51146593063E+03 -0.37755870354E+02 -0.13642562521E+04  0.17192257927E+04  0.91187680149E+03 0.  0.
         23    2    4    4    0    0 -0.54771099365E+03 -0.37804451114E+03 -0.73064205642E+03  0.99246911110E+03  0.90841273051E+02 0.  0.
         23    2    4    4    0    0  0.36245063028E+02  0.34028864079E+03 -0.63361419564E+03  0.72675668162E+03  0.97970718681E+02 0.  0.
          2    1    3    3  502    0  0.12336580553E+03  0.42181766178E+02 -0.31520529308E+02  0.13413413861E+03  0.00000000000E+00 0. -1.
         -1    1    3    3    0  502  0.38810012509E+03 -0.44258958244E+01 -0.53009668690E+02  0.39172863136E+03  0.00000000000E+00 0.  1.
         13    1    5    5    0    0 -0.13651071642E+03 -0.10273631826E+03 -0.13280278182E+03  0.21639432905E+03  0.00000000000E+00 0. -1.
        -13    1    5    5    0    0 -0.41120027724E+03 -0.27530819289E+03 -0.59783927460E+03  0.77607478205E+03  0.00000000000E+00 0.  1.
          3    1    6    6  503    0 -0.93473527568E+01  0.24559445438E+03 -0.49646697172E+03  0.55397063373E+03  0.00000000000E+00 0. -1.
         -3    1    6    6    0  503  0.45592415784E+02  0.94694186408E+02 -0.13714722392E+03  0.17278604789E+03  0.00000000000E+00 0.  1.
<mgrwt>
<rscale>  0 0.17150628E+04</rscale>
<asrwt>0</asrwt>
<pdfrwt beam="1">  1        2 0.28414423E+00 0.17150628E+04</pdfrwt>
<pdfrwt beam="2">  1       -1 0.61254009E-01 0.17150628E+04</pdfrwt>
<totfact> 0.23779313E+01</totfact>
</mgrwt>
</event>
<event>
12    7  0.1625631E-007  0.1331945E+04  0.7818608E-02  0.9004609E-01
          2   -1    0    0  501    0  0.00000000000E+00  0.00000000000E+00  0.10009961914E+04  0.10009961914E+04  0.00000000000E+00 0. -1.
         -1   -1    0    0    0  501 -0.00000000000E+00 -0.00000000000E+00 -0.44307786784E+03  0.44307786784E+03  0.00000000000E+00 0.  1.
         24    2    1    2    0    0 -0.63556108239E+02 -0.32792416332E+03  0.76482216019E+01  0.34349978419E+03  0.79749424170E+02 0.  0.
        254    2    1    2    0    0  0.63556108239E+02  0.32792416332E+03  0.55027010192E+03  0.11005742750E+04  0.89268858735E+03 0.  0.
         23    2    4    4    0    0  0.38411216221E+03 -0.80275431791E+02  0.35854522530E+03  0.53987483138E+03  0.94466167824E+02 0.  0.
         23    2    4    4    0    0 -0.32055605397E+03  0.40819959512E+03  0.19172487662E+03  0.56069944364E+03  0.90787359230E+02 0.  0.
          4    1    3    3  502    0  0.16079585347E+02 -0.96466971240E+02 -0.86768672860E+01  0.98182063693E+02  0.00000000000E+00 0. -1.
         -3    1    3    3    0  502 -0.79635693585E+02 -0.23145719208E+03  0.16325088888E+02  0.24531772049E+03  0.00000000000E+00 0.  1.
         13    1    5    5    0    0  0.33228458029E+03 -0.80150198610E+02  0.26339573787E+03  0.43152567868E+03  0.00000000000E+00 0.  1.
        -13    1    5    5    0    0  0.51827581920E+02 -0.12523318145E+00  0.95149487437E+02  0.10834915270E+03  0.00000000000E+00 0. -1.
          4    1    6    6  503    0 -0.18727098978E+03  0.25238571803E+03  0.69087969311E+02  0.32177961679E+03  0.00000000000E+00 0. -1.
         -4    1    6    6    0  503 -0.13328506419E+03  0.15581387709E+03  0.12263690731E+03  0.23891982685E+03  0.00000000000E+00 0.  1.
<mgrwt>
<rscale>  0 0.13319448E+04</rscale>
<asrwt>0</asrwt>
<pdfrwt beam="1">  1        2 0.15399941E+00 0.13319448E+04</pdfrwt>
<pdfrwt beam="2">  1       -1 0.68165826E-01 0.13319448E+04</pdfrwt>
<totfact> 0.61148990E+01</totfact>
</mgrwt>
</event>
<event>
12    7  0.1625631E-007  0.1917147E+04  0.7818608E-02  0.8646368E-01
          2   -1    0    0  501    0  0.00000000000E+00  0.00000000000E+00  0.13185869123E+04  0.13185869123E+04  0.00000000000E+00 0. -1.
         -1   -1    0    0    0  501 -0.00000000000E+00 -0.00000000000E+00 -0.69685410752E+03  0.69685410752E+03  0.00000000000E+00 0.  1.
         24    2    1    2    0    0  0.10186654119E+03  0.51662121550E+03  0.69506427027E+03  0.87553413461E+03  0.78558313052E+02 0.  0.
        254    2    1    2    0    0 -0.10186654119E+03 -0.51662121550E+03 -0.73331465543E+02  0.11399068852E+04  0.10083332438E+04 0.  0.
         23    2    4    4    0    0 -0.62967740964E+02  0.23303928657E+03 -0.25453322127E+03  0.36231720792E+03  0.90633067582E+02 0.  0.
         23    2    4    4    0    0 -0.38898800226E+02 -0.74966050207E+03  0.18120175572E+03  0.77758967724E+03  0.91146282757E+02 0.  0.
          4    1    3    3  502    0  0.87132995059E+02  0.45503330272E+03  0.56337317096E+03  0.72940852419E+03  0.00000000000E+00 0. -1.
         -3    1    3    3    0  502  0.14733546130E+02  0.61587912775E+02  0.13169109931E+03  0.14612561042E+03  0.00000000000E+00 0.  1.
         13    1    5    5    0    0 -0.67127327593E+02  0.12637249357E+03 -0.10030050356E+03  0.17474631972E+03  0.00000000000E+00 0. -1.
        -13    1    5    5    0    0  0.41595866287E+01  0.10666679300E+03 -0.15423271770E+03  0.18757088820E+03  0.00000000000E+00 0.  1.
          2    1    6    6  503    0 -0.31245504310E+02 -0.19250914717E+03  0.82273316024E+02  0.21167180212E+03  0.00000000000E+00 0. -1.
         -2    1    6    6    0  503 -0.76532959154E+01 -0.55715135489E+03  0.98928439699E+02  0.56591787512E+03  0.00000000000E+00 0.  1.
<mgrwt>
<rscale>  0 0.19171465E+04</rscale>
<asrwt>0</asrwt>
<pdfrwt beam="1">  1        2 0.20285952E+00 0.19171465E+04</pdfrwt>
<pdfrwt beam="2">  1       -1 0.10720832E+00 0.19171465E+04</pdfrwt>
<totfact> 0.13939980E+01</totfact>
</mgrwt>
</event>
<event>
12    7  0.1625631E-007  0.1156046E+04  0.7818608E-02  0.9152224E-01
         -1   -1    0    0    0  501 -0.00000000000E+00  0.00000000000E+00  0.26787882703E+03  0.26787882703E+03  0.00000000000E+00 0.  1.
          2   -1    0    0  501    0  0.00000000000E+00 -0.00000000000E+00 -0.12472446237E+04  0.12472446237E+04  0.00000000000E+00 0. -1.
         24    2    1    2    0    0  0.53390341721E+02  0.17086860808E+03 -0.35178226011E+02  0.19917024522E+03  0.79904124915E+02 0.  0.
        254    2    1    2    0    0 -0.53390341721E+02 -0.17086860808E+03 -0.94418757069E+03  0.13159532055E+04  0.89899725290E+03 0.  0.
         23    2    4    4    0    0  0.28096160007E+03 -0.28727393780E+03 -0.83943597688E+03  0.93525143206E+03  0.92610722105E+02 0.  0.
         23    2    4    4    0    0 -0.33435194179E+03  0.11640532972E+03 -0.10475159382E+03  0.38070177349E+03  0.92841381732E+02 0.  0.
          2    1    3    3  502    0  0.54572586921E+02  0.55370322557E+02 -0.30680705772E+02  0.83578379800E+02  0.00000000000E+00 0. -1.
         -1    1    3    3    0  502 -0.11822452003E+01  0.11549828552E+03 -0.44975202384E+01  0.11559186542E+03  0.00000000000E+00 0.  1.
         13    1    5    5    0    0  0.17399373784E+02 -0.59037170086E+02 -0.16337046854E+03  0.17457959689E+03  0.00000000000E+00 0. -1.
        -13    1    5    5    0    0  0.26356222629E+03 -0.22823676771E+03 -0.67606550834E+03  0.76067183517E+03  0.00000000000E+00 0.  1.
          1    1    6    6  503    0 -0.32472493498E+02  0.24327523485E+02 -0.42975068748E+02  0.59102857518E+02  0.00000000000E+00 0. -1.
         -1    1    6    6    0  503 -0.30187944829E+03  0.92077806233E+02 -0.61776525070E+02  0.32159891597E+03  0.00000000000E+00 0.  1.
<mgrwt>
<rscale>  0 0.11560457E+04</rscale>
<asrwt>0</asrwt>
<pdfrwt beam="1">  1        2 0.19188379E+00 0.11560457E+04</pdfrwt>
<pdfrwt beam="2">  1       -1 0.41212127E-01 0.11560457E+04</pdfrwt>
<totfact> 0.11537898E+02</totfact>
</mgrwt>
</event>
<event>
12    7  0.1625631E-007  0.1571765E+04  0.7818608E-02  0.8838084E-01
         -1   -1    0    0    0  501 -0.00000000000E+00  0.00000000000E+00  0.39000318818E+03  0.39000318818E+03  0.00000000000E+00 0.  1.
          2   -1    0    0  501    0  0.00000000000E+00 -0.00000000000E+00 -0.15836055711E+04  0.15836055711E+04  0.00000000000E+00 0. -1.
         24    2    1    2    0    0  0.26748177773E+03  0.31446143177E+02 -0.96589303422E+03  0.10058289292E+04  0.78785276833E+02 0.  0.
        254    2    1    2    0    0 -0.26748177773E+03 -0.31446143177E+02 -0.22770934870E+03  0.96777983011E+03  0.90122743564E+03 0.  0.
         23    2    4    4    0    0 -0.75461438558E+02 -0.35166272231E+03  0.17602396630E+03  0.41041626962E+03  0.89977656601E+02 0.  0.
         23    2    4    4    0    0 -0.19202033918E+03  0.32021657913E+03 -0.40373331500E+03  0.55736356049E+03  0.90791413236E+02 0.  0.
          2    1    3    3  502    0  0.14415401315E+03 -0.19750508053E+02 -0.55664101876E+03  0.57534310272E+03  0.00000000000E+00 0. -1.
         -1    1    3    3    0  502  0.12332776458E+03  0.51196651230E+02 -0.40925201545E+03  0.43048582644E+03  0.00000000000E+00 0.  1.
         13    1    5    5    0    0  0.41101933296E+01 -0.17838042671E+03  0.65814963749E+02  0.19017907291E+03  0.00000000000E+00 0.  1.
        -13    1    5    5    0    0 -0.79571631888E+02 -0.17328229560E+03  0.11020900255E+03  0.22023719671E+03  0.00000000000E+00 0. -1.
          4    1    6    6  503    0 -0.10906811768E+03  0.25693198160E+03 -0.27751649257E+03  0.39360551458E+03  0.00000000000E+00 0. -1.
         -4    1    6    6    0  503 -0.82952221499E+02  0.63284597535E+02 -0.12621682242E+03  0.16375804591E+03  0.00000000000E+00 0.  1.
<mgrwt>
<rscale>  0 0.15717649E+04</rscale>
<asrwt>0</asrwt>
<pdfrwt beam="1">  1        2 0.24363163E+00 0.15717649E+04</pdfrwt>
<pdfrwt beam="2">  1       -1 0.60000490E-01 0.15717649E+04</pdfrwt>
<totfact> 0.35124119E+01</totfact>
</mgrwt>
</event>
<event>
12    7  0.1625631E-007  0.1670173E+04  0.7818608E-02  0.8778561E-01
         -1   -1    0    0    0  501 -0.00000000000E+00  0.00000000000E+00  0.22570535286E+03  0.22570535286E+03  0.00000000000E+00 0.  1.
          2   -1    0    0  501    0  0.00000000000E+00 -0.00000000000E+00 -0.30897354283E+04  0.30897354283E+04  0.00000000000E+00 0. -1.
         24    2    1    2    0    0  0.63233715379E+02  0.58162268648E+02 -0.21774099874E+04  0.21805705602E+04  0.79952249400E+02 0.  0.
        254    2    1    2    0    0 -0.63233715379E+02 -0.58162268648E+02 -0.68662008798E+03  0.11348702210E+04  0.89950092884E+03 0.  0.
         23    2    4    4    0    0 -0.63021753643E+02 -0.41554403910E+03 -0.62643391429E+03  0.75938444625E+03  0.87159040614E+02 0.  0.
         23    2    4    4    0    0 -0.21196173513E+00  0.35738177045E+03 -0.60186173690E+02  0.37548577473E+03  0.98211082573E+02 0.  0.
          2    1    3    3  502    0  0.73001330870E+02  0.25965323720E+02 -0.11485078752E+04  0.11511184699E+04  0.00000000000E+00 0. -1.
         -1    1    3    3    0  502 -0.97676154914E+01  0.32196944928E+02 -0.10289021122E+04  0.10294520902E+04  0.00000000000E+00 0.  1.
         13    1    5    5    0    0 -0.63868778453E+02 -0.14944032639E+03 -0.25747650524E+03  0.30447624335E+03  0.00000000000E+00 0. -1.
        -13    1    5    5    0    0  0.84702480997E+00 -0.26610371271E+03 -0.36895740905E+03  0.45490820290E+03  0.00000000000E+00 0.  1.
          4    1    6    6  503    0 -0.70190573969E+01  0.36086283788E+03 -0.52651042274E+02  0.36475113047E+03  0.00000000000E+00 0. -1.
         -4    1    6    6    0  503  0.68070956617E+01 -0.34810674283E+01 -0.75351314158E+01  0.10734644253E+02  0.00000000000E+00 0.  1.
<mgrwt>
<rscale>  0 0.16701734E+04</rscale>
<asrwt>0</asrwt>
<pdfrwt beam="1">  1        2 0.47534388E+00 0.16701734E+04</pdfrwt>
<pdfrwt beam="2">  1       -1 0.34723903E-01 0.16701734E+04</pdfrwt>
<totfact> 0.13136643E+01</totfact>
</mgrwt>
</event>
<event>
12    7  0.1625631E-007  0.1211093E+04  0.7818608E-02  0.9103202E-01
         -1   -1    0    0    0  501 -0.00000000000E+00  0.00000000000E+00  0.23267375319E+03  0.23267375319E+03  0.00000000000E+00 0.  1.
          2   -1    0    0  501    0  0.00000000000E+00 -0.00000000000E+00 -0.15759697564E+04  0.15759697564E+04  0.00000000000E+00 0. -1.
         24    2    1    2    0    0  0.36371806708E+02 -0.88899015413E+02  0.59886088231E+02  0.13896388619E+03  0.80614358758E+02 0.  0.
        254    2    1    2    0    0 -0.36371806708E+02  0.88899015413E+02 -0.14031820914E+04  0.16696796234E+04  0.89982449389E+03 0.  0.
         23    2    4    4    0    0 -0.13077134529E+03 -0.35737938951E+03 -0.37970587954E+03  0.54523942993E+03  0.91040146100E+02 0.  0.
         23    2    4    4    0    0  0.94399538580E+02  0.44627840492E+03 -0.10234762119E+04  0.11244401935E+04  0.93736357904E+02 0.  0.
          4    1    3    3  502    0  0.24549929687E+02  0.93575483598E+01  0.15464667417E+02  0.30486369040E+02  0.00000000000E+00 0. -1.
         -3    1    3    3    0  502  0.11821877021E+02 -0.98256563773E+02  0.44421420814E+02  0.10847751715E+03  0.00000000000E+00 0.  1.
         13    1    5    5    0    0 -0.12591308158E+03 -0.34088202412E+03 -0.32371999676E+03  0.48667164986E+03  0.00000000000E+00 0. -1.
        -13    1    5    5    0    0 -0.48582637116E+01 -0.16497365387E+02 -0.55985882787E+02  0.58567780071E+02  0.00000000000E+00 0.  1.
          2    1    6    6  503    0  0.26500685650E+02  0.32942531758E+03 -0.71909203145E+03  0.79140171588E+03  0.00000000000E+00 0. -1.
         -2    1    6    6    0  503  0.67898852929E+02  0.11685308734E+03 -0.30438418045E+03  0.33303847759E+03  0.00000000000E+00 0.  1.
<mgrwt>
<rscale>  0 0.12110934E+04</rscale>
<asrwt>0</asrwt>
<pdfrwt beam="1">  1        2 0.24245689E+00 0.12110934E+04</pdfrwt>
<pdfrwt beam="2">  1       -1 0.35795961E-01 0.12110934E+04</pdfrwt>
<totfact> 0.96270321E+01</totfact>
</mgrwt>
</event>
<event>
12    7  0.1625631E-007  0.1371431E+04  0.7818608E-02  0.8974762E-01
         -1   -1    0    0    0  501 -0.00000000000E+00  0.00000000000E+00  0.15882418536E+03  0.15882418536E+03  0.00000000000E+00 0.  1.
          2   -1    0    0  501    0  0.00000000000E+00 -0.00000000000E+00 -0.29605426696E+04  0.29605426696E+04  0.00000000000E+00 0. -1.
         24    2    1    2    0    0  0.33394416435E+03  0.17958272403E+03 -0.65487395095E+03  0.76092285722E+03  0.79843868460E+02 0.  0.
        254    2    1    2    0    0 -0.33394416435E+03 -0.17958272403E+03 -0.21468445333E+04  0.23584439977E+04  0.89974884313E+03 0.  0.
         23    2    4    4    0    0  0.10973078597E+03  0.12674840065E+03 -0.59367791700E+02  0.20058755952E+03  0.92762233085E+02 0.  0.
         23    2    4    4    0    0 -0.44367495032E+03 -0.30633112468E+03 -0.20874767416E+04  0.21578564382E+04  0.89994676662E+02 0.  0.
          2    1    3    3  502    0  0.17446404949E+03  0.99466807483E+02 -0.42358245092E+03  0.46877867174E+03  0.00000000000E+00 0. -1.
         -1    1    3    3    0  502  0.15948011486E+03  0.80115916548E+02 -0.23129150003E+03  0.29214418547E+03  0.00000000000E+00 0.  1.
         13    1    5    5    0    0  0.89209086191E+02  0.35314241641E+02 -0.15764939984E+02  0.97231116698E+02  0.00000000000E+00 0.  1.
        -13    1    5    5    0    0  0.20521699779E+02  0.91434159009E+02 -0.43602851717E+02  0.10335644282E+03  0.00000000000E+00 0. -1.
          3    1    6    6  503    0 -0.23542324091E+03 -0.17513075908E+03 -0.96067938021E+03  0.10044897992E+04  0.00000000000E+00 0. -1.
         -3    1    6    6    0  503 -0.20825170941E+03 -0.13120036560E+03 -0.11267973614E+04  0.11533666390E+04  0.00000000000E+00 0.  1.
<mgrwt>
<rscale>  0 0.13714310E+04</rscale>
<asrwt>0</asrwt>
<pdfrwt beam="1">  1        2 0.45546808E+00 0.13714310E+04</pdfrwt>
<pdfrwt beam="2">  1       -1 0.24434491E-01 0.13714310E+04</pdfrwt>
<totfact> 0.30095397E+01</totfact>
</mgrwt>
</event>
<event>
12    7  0.1625631E-007  0.1413108E+04  0.7818608E-02  0.8944385E-01
         -1   -1    0    0    0  501 -0.00000000000E+00  0.00000000000E+00  0.21587255870E+03  0.21587255870E+03  0.00000000000E+00 0.  1.
          2   -1    0    0  501    0  0.00000000000E+00 -0.00000000000E+00 -0.23125614127E+04  0.23125614127E+04  0.00000000000E+00 0. -1.
         24    2    1    2    0    0  0.42058743774E+02 -0.28216877207E+03 -0.84255462621E+02  0.30790807501E+03  0.79499973689E+02 0.  0.
        254    2    1    2    0    0 -0.42058743774E+02  0.28216877207E+03 -0.20124333914E+04  0.22205258964E+04  0.89412468253E+03 0.  0.
         23    2    4    4    0    0  0.30015087860E+03 -0.16132989377E+03 -0.56611620193E+03  0.66684952791E+03  0.89904695319E+02 0.  0.
         23    2    4    4    0    0 -0.34220962237E+03  0.44349866584E+03 -0.14463171895E+04  0.15536763685E+04  0.90985455997E+02 0.  0.
          2    1    3    3  502    0  0.34907237688E+02 -0.20080009898E+03 -0.96169517644E+02  0.22536142331E+03  0.00000000000E+00 0. -1.
         -1    1    3    3    0  502  0.71515060862E+01 -0.81368673092E+02  0.11914055023E+02  0.82546651701E+02  0.00000000000E+00 0.  1.
         13    1    5    5    0    0  0.93120286991E+02 -0.46067210106E+02 -0.25817467090E+03  0.27829433410E+03  0.00000000000E+00 0.  1.
        -13    1    5    5    0    0  0.20703059161E+03 -0.11526268366E+03 -0.30794153103E+03  0.38855519381E+03  0.00000000000E+00 0. -1.
          3    1    6    6  503    0 -0.65213353787E+02  0.84236320011E+02 -0.38509510014E+03  0.39955822514E+03  0.00000000000E+00 0. -1.
         -3    1    6    6    0  503 -0.27699626859E+03  0.35926234583E+03 -0.10612220894E+04  0.11541181434E+04  0.00000000000E+00 0.  1.
<mgrwt>
<rscale>  0 0.14131080E+04</rscale>
<asrwt>0</asrwt>
<pdfrwt beam="1">  1        2 0.35577867E+00 0.14131080E+04</pdfrwt>
<pdfrwt beam="2">  1       -1 0.33211164E-01 0.14131080E+04</pdfrwt>
<totfact> 0.42188678E+01</totfact>
</mgrwt>
</event>
<event>
12    7  0.1625631E-007  0.1718861E+04  0.7818608E-02  0.8750680E-01
         -1   -1    0    0    0  501 -0.00000000000E+00  0.00000000000E+00  0.57504244373E+03  0.57504244373E+03  0.00000000000E+00 0.  1.
          2   -1    0    0  501    0  0.00000000000E+00 -0.00000000000E+00 -0.12844630213E+04  0.12844630213E+04  0.00000000000E+00 0. -1.
         24    2    1    2    0    0  0.39768749620E+03  0.48037280802E+03 -0.24268339204E+03  0.67420246462E+03  0.82099666297E+02 0.  0.
        254    2    1    2    0    0 -0.39768749620E+03 -0.48037280802E+03 -0.46673718556E+03  0.11853030004E+04  0.89341268356E+03 0.  0.
         23    2    4    4    0    0  0.48195185590E+02  0.21024061839E+03  0.34436428716E+01  0.23425938970E+03  0.91332959272E+02 0.  0.
         23    2    4    4    0    0 -0.44588268179E+03 -0.69061342642E+03 -0.47018082843E+03  0.95104361074E+03  0.87496671013E+02 0.  0.
          4    1    3    3  502    0  0.15652453810E+03  0.21852309379E+03 -0.14327847094E+03  0.30459972715E+03  0.00000000000E+00 0. -1.
         -3    1    3    3    0  502  0.24116295811E+03  0.26184971423E+03 -0.99404921102E+02  0.36960273747E+03  0.00000000000E+00 0.  1.
         13    1    5    5    0    0 -0.20221730030E+02  0.11023911693E+02 -0.45227468625E+01  0.23471263997E+02  0.00000000000E+00 0.  1.
        -13    1    5    5    0    0  0.68416915620E+02  0.19921670670E+03  0.79663897342E+01  0.21078812570E+03  0.00000000000E+00 0. -1.
          3    1    6    6  503    0 -0.34659380199E+03 -0.54627481404E+03 -0.32760430129E+03  0.72516757667E+03  0.00000000000E+00 0. -1.
         -3    1    6    6    0  503 -0.99288879805E+02 -0.14433861238E+03 -0.14257652714E+03  0.22587603407E+03  0.00000000000E+00 0.  1.
<mgrwt>
<rscale>  0 0.17188610E+04</rscale>
<asrwt>0</asrwt>
<pdfrwt beam="1">  1        2 0.19760969E+00 0.17188610E+04</pdfrwt>
<pdfrwt beam="2">  1       -1 0.88468069E-01 0.17188610E+04</pdfrwt>
<totfact> 0.22941515E+01</totfact>
</mgrwt>
</event>
<event>
12    7  0.1625631E-007  0.2661540E+04  0.7818608E-02  0.8347593E-01
          2   -1    0    0  501    0  0.00000000000E+00  0.00000000000E+00  0.32821239671E+04  0.32821239671E+04  0.00000000000E+00 0. -1.
         -1   -1    0    0    0  501 -0.00000000000E+00 -0.00000000000E+00 -0.53957387340E+03  0.53957387340E+03  0.00000000000E+00 0.  1.
         24    2    1    2    0    0 -0.12657725337E+03 -0.24738577248E+03 -0.42631991398E+03  0.51426147661E+03  0.74126080211E+02 0.  0.
        254    2    1    2    0    0  0.12657725337E+03  0.24738577248E+03  0.31688700077E+04  0.33074363639E+04  0.90563604948E+03 0.  0.
         23    2    4    4    0    0  0.47133174965E+03  0.46546298349E+02  0.11392455768E+04  0.12370366000E+04  0.89771316896E+02 0.  0.
         23    2    4    4    0    0 -0.34475449628E+03  0.20083947413E+03  0.20296244309E+04  0.20703997640E+04  0.89373904758E+02 0.  0.
          2    1    3    3  502    0 -0.93337663202E+02 -0.11037947463E+03 -0.24658407837E+03  0.28583081621E+03  0.00000000000E+00 0. -1.
         -1    1    3    3    0  502 -0.33239590171E+02 -0.13700629784E+03 -0.17973583562E+03  0.22843066040E+03  0.00000000000E+00 0.  1.
         13    1    5    5    0    0  0.33416933954E+03  0.51279414982E+01  0.71508737684E+03  0.78933224931E+03  0.00000000000E+00 0. -1.
        -13    1    5    5    0    0  0.13716241011E+03  0.41418356850E+02  0.42415819994E+03  0.44770435067E+03  0.00000000000E+00 0.  1.
          2    1    6    6  503    0 -0.16652790270E+03  0.13657631034E+03  0.93349169624E+03  0.95801428897E+03  0.00000000000E+00 0. -1.
         -2    1    6    6    0  503 -0.17822659358E+03  0.64263163790E+02  0.10961327347E+04  0.11123854750E+04  0.00000000000E+00 0.  1.
<mgrwt>
<rscale>  0 0.26615397E+04</rscale>
<asrwt>0</asrwt>
<pdfrwt beam="1">  1        2 0.50494213E+00 0.26615397E+04</pdfrwt>
<pdfrwt beam="2">  1       -1 0.83011367E-01 0.26615397E+04</pdfrwt>
<totfact> 0.16506536E+00</totfact>
</mgrwt>
</event>
<event>
12    7  0.1625631E-007  0.1459531E+04  0.7818608E-02  0.8911819E-01
          2   -1    0    0  501    0  0.00000000000E+00  0.00000000000E+00  0.28248843967E+03  0.28248843967E+03  0.00000000000E+00 0. -1.
         -1   -1    0    0    0  501 -0.00000000000E+00 -0.00000000000E+00 -0.18852374866E+04  0.18852374866E+04  0.00000000000E+00 0.  1.
         24    2    1    2    0    0  0.21628320624E+02 -0.34576897389E+03 -0.94170423982E+03  0.10065652938E+04  0.79641998306E+02 0.  0.
        254    2    1    2    0    0 -0.21628320624E+02  0.34576897389E+03 -0.66104480707E+03  0.11611606324E+04  0.88954472047E+03 0.  0.
         23    2    4    4    0    0 -0.10808713147E+02  0.28261511407E+03 -0.87230517980E+03  0.92149671452E+03  0.90839072983E+02 0.  0.
         23    2    4    4    0    0 -0.10819607476E+02  0.63153859827E+02  0.21126037273E+03  0.23966391788E+03  0.93286518482E+02 0.  0.
          4    1    3    3  502    0  0.19881573672E+02 -0.70342069618E+02 -0.12665967282E+03  0.14623938064E+03  0.00000000000E+00 0. -1.
         -3    1    3    3    0  502  0.17467469521E+01 -0.27542690428E+03 -0.81504456700E+03  0.86032591319E+03  0.00000000000E+00 0.  1.
         13    1    5    5    0    0 -0.29849066257E+02  0.21376849746E+03 -0.74366559082E+03  0.77435550507E+03  0.00000000000E+00 0. -1.
        -13    1    5    5    0    0  0.19040353110E+02  0.68846616603E+02 -0.12863958898E+03  0.14714120945E+03  0.00000000000E+00 0.  1.
          1    1    6    6  503    0  0.20690169807E+01  0.25362787731E+01  0.15775636240E+03  0.15779031472E+03  0.00000000000E+00 0. -1.
         -1    1    6    6    0  503 -0.12888624457E+02  0.60617581054E+02  0.53504010330E+02  0.81873603161E+02  0.00000000000E+00 0.  1.
<mgrwt>
<rscale>  0 0.14595312E+04</rscale>
<asrwt>0</asrwt>
<pdfrwt beam="1">  1        2 0.43459762E-01 0.14595312E+04</pdfrwt>
<pdfrwt beam="2">  1       -1 0.29003652E+00 0.14595312E+04</pdfrwt>
<totfact> 0.50062276E+00</totfact>
</mgrwt>
</event>
<event>
12    7  0.1625631E-007  0.1467486E+04  0.7818608E-02  0.8906367E-01
         -1   -1    0    0    0  501 -0.00000000000E+00  0.00000000000E+00  0.87874863408E+03  0.87874863408E+03  0.00000000000E+00 0.  1.
          2   -1    0    0  501    0  0.00000000000E+00 -0.00000000000E+00 -0.61266563828E+03  0.61266563828E+03  0.00000000000E+00 0. -1.
         24    2    1    2    0    0 -0.23698820692E+03 -0.23191752578E+03 -0.24536043738E+03  0.42014457522E+03  0.79815856026E+02 0.  0.
        254    2    1    2    0    0  0.23698820692E+03  0.23191752578E+03  0.51144343318E+03  0.10712696971E+04  0.88096267213E+03 0.  0.
         23    2    4    4    0    0  0.16762905425E+03  0.35228330159E+03 -0.12008114049E+03  0.41822917964E+03  0.91066689814E+02 0.  0.
         23    2    4    4    0    0  0.69359152666E+02 -0.12036577582E+03  0.63152457367E+03  0.65304051749E+03  0.91323700592E+02 0.  0.
          2    1    3    3  502    0 -0.19739616344E+03 -0.14751395203E+03 -0.19456572218E+03  0.31397680110E+03  0.00000000000E+00 0. -1.
         -1    1    3    3    0  502 -0.39592043484E+02 -0.84403573752E+02 -0.50794715202E+02  0.10616777412E+03  0.00000000000E+00 0.  1.
         13    1    5    5    0    0  0.75038644904E+02  0.94505780242E+02 -0.39869958059E+01  0.12073954143E+03  0.00000000000E+00 0.  1.
        -13    1    5    5    0    0  0.92590409349E+02  0.25777752135E+03 -0.11609414469E+03  0.29748963822E+03  0.00000000000E+00 0. -1.
          2    1    6    6  503    0  0.70561762416E+02 -0.11708703566E+03  0.42414145015E+03  0.44562799056E+03  0.00000000000E+00 0. -1.
         -2    1    6    6    0  503 -0.12026097500E+01 -0.32787401566E+01  0.20738312352E+03  0.20741252694E+03  0.00000000000E+00 0.  1.
<mgrwt>
<rscale>  0 0.14674864E+04</rscale>
<asrwt>0</asrwt>
<pdfrwt beam="1">  1        2 0.94256253E-01 0.14674864E+04</pdfrwt>
<pdfrwt beam="2">  1       -1 0.13519210E+00 0.14674864E+04</pdfrwt>
<totfact> 0.24564635E+01</totfact>
</mgrwt>
</event>
<event>
12    7  0.1625631E-007  0.1399945E+04  0.7818608E-02  0.8953858E-01
         -3   -1    0    0    0  501 -0.00000000000E+00  0.00000000000E+00  0.14501983794E+04  0.14501983794E+04  0.00000000000E+00 0.  1.
          4   -1    0    0  501    0  0.00000000000E+00 -0.00000000000E+00 -0.33785823480E+03  0.33785823480E+03  0.00000000000E+00 0. -1.
         24    2    1    2    0    0  0.13539577498E+02 -0.24128385625E+03  0.73718992606E+03  0.77989965311E+03  0.79957878941E+02 0.  0.
        254    2    1    2    0    0 -0.13539577498E+02  0.24128385625E+03  0.37515021855E+03  0.10081569611E+04  0.90401413278E+03 0.  0.
         23    2    4    4    0    0 -0.19419550641E+03  0.53440050634E+03  0.20089407894E+03  0.60972427658E+03  0.90052576924E+02 0.  0.
         23    2    4    4    0    0  0.18065592892E+03 -0.29311665009E+03  0.17425613961E+03  0.39843268451E+03  0.99143666886E+02 0.  0.
          4    1    3    3  502    0  0.31851514912E+02 -0.51496294828E+02  0.12862400262E+03  0.14216371349E+03  0.00000000000E+00 0. -1.
         -3    1    3    3    0  502 -0.18311937414E+02 -0.18978756142E+03  0.60856592343E+03  0.63773593962E+03  0.00000000000E+00 0.  1.
         13    1    5    5    0    0 -0.75643360801E+02  0.10206727214E+03  0.53160597236E+02  0.13771599462E+03  0.00000000000E+00 0.  1.
        -13    1    5    5    0    0 -0.11855214561E+03  0.43233323420E+03  0.14773348170E+03  0.47200828196E+03  0.00000000000E+00 0. -1.
          2    1    6    6  503    0  0.16216010111E+03 -0.24727393437E+03  0.18368267652E+03  0.34810863630E+03  0.00000000000E+00 0. -1.
         -2    1    6    6    0  503  0.18495827803E+02 -0.45842715718E+02 -0.94265369082E+01  0.50324048213E+02  0.00000000000E+00 0.  1.
<mgrwt>
<rscale>  0 0.13999449E+04</rscale>
<asrwt>0</asrwt>
<pdfrwt beam="1">  1        4 0.51978191E-01 0.13999449E+04</pdfrwt>
<pdfrwt beam="2">  1       -3 0.22310744E+00 0.13999449E+04</pdfrwt>
<totfact> 0.83720503E-01</totfact>
</mgrwt>
</event>
<event>
12    7  0.1625631E-007  0.2489239E+04  0.7818608E-02  0.8406829E-01
          2   -1    0    0  501    0  0.00000000000E+00  0.00000000000E+00  0.10198451839E+04  0.10198451839E+04  0.00000000000E+00 0. -1.
         -1   -1    0    0    0  501 -0.00000000000E+00 -0.00000000000E+00 -0.15189341191E+04  0.15189341191E+04  0.00000000000E+00 0.  1.
         24    2    1    2    0    0 -0.88079871511E+03  0.45554684508E+03 -0.64895691977E+03  0.11877205116E+04  0.78775791153E+02 0.  0.
        254    2    1    2    0    0  0.88079871511E+03 -0.45554684508E+03  0.14986798451E+03  0.13510587914E+04  0.90530113245E+03 0.  0.
         23    2    4    4    0    0  0.86515585509E+03 -0.24728087288E+03 -0.20744208665E+03  0.92791172621E+03  0.91353536504E+02 0.  0.
         23    2    4    4    0    0  0.15642860018E+02 -0.20826597220E+03  0.35731007117E+03  0.42314706518E+03  0.88110938989E+02 0.  0.
          4    1    3    3  502    0 -0.62348118320E+03  0.33246993808E+03 -0.50277004141E+03  0.86720398988E+03  0.00000000000E+00 0. -1.
         -3    1    3    3    0  502 -0.25731753191E+03  0.12307690700E+03 -0.14618687836E+03  0.32051652168E+03  0.00000000000E+00 0.  1.
         13    1    5    5    0    0  0.13213129419E+03 -0.41157367010E+02  0.11727503538E+01  0.13839791583E+03  0.00000000000E+00 0.  1.
        -13    1    5    5    0    0  0.73302456091E+03 -0.20612350587E+03 -0.20861483701E+03  0.78951381038E+03  0.00000000000E+00 0. -1.
          3    1    6    6  503    0  0.15212256387E+02 -0.19454457871E+03  0.35969037101E+03  0.40921408682E+03  0.00000000000E+00 0. -1.
         -3    1    6    6    0  503  0.43060363082E+00 -0.13721393491E+02 -0.23802998455E+01  0.13932978367E+02  0.00000000000E+00 0.  1.
<mgrwt>
<rscale>  0 0.24892390E+04</rscale>
<asrwt>0</asrwt>
<pdfrwt beam="1">  1        2 0.15689926E+00 0.24892390E+04</pdfrwt>
<pdfrwt beam="2">  1       -1 0.23368217E+00 0.24892390E+04</pdfrwt>
<totfact> 0.22214262E+00</totfact>
</mgrwt>
</event>
<event>
12    7  0.1625631E-007  0.2468901E+04  0.7818608E-02  0.8414149E-01
          2   -1    0    0  501    0  0.00000000000E+00  0.00000000000E+00  0.78247880857E+03  0.78247880857E+03  0.00000000000E+00 0. -1.
         -1   -1    0    0    0  501 -0.00000000000E+00 -0.00000000000E+00 -0.19474879900E+04  0.19474879900E+04  0.00000000000E+00 0.  1.
         24    2    1    2    0    0  0.30229978796E+03 -0.63621318152E+03 -0.13950135384E+04  0.15647801215E+04  0.79509005946E+02 0.  0.
        254    2    1    2    0    0 -0.30229978796E+03  0.63621318152E+03  0.23000435703E+03  0.11651866771E+04  0.89922500747E+03 0.  0.
         23    2    4    4    0    0 -0.11147482448E+03  0.67590691251E+03  0.47565663420E+03  0.83905376144E+03  0.92115091335E+02 0.  0.
         23    2    4    4    0    0 -0.19082496348E+03 -0.39693730996E+02 -0.24565227717E+03  0.32613291564E+03  0.89598428649E+02 0.  0.
          4    1    3    3  502    0  0.10393395823E+03 -0.30745582455E+03 -0.66319230142E+03  0.73834638239E+03  0.00000000000E+00 0. -1.
         -3    1    3    3    0  502  0.19836582972E+03 -0.32875735697E+03 -0.73182123700E+03  0.82643373908E+03  0.00000000000E+00 0.  1.
         13    1    5    5    0    0 -0.87174598663E+02  0.51110581834E+03  0.30983999125E+03  0.60401108298E+03  0.00000000000E+00 0.  1.
        -13    1    5    5    0    0 -0.24300225819E+02  0.16480109418E+03  0.16581664295E+03  0.23504267845E+03  0.00000000000E+00 0. -1.
          3    1    6    6  503    0 -0.58521407462E+02  0.27067775898E+02 -0.55653646009E+02  0.85174808115E+02  0.00000000000E+00 0. -1.
         -3    1    6    6    0  503 -0.13230355601E+03 -0.66761506894E+02 -0.18999863116E+03  0.24095810752E+03  0.00000000000E+00 0.  1.
<mgrwt>
<rscale>  0 0.24689010E+04</rscale>
<asrwt>0</asrwt>
<pdfrwt beam="1">  1        2 0.12038136E+00 0.24689010E+04</pdfrwt>
<pdfrwt beam="2">  1       -1 0.29961353E+00 0.24689010E+04</pdfrwt>
<totfact> 0.12019081E+00</totfact>
</mgrwt>
</event>
<event>
12    7  0.1625631E-007  0.1568466E+04  0.7818608E-02  0.8840158E-01
          2   -1    0    0  501    0  0.00000000000E+00  0.00000000000E+00  0.20534765450E+04  0.20534765450E+04  0.00000000000E+00 0. -1.
         -1   -1    0    0    0  501 -0.00000000000E+00 -0.00000000000E+00 -0.29950252272E+03  0.29950252272E+03  0.00000000000E+00 0.  1.
         24    2    1    2    0    0 -0.46004401314E+03 -0.95624037204E+02  0.22603492134E+03  0.52791693731E+03  0.82583633486E+02 0.  0.
        254    2    1    2    0    0  0.46004401314E+03  0.95624037204E+02  0.15279391009E+04  0.18250621304E+04  0.88060742280E+03 0.  0.
         23    2    4    4    0    0  0.48251027126E+03 -0.53756317217E+02  0.28547407767E+03  0.57024328639E+03  0.89308751781E+02 0.  0.
         23    2    4    4    0    0 -0.22466258118E+02  0.14938035442E+03  0.12424650233E+04  0.12548188440E+04  0.89620166048E+02 0.  0.
          2    1    3    3  502    0 -0.65680764363E+02  0.12546764493E+02  0.18726377162E+02  0.69441063559E+02  0.00000000000E+00 0. -1.
         -1    1    3    3    0  502 -0.39436324878E+03 -0.10817080170E+03  0.20730854417E+03  0.45847587375E+03  0.00000000000E+00 0.  1.
         13    1    5    5    0    0  0.17057098491E+03 -0.57214928448E+02  0.12794944199E+03  0.22076926561E+03  0.00000000000E+00 0.  1.
        -13    1    5    5    0    0  0.31193928635E+03  0.34586112308E+01  0.15752463567E+03  0.34947402079E+03  0.00000000000E+00 0. -1.
          1    1    6    6  503    0 -0.29141817166E+02  0.36749332930E+02  0.65106414314E+03  0.65275131364E+03  0.00000000000E+00 0. -1.
         -1    1    6    6    0  503  0.66755590478E+01  0.11263102149E+03  0.59140088012E+03  0.60206753035E+03  0.00000000000E+00 0.  1.
<mgrwt>
<rscale>  0 0.15684660E+04</rscale>
<asrwt>0</asrwt>
<pdfrwt beam="1">  1        2 0.31591946E+00 0.15684660E+04</pdfrwt>
<pdfrwt beam="2">  1       -1 0.46077312E-01 0.15684660E+04</pdfrwt>
<totfact> 0.32011018E+01</totfact>
</mgrwt>
</event>
<event>
12    7  0.1625631E-007  0.3755538E+04  0.7818608E-02  0.8055764E-01
          2   -1    0    0  501    0  0.00000000000E+00  0.00000000000E+00  0.13475817119E+04  0.13475817119E+04  0.00000000000E+00 0. -1.
         -1   -1    0    0    0  501 -0.00000000000E+00 -0.00000000000E+00 -0.26165511740E+04  0.26165511740E+04  0.00000000000E+00 0.  1.
         24    2    1    2    0    0 -0.14994833364E+04  0.88804041078E+02 -0.15828202393E+04  0.21835330637E+04  0.78487556160E+02 0.  0.
        254    2    1    2    0    0  0.14994833364E+04 -0.88804041078E+02  0.31385077717E+03  0.17805998222E+04  0.90315944478E+03 0.  0.
         23    2    4    4    0    0  0.45895950798E+02 -0.16574715639E+02  0.30565766330E+03  0.32254111816E+03  0.90691820339E+02 0.  0.
         23    2    4    4    0    0  0.14535873856E+04 -0.72229325439E+02  0.81931138697E+01  0.14580587041E+04  0.87947110880E+02 0.  0.
          4    1    3    3  502    0 -0.49894636486E+03 -0.23428909934E-01 -0.49328419540E+03  0.70162438169E+03  0.00000000000E+00 0. -1.
         -3    1    3    3    0  502 -0.10005369716E+04  0.88827469988E+02 -0.10895360439E+04  0.14819086820E+04  0.00000000000E+00 0.  1.
         13    1    5    5    0    0  0.31987158805E+02  0.21985237741E+02  0.25223489227E+03  0.25520378110E+03  0.00000000000E+00 0. -1.
        -13    1    5    5    0    0  0.13908791993E+02 -0.38559953379E+02  0.53422771027E+02  0.67337337069E+02  0.00000000000E+00 0.  1.
          3    1    6    6  503    0  0.10200993213E+04 -0.90571343063E+02  0.37132131700E+00  0.10241122650E+04  0.00000000000E+00 0. -1.
         -3    1    6    6    0  503  0.43348806435E+03  0.18342017624E+02  0.78217925527E+01  0.43394643908E+03  0.00000000000E+00 0.  1.
<mgrwt>
<rscale>  0 0.37555380E+04</rscale>
<asrwt>0</asrwt>
<pdfrwt beam="1">  1        2 0.20732026E+00 0.37555380E+04</pdfrwt>
<pdfrwt beam="2">  1       -1 0.40254633E+00 0.37555380E+04</pdfrwt>
<totfact> 0.97636720E-02</totfact>
</mgrwt>
</event>
<event>
12    7  0.1625631E-007  0.3918000E+04  0.7818608E-02  0.8021296E-01
          2   -1    0    0  501    0  0.00000000000E+00  0.00000000000E+00  0.48859104173E+04  0.48859104173E+04  0.00000000000E+00 0. -1.
         -1   -1    0    0    0  501 -0.00000000000E+00 -0.00000000000E+00 -0.78545881925E+03  0.78545881925E+03  0.00000000000E+00 0.  1.
         24    2    1    2    0    0 -0.11263196138E+04 -0.12038100110E+04  0.31751148021E+04  0.35786918054E+04  0.89031549152E+02 0.  0.
        254    2    1    2    0    0  0.11263196138E+04  0.12038100110E+04  0.92533679595E+03  0.20926774311E+04  0.89738298951E+03 0.  0.
         23    2    4    4    0    0 -0.13059194472E+03  0.21073220327E+03  0.20194540564E+03  0.33261851317E+03  0.91601369659E+02 0.  0.
         23    2    4    4    0    0  0.12569115585E+04  0.99307780769E+03  0.72339139031E+03  0.17600589180E+04  0.92098279144E+02 0.  0.
          2    1    3    3  502    0 -0.89295456798E+03 -0.98448182653E+03  0.26187547100E+04  0.29367411459E+04  0.00000000000E+00 0. -1.
         -1    1    3    3    0  502 -0.23336504584E+03 -0.21932818443E+03  0.55636009215E+03  0.64195065951E+03  0.00000000000E+00 0.  1.
         13    1    5    5    0    0 -0.10033750268E+03  0.21129376389E+03  0.18206558224E+03  0.29641279551E+03  0.00000000000E+00 0. -1.
        -13    1    5    5    0    0 -0.30254442032E+02 -0.56156061962E+00  0.19879823403E+02  0.36205717663E+02  0.00000000000E+00 0.  1.
          3    1    6    6  503    0  0.51051616390E+03  0.36657839687E+03  0.24595396538E+03  0.67490727344E+03  0.00000000000E+00 0. -1.
         -3    1    6    6    0  503  0.74639539464E+03  0.62649941082E+03  0.47743742493E+03  0.10851516445E+04  0.00000000000E+00 0.  1.
<mgrwt>
<rscale>  0 0.39180002E+04</rscale>
<asrwt>0</asrwt>
<pdfrwt beam="1">  1        2 0.75167850E+00 0.39180002E+04</pdfrwt>
<pdfrwt beam="2">  1       -1 0.12083982E+00 0.39180002E+04</pdfrwt>
<totfact> 0.25684196E-02</totfact>
</mgrwt>
</event>
<event>
12    7  0.1625631E-007  0.1277692E+04  0.7818608E-02  0.9047445E-01
          2   -1    0    0  501    0  0.00000000000E+00  0.00000000000E+00  0.10231874552E+04  0.10231874552E+04  0.00000000000E+00 0. -1.
         -1   -1    0    0    0  501 -0.00000000000E+00 -0.00000000000E+00 -0.39887509509E+03  0.39887509509E+03  0.00000000000E+00 0.  1.
         24    2    1    2    0    0 -0.18294880685E+02 -0.26475567239E+03  0.35415437555E+03  0.44953033440E+03  0.78879218447E+02 0.  0.
        254    2    1    2    0    0  0.18294880685E+02  0.26475567239E+03  0.27015798459E+03  0.97253221591E+03  0.89576967220E+03 0.  0.
         23    2    4    4    0    0 -0.86580454489E+02  0.10110832786E+03  0.57641455535E+03  0.59864993678E+03  0.91700262393E+02 0.  0.
         23    2    4    4    0    0  0.10487533517E+03  0.16364734453E+03 -0.30625657076E+03  0.37388227914E+03  0.90639848957E+02 0.  0.
          2    1    3    3  502    0 -0.26665887920E+02 -0.20133096233E+03  0.31414391104E+03  0.37407435466E+03  0.00000000000E+00 0. -1.
         -1    1    3    3    0  502  0.83710072350E+01 -0.63424710061E+02  0.40010464515E+02  0.75455979745E+02  0.00000000000E+00 0.  1.
         13    1    5    5    0    0 -0.58824829197E+02  0.11161117300E+03  0.51782965538E+03  0.53297745399E+03  0.00000000000E+00 0. -1.
        -13    1    5    5    0    0 -0.27755625292E+02 -0.10502845139E+02  0.58584899969E+02  0.65672482789E+02  0.00000000000E+00 0.  1.
          2    1    6    6  503    0  0.23740570231E+02  0.27796429813E+02 -0.13862641671E+03  0.14336505710E+03  0.00000000000E+00 0. -1.
         -2    1    6    6    0  503  0.81134764943E+02  0.13585091471E+03 -0.16763015405E+03  0.23051722204E+03  0.00000000000E+00 0.  1.
<mgrwt>
<rscale>  0 0.12776917E+04</rscale>
<asrwt>0</asrwt>
<pdfrwt beam="1">  1        2 0.15741345E+00 0.12776917E+04</pdfrwt>
<pdfrwt beam="2">  1       -1 0.61365400E-01 0.12776917E+04</pdfrwt>
<totfact> 0.73416597E+01</totfact>
</mgrwt>
</event>
<event>
12    7  0.1625631E-007  0.2202456E+04  0.7818608E-02  0.8517406E-01
         -3   -1    0    0    0  501 -0.00000000000E+00  0.00000000000E+00  0.11115078271E+04  0.11115078271E+04  0.00000000000E+00 0.  1.
          4   -1    0    0  501    0  0.00000000000E+00 -0.00000000000E+00 -0.10910434145E+04  0.10910434145E+04  0.00000000000E+00 0. -1.
         24    2    1    2    0    0 -0.57787021742E+03 -0.13506740722E+02 -0.68496636098E+03  0.89961049471E+03  0.77483587237E+02 0.  0.
        254    2    1    2    0    0  0.57787021742E+03  0.13506740722E+02  0.70543077361E+03  0.13029407468E+04  0.93054048444E+03 0.  0.
         23    2    4    4    0    0 -0.15941603790E+02 -0.27937424345E+03  0.53805543237E+03  0.61367904993E+03  0.93777531393E+02 0.  0.
         23    2    4    4    0    0  0.59381182121E+03  0.29288098417E+03  0.16737534124E+03  0.68926169690E+03  0.93141999448E+02 0.  0.
          4    1    3    3  502    0 -0.28669763786E+03  0.29120783730E+02 -0.36169219969E+03  0.46245519017E+03  0.00000000000E+00 0. -1.
         -1    1    3    3    0  502 -0.29117257955E+03 -0.42627524452E+02 -0.32327416129E+03  0.43715530453E+03  0.00000000000E+00 0.  1.
         13    1    5    5    0    0 -0.15417250437E+02 -0.17690007017E+01  0.48130057821E+02  0.50569985568E+02  0.00000000000E+00 0.  1.
        -13    1    5    5    0    0 -0.52435335361E+00 -0.27760524274E+03  0.48992537455E+03  0.56310906436E+03  0.00000000000E+00 0. -1.
          1    1    6    6  503    0  0.38574199110E+03  0.23794750486E+03  0.12141046016E+03  0.46920826784E+03  0.00000000000E+00 0. -1.
         -1    1    6    6    0  503  0.20806983010E+03  0.54933479305E+02  0.45964881080E+02  0.22005342906E+03  0.00000000000E+00 0.  1.
<mgrwt>
<rscale>  0 0.22024562E+04</rscale>
<asrwt>0</asrwt>
<pdfrwt beam="1">  1        4 0.16785283E+00 0.22024562E+04</pdfrwt>
<pdfrwt beam="2">  1       -3 0.17100120E+00 0.22024562E+04</pdfrwt>
<totfact> 0.10407496E-01</totfact>
</mgrwt>
</event>
<event>
12    7  0.1625631E-007  0.2655558E+04  0.7818608E-02  0.8349571E-01
         -1   -1    0    0    0  501 -0.00000000000E+00  0.00000000000E+00  0.74184457894E+03  0.74184457894E+03  0.00000000000E+00 0.  1.
          2   -1    0    0  501    0  0.00000000000E+00 -0.00000000000E+00 -0.23765043965E+04  0.23765043965E+04  0.00000000000E+00 0. -1.
         24    2    1    2    0    0 -0.37568905941E+03 -0.18752157467E+03 -0.20401880853E+04  0.20845363583E+04  0.81349832069E+02 0.  0.
        254    2    1    2    0    0  0.37568905941E+03  0.18752157467E+03  0.40552826776E+03  0.10338126172E+04  0.85323428267E+03 0.  0.
         23    2    4    4    0    0  0.32587767353E+02 -0.30568393082E+03  0.24980622766E+03  0.40644553802E+03  0.91050512648E+02 0.  0.
         23    2    4    4    0    0  0.34310129206E+03  0.49320550549E+03  0.15572204010E+03  0.62736707915E+03  0.91487326819E+02 0.  0.
          4    1    3    3  502    0 -0.29665153988E+03 -0.15988767572E+03 -0.14632839560E+04  0.15015878731E+04  0.00000000000E+00 0. -1.
         -3    1    3    3    0  502 -0.79037519532E+02 -0.27633898943E+02 -0.57690412937E+03  0.58294848516E+03  0.00000000000E+00 0.  1.
         13    1    5    5    0    0  0.47130943482E+02 -0.10093237431E+03  0.58357700517E+02  0.12575488550E+03  0.00000000000E+00 0.  1.
        -13    1    5    5    0    0 -0.14543176129E+02 -0.20475155651E+03  0.19144852715E+03  0.28069065252E+03  0.00000000000E+00 0. -1.
          1    1    6    6  503    0  0.29681011702E+03  0.37545443105E+03  0.99124544248E+02  0.48876165012E+03  0.00000000000E+00 0. -1.
         -1    1    6    6    0  503  0.46291175041E+02  0.11775107444E+03  0.56597495851E+02  0.13860542903E+03  0.00000000000E+00 0.  1.
<mgrwt>
<rscale>  0 0.26555579E+04</rscale>
<asrwt>0</asrwt>
<pdfrwt beam="1">  1        2 0.36561607E+00 0.26555579E+04</pdfrwt>
<pdfrwt beam="2">  1       -1 0.11412993E+00 0.26555579E+04</pdfrwt>
<totfact> 0.28696012E+00</totfact>
</mgrwt>
</event>
<event>
12    7  0.1625631E-007  0.1212261E+04  0.7818608E-02  0.9102192E-01
         -1   -1    0    0    0  501 -0.00000000000E+00  0.00000000000E+00  0.42237410845E+03  0.42237410845E+03  0.00000000000E+00 0.  1.
          2   -1    0    0  501    0  0.00000000000E+00 -0.00000000000E+00 -0.86983075430E+03  0.86983075430E+03  0.00000000000E+00 0. -1.
         24    2    1    2    0    0 -0.22121013750E+03  0.13440335598E+03 -0.14709949160E+03  0.30795668048E+03  0.78745600465E+02 0.  0.
        254    2    1    2    0    0  0.22121013750E+03 -0.13440335598E+03 -0.30035715424E+03  0.98424818227E+03  0.90085064088E+03 0.  0.
         23    2    4    4    0    0  0.55549890115E+03 -0.12953683727E+03 -0.26513534255E+03  0.63615026799E+03  0.95034689496E+02 0.  0.
         23    2    4    4    0    0 -0.33428876365E+03 -0.48665187053E+01 -0.35221811691E+02  0.34809791428E+03  0.90326748006E+02 0.  0.
          4    1    3    3  502    0 -0.11324757911E+03  0.47046140902E+02 -0.10868834453E+03  0.16386430296E+03  0.00000000000E+00 0. -1.
         -3    1    3    3    0  502 -0.10796255838E+03  0.87357215076E+02 -0.38411147070E+02  0.14409237752E+03  0.00000000000E+00 0.  1.
         13    1    5    5    0    0  0.50026485969E+03 -0.90378402813E+02 -0.21527551422E+03  0.55206587701E+03  0.00000000000E+00 0. -1.
        -13    1    5    5    0    0  0.55234041451E+02 -0.39158434459E+02 -0.49859828334E+02  0.84084390976E+02  0.00000000000E+00 0.  1.
          1    1    6    6  503    0 -0.29484438163E+03  0.15411708183E+02 -0.53629423102E+02  0.30007806510E+03  0.00000000000E+00 0. -1.
         -1    1    6    6    0  503 -0.39444382015E+02 -0.20278226888E+02  0.18407611411E+02  0.48019849189E+02  0.00000000000E+00 0.  1.
<mgrwt>
<rscale>  0 0.12122607E+04</rscale>
<asrwt>0</asrwt>
<pdfrwt beam="1">  1        2 0.13382012E+00 0.12122607E+04</pdfrwt>
<pdfrwt beam="2">  1       -1 0.64980632E-01 0.12122607E+04</pdfrwt>
<totfact> 0.83092719E+01</totfact>
</mgrwt>
</event>
<event>
12    7  0.1625631E-007  0.2435912E+04  0.7818608E-02  0.8426180E-01
         -1   -1    0    0    0  501 -0.00000000000E+00  0.00000000000E+00  0.45794909972E+03  0.45794909972E+03  0.00000000000E+00 0.  1.
          2   -1    0    0  501    0  0.00000000000E+00 -0.00000000000E+00 -0.32392614883E+04  0.32392614883E+04  0.00000000000E+00 0. -1.
         24    2    1    2    0    0 -0.37440620841E+02  0.71560864175E+03 -0.52018371827E+02  0.72213603296E+03  0.72643037241E+02 0.  0.
        254    2    1    2    0    0  0.37440620841E+02 -0.71560864175E+03 -0.27292940168E+04  0.29750745551E+04  0.94261617327E+03 0.  0.
         23    2    4    4    0    0 -0.70912117226E+02 -0.72857965304E+03 -0.10146728107E+04  0.12545245442E+04  0.91728295764E+02 0.  0.
         23    2    4    4    0    0  0.10835273807E+03  0.12971011296E+02 -0.17146212061E+04  0.17205500109E+04  0.91966821953E+02 0.  0.
          2    1    3    3  502    0  0.96014074826E+01  0.38278205173E+03 -0.48682840386E+02  0.38598485087E+03  0.00000000000E+00 0. -1.
         -1    1    3    3    0  502 -0.47042028323E+02  0.33282659001E+03 -0.33355314405E+01  0.33615118209E+03  0.00000000000E+00 0.  1.
         13    1    5    5    0    0 -0.18183397667E+02 -0.19710352355E+03 -0.34737210837E+03  0.39980972552E+03  0.00000000000E+00 0.  1.
        -13    1    5    5    0    0 -0.52728719559E+02 -0.53147612949E+03 -0.66730070229E+03  0.85471481873E+03  0.00000000000E+00 0. -1.
          1    1    6    6  503    0  0.23356298611E+02  0.24679456103E+02 -0.10318100670E+04  0.10323694139E+04  0.00000000000E+00 0. -1.
         -1    1    6    6    0  503  0.84996439456E+02 -0.11708444807E+02 -0.68281113912E+03  0.68818059701E+03  0.00000000000E+00 0.  1.
<mgrwt>
<rscale>  0 0.24359121E+04</rscale>
<asrwt>0</asrwt>
<pdfrwt beam="1">  1        2 0.49834792E+00 0.24359121E+04</pdfrwt>
<pdfrwt beam="2">  1       -1 0.70453708E-01 0.24359121E+04</pdfrwt>
<totfact> 0.25395495E+00</totfact>
</mgrwt>
</event>
<event>
12    7  0.1625631E-007  0.1643148E+04  0.7818608E-02  0.8794470E-01
          2   -1    0    0  501    0  0.00000000000E+00  0.00000000000E+00  0.24247899408E+04  0.24247899408E+04  0.00000000000E+00 0. -1.
         -1   -1    0    0    0  501 -0.00000000000E+00 -0.00000000000E+00 -0.27836802051E+03  0.27836802051E+03  0.00000000000E+00 0.  1.
         24    2    1    2    0    0  0.36672043759E+03  0.20519161897E+03  0.12158021312E+03  0.44816603341E+03  0.97383599394E+02 0.  0.
        254    2    1    2    0    0 -0.36672043759E+03 -0.20519161897E+03  0.20248417072E+04  0.22549919279E+04  0.89912022332E+03 0.  0.
         23    2    4    4    0    0 -0.15235137597E+03 -0.10649019033E+03 -0.76622794415E+01  0.20679369216E+03  0.90298494970E+02 0.  0.
         23    2    4    4    0    0 -0.21436906162E+03 -0.98701428647E+02  0.20325039866E+04  0.20481982358E+04  0.91364603204E+02 0.  0.
          2    1    3    3  502    0  0.19890485273E+03  0.16410849440E+03  0.60052131009E+02  0.26476592835E+03  0.00000000000E+00 0. -1.
         -1    1    3    3    0  502  0.16781558486E+03  0.41083124572E+02  0.61528082114E+02  0.18340010506E+03  0.00000000000E+00 0.  1.
         13    1    5    5    0    0 -0.15312381113E+03 -0.11147054734E+03 -0.22866479028E+02  0.19077594272E+03  0.00000000000E+00 0.  1.
        -13    1    5    5    0    0  0.77243515593E+00  0.49803570086E+01  0.15204199586E+02  0.16017749438E+02  0.00000000000E+00 0. -1.
          4    1    6    6  503    0 -0.31464588477E+01 -0.17214651109E+02  0.53564046622E+02  0.56350257378E+02  0.00000000000E+00 0. -1.
         -4    1    6    6    0  503 -0.21122260277E+03 -0.81486777538E+02  0.19789399400E+04  0.19918479784E+04  0.00000000000E+00 0.  1.
<mgrwt>
<rscale>  0 0.16431482E+04</rscale>
<asrwt>0</asrwt>
<pdfrwt beam="1">  1        2 0.37304459E+00 0.16431482E+04</pdfrwt>
<pdfrwt beam="2">  1       -1 0.42825851E-01 0.16431482E+04</pdfrwt>
<totfact> 0.22523539E+01</totfact>
</mgrwt>
</event>
<event>
12    7  0.1778824E-007  0.1936276E+04  0.7818608E-02  0.8637007E-01
          2   -1    0    0  501    0  0.00000000000E+00  0.00000000000E+00  0.20312445486E+04  0.20312445486E+04  0.00000000000E+00 0. -1.
         -1   -1    0    0    0  501 -0.00000000000E+00 -0.00000000000E+00 -0.46143708422E+03  0.46143708422E+03  0.00000000000E+00 0.  1.
         24    2    1    2    0    0 -0.18870546698E+03 -0.98033728007E+02  0.15654683017E+04  0.15814913992E+04  0.72136516702E+02 0.  0.
        254    2    1    2    0    0  0.18870546698E+03  0.98033728007E+02  0.43391626756E+01  0.91119023361E+03  0.88601831155E+03 0.  0.
         23    2    4    4    0    0  0.44761228206E+03  0.19678588964E+02 -0.25641544892E+03  0.52488220006E+03  0.94912799870E+02 0.  0.
         23    2    4    4    0    0 -0.25890681508E+03  0.78355139043E+02  0.26075461160E+03  0.38630803355E+03  0.89825734654E+02 0.  0.
          4    1    3    3  502    0 -0.17546278703E+03 -0.62114965834E+02  0.12769338248E+04  0.12904283985E+04  0.00000000000E+00 0. -1.
         -3    1    3    3    0  502 -0.13242679951E+02 -0.35918762174E+02  0.28853447692E+03  0.29106300078E+03  0.00000000000E+00 0.  1.
         13    1    5    5    0    0  0.66995975611E+02  0.53100340311E+01 -0.27615651945E+01  0.67262793963E+02  0.00000000000E+00 0. -1.
        -13    1    5    5    0    0  0.38061630645E+03  0.14368554933E+02 -0.25365388373E+03  0.45761940610E+03  0.00000000000E+00 0.  1.
          4    1    6    6  503    0 -0.44773323720E+01 -0.10984810692E+02  0.10225882763E+01  0.11906227693E+02  0.00000000000E+00 0. -1.
         -4    1    6    6    0  503 -0.25442948271E+03  0.89339949735E+02  0.25973202332E+03  0.37440180585E+03  0.00000000000E+00 0.  1.
<mgrwt>
<rscale>  0 0.19362764E+04</rscale>
<asrwt>0</asrwt>
<pdfrwt beam="1">  1        2 0.31249916E+00 0.19362764E+04</pdfrwt>
<pdfrwt beam="2">  1       -1 0.70990321E-01 0.19362764E+04</pdfrwt>
<totfact> 0.13679585E+01</totfact>
</mgrwt>
</event>
<event>
12    7  0.1625631E-007  0.1831348E+04  0.7818608E-02  0.8689805E-01
          2   -1    0    0  501    0  0.00000000000E+00  0.00000000000E+00  0.14981839250E+04  0.14981839250E+04  0.00000000000E+00 0. -1.
         -1   -1    0    0    0  501 -0.00000000000E+00 -0.00000000000E+00 -0.55964996370E+03  0.55964996370E+03  0.00000000000E+00 0.  1.
         24    2    1    2    0    0  0.68936890427E+03  0.75118811416E+00  0.42032062825E+03  0.81292098591E+03  0.94557116802E+02 0.  0.
        254    2    1    2    0    0 -0.68936890427E+03 -0.75118811416E+00  0.51821333303E+03  0.12449129028E+04  0.89779342085E+03 0.  0.
         23    2    4    4    0    0 -0.13425660998E+03 -0.22897143909E+03 -0.16963493418E+03  0.32731238608E+03  0.88907985815E+02 0.  0.
         23    2    4    4    0    0 -0.55511229430E+03  0.22822025098E+03  0.68784826721E+03  0.91760051671E+03  0.92851102931E+02 0.  0.
          2    1    3    3  502    0  0.67987383262E+03  0.11159593816E+02  0.41917230937E+03  0.79878557183E+03  0.00000000000E+00 0. -1.
         -3    1    3    3    0  502  0.94950716485E+01 -0.10408405702E+02  0.11483188729E+01  0.14135414076E+02  0.00000000000E+00 0.  1.
         13    1    5    5    0    0 -0.14274192131E+03 -0.22867431698E+03 -0.17020044933E+03  0.31880306194E+03  0.00000000000E+00 0.  1.
        -13    1    5    5    0    0  0.84853113299E+01 -0.29712210988E+00  0.56551515607E+00  0.85093241392E+01  0.00000000000E+00 0. -1.
          2    1    6    6  503    0 -0.21405683993E+02  0.13132412593E+02  0.64759714686E+02  0.69458507139E+02  0.00000000000E+00 0. -1.
         -2    1    6    6    0  503 -0.53370661030E+03  0.21508783839E+03  0.62308855253E+03  0.84814200957E+03  0.00000000000E+00 0.  1.
<mgrwt>
<rscale>  0 0.18313477E+04</rscale>
<asrwt>0</asrwt>
<pdfrwt beam="1">  1        2 0.23048983E+00 0.18313477E+04</pdfrwt>
<pdfrwt beam="2">  1       -1 0.86099995E-01 0.18313477E+04</pdfrwt>
<totfact> 0.18176674E+01</totfact>
</mgrwt>
</event>
<event>
12    7  0.1625631E-007  0.1549384E+04  0.7818608E-02  0.8852261E-01
          2   -1    0    0  501    0  0.00000000000E+00  0.00000000000E+00  0.10586917900E+04  0.10586917900E+04  0.00000000000E+00 0. -1.
         -1   -1    0    0    0  501 -0.00000000000E+00 -0.00000000000E+00 -0.56687686565E+03  0.56687686565E+03  0.00000000000E+00 0.  1.
         24    2    1    2    0    0 -0.29752792568E+02  0.50263208252E+03  0.26050834164E+03  0.57251341632E+03  0.79892282200E+02 0.  0.
        254    2    1    2    0    0  0.29752792568E+02 -0.50263208252E+03  0.23130658273E+03  0.10530552394E+04  0.89548777930E+03 0.  0.
         23    2    4    4    0    0  0.63296151344E+02  0.23419417345E+03  0.16800805196E+03  0.30727811759E+03  0.85672763291E+02 0.  0.
         23    2    4    4    0    0 -0.33543358776E+02 -0.73682625598E+03  0.63298530773E+02  0.74577712177E+03  0.90214870987E+02 0.  0.
          2    1    3    3  502    0 -0.46361978953E+02  0.44445491344E+03  0.21023527548E+03  0.49385065985E+03  0.00000000000E+00 0. -1.
         -1    1    3    3    0  502  0.16609186385E+02  0.58177169079E+02  0.50273066162E+02  0.78662756472E+02  0.00000000000E+00 0.  1.
         13    1    5    5    0    0 -0.12516234791E+02  0.84233473146E+02  0.83196560410E+02  0.11905293695E+03  0.00000000000E+00 0. -1.
        -13    1    5    5    0    0  0.75812386135E+02  0.14996070031E+03  0.84811491552E+02  0.18822518064E+03  0.00000000000E+00 0.  1.
          3    1    6    6  503    0 -0.13217646749E+02 -0.69944901629E+03  0.68474598168E+02  0.70291706706E+03  0.00000000000E+00 0. -1.
         -3    1    6    6    0  503 -0.20325712028E+02 -0.37377239688E+02 -0.51760673952E+01  0.42860054711E+02  0.00000000000E+00 0.  1.
<mgrwt>
<rscale>  0 0.15493842E+04</rscale>
<asrwt>0</asrwt>
<pdfrwt beam="1">  1        2 0.16287566E+00 0.15493842E+04</pdfrwt>
<pdfrwt beam="2">  1       -1 0.87211826E-01 0.15493842E+04</pdfrwt>
<totfact> 0.32865113E+01</totfact>
</mgrwt>
</event>
<event>
12    7  0.1625631E-007  0.1122166E+04  0.7818608E-02  0.9183853E-01
         -1   -1    0    0    0  501 -0.00000000000E+00  0.00000000000E+00  0.10066749378E+04  0.10066749378E+04  0.00000000000E+00 0.  1.
          2   -1    0    0  501    0  0.00000000000E+00 -0.00000000000E+00 -0.31272676034E+03  0.31272676034E+03  0.00000000000E+00 0. -1.
         24    2    1    2    0    0 -0.23247843318E+01  0.78646029475E+02  0.33644841780E+03  0.35502038057E+03  0.81555687758E+02 0.  0.
        254    2    1    2    0    0  0.23247843318E+01 -0.78646029475E+02  0.35749975964E+03  0.96438131755E+03  0.89220773641E+03 0.  0.
         23    2    4    4    0    0 -0.62727865817E+01 -0.44257485150E+03  0.83671116086E+01  0.45119590985E+03  0.87154423142E+02 0.  0.
         23    2    4    4    0    0  0.85975709134E+01  0.36392882203E+03  0.34913264803E+03  0.51318540770E+03  0.94591495514E+02 0.  0.
          4    1    3    3  502    0  0.21290759451E+02  0.27287041230E+02  0.24555943730E+03  0.24798652444E+03  0.00000000000E+00 0. -1.
         -3    1    3    3    0  502 -0.23615543782E+02  0.51358988245E+02  0.90888980501E+02  0.10703385613E+03  0.00000000000E+00 0.  1.
         13    1    5    5    0    0 -0.34030000016E+02 -0.38382084770E+03  0.16669936082E+02  0.38568688181E+03  0.00000000000E+00 0.  1.
        -13    1    5    5    0    0  0.27757213434E+02 -0.58754003801E+02 -0.83028244733E+01  0.65509028038E+02  0.00000000000E+00 0. -1.
          4    1    6    6  503    0  0.43827322134E+02  0.92755852991E+02  0.99949771379E+02  0.14322862573E+03  0.00000000000E+00 0. -1.
         -4    1    6    6    0  503 -0.35229751221E+02  0.27117296904E+03  0.24918287666E+03  0.36995678197E+03  0.00000000000E+00 0.  1.
<mgrwt>
<rscale>  0 0.11221661E+04</rscale>
<asrwt>0</asrwt>
<pdfrwt beam="1">  1        2 0.48111810E-01 0.11221661E+04</pdfrwt>
<pdfrwt beam="2">  1       -1 0.15487307E+00 0.11221661E+04</pdfrwt>
<totfact> 0.38089336E+01</totfact>
</mgrwt>
</event>
<event>
12    7  0.1625631E-007  0.4064677E+04  0.7818608E-02  0.7991625E-01
         -1   -1    0    0    0  501 -0.00000000000E+00  0.00000000000E+00  0.18657305778E+04  0.18657305778E+04  0.00000000000E+00 0.  1.
          2   -1    0    0  501    0  0.00000000000E+00 -0.00000000000E+00 -0.22138239660E+04  0.22138239660E+04  0.00000000000E+00 0. -1.
         24    2    1    2    0    0  0.13329227865E+04 -0.13823929399E+04 -0.37519375565E+03  0.19584346922E+04  0.83682102825E+02 0.  0.
        254    2    1    2    0    0 -0.13329227865E+04  0.13823929399E+04  0.27100367507E+02  0.21211198516E+04  0.90040079967E+03 0.  0.
         23    2    4    4    0    0 -0.44354676802E+03  0.10345900637E+04  0.19681178562E+03  0.11467701253E+04  0.96106741937E+02 0.  0.
         23    2    4    4    0    0 -0.88937601847E+03  0.34780287613E+03 -0.16971141811E+03  0.97434972635E+03  0.92730151104E+02 0.  0.
          4    1    3    3  502    0  0.81774016813E+03 -0.89913016792E+03 -0.21759592341E+03  0.12346991647E+04  0.00000000000E+00 0. -1.
         -3    1    3    3    0  502  0.51518261835E+03 -0.48326277195E+03 -0.15759783224E+03  0.72373552748E+03  0.00000000000E+00 0.  1.
         13    1    5    5    0    0 -0.99736044900E+02  0.15983284458E+03  0.54793928408E+02  0.19620446338E+03  0.00000000000E+00 0.  1.
        -13    1    5    5    0    0 -0.34381072312E+03  0.87475721916E+03  0.14201785721E+03  0.95056566189E+03  0.00000000000E+00 0. -1.
          1    1    6    6  503    0 -0.61732628783E+03  0.26053702943E+03 -0.15787727119E+03  0.68840142512E+03  0.00000000000E+00 0. -1.
         -1    1    6    6    0  503 -0.27204973064E+03  0.87265846708E+02 -0.11834146919E+02  0.28594830123E+03  0.00000000000E+00 0.  1.
<mgrwt>
<rscale>  0 0.40646766E+04</rscale>
<asrwt>0</asrwt>
<pdfrwt beam="1">  1        2 0.34058830E+00 0.40646766E+04</pdfrwt>
<pdfrwt beam="2">  1       -1 0.28703547E+00 0.40646766E+04</pdfrwt>
<totfact> 0.18141946E-01</totfact>
</mgrwt>
</event>
<event>
12    7  0.1625631E-007  0.1927053E+04  0.7818608E-02  0.8641506E-01
          2   -1    0    0  501    0  0.00000000000E+00  0.00000000000E+00  0.10954668210E+04  0.10954668210E+04  0.00000000000E+00 0. -1.
         -1   -1    0    0    0  501 -0.00000000000E+00 -0.00000000000E+00 -0.84747758802E+03  0.84747758802E+03  0.00000000000E+00 0.  1.
         24    2    1    2    0    0  0.50685742913E+03 -0.33515362169E+03 -0.33874504367E+03  0.69976752234E+03  0.75458446238E+02 0.  0.
        254    2    1    2    0    0 -0.50685742913E+03  0.33515362169E+03  0.58673427665E+03  0.12431768867E+04  0.91213993255E+03 0.  0.
         23    2    4    4    0    0  0.25746424837E+03  0.90752194609E+02  0.13496760240E+03  0.31799460319E+03  0.91545147030E+02 0.  0.
         23    2    4    4    0    0 -0.76432167750E+03  0.24440142708E+03  0.45176667425E+03  0.92518228348E+03  0.89159662638E+02 0.  0.
          4    1    3    3  502    0  0.28161856665E+02 -0.42274823936E+02 -0.21903814775E+02  0.55317519931E+02  0.00000000000E+00 0. -1.
         -3    1    3    3    0  502  0.47869557247E+03 -0.29287879775E+03 -0.31684122890E+03  0.64445000241E+03  0.00000000000E+00 0.  1.
         13    1    5    5    0    0  0.32918404763E+02  0.48826568440E+02  0.36248344251E+02  0.69149097020E+02  0.00000000000E+00 0. -1.
        -13    1    5    5    0    0  0.22454584361E+03  0.41925626169E+02  0.98719258149E+02  0.24884550617E+03  0.00000000000E+00 0.  1.
          3    1    6    6  503    0 -0.15276069290E+03  0.50338828494E+02  0.51190927162E+02  0.16879081128E+03  0.00000000000E+00 0. -1.
         -3    1    6    6    0  503 -0.61156098460E+03  0.19406259859E+03  0.40057574709E+03  0.75639147220E+03  0.00000000000E+00 0.  1.
<mgrwt>
<rscale>  0 0.19270533E+04</rscale>
<asrwt>0</asrwt>
<pdfrwt beam="1">  1        2 0.16853336E+00 0.19270533E+04</pdfrwt>
<pdfrwt beam="2">  1       -1 0.13038117E+00 0.19270533E+04</pdfrwt>
<totfact> 0.11766044E+01</totfact>
</mgrwt>
</event>
<event>
12    7  0.1625631E-007  0.1907268E+04  0.7818608E-02  0.8651247E-01
          2   -1    0    0  501    0  0.00000000000E+00  0.00000000000E+00  0.13270334858E+04  0.13270334858E+04  0.00000000000E+00 0. -1.
         -1   -1    0    0    0  501 -0.00000000000E+00 -0.00000000000E+00 -0.68530162247E+03  0.68530162247E+03  0.00000000000E+00 0.  1.
         24    2    1    2    0    0 -0.69550679406E+03 -0.23213164469E+03  0.21333561771E+03  0.76777132673E+03  0.79661303747E+02 0.  0.
        254    2    1    2    0    0  0.69550679406E+03  0.23213164469E+03  0.42839624561E+03  0.12445637815E+04  0.90983562361E+03 0.  0.
         23    2    4    4    0    0  0.77788618015E+03 -0.64443988795E+02  0.11199281683E+03  0.79379999256E+03  0.91192654367E+02 0.  0.
         23    2    4    4    0    0 -0.82379386083E+02  0.29657563348E+03  0.31640342878E+03  0.45076378897E+03  0.91287425623E+02 0.  0.
          2    1    3    3  502    0 -0.69105700568E+03 -0.22102656825E+03  0.21075039070E+03  0.75553177045E+03  0.00000000000E+00 0. -1.
         -1    1    3    3    0  502 -0.44497883786E+01 -0.11105076438E+02  0.25852270075E+01  0.12239556282E+02  0.00000000000E+00 0.  1.
         13    1    5    5    0    0  0.66501424937E+01 -0.10720295867E+02 -0.68614096293E-01  0.12615619151E+02  0.00000000000E+00 0. -1.
        -13    1    5    5    0    0  0.77123603765E+03 -0.53723692929E+02  0.11206143093E+03  0.78118437341E+03  0.00000000000E+00 0.  1.
          4    1    6    6  503    0 -0.35080084593E+02  0.23674114499E+03  0.20153426169E+03  0.31287863574E+03  0.00000000000E+00 0.  1.
         -4    1    6    6    0  503 -0.47299301490E+02  0.59834488496E+02  0.11486916709E+03  0.13788515323E+03  0.00000000000E+00 0. -1.
<mgrwt>
<rscale>  0 0.19072684E+04</rscale>
<asrwt>0</asrwt>
<pdfrwt beam="1">  1        2 0.20415900E+00 0.19072684E+04</pdfrwt>
<pdfrwt beam="2">  1       -1 0.10543102E+00 0.19072684E+04</pdfrwt>
<totfact> 0.14344775E+01</totfact>
</mgrwt>
</event>
<event>
12    7  0.1625631E-007  0.1892449E+04  0.7818608E-02  0.8658624E-01
         -1   -1    0    0    0  501 -0.00000000000E+00  0.00000000000E+00  0.50182047713E+03  0.50182047713E+03  0.00000000000E+00 0.  1.
          2   -1    0    0  501    0  0.00000000000E+00 -0.00000000000E+00 -0.17841855472E+04  0.17841855472E+04  0.00000000000E+00 0. -1.
         24    2    1    2    0    0  0.28273199531E+03 -0.66656023127E+03 -0.39457442381E+03  0.82826045077E+03  0.78015865634E+02 0.  0.
        254    2    1    2    0    0 -0.28273199531E+03  0.66656023127E+03 -0.88779064626E+03  0.14577455736E+04  0.90144883526E+03 0.  0.
         23    2    4    4    0    0 -0.51004417196E+03  0.86937693330E+02 -0.36432707734E+03  0.63943643020E+03  0.91877685561E+02 0.  0.
         23    2    4    4    0    0  0.22731217665E+03  0.57962253794E+03 -0.52346356892E+03  0.81830914337E+03  0.89345587444E+02 0.  0.
          4    1    3    3  502    0  0.25533018062E+03 -0.64293566206E+03 -0.36987397221E+03  0.78445300816E+03  0.00000000000E+00 0. -1.
         -3    1    3    3    0  502  0.27401814693E+02 -0.23624569212E+02 -0.24700451597E+02  0.43807442609E+02  0.00000000000E+00 0.  1.
         13    1    5    5    0    0 -0.89866239238E+01  0.27729406010E+01 -0.29476607866E+02  0.30940572399E+02  0.00000000000E+00 0. -1.
        -13    1    5    5    0    0 -0.50105754804E+03  0.84164752729E+02 -0.33485046947E+03  0.60849585780E+03  0.00000000000E+00 0.  1.
          3    1    6    6  503    0  0.10539940290E+03  0.24684412378E+03 -0.16967066161E+03  0.31753612233E+03  0.00000000000E+00 0. -1.
         -3    1    6    6    0  503  0.12191277375E+03  0.33277841416E+03 -0.35379290731E+03  0.50077302104E+03  0.00000000000E+00 0.  1.
<mgrwt>
<rscale>  0 0.18924490E+04</rscale>
<asrwt>0</asrwt>
<pdfrwt beam="1">  1        2 0.27449008E+00 0.18924490E+04</pdfrwt>
<pdfrwt beam="2">  1       -1 0.77203152E-01 0.18924490E+04</pdfrwt>
<totfact> 0.15808647E+01</totfact>
</mgrwt>
</event>
<event>
12    7  0.1625631E-007  0.2287256E+04  0.7818608E-02  0.8482963E-01
         -1   -1    0    0    0  501 -0.00000000000E+00  0.00000000000E+00  0.76338343474E+03  0.76338343474E+03  0.00000000000E+00 0.  1.
          2   -1    0    0  501    0  0.00000000000E+00 -0.00000000000E+00 -0.17132733345E+04  0.17132733345E+04  0.00000000000E+00 0. -1.
         24    2    1    2    0    0  0.85878426179E+03 -0.37581622098E+03 -0.60039000852E+03  0.11158662841E+04  0.77078929474E+02 0.  0.
        254    2    1    2    0    0 -0.85878426179E+03  0.37581622098E+03 -0.34949989120E+03  0.13607904851E+04  0.92241657085E+03 0.  0.
         23    2    4    4    0    0 -0.85716648926E+03  0.61410380132E+03 -0.25636689391E+03  0.10891809885E+04  0.93452513476E+02 0.  0.
         23    2    4    4    0    0 -0.16177725288E+01 -0.23828758034E+03 -0.93132997292E+02  0.27160949663E+03  0.91183196608E+02 0.  0.
          2    1    3    3  502    0  0.56150423115E+03 -0.20527801826E+03 -0.38347564898E+03  0.71026730161E+03  0.00000000000E+00 0. -1.
         -1    1    3    3    0  502  0.29728003065E+03 -0.17053820273E+03 -0.21691435955E+03  0.40559898248E+03  0.00000000000E+00 0.  1.
         13    1    5    5    0    0 -0.22680423047E+03  0.12153112669E+03 -0.39593370333E+02  0.26034133112E+03  0.00000000000E+00 0.  1.
        -13    1    5    5    0    0 -0.63036225879E+03  0.49257267463E+03 -0.21677352358E+03  0.82883965737E+03  0.00000000000E+00 0. -1.
          2    1    6    6  503    0 -0.23254623788E+02 -0.17118416594E+03 -0.26833389724E+02  0.17482799261E+03  0.00000000000E+00 0. -1.
         -2    1    6    6    0  503  0.21636851260E+02 -0.67103414394E+02 -0.66299607569E+02  0.96781504015E+02  0.00000000000E+00 0.  1.
<mgrwt>
<rscale>  0 0.22872555E+04</rscale>
<asrwt>0</asrwt>
<pdfrwt beam="1">  1        2 0.26358051E+00 0.22872555E+04</pdfrwt>
<pdfrwt beam="2">  1       -1 0.11744361E+00 0.22872555E+04</pdfrwt>
<totfact> 0.65007892E+00</totfact>
</mgrwt>
</event>
<event>
12    7  0.1625631E-007  0.4036281E+04  0.7818608E-02  0.7997267E-01
          2   -1    0    0  501    0  0.00000000000E+00  0.00000000000E+00  0.18710101935E+04  0.18710101935E+04  0.00000000000E+00 0. -1.
         -1   -1    0    0    0  501 -0.00000000000E+00 -0.00000000000E+00 -0.21768402509E+04  0.21768402509E+04  0.00000000000E+00 0.  1.
         24    2    1    2    0    0 -0.35106446758E+03 -0.15686880740E+04 -0.11926105209E+04  0.20031913810E+04  0.80170572549E+02 0.  0.
        254    2    1    2    0    0  0.35106446758E+03  0.15686880740E+04  0.88678046337E+03  0.20446590634E+04  0.90012363672E+03 0.  0.
         23    2    4    4    0    0  0.34346314892E+03  0.14853048331E+04  0.10391140026E+04  0.18470484934E+04  0.87936594364E+02 0.  0.
         23    2    4    4    0    0  0.76013186607E+01  0.83383240838E+02 -0.15233353919E+03  0.19761056997E+03  0.93988750952E+02 0.  0.
          2    1    3    3  502    0 -0.10187669338E+03 -0.43430760044E+03 -0.37593248949E+03  0.58337568436E+03  0.00000000000E+00 0. -1.
         -1    1    3    3    0  502 -0.24918777420E+03 -0.11343804736E+04 -0.81667803137E+03  0.14198156967E+04  0.00000000000E+00 0.  1.
         13    1    5    5    0    0  0.33540083077E+02  0.65881526633E+02  0.57511465436E+02  0.93663660941E+02  0.00000000000E+00 0. -1.
        -13    1    5    5    0    0  0.30992306584E+03  0.14194233065E+04  0.98160253713E+03  0.17533848325E+04  0.00000000000E+00 0.  1.
          1    1    6    6  503    0  0.74701381075E+00 -0.88254684932E+01 -0.79273142889E+02  0.79766397106E+02  0.00000000000E+00 0.  1.
         -1    1    6    6    0  503  0.68543048500E+01  0.92208709331E+02 -0.73060396301E+02  0.11784417287E+03  0.00000000000E+00 0. -1.
<mgrwt>
<rscale>  0 0.40362806E+04</rscale>
<asrwt>0</asrwt>
<pdfrwt beam="1">  1        2 0.28784772E+00 0.40362806E+04</pdfrwt>
<pdfrwt beam="2">  1       -1 0.33489850E+00 0.40362806E+04</pdfrwt>
<totfact> 0.13787173E-01</totfact>
</mgrwt>
</event>
<event>
12    7  0.1625631E-007  0.1393479E+04  0.7818608E-02  0.8958552E-01
         -1   -1    0    0    0  501 -0.00000000000E+00  0.00000000000E+00  0.50774666747E+03  0.50774666747E+03  0.00000000000E+00 0.  1.
          2   -1    0    0  501    0  0.00000000000E+00 -0.00000000000E+00 -0.95607921144E+03  0.95607921144E+03  0.00000000000E+00 0. -1.
         24    2    1    2    0    0 -0.70309327053E+02 -0.28133605214E+03  0.15047934652E+03  0.33699176259E+03  0.82619843984E+02 0.  0.
        254    2    1    2    0    0  0.70309327053E+02  0.28133605214E+03 -0.59881189049E+03  0.11268341163E+04  0.90944272487E+03 0.  0.
         23    2    4    4    0    0  0.40517949011E+03  0.16429358003E+03 -0.61449825883E+03  0.75968491420E+03  0.91379752229E+02 0.  0.
         23    2    4    4    0    0 -0.33487016306E+03  0.11704247211E+03  0.15686368340E+02  0.36714920212E+03  0.93356885556E+02 0.  0.
          4    1    3    3  502    0 -0.45512351738E+02 -0.45501662839E+02  0.29957797827E+02  0.70987640702E+02  0.00000000000E+00 0. -1.
         -3    1    3    3    0  502 -0.24796975315E+02 -0.23583438931E+03  0.12052154869E+03  0.26600412189E+03  0.00000000000E+00 0.  1.
         13    1    5    5    0    0  0.28273365266E+02 -0.88558925353E+01 -0.63011110882E+02  0.69629089543E+02  0.00000000000E+00 0.  1.
        -13    1    5    5    0    0  0.37690612485E+03  0.17314947257E+03 -0.55148714794E+03  0.69005582466E+03  0.00000000000E+00 0. -1.
          3    1    6    6  503    0 -0.27246127587E+03  0.11258602827E+03  0.44710167286E+02  0.29817739631E+03  0.00000000000E+00 0. -1.
         -3    1    6    6    0  503 -0.62408887186E+02  0.44564438468E+01 -0.29023798947E+02  0.68971805811E+02  0.00000000000E+00 0.  1.
<mgrwt>
<rscale>  0 0.13934791E+04</rscale>
<asrwt>0</asrwt>
<pdfrwt beam="1">  1        2 0.14708911E+00 0.13934791E+04</pdfrwt>
<pdfrwt beam="2">  1       -1 0.78114872E-01 0.13934791E+04</pdfrwt>
<totfact> 0.49062995E+01</totfact>
</mgrwt>
</event>
<event>
12    7  0.1625631E-007  0.1778770E+04  0.7818608E-02  0.8717672E-01
          2   -1    0    0  501    0  0.00000000000E+00  0.00000000000E+00  0.11837695251E+04  0.11837695251E+04  0.00000000000E+00 0. -1.
         -1   -1    0    0    0  501 -0.00000000000E+00 -0.00000000000E+00 -0.66820917486E+03  0.66820917486E+03  0.00000000000E+00 0.  1.
         24    2    1    2    0    0  0.17306047021E+03 -0.30207996442E+03  0.77933850050E+03  0.85723371422E+03  0.79239580819E+02 0.  0.
        254    2    1    2    0    0 -0.17306047021E+03  0.30207996442E+03 -0.26377815026E+03  0.99474498574E+03  0.89372056195E+03 0.  0.
         23    2    4    4    0    0 -0.15726022228E+03 -0.12953462083E+02  0.29467634787E+03  0.34694466448E+03  0.92940198626E+02 0.  0.
         23    2    4    4    0    0 -0.15800247925E+02  0.31503342651E+03 -0.55845449814E+03  0.64780032127E+03  0.90984185952E+02 0.  0.
          2    1    3    3  502    0  0.17989839832E+03 -0.27714532953E+03  0.73607785926E+03  0.80683553608E+03  0.00000000000E+00 0. -1.
         -1    1    3    3    0  502 -0.68379281118E+01 -0.24934634893E+02  0.43260641244E+02  0.50398178132E+02  0.00000000000E+00 0.  1.
         13    1    5    5    0    0 -0.11958211902E+02  0.18637923098E+02  0.71947635290E+01  0.23283806208E+02  0.00000000000E+00 0. -1.
        -13    1    5    5    0    0 -0.14530201038E+03 -0.31591385181E+02  0.28748158435E+03  0.32366085827E+03  0.00000000000E+00 0.  1.
          4    1    6    6  503    0 -0.40904589994E+01  0.14662276255E+02 -0.20125837600E+01  0.15354631001E+02  0.00000000000E+00 0. -1.
         -4    1    6    6    0  503 -0.11709788926E+02  0.30037115025E+03 -0.55644191438E+03  0.63244569026E+03  0.00000000000E+00 0.  1.
<mgrwt>
<rscale>  0 0.17787700E+04</rscale>
<asrwt>0</asrwt>
<pdfrwt beam="1">  1        2 0.18211839E+00 0.17787700E+04</pdfrwt>
<pdfrwt beam="2">  1       -1 0.10280141E+00 0.17787700E+04</pdfrwt>
<totfact> 0.18682114E+01</totfact>
</mgrwt>
</event>
<event>
12    7  0.1625631E-007  0.1871134E+04  0.7818608E-02  0.8669360E-01
          2   -1    0    0  501    0  0.00000000000E+00  0.00000000000E+00  0.21628012797E+04  0.21628012797E+04  0.00000000000E+00 0. -1.
         -1   -1    0    0    0  501 -0.00000000000E+00 -0.00000000000E+00 -0.40470009741E+03  0.40470009741E+03  0.00000000000E+00 0.  1.
         24    2    1    2    0    0  0.25724773620E+02 -0.39677945763E+03  0.14867140160E+04  0.15403247682E+04  0.64700263795E+02 0.  0.
        254    2    1    2    0    0 -0.25724773620E+02  0.39677945763E+03  0.27138716625E+03  0.10271766089E+04  0.90738365088E+03 0.  0.
         23    2    4    4    0    0 -0.10744704344E+03 -0.20419200424E+03 -0.14306172133E+03  0.28707725612E+03  0.93313734987E+02 0.  0.
         23    2    4    4    0    0  0.81722269818E+02  0.60097146186E+03  0.41444888758E+03  0.74009935277E+03  0.90188381760E+02 0.  0.
          2    1    3    3  502    0  0.28563168121E+02 -0.39647429054E+03  0.14499558294E+04  0.15034558939E+04  0.00000000000E+00 0. -1.
         -1    1    3    3    0  502 -0.28383945012E+01 -0.30516708886E+00  0.36758186594E+02  0.36868874297E+02  0.00000000000E+00 0.  1.
         13    1    5    5    0    0 -0.54402722540E+02 -0.11131707114E+03 -0.22526730781E+02  0.12593093404E+03  0.00000000000E+00 0.  1.
        -13    1    5    5    0    0 -0.53044320898E+02 -0.92874933094E+02 -0.12053499055E+03  0.16114632209E+03  0.00000000000E+00 0. -1.
          3    1    6    6  503    0  0.29108068616E+02  0.14963994117E+03  0.15242691522E+03  0.21557679869E+03  0.00000000000E+00 0. -1.
         -3    1    6    6    0  503  0.52614201202E+02  0.45133152070E+03  0.26202197236E+03  0.52452255408E+03  0.00000000000E+00 0.  1.
<mgrwt>
<rscale>  0 0.18711343E+04</rscale>
<asrwt>0</asrwt>
<pdfrwt beam="1">  1        2 0.33273865E+00 0.18711343E+04</pdfrwt>
<pdfrwt beam="2">  1       -1 0.62261554E-01 0.18711343E+04</pdfrwt>
<totfact> 0.15156158E+01</totfact>
</mgrwt>
</event>
<event>
12    7  0.1625631E-007  0.1194958E+04  0.7818608E-02  0.9117281E-01
          2   -1    0    0  501    0  0.00000000000E+00  0.00000000000E+00  0.25446363867E+04  0.25446363867E+04  0.00000000000E+00 0. -1.
         -1   -1    0    0    0  501 -0.00000000000E+00 -0.00000000000E+00 -0.14028777296E+03  0.14028777296E+03  0.00000000000E+00 0.  1.
         24    2    1    2    0    0 -0.72822757088E+02 -0.13216943700E+03  0.47978473978E+03  0.51175875584E+03  0.94507743724E+02 0.  0.
        254    2    1    2    0    0  0.72822757088E+02  0.13216943700E+03  0.19245638740E+04  0.21731654039E+04  0.99796285173E+03 0.  0.
         23    2    4    4    0    0  0.52115932575E+03  0.12050228496E+03  0.89523465747E+03  0.10468372004E+04  0.91077925998E+02 0.  0.
         23    2    4    4    0    0 -0.44833656867E+03  0.11667152044E+02  0.10293292165E+04  0.11263282035E+04  0.89189600234E+02 0.  0.
          4    1    3    3  502    0 -0.90608047759E+02 -0.89851129706E+02  0.39820504860E+03  0.41815105472E+03  0.00000000000E+00 0. -1.
         -3    1    3    3    0  502  0.17785290672E+02 -0.42318307294E+02  0.81579691180E+02  0.93607701123E+02  0.00000000000E+00 0.  1.
         13    1    5    5    0    0  0.33813544232E+03  0.37334136654E+02  0.52601769358E+03  0.62643756997E+03  0.00000000000E+00 0. -1.
        -13    1    5    5    0    0  0.18302388344E+03  0.83168148302E+02  0.36921696389E+03  0.42039963038E+03  0.00000000000E+00 0.  1.
          1    1    6    6  503    0 -0.31806263360E+03  0.48595316654E+02  0.73565554981E+03  0.80294111345E+03  0.00000000000E+00 0. -1.
         -1    1    6    6    0  503 -0.13027393506E+03 -0.36928164611E+02  0.29367366671E+03  0.32338709006E+03  0.00000000000E+00 0.  1.
<mgrwt>
<rscale>  0 0.11949584E+04</rscale>
<asrwt>0</asrwt>
<pdfrwt beam="1">  1        2 0.39148249E+00 0.11949584E+04</pdfrwt>
<pdfrwt beam="2">  1       -1 0.21582736E-01 0.11949584E+04</pdfrwt>
<totfact> 0.66808954E+01</totfact>
</mgrwt>
</event>
<event>
12    7  0.1625631E-007  0.1054200E+04  0.7818608E-02  0.9251019E-01
         -1   -1    0    0    0  501 -0.00000000000E+00  0.00000000000E+00  0.67863194348E+03  0.67863194348E+03  0.00000000000E+00 0.  1.
          2   -1    0    0  501    0  0.00000000000E+00 -0.00000000000E+00 -0.40940363691E+03  0.40940363691E+03  0.00000000000E+00 0. -1.
         24    2    1    2    0    0 -0.57658185619E+02  0.12364866242E+02  0.15074672528E+03  0.18001464780E+03  0.78761297321E+02 0.  0.
        254    2    1    2    0    0  0.57658185619E+02 -0.12364866242E+02  0.11848158129E+03  0.90802093259E+03  0.89832442505E+03 0.  0.
         23    2    4    4    0    0 -0.16507272769E+03  0.68180815653E+02  0.44888892344E+03  0.49158523578E+03  0.90868858234E+02 0.  0.
         23    2    4    4    0    0  0.22273091330E+03 -0.80545681895E+02 -0.33040734215E+03  0.41643569681E+03  0.90294026490E+02 0.  0.
          4    1    3    3  502    0  0.12140803494E+02  0.12116303059E+02  0.41472223027E+01  0.17646624667E+02  0.00000000000E+00 0. -1.
         -3    1    3    3    0  502 -0.69798989113E+02  0.24856318284E+00  0.14659950297E+03  0.16236802314E+03  0.00000000000E+00 0.  1.
         13    1    5    5    0    0 -0.16493663643E+03  0.73796236506E+02  0.36273976253E+03  0.40525314789E+03  0.00000000000E+00 0.  1.
        -13    1    5    5    0    0 -0.13609125738E+00 -0.56154208530E+01  0.86149160916E+02  0.86332087886E+02  0.00000000000E+00 0. -1.
          4    1    6    6  503    0  0.10385511273E+03 -0.83386840644E+02 -0.19609674257E+03  0.23705101155E+03  0.00000000000E+00 0. -1.
         -4    1    6    6    0  503  0.11887580058E+03  0.28411587492E+01 -0.13431059958E+03  0.17938468526E+03  0.00000000000E+00 0.  1.
<mgrwt>
<rscale>  0 0.10542000E+04</rscale>
<asrwt>0</asrwt>
<pdfrwt beam="1">  1        2 0.62985175E-01 0.10542000E+04</pdfrwt>
<pdfrwt beam="2">  1       -1 0.10440491E+00 0.10542000E+04</pdfrwt>
<totfact> 0.76176745E+01</totfact>
</mgrwt>
</event>
<event>
12    7  0.1625631E-007  0.2561694E+04  0.7818608E-02  0.8381331E-01
         -1   -1    0    0    0  501 -0.00000000000E+00  0.00000000000E+00  0.76151024971E+03  0.76151024971E+03  0.00000000000E+00 0.  1.
          2   -1    0    0  501    0  0.00000000000E+00 -0.00000000000E+00 -0.21543621607E+04  0.21543621607E+04  0.00000000000E+00 0. -1.
         24    2    1    2    0    0 -0.72904211479E+03  0.55178676818E+03 -0.13610510458E+04  0.16415664098E+04  0.79431012297E+02 0.  0.
        254    2    1    2    0    0  0.72904211479E+03 -0.55178676818E+03 -0.31800865162E+02  0.12743060006E+04  0.88705887376E+03 0.  0.
         23    2    4    4    0    0 -0.99684676738E+01 -0.41976162949E+03  0.21265561763E+03  0.47947972412E+03  0.91537960378E+02 0.  0.
         23    2    4    4    0    0  0.73901058246E+03 -0.13202513869E+03 -0.24445648279E+03  0.79482627650E+03  0.91774504091E+02 0.  0.
          4    1    3    3  502    0 -0.53193200906E+03  0.44533271736E+03 -0.10292899260E+04  0.12412536579E+04  0.00000000000E+00 0. -1.
         -3    1    3    3    0  502 -0.19711010573E+03  0.10645405082E+03 -0.33176111976E+03  0.40031275186E+03  0.00000000000E+00 0.  1.
         13    1    5    5    0    0 -0.18408374514E+02 -0.13935881622E+03  0.11762657262E+03  0.18329145778E+03  0.00000000000E+00 0.  1.
        -13    1    5    5    0    0  0.84399068400E+01 -0.28040281328E+03  0.95029045012E+02  0.29618826634E+03  0.00000000000E+00 0. -1.
          2    1    6    6  503    0  0.39374007636E+03 -0.70901323224E+02 -0.17827650788E+03  0.43799629979E+03  0.00000000000E+00 0.  1.
         -2    1    6    6    0  503  0.34527050611E+03 -0.61123815468E+02 -0.66179974912E+02  0.35682997672E+03  0.00000000000E+00 0. -1.
<mgrwt>
<rscale>  0 0.25616939E+04</rscale>
<asrwt>0</asrwt>
<pdfrwt beam="1">  1        2 0.33144033E+00 0.25616939E+04</pdfrwt>
<pdfrwt beam="2">  1       -1 0.11715542E+00 0.25616939E+04</pdfrwt>
<totfact> 0.36290601E+00</totfact>
</mgrwt>
</event>
<event>
12    7  0.1625631E-007  0.3251315E+04  0.7818608E-02  0.8175395E-01
          2   -1    0    0  501    0  0.00000000000E+00  0.00000000000E+00  0.23014170739E+04  0.23014170739E+04  0.00000000000E+00 0. -1.
         -1   -1    0    0    0  501 -0.00000000000E+00 -0.00000000000E+00 -0.11483197051E+04  0.11483197051E+04  0.00000000000E+00 0.  1.
         24    2    1    2    0    0 -0.39231256689E+03 -0.13662516810E+04  0.10249287907E+04  0.17542208699E+04  0.79114020835E+02 0.  0.
        254    2    1    2    0    0  0.39231256689E+03  0.13662516810E+04  0.12816857806E+03  0.16955159091E+04  0.91531098963E+03 0.  0.
         23    2    4    4    0    0  0.57424150720E+03  0.12996203656E+04  0.25555198450E+03  0.14469266551E+04  0.97588549950E+02 0.  0.
         23    2    4    4    0    0 -0.18192894030E+03  0.66631315411E+02 -0.12738340643E+03  0.24858925408E+03  0.89622617095E+02 0.  0.
          2    1    3    3  502    0 -0.35921900081E+03 -0.11482798878E+04  0.86170632380E+03  0.14799063415E+04  0.00000000000E+00 0. -1.
         -1    1    3    3    0  502 -0.33093566088E+02 -0.21797179325E+03  0.16322246693E+03  0.27431452838E+03  0.00000000000E+00 0.  1.
         13    1    5    5    0    0  0.19491032923E+03  0.34405742023E+03  0.90591161138E+02  0.40567512042E+03  0.00000000000E+00 0.  1.
        -13    1    5    5    0    0  0.37933117797E+03  0.95556294537E+03  0.16496082336E+03  0.10412515346E+04  0.00000000000E+00 0. -1.
          3    1    6    6  503    0 -0.17648435045E+03  0.66079367330E+02 -0.14004946533E+03  0.23479152770E+03  0.00000000000E+00 0. -1.
         -3    1    6    6    0  503 -0.54445898529E+01  0.55194808118E+00  0.12666058893E+02  0.13797726379E+02  0.00000000000E+00 0.  1.
<mgrwt>
<rscale>  0 0.32513152E+04</rscale>
<asrwt>0</asrwt>
<pdfrwt beam="1">  1        2 0.35406417E+00 0.32513152E+04</pdfrwt>
<pdfrwt beam="2">  1       -1 0.17666457E+00 0.32513152E+04</pdfrwt>
<totfact> 0.94881754E-01</totfact>
</mgrwt>
</event>
<event>
12    7  0.1625631E-007  0.1947395E+04  0.7818608E-02  0.8631618E-01
         -1   -1    0    0    0  501 -0.00000000000E+00  0.00000000000E+00  0.44163850097E+03  0.44163850097E+03  0.00000000000E+00 0.  1.
          2   -1    0    0  501    0  0.00000000000E+00 -0.00000000000E+00 -0.21467481812E+04  0.21467481812E+04  0.00000000000E+00 0. -1.
         24    2    1    2    0    0 -0.21958009371E+03  0.66504882188E+03 -0.10391536424E+04  0.12556740926E+04  0.79823438896E+02 0.  0.
        254    2    1    2    0    0  0.21958009371E+03 -0.66504882188E+03 -0.66595603788E+03  0.13327125896E+04  0.91767099169E+03 0.  0.
         23    2    4    4    0    0 -0.24546463374E+03 -0.24182366018E+03  0.66108790772E+02  0.36336877248E+03  0.94524724573E+02 0.  0.
         23    2    4    4    0    0  0.46504472745E+03 -0.42322516171E+03 -0.73206482865E+03  0.96934381710E+03  0.91227114209E+02 0.  0.
          2    1    3    3  502    0 -0.19167701600E+03  0.57741923325E+03 -0.94615410753E+03  0.11248825026E+04  0.00000000000E+00 0. -1.
         -1    1    3    3    0  502 -0.27903077706E+02  0.87629588630E+02 -0.92999534858E+02  0.13079159007E+03  0.00000000000E+00 0.  1.
         13    1    5    5    0    0 -0.16677498900E+03 -0.20825722935E+03  0.23619417585E+02  0.26784855314E+03  0.00000000000E+00 0.  1.
        -13    1    5    5    0    0 -0.78689644745E+02 -0.33566430823E+02  0.42489373188E+02  0.95520219337E+02  0.00000000000E+00 0. -1.
          3    1    6    6  503    0  0.37204642722E+03 -0.37861985885E+03 -0.58793855639E+03  0.79211317854E+03  0.00000000000E+00 0. -1.
         -3    1    6    6    0  503  0.92998300226E+02 -0.44605302856E+02 -0.14412627226E+03  0.17723063856E+03  0.00000000000E+00 0.  1.
<mgrwt>
<rscale>  0 0.19473948E+04</rscale>
<asrwt>0</asrwt>
<pdfrwt beam="1">  1        2 0.33026895E+00 0.19473948E+04</pdfrwt>
<pdfrwt beam="2">  1       -1 0.67944386E-01 0.19473948E+04</pdfrwt>
<totfact> 0.12889275E+01</totfact>
</mgrwt>
</event>
<event>
12    7  0.1625631E-007  0.2243941E+04  0.7818608E-02  0.8500358E-01
          2   -1    0    0  501    0  0.00000000000E+00  0.00000000000E+00  0.27213292920E+04  0.27213292920E+04  0.00000000000E+00 0. -1.
         -1   -1    0    0    0  501 -0.00000000000E+00 -0.00000000000E+00 -0.46257456325E+03  0.46257456325E+03  0.00000000000E+00 0.  1.
         24    2    1    2    0    0  0.93525960179E+03  0.61631487282E+01  0.10564161032E+04  0.14132346639E+04  0.80428384309E+02 0.  0.
        254    2    1    2    0    0 -0.93525960179E+03 -0.61631487282E+01  0.12023386255E+04  0.17706691913E+04  0.90271961734E+03 0.  0.
         23    2    4    4    0    0  0.16489029821E+03  0.89970917217E+00  0.24964250252E+03  0.31244672546E+03  0.90066404764E+02 0.  0.
         23    2    4    4    0    0 -0.11001499000E+04 -0.70628579004E+01  0.95269612299E+03  0.14582224659E+04  0.91668809992E+02 0.  0.
          4    1    3    3  502    0  0.87724455993E+03 -0.10709053387E+02  0.10034574838E+04  0.13328914523E+04  0.00000000000E+00 0. -1.
         -3    1    3    3    0  502  0.58015041868E+02  0.16872202115E+02  0.52958619460E+02  0.80343211676E+02  0.00000000000E+00 0.  1.
         13    1    5    5    0    0  0.14771318471E+02 -0.30564963045E+02  0.36416660113E+02  0.49785358783E+02  0.00000000000E+00 0.  1.
        -13    1    5    5    0    0  0.15011897974E+03  0.31464672218E+02  0.21322584240E+03  0.26266136668E+03  0.00000000000E+00 0. -1.
          1    1    6    6  503    0 -0.10100659037E+04 -0.96009521249E+01  0.90516384506E+03  0.13563358340E+04  0.00000000000E+00 0. -1.
         -1    1    6    6    0  503 -0.90083996299E+02  0.25380942245E+01  0.47532277926E+02  0.10188663188E+03  0.00000000000E+00 0.  1.
<mgrwt>
<rscale>  0 0.22439409E+04</rscale>
<asrwt>0</asrwt>
<pdfrwt beam="1">  1        2 0.41866603E+00 0.22439409E+04</pdfrwt>
<pdfrwt beam="2">  1       -1 0.71165320E-01 0.22439409E+04</pdfrwt>
<totfact> 0.53310093E+00</totfact>
</mgrwt>
</event>
<event>
12    7  0.1625631E-007  0.1765492E+04  0.7818608E-02  0.8724869E-01
          2   -1    0    0  501    0  0.00000000000E+00  0.00000000000E+00  0.93585165044E+03  0.93585165044E+03  0.00000000000E+00 0. -1.
         -1   -1    0    0    0  501 -0.00000000000E+00 -0.00000000000E+00 -0.83265359629E+03  0.83265359629E+03  0.00000000000E+00 0.  1.
         24    2    1    2    0    0 -0.22663038422E+03 -0.59475036284E+03  0.17111254104E+03  0.66383746344E+03  0.79444011852E+02 0.  0.
        254    2    1    2    0    0  0.22663038422E+03  0.59475036284E+03 -0.67914486895E+02  0.11046677833E+04  0.90032727869E+03 0.  0.
         23    2    4    4    0    0  0.46444447702E+03  0.22216991039E+02 -0.19164234731E+02  0.47609428482E+03  0.10048001404E+03 0.  0.
         23    2    4    4    0    0 -0.23781409280E+03  0.57253337180E+03 -0.48750252164E+02  0.62857349847E+03  0.91531695799E+02 0.  0.
          2    1    3    3  502    0 -0.53097430075E+02 -0.20813641259E+03  0.87246716723E+02  0.23184497602E+03  0.00000000000E+00 0. -1.
         -1    1    3    3    0  502 -0.17353295415E+03 -0.38661395025E+03  0.83865824322E+02  0.43199248743E+03  0.00000000000E+00 0.  1.
         13    1    5    5    0    0  0.30526185456E+03  0.61928464972E+02 -0.18545170201E+02  0.31203182203E+03  0.00000000000E+00 0. -1.
        -13    1    5    5    0    0  0.15918262246E+03 -0.39711473933E+02 -0.61906452958E+00  0.16406246279E+03  0.00000000000E+00 0.  1.
          1    1    6    6  503    0 -0.20001112125E+03  0.39556410230E+03 -0.92562118126E+01  0.44335210060E+03  0.00000000000E+00 0. -1.
         -1    1    6    6    0  503 -0.37802971551E+02  0.17696926950E+03 -0.39494040352E+02  0.18522139787E+03  0.00000000000E+00 0.  1.
<mgrwt>
<rscale>  0 0.17654917E+04</rscale>
<asrwt>0</asrwt>
<pdfrwt beam="1">  1        2 0.14397718E+00 0.17654917E+04</pdfrwt>
<pdfrwt beam="2">  1       -1 0.12810055E+00 0.17654917E+04</pdfrwt>
<totfact> 0.15774747E+01</totfact>
</mgrwt>
</event>
<event>
12    7  0.1625631E-007  0.1389768E+04  0.7818608E-02  0.8961258E-01
         -1   -1    0    0    0  501 -0.00000000000E+00  0.00000000000E+00  0.67762983453E+03  0.67762983453E+03  0.00000000000E+00 0.  1.
          2   -1    0    0  501    0  0.00000000000E+00 -0.00000000000E+00 -0.71257758038E+03  0.71257758038E+03  0.00000000000E+00 0. -1.
         24    2    1    2    0    0  0.49826852486E+02 -0.24643485005E+03  0.29898885504E+03  0.39909633961E+03  0.81674367511E+02 0.  0.
        254    2    1    2    0    0 -0.49826852486E+02  0.24643485005E+03 -0.33393660088E+03  0.99111107530E+03  0.89865157854E+03 0.  0.
         23    2    4    4    0    0  0.35821857400E+03 -0.10389854922E+03 -0.10050929536E+03  0.39739854091E+03  0.93316807581E+02 0.  0.
         23    2    4    4    0    0 -0.40804542649E+03  0.35033339927E+03 -0.23342730552E+03  0.59371253438E+03  0.93657385206E+02 0.  0.
          4    1    3    3  502    0  0.32448796426E+02 -0.22221221977E+03  0.21876003702E+03  0.31350781298E+03  0.00000000000E+00 0. -1.
         -3    1    3    3    0  502  0.17378056059E+02 -0.24222630278E+02  0.80228818019E+02  0.85588526630E+02  0.00000000000E+00 0.  1.
         13    1    5    5    0    0  0.26003297289E+03 -0.11148044948E+03 -0.52153879936E+02  0.28768918088E+03  0.00000000000E+00 0.  1.
        -13    1    5    5    0    0  0.98185601112E+02  0.75819002586E+01 -0.48355415423E+02  0.10970936003E+03  0.00000000000E+00 0. -1.
          1    1    6    6  503    0 -0.16115353557E+03  0.93265949125E+02 -0.49675217428E+02  0.19270865709E+03  0.00000000000E+00 0. -1.
         -1    1    6    6    0  503 -0.24689189092E+03  0.25706745014E+03 -0.18375208810E+03  0.40100387729E+03  0.00000000000E+00 0.  1.
<mgrwt>
<rscale>  0 0.13897681E+04</rscale>
<asrwt>0</asrwt>
<pdfrwt beam="1">  1        2 0.10962732E+00 0.13897681E+04</pdfrwt>
<pdfrwt beam="2">  1       -1 0.10425074E+00 0.13897681E+04</pdfrwt>
<totfact> 0.38592350E+01</totfact>
</mgrwt>
</event>
<event>
12    7  0.1625631E-007  0.1411683E+04  0.7818608E-02  0.8945405E-01
         -1   -1    0    0    0  501 -0.00000000000E+00  0.00000000000E+00  0.32741853323E+03  0.32741853323E+03  0.00000000000E+00 0.  1.
          2   -1    0    0  501    0  0.00000000000E+00 -0.00000000000E+00 -0.15216363741E+04  0.15216363741E+04  0.00000000000E+00 0. -1.
         24    2    1    2    0    0  0.17696276509E+03  0.91994630190E+02  0.11742676449E+03  0.24460360502E+03  0.79139410908E+02 0.  0.
        254    2    1    2    0    0 -0.17696276509E+03 -0.91994630190E+02 -0.13116446054E+04  0.16044513023E+04  0.90226026094E+03 0.  0.
         23    2    4    4    0    0 -0.14003818697E+03  0.20908418593E+03 -0.14237179530E+02  0.26889059388E+03  0.93661964437E+02 0.  0.
         23    2    4    4    0    0 -0.36924578121E+02 -0.30107881612E+03 -0.12974074258E+04  0.13355607084E+04  0.91893956671E+02 0.  0.
          2    1    3    3  502    0  0.44542927910E+02 -0.54183557028E+01  0.49279449046E+02  0.66647543868E+02  0.00000000000E+00 0. -1.
         -1    1    3    3    0  502  0.13241983718E+03  0.97412985893E+02  0.68147315448E+02  0.17795606115E+03  0.00000000000E+00 0.  1.
         13    1    5    5    0    0 -0.35554688366E+02  0.13015619932E+03  0.11595521878E+02  0.13542240661E+03  0.00000000000E+00 0.  1.
        -13    1    5    5    0    0 -0.10448349860E+03  0.78927986614E+02 -0.25832701408E+02  0.13346818727E+03  0.00000000000E+00 0. -1.
          3    1    6    6  503    0 -0.20500627356E+02 -0.29903200692E+03 -0.12076869799E+04  0.12443264276E+04  0.00000000000E+00 0. -1.
         -3    1    6    6    0  503 -0.16423950764E+02 -0.20468092058E+01 -0.89720445919E+02  0.91234280852E+02  0.00000000000E+00 0.  1.
<mgrwt>
<rscale>  0 0.14116826E+04</rscale>
<asrwt>0</asrwt>
<pdfrwt beam="1">  1        2 0.23409791E+00 0.14116826E+04</pdfrwt>
<pdfrwt beam="2">  1       -1 0.50372082E-01 0.14116826E+04</pdfrwt>
<totfact> 0.54116169E+01</totfact>
</mgrwt>
</event>
<event>
12    7  0.1625631E-007  0.2679492E+04  0.7818608E-02  0.8341690E-01
          2   -1    0    0  501    0  0.00000000000E+00  0.00000000000E+00  0.33695022377E+04  0.33695022377E+04  0.00000000000E+00 0. -1.
         -1   -1    0    0    0  501 -0.00000000000E+00 -0.00000000000E+00 -0.53269569702E+03  0.53269569702E+03  0.00000000000E+00 0.  1.
         24    2    1    2    0    0 -0.21676492631E+03  0.23847489907E+03 -0.40434512784E+03  0.52303344059E+03  0.78814255055E+02 0.  0.
        254    2    1    2    0    0  0.21676492631E+03 -0.23847489907E+03  0.32411516685E+04  0.33791644942E+04  0.89990623365E+03 0.  0.
         23    2    4    4    0    0 -0.28232134568E+03 -0.88158729084E+02  0.20784579830E+04  0.21014144086E+04  0.92074023328E+02 0.  0.
         23    2    4    4    0    0  0.49908627199E+03 -0.15031616998E+03  0.11626936855E+04  0.12777500855E+04  0.95428596074E+02 0.  0.
          2    1    3    3  502    0 -0.34293059397E+02  0.46034378197E+02 -0.31455057187E+02  0.65456844725E+02  0.00000000000E+00 0. -1.
         -3    1    3    3    0  502 -0.18247186691E+03  0.19244052087E+03 -0.37289007066E+03  0.45757659586E+03  0.00000000000E+00 0.  1.
         13    1    5    5    0    0 -0.28112101263E+03 -0.84831149098E+02  0.18690055821E+04  0.18919321377E+04  0.00000000000E+00 0. -1.
        -13    1    5    5    0    0 -0.12003330520E+01 -0.33275799859E+01  0.20945240094E+03  0.20948227096E+03  0.00000000000E+00 0.  1.
          4    1    6    6  503    0  0.50233668441E+03 -0.14915783363E+03  0.11384148469E+04  0.12532272609E+04  0.00000000000E+00 0. -1.
         -4    1    6    6    0  503 -0.32504124241E+01 -0.11583363547E+01  0.24278838631E+02  0.24522824660E+02  0.00000000000E+00 0.  1.
<mgrwt>
<rscale>  0 0.26794920E+04</rscale>
<asrwt>0</asrwt>
<pdfrwt beam="1">  1        2 0.51838495E+00 0.26794920E+04</pdfrwt>
<pdfrwt beam="2">  1       -1 0.81953186E-01 0.26794920E+04</pdfrwt>
<totfact> 0.14801722E+00</totfact>
</mgrwt>
</event>
<event>
12    7  0.1625631E-007  0.1878006E+04  0.7818608E-02  0.8665882E-01
         -3   -1    0    0    0  501 -0.00000000000E+00  0.00000000000E+00  0.26170590135E+03  0.26170590135E+03  0.00000000000E+00 0.  1.
          2   -1    0    0  501    0  0.00000000000E+00 -0.00000000000E+00 -0.33691509047E+04  0.33691509047E+04  0.00000000000E+00 0. -1.
         24    2    1    2    0    0 -0.11471347515E+03  0.10043472313E+03  0.15838308876E+03  0.23351850341E+03  0.78736101246E+02 0.  0.
        254    2    1    2    0    0  0.11471347515E+03 -0.10043472313E+03 -0.32658280921E+04  0.33973383027E+04  0.92359520375E+03 0.  0.
         23    2    4    4    0    0  0.11243856688E+03  0.40042636782E+03 -0.14225023453E+04  0.14848348076E+04  0.90762194976E+02 0.  0.
         23    2    4    4    0    0  0.22749082699E+01 -0.50086109095E+03 -0.18433257468E+04  0.19125034951E+04  0.94619248279E+02 0.  0.
          2    1    3    3  502    0  0.92913409912E+01  0.10085331634E+00  0.21136238993E+02  0.23088520688E+02  0.00000000000E+00 0. -1.
         -3    1    3    3    0  502 -0.12400481615E+03  0.10033386981E+03  0.13724684977E+03  0.21042998272E+03  0.00000000000E+00 0.  1.
         13    1    5    5    0    0  0.11219382964E+03  0.40523229172E+03 -0.14121125192E+04  0.14733846859E+04  0.00000000000E+00 0.  1.
        -13    1    5    5    0    0  0.24473724145E+00 -0.48059238960E+01 -0.10389826097E+02  0.11450121709E+02  0.00000000000E+00 0. -1.
          3    1    6    6  503    0 -0.58956448191E+01  0.18994507107E+01 -0.36229241508E+02  0.36754924583E+02  0.00000000000E+00 0. -1.
         -3    1    6    6    0  503  0.81705530889E+01 -0.50276054166E+03 -0.18070965053E+04  0.18757485705E+04  0.00000000000E+00 0.  1.
<mgrwt>
<rscale>  0 0.18780060E+04</rscale>
<asrwt>0</asrwt>
<pdfrwt beam="1">  1        2 0.51833090E+00 0.18780060E+04</pdfrwt>
<pdfrwt beam="2">  1       -3 0.40262447E-01 0.18780060E+04</pdfrwt>
<totfact> 0.37546370E+00</totfact>
</mgrwt>
</event>
<event>
12    7  0.1625631E-007  0.2581909E+04  0.7818608E-02  0.8374372E-01
          2   -1    0    0  501    0  0.00000000000E+00  0.00000000000E+00  0.15868173260E+04  0.15868173260E+04  0.00000000000E+00 0. -1.
         -1   -1    0    0    0  501 -0.00000000000E+00 -0.00000000000E+00 -0.10502555246E+04  0.10502555246E+04  0.00000000000E+00 0.  1.
         24    2    1    2    0    0  0.76577088973E+03 -0.68887830912E+01  0.10871443872E+04  0.13322853309E+04  0.81540010141E+02 0.  0.
        254    2    1    2    0    0 -0.76577088973E+03  0.68887830912E+01 -0.55058258578E+03  0.13047875198E+04  0.90159679297E+03 0.  0.
         23    2    4    4    0    0 -0.16536523364E+03 -0.33579279305E+03  0.44650280510E+02  0.38788543241E+03  0.91427571139E+02 0.  0.
         23    2    4    4    0    0 -0.60040565609E+03  0.34268157614E+03 -0.59523286629E+03  0.91690208736E+03  0.92139341197E+02 0.  0.
          4    1    3    3  502    0  0.62831711910E+03 -0.17654030314E+02  0.93845622198E+03  0.11295105787E+04  0.00000000000E+00 0. -1.
         -3    1    3    3    0  502  0.13745377063E+03  0.10765247222E+02  0.14868816526E+03  0.20277475211E+03  0.00000000000E+00 0.  1.
         13    1    5    5    0    0 -0.60500266482E+00 -0.62917296625E+02 -0.12213596014E+02  0.64094650092E+02  0.00000000000E+00 0.  1.
        -13    1    5    5    0    0 -0.16476023097E+03 -0.27287549643E+03  0.56863876524E+02  0.32379078232E+03  0.00000000000E+00 0. -1.
          1    1    6    6  503    0 -0.57829786441E+03  0.34354525512E+03 -0.58857720602E+03  0.89379801396E+03  0.00000000000E+00 0. -1.
         -1    1    6    6    0  503 -0.22107791674E+02 -0.86367897968E+00 -0.66556602680E+01  0.23104073400E+02  0.00000000000E+00 0.  1.
<mgrwt>
<rscale>  0 0.25819091E+04</rscale>
<asrwt>0</asrwt>
<pdfrwt beam="1">  1        2 0.24412574E+00 0.25819091E+04</pdfrwt>
<pdfrwt beam="2">  1       -1 0.16157777E+00 0.25819091E+04</pdfrwt>
<totfact> 0.32534937E+00</totfact>
</mgrwt>
</event>
<event>
12    7  0.1625631E-007  0.1818850E+04  0.7818608E-02  0.8696339E-01
         -1   -1    0    0    0  501 -0.00000000000E+00  0.00000000000E+00  0.11000573289E+04  0.11000573289E+04  0.00000000000E+00 0.  1.
          2   -1    0    0  501    0  0.00000000000E+00 -0.00000000000E+00 -0.75182784928E+03  0.75182784928E+03  0.00000000000E+00 0. -1.
         24    2    1    2    0    0 -0.61083295198E+03 -0.12917290934E+03 -0.15391717263E+03  0.64763513499E+03  0.77059952740E+02 0.  0.
        254    2    1    2    0    0  0.61083295198E+03  0.12917290934E+03  0.50214665225E+03  0.12042500432E+04  0.89903524426E+03 0.  0.
         23    2    4    4    0    0  0.70990288460E+03 -0.15646561442E+03  0.18331421317E+03  0.75526972523E+03  0.91567805672E+02 0.  0.
         23    2    4    4    0    0 -0.99069932624E+02  0.28563852375E+03  0.31883243908E+03  0.44898031796E+03  0.92330839383E+02 0.  0.
          4    1    3    3  502    0 -0.34792875490E+03 -0.72072916947E+02 -0.12669692616E+03  0.37722809406E+03  0.00000000000E+00 0. -1.
         -3    1    3    3    0  502 -0.26290419707E+03 -0.57099992389E+02 -0.27220246470E+02  0.27040704094E+03  0.00000000000E+00 0.  1.
         13    1    5    5    0    0  0.64004921377E+03 -0.14187292586E+03  0.19263927667E+03  0.68330140791E+03  0.00000000000E+00 0.  1.
        -13    1    5    5    0    0  0.69853670834E+02 -0.14592688557E+02 -0.93250634986E+01  0.71968317318E+02  0.00000000000E+00 0. -1.
          4    1    6    6  503    0 -0.18773526621E+02  0.18760254573E+03  0.20667668182E+03  0.27975419795E+03  0.00000000000E+00 0. -1.
         -4    1    6    6    0  503 -0.80296406003E+02  0.98035978027E+02  0.11215575726E+03  0.16922612000E+03  0.00000000000E+00 0.  1.
<mgrwt>
<rscale>  0 0.18188499E+04</rscale>
<asrwt>0</asrwt>
<pdfrwt beam="1">  1        2 0.11566582E+00 0.18188499E+04</pdfrwt>
<pdfrwt beam="2">  1       -1 0.16923959E+00 0.18188499E+04</pdfrwt>
<totfact> 0.10026941E+01</totfact>
</mgrwt>
</event>
<event>
12    7  0.1625631E-007  0.2434996E+04  0.7818608E-02  0.8426516E-01
         -1   -1    0    0    0  501 -0.00000000000E+00  0.00000000000E+00  0.72616679344E+03  0.72616679344E+03  0.00000000000E+00 0.  1.
          2   -1    0    0  501    0  0.00000000000E+00 -0.00000000000E+00 -0.20412689738E+04  0.20412689738E+04  0.00000000000E+00 0. -1.
         24    2    1    2    0    0  0.38444700400E+03 -0.12880222359E+03 -0.16681663783E+04  0.17186979749E+04  0.82183645312E+02 0.  0.
        254    2    1    2    0    0 -0.38444700400E+03  0.12880222359E+03  0.35306419794E+03  0.10487377923E+04  0.90044828698E+03 0.  0.
         23    2    4    4    0    0 -0.43732072412E+03  0.13358854726E+03  0.61127787905E+03  0.76890518672E+03  0.91974045473E+02 0.  0.
         23    2    4    4    0    0  0.52873720123E+02 -0.47863236710E+01 -0.25821368111E+03  0.27983260562E+03  0.93879938637E+02 0.  0.
          2    1    3    3  502    0  0.38203703476E+03 -0.11686550122E+03 -0.16409189674E+04  0.16888531313E+04  0.00000000000E+00 0. -1.
         -1    1    3    3    0  502  0.24099692400E+01 -0.11936722371E+02 -0.27247410850E+02  0.29844843621E+02  0.00000000000E+00 0.  1.
         13    1    5    5    0    0 -0.62098231034E+02  0.24307917025E+02  0.15114746760E+03  0.16520478834E+03  0.00000000000E+00 0. -1.
        -13    1    5    5    0    0 -0.37522249309E+03  0.10928063024E+03  0.46013041145E+03  0.60370039838E+03  0.00000000000E+00 0.  1.
          3    1    6    6  503    0 -0.99125916188E+00  0.17733908275E+02 -0.18656675389E+03  0.18741031923E+03  0.00000000000E+00 0. -1.
         -3    1    6    6    0  503  0.53864979285E+02 -0.22520231946E+02 -0.71646927225E+02  0.92422286387E+02  0.00000000000E+00 0.  1.
<mgrwt>
<rscale>  0 0.24349963E+04</rscale>
<asrwt>0</asrwt>
<pdfrwt beam="1">  1        2 0.31404138E+00 0.24349963E+04</pdfrwt>
<pdfrwt beam="2">  1       -1 0.11171797E+00 0.24349963E+04</pdfrwt>
<totfact> 0.47556127E+00</totfact>
</mgrwt>
</event>
<event>
12    7  0.1625631E-007  0.1541741E+04  0.7818608E-02  0.8857160E-01
         -1   -1    0    0    0  501 -0.00000000000E+00  0.00000000000E+00  0.41242290902E+03  0.41242290902E+03  0.00000000000E+00 0.  1.
          2   -1    0    0  501    0  0.00000000000E+00 -0.00000000000E+00 -0.14408552147E+04  0.14408552147E+04  0.00000000000E+00 0. -1.
         24    2    1    2    0    0 -0.48399898959E+03  0.12906404037E+03 -0.25519538954E+03  0.56792059643E+03  0.80601293846E+02 0.  0.
        254    2    1    2    0    0  0.48399898959E+03 -0.12906404037E+03 -0.77323691615E+03  0.12853575273E+04  0.89629018517E+03 0.  0.
         23    2    4    4    0    0  0.12099312447E+03 -0.23302870776E+03 -0.84536440958E+03  0.89011240632E+03  0.93366996830E+02 0.  0.
         23    2    4    4    0    0  0.36300586511E+03  0.10396466739E+03  0.72127493429E+02  0.39524512097E+03  0.91839099372E+02 0.  0.
          2    1    3    3  502    0 -0.30852496894E+03  0.94578365882E+02 -0.20451999875E+03  0.38204862732E+03  0.00000000000E+00 0. -1.
         -1    1    3    3    0  502 -0.17547402065E+03  0.34485674493E+02 -0.50675390785E+02  0.18587196911E+03  0.00000000000E+00 0.  1.
         13    1    5    5    0    0  0.58016630907E+02 -0.17879719478E+03 -0.67298963449E+03  0.69874846293E+03  0.00000000000E+00 0. -1.
        -13    1    5    5    0    0  0.62976493567E+02 -0.54231512981E+02 -0.17237477509E+03  0.19136394339E+03  0.00000000000E+00 0.  1.
          4    1    6    6  503    0  0.99603002696E+02 -0.93424881982E+01  0.20256884298E+01  0.10006069980E+03  0.00000000000E+00 0. -1.
         -4    1    6    6    0  503  0.26340286242E+03  0.11330715559E+03  0.70101804999E+02  0.29518442117E+03  0.00000000000E+00 0.  1.
<mgrwt>
<rscale>  0 0.15417415E+04</rscale>
<asrwt>0</asrwt>
<pdfrwt beam="1">  1        2 0.22167004E+00 0.15417415E+04</pdfrwt>
<pdfrwt beam="2">  1       -1 0.63449677E-01 0.15417415E+04</pdfrwt>
<totfact> 0.37920290E+01</totfact>
</mgrwt>
</event>
<event>
12    7  0.1625631E-007  0.3310483E+04  0.7818608E-02  0.8160233E-01
         -1   -1    0    0    0  501 -0.00000000000E+00  0.00000000000E+00  0.86159867427E+03  0.86159867427E+03  0.00000000000E+00 0.  1.
          2   -1    0    0  501    0  0.00000000000E+00 -0.00000000000E+00 -0.31799308851E+04  0.31799308851E+04  0.00000000000E+00 0. -1.
         24    2    1    2    0    0  0.54360750808E+03  0.10603000470E+04 -0.22480388844E+04  0.25455817993E+04  0.81009620171E+02 0.  0.
        254    2    1    2    0    0 -0.54360750808E+03 -0.10603000470E+04 -0.70293326426E+02  0.14959477601E+04  0.90176118599E+03 0.  0.
         23    2    4    4    0    0 -0.53235403636E+03 -0.45448562436E+03 -0.38743279725E+03  0.80530163809E+03  0.91916011287E+02 0.  0.
         23    2    4    4    0    0 -0.11253471718E+02 -0.60581442266E+03  0.31713947083E+03  0.69064612199E+03  0.96316491452E+02 0.  0.
          4    1    3    3  502    0  0.43471490343E+03  0.85706191724E+03 -0.18776447301E+04  0.21092846914E+04  0.00000000000E+00 0. -1.
         -3    1    3    3    0  502  0.10889260465E+03  0.20323812978E+03 -0.37039415430E+03  0.43629710781E+03  0.00000000000E+00 0.  1.
         13    1    5    5    0    0 -0.47753059453E+03 -0.40070748548E+03 -0.30985386653E+03  0.69614034234E+03  0.00000000000E+00 0. -1.
        -13    1    5    5    0    0 -0.54823441836E+02 -0.53778138881E+02 -0.77578930728E+02  0.10916129575E+03  0.00000000000E+00 0.  1.
          3    1    6    6  503    0  0.41481831415E+02 -0.19893097794E+03  0.10825492120E+03  0.23024639908E+03  0.00000000000E+00 0. -1.
         -3    1    6    6    0  503 -0.52735303134E+02 -0.40688344472E+03  0.20888454963E+03  0.46039972291E+03  0.00000000000E+00 0.  1.
<mgrwt>
<rscale>  0 0.33104829E+04</rscale>
<asrwt>0</asrwt>
<pdfrwt beam="1">  1        2 0.48922014E+00 0.33104829E+04</pdfrwt>
<pdfrwt beam="2">  1       -1 0.13255364E+00 0.33104829E+04</pdfrwt>
<totfact> 0.61072742E-01</totfact>
</mgrwt>
</event>
<event>
12    7  0.1625631E-007  0.1972318E+04  0.7818608E-02  0.8619673E-01
         -1   -1    0    0    0  501 -0.00000000000E+00  0.00000000000E+00  0.63557704010E+03  0.63557704010E+03  0.00000000000E+00 0.  1.
          2   -1    0    0  501    0  0.00000000000E+00 -0.00000000000E+00 -0.15301206876E+04  0.15301206876E+04  0.00000000000E+00 0. -1.
         24    2    1    2    0    0 -0.63709504336E+03 -0.51139469622E+02 -0.84179199161E+03  0.10599074935E+04  0.79276717767E+02 0.  0.
        254    2    1    2    0    0  0.63709504336E+03  0.51139469622E+02 -0.52751655927E+02  0.11057902342E+04  0.90082404793E+03 0.  0.
         23    2    4    4    0    0  0.51351354188E+03  0.32657356456E+03  0.25240340962E+03  0.66667873810E+03  0.10201278292E+03 0.  0.
         23    2    4    4    0    0  0.12358150148E+03 -0.27543409494E+03 -0.30515506555E+03  0.43911149615E+03  0.92536284002E+02 0.  0.
          2    1    3    3  502    0 -0.61266143870E+03 -0.36577128594E+02 -0.78558457015E+03  0.99691275529E+03  0.00000000000E+00 0. -1.
         -3    1    3    3    0  502 -0.24433604665E+02 -0.14562341028E+02 -0.56207421465E+02  0.62994738199E+02  0.00000000000E+00 0.  1.
         13    1    5    5    0    0  0.32607892705E+03  0.15760904577E+03  0.17824465590E+03  0.40365732414E+03  0.00000000000E+00 0. -1.
        -13    1    5    5    0    0  0.18743461483E+03  0.16896451879E+03  0.74158753725E+02  0.26302141396E+03  0.00000000000E+00 0.  1.
          3    1    6    6  503    0  0.12738592036E+03 -0.26152931557E+03 -0.30879888006E+03  0.42424227033E+03  0.00000000000E+00 0. -1.
         -3    1    6    6    0  503 -0.38044188776E+01 -0.13904779372E+02  0.36438145092E+01  0.14869225823E+02  0.00000000000E+00 0.  1.
<mgrwt>
<rscale>  0 0.19723180E+04</rscale>
<asrwt>0</asrwt>
<pdfrwt beam="1">  1        2 0.23540318E+00 0.19723180E+04</pdfrwt>
<pdfrwt beam="2">  1       -1 0.97781084E-01 0.19723180E+04</pdfrwt>
<totfact> 0.12990543E+01</totfact>
</mgrwt>
</event>
<event>
12    7  0.1625631E-007  0.1673170E+04  0.7818608E-02  0.8776816E-01
         -1   -1    0    0    0  501 -0.00000000000E+00  0.00000000000E+00  0.51761702690E+03  0.51761702690E+03  0.00000000000E+00 0.  1.
          2   -1    0    0  501    0  0.00000000000E+00 -0.00000000000E+00 -0.13521087802E+04  0.13521087802E+04  0.00000000000E+00 0. -1.
         24    2    1    2    0    0 -0.20115489970E+03  0.84005898803E+02  0.31582606515E+03  0.39194142623E+03  0.79697512243E+02 0.  0.
        254    2    1    2    0    0  0.20115489970E+03 -0.84005898803E+02 -0.11503178184E+04  0.14777843808E+04  0.90171797596E+03 0.  0.
         23    2    4    4    0    0 -0.27688459488E+03 -0.27250774965E+03 -0.40866534626E+03  0.57090518707E+03  0.89441684283E+02 0.  0.
         23    2    4    4    0    0  0.47803949458E+03  0.18850185085E+03 -0.74165247215E+03  0.90687919376E+03  0.91251172486E+02 0.  0.
          4    1    3    3  502    0 -0.93072601696E+02  0.61928307950E+01  0.89105114977E+02  0.12899837927E+03  0.00000000000E+00 0. -1.
         -3    1    3    3    0  502 -0.10808229801E+03  0.77813068008E+02  0.22672095018E+03  0.26294304696E+03  0.00000000000E+00 0.  1.
         13    1    5    5    0    0 -0.27531775461E+03 -0.23981323680E+03 -0.38436872060E+03  0.53014108303E+03  0.00000000000E+00 0. -1.
        -13    1    5    5    0    0 -0.15668402703E+01 -0.32694512856E+02 -0.24296625662E+02  0.40764104037E+02  0.00000000000E+00 0.  1.
          3    1    6    6  503    0  0.37795205052E+03  0.11266420999E+03 -0.52762668701E+03  0.65873431484E+03  0.00000000000E+00 0. -1.
         -3    1    6    6    0  503  0.10008744406E+03  0.75837640860E+02 -0.21402578513E+03  0.24814487892E+03  0.00000000000E+00 0.  1.
<mgrwt>
<rscale>  0 0.16731701E+04</rscale>
<asrwt>0</asrwt>
<pdfrwt beam="1">  1        2 0.20801674E+00 0.16731701E+04</pdfrwt>
<pdfrwt beam="2">  1       -1 0.79633388E-01 0.16731701E+04</pdfrwt>
<totfact> 0.26399785E+01</totfact>
</mgrwt>
</event>
<event>
12    7  0.1625631E-007  0.1849213E+04  0.7818608E-02  0.8680557E-01
         -1   -1    0    0    0  501 -0.00000000000E+00  0.00000000000E+00  0.49874790684E+03  0.49874790684E+03  0.00000000000E+00 0.  1.
          2   -1    0    0  501    0  0.00000000000E+00 -0.00000000000E+00 -0.17140875723E+04  0.17140875723E+04  0.00000000000E+00 0. -1.
         24    2    1    2    0    0 -0.57430870076E+02 -0.23834392759E+03  0.32311704587E+03  0.41602277588E+03  0.92542920109E+02 0.  0.
        254    2    1    2    0    0  0.57430870076E+02  0.23834392759E+03 -0.15384567113E+04  0.17968127032E+04  0.89531039605E+03 0.  0.
         23    2    4    4    0    0 -0.38978322790E+03  0.21904905484E+03 -0.92540348284E+03  0.10317953664E+04  0.91195497959E+02 0.  0.
         23    2    4    4    0    0  0.44721409797E+03  0.19294872755E+02 -0.61305322848E+03  0.76501733687E+03  0.95102698284E+02 0.  0.
          2    1    3    3  502    0 -0.46379735264E+01 -0.51072549867E+02  0.18399043476E+02  0.54483400675E+02  0.00000000000E+00 0. -1.
         -1    1    3    3    0  502 -0.52792896550E+02 -0.18727137773E+03  0.30471800239E+03  0.36153937520E+03  0.00000000000E+00 0.  1.
         13    1    5    5    0    0 -0.35720911183E+03  0.21065216952E+03 -0.78945063756E+03  0.89174267322E+03  0.00000000000E+00 0. -1.
        -13    1    5    5    0    0 -0.32574116064E+02  0.83968853218E+01 -0.13595284528E+03  0.14005269316E+03  0.00000000000E+00 0.  1.
          4    1    6    6  503    0  0.35844957672E+03  0.45023577323E+02 -0.52557465572E+03  0.63776323216E+03  0.00000000000E+00 0. -1.
         -4    1    6    6    0  503  0.88764521252E+02 -0.25728704568E+02 -0.87478572756E+02  0.12725410470E+03  0.00000000000E+00 0.  1.
<mgrwt>
<rscale>  0 0.18492134E+04</rscale>
<asrwt>0</asrwt>
<pdfrwt beam="1">  1        2 0.26370578E+00 0.18492134E+04</pdfrwt>
<pdfrwt beam="2">  1       -1 0.76730446E-01 0.18492134E+04</pdfrwt>
<totfact> 0.17580472E+01</totfact>
</mgrwt>
</event>
<event>
12    7  0.1625631E-007  0.1841945E+04  0.7818608E-02  0.8684306E-01
          2   -1    0    0  501    0  0.00000000000E+00  0.00000000000E+00  0.14019587966E+04  0.14019587966E+04  0.00000000000E+00 0. -1.
         -1   -1    0    0    0  501 -0.00000000000E+00 -0.00000000000E+00 -0.60500353078E+03  0.60500353078E+03  0.00000000000E+00 0.  1.
         24    2    1    2    0    0  0.12632927425E+03 -0.65286185205E+03  0.46238006166E+03  0.81393933588E+03  0.80710827605E+02 0.  0.
        254    2    1    2    0    0 -0.12632927425E+03  0.65286185205E+03  0.33457520412E+03  0.11930229914E+04  0.93229587982E+03 0.  0.
         23    2    4    4    0    0 -0.40862139888E+03  0.70778265779E+03  0.13789261817E+03  0.83353074468E+03  0.88495140502E+02 0.  0.
         23    2    4    4    0    0  0.28229212463E+03 -0.54920805748E+02  0.19668258595E+03  0.35949224677E+03  0.88574812100E+02 0.  0.
          4    1    3    3  502    0  0.13212351363E+03 -0.64673438467E+03  0.46158133650E+03  0.80546838385E+03  0.00000000000E+00 0. -1.
         -3    1    3    3    0  502 -0.57942393867E+01 -0.61274673711E+01  0.79872515164E+00  0.84709520316E+01  0.00000000000E+00 0.  1.
         13    1    5    5    0    0 -0.27067849420E+03  0.48552477146E+03  0.13452025452E+03  0.57192381469E+03  0.00000000000E+00 0.  1.
        -13    1    5    5    0    0 -0.13794290468E+03  0.22225788633E+03  0.33723636504E+01  0.26160693000E+03  0.00000000000E+00 0. -1.
          4    1    6    6  503    0  0.37033260336E+02  0.19211820943E+02  0.11242482997E+02  0.43208215180E+02  0.00000000000E+00 0. -1.
         -4    1    6    6    0  503  0.24525886429E+03 -0.74132626691E+02  0.18544010295E+03  0.31628403159E+03  0.00000000000E+00 0.  1.
<mgrwt>
<rscale>  0 0.18419446E+04</rscale>
<asrwt>0</asrwt>
<pdfrwt beam="1">  1        2 0.21568597E+00 0.18419446E+04</pdfrwt>
<pdfrwt beam="2">  1       -1 0.93077466E-01 0.18419446E+04</pdfrwt>
<totfact> 0.17350388E+01</totfact>
</mgrwt>
</event>
<event>
12    7  0.1625631E-007  0.2337799E+04  0.7818608E-02  0.8463165E-01
         -1   -1    0    0    0  501 -0.00000000000E+00  0.00000000000E+00  0.12553308649E+04  0.12553308649E+04  0.00000000000E+00 0.  1.
          2   -1    0    0  501    0  0.00000000000E+00 -0.00000000000E+00 -0.10884193092E+04  0.10884193092E+04  0.00000000000E+00 0. -1.
         24    2    1    2    0    0 -0.96055503473E+03  0.80952700170E+02 -0.26979797897E+03  0.10042097078E+04  0.80167782172E+02 0.  0.
        254    2    1    2    0    0  0.96055503473E+03 -0.80952700170E+02  0.43670953463E+03  0.13395404664E+04  0.82123938593E+03 0.  0.
         23    2    4    4    0    0  0.64761695614E+03  0.26307391910E+03  0.49686524956E+03  0.86234787278E+03  0.90294898446E+02 0.  0.
         23    2    4    4    0    0  0.31293807860E+03 -0.34402661927E+03 -0.60155714929E+02  0.47719259359E+03  0.88371406804E+02 0.  0.
          2    1    3    3  502    0 -0.74798836439E+03  0.45491845629E+02 -0.23872551218E+03  0.78647693638E+03  0.00000000000E+00 0. -1.
         -1    1    3    3    0  502 -0.21256667034E+03  0.35460854541E+02 -0.31072466786E+02  0.21773277139E+03  0.00000000000E+00 0.  1.
         13    1    5    5    0    0  0.61712036620E+03  0.22761250336E+03  0.46986250996E+03  0.80834137364E+03  0.00000000000E+00 0. -1.
        -13    1    5    5    0    0  0.30496589930E+02  0.35461415740E+02  0.27002739598E+02  0.54006499141E+02  0.00000000000E+00 0.  1.
          3    1    6    6  503    0  0.77056926891E+02 -0.14034637567E+03 -0.17574023101E+01  0.16011859233E+03  0.00000000000E+00 0. -1.
         -3    1    6    6    0  503  0.23588115171E+03 -0.20368024360E+03 -0.58398312619E+02  0.31707400127E+03  0.00000000000E+00 0.  1.
<mgrwt>
<rscale>  0 0.23377993E+04</rscale>
<asrwt>0</asrwt>
<pdfrwt beam="1">  1        2 0.16744912E+00 0.23377993E+04</pdfrwt>
<pdfrwt beam="2">  1       -1 0.19312783E+00 0.23377993E+04</pdfrwt>
<totfact> 0.38342904E+00</totfact>
</mgrwt>
</event>
<event>
12    7  0.1625631E-007  0.2974545E+04  0.7818608E-02  0.8251037E-01
         -1   -1    0    0    0  501 -0.00000000000E+00  0.00000000000E+00  0.64092038322E+03  0.64092038322E+03  0.00000000000E+00 0.  1.
          2   -1    0    0  501    0  0.00000000000E+00 -0.00000000000E+00 -0.34512545634E+04  0.34512545634E+04  0.00000000000E+00 0. -1.
         24    2    1    2    0    0 -0.13148206957E+04  0.28316414572E+03 -0.14227305305E+04  0.19594458063E+04  0.79563245290E+02 0.  0.
        254    2    1    2    0    0  0.13148206957E+04 -0.28316414572E+03 -0.13876036497E+04  0.21327291404E+04  0.90230499404E+03 0.  0.
         23    2    4    4    0    0  0.67160770904E+03  0.29632424119E+03 -0.75351417116E+03  0.10556773836E+04  0.88352483933E+02 0.  0.
         23    2    4    4    0    0  0.64321298666E+03 -0.57948838691E+03 -0.63408947853E+03  0.10770517567E+04  0.91876455812E+02 0.  0.
          4    1    3    3  502    0 -0.70958979537E+02  0.25542912821E+02 -0.58931344738E+02  0.95710608425E+02  0.00000000000E+00 0. -1.
         -3    1    3    3    0  502 -0.12438617162E+04  0.25762123290E+03 -0.13637991858E+04  0.18637351979E+04  0.00000000000E+00 0.  1.
         13    1    5    5    0    0  0.27277496278E+03  0.99790810139E+02 -0.35418236377E+03  0.45804970572E+03  0.00000000000E+00 0. -1.
        -13    1    5    5    0    0  0.39883274627E+03  0.19653343105E+03 -0.39933180739E+03  0.59762767791E+03  0.00000000000E+00 0.  1.
          2    1    6    6  503    0  0.28041681280E+03 -0.30517314728E+03 -0.27251156565E+03  0.49601087905E+03  0.00000000000E+00 0. -1.
         -2    1    6    6    0  503  0.36279617386E+03 -0.27431523963E+03 -0.36157791288E+03  0.58104087769E+03  0.00000000000E+00 0.  1.
<mgrwt>
<rscale>  0 0.29745449E+04</rscale>
<asrwt>0</asrwt>
<pdfrwt beam="1">  1        2 0.53096224E+00 0.29745449E+04</pdfrwt>
<pdfrwt beam="2">  1       -1 0.98603136E-01 0.29745449E+04</pdfrwt>
<totfact> 0.84258477E-01</totfact>
</mgrwt>
</event>
<event>
12    7  0.1625631E-007  0.2905837E+04  0.7818608E-02  0.8271143E-01
         -1   -1    0    0    0  501 -0.00000000000E+00  0.00000000000E+00  0.66434490595E+03  0.66434490595E+03  0.00000000000E+00 0.  1.
          2   -1    0    0  501    0  0.00000000000E+00 -0.00000000000E+00 -0.31775247027E+04  0.31775247027E+04  0.00000000000E+00 0. -1.
         24    2    1    2    0    0 -0.29511359747E+03 -0.45961555711E+03  0.43771487381E+03  0.70445533009E+03  0.79526760203E+02 0.  0.
        254    2    1    2    0    0  0.29511359747E+03  0.45961555711E+03 -0.29508946705E+04  0.31374142785E+04  0.91501393582E+03 0.  0.
         23    2    4    4    0    0  0.13459310430E+03  0.72305702028E+03 -0.21499203271E+04  0.22740635962E+04  0.91000374959E+02 0.  0.
         23    2    4    4    0    0  0.16052049318E+03 -0.26344146317E+03 -0.80097434341E+03  0.86335068233E+03  0.92985314103E+02 0.  0.
          4    1    3    3  502    0 -0.67052511769E+02 -0.53638857944E+02  0.78674822007E+02  0.11645983872E+03  0.00000000000E+00 0. -1.
         -3    1    3    3    0  502 -0.22806108570E+03 -0.40597669917E+03  0.35904005181E+03  0.58799549138E+03  0.00000000000E+00 0.  1.
         13    1    5    5    0    0  0.13142835902E+03  0.50548247252E+03 -0.15751391925E+04  0.16594726329E+04  0.00000000000E+00 0. -1.
        -13    1    5    5    0    0  0.31647452740E+01  0.21757454776E+03 -0.57478113465E+03  0.61459096332E+03  0.00000000000E+00 0.  1.
          3    1    6    6  503    0 -0.70832544684E+01 -0.21124390869E+02 -0.10914050013E+03  0.11139147702E+03  0.00000000000E+00 0.  1.
         -3    1    6    6    0  503  0.16760374764E+03 -0.24231707230E+03 -0.69183384328E+03  0.75195920531E+03  0.00000000000E+00 0. -1.
<mgrwt>
<rscale>  0 0.29058371E+04</rscale>
<asrwt>0</asrwt>
<pdfrwt beam="1">  1        2 0.48884995E+00 0.29058371E+04</pdfrwt>
<pdfrwt beam="2">  1       -1 0.10220691E+00 0.29058371E+04</pdfrwt>
<totfact> 0.11909461E+00</totfact>
</mgrwt>
</event>
<event>
12    7  0.1625631E-007  0.2141283E+04  0.7818608E-02  0.8543273E-01
          2   -1    0    0  501    0  0.00000000000E+00  0.00000000000E+00  0.51099356472E+03  0.51099356472E+03  0.00000000000E+00 0. -1.
         -1   -1    0    0    0  501 -0.00000000000E+00 -0.00000000000E+00 -0.22432253223E+04  0.22432253223E+04  0.00000000000E+00 0.  1.
         24    2    1    2    0    0 -0.11313413154E+02 -0.30953744777E+03 -0.17727302623E+04  0.18014211750E+04  0.81266488410E+02 0.  0.
        254    2    1    2    0    0  0.11313413154E+02  0.30953744777E+03  0.40498504692E+02  0.95279771201E+03  0.90013439343E+03 0.  0.
         23    2    4    4    0    0  0.15246774494E+03  0.28745706983E+03  0.41859715091E+03  0.53790407726E+03  0.90770266812E+02 0.  0.
         23    2    4    4    0    0 -0.14115433178E+03  0.22080377939E+02 -0.37809864622E+03  0.41489363475E+03  0.93627204427E+02 0.  0.
          4    1    3    3  502    0 -0.35810347742E+02 -0.98006944478E+02 -0.70306201671E+03  0.71076292919E+03  0.00000000000E+00 0. -1.
         -3    1    3    3    0  502  0.24496934588E+02 -0.21153050329E+03 -0.10696682456E+04  0.10906582458E+04  0.00000000000E+00 0.  1.
         13    1    5    5    0    0  0.10329677232E+03  0.26368506860E+03  0.35123545362E+03  0.45118331359E+03  0.00000000000E+00 0. -1.
        -13    1    5    5    0    0  0.49170972615E+02  0.23772001229E+02  0.67361697289E+02  0.86720763673E+02  0.00000000000E+00 0.  1.
          2    1    6    6  503    0 -0.11970132296E+03  0.75772684685E+01 -0.36807819844E+03  0.38712708751E+03  0.00000000000E+00 0. -1.
         -2    1    6    6    0  503 -0.21453008825E+02  0.14503109470E+02 -0.10020447783E+02  0.27766547242E+02  0.00000000000E+00 0.  1.
<mgrwt>
<rscale>  0 0.21412835E+04</rscale>
<asrwt>0</asrwt>
<pdfrwt beam="1">  1        2 0.78614396E-01 0.21412835E+04</pdfrwt>
<pdfrwt beam="2">  1       -1 0.34511158E+00 0.21412835E+04</pdfrwt>
<totfact> 0.10552565E+00</totfact>
</mgrwt>
</event>
<event>
12    7  0.1625631E-007  0.2887759E+04  0.7818608E-02  0.8276529E-01
         -3   -1    0    0    0  501 -0.00000000000E+00  0.00000000000E+00  0.62442414526E+03  0.62442414526E+03  0.00000000000E+00 0.  1.
          2   -1    0    0  501    0  0.00000000000E+00 -0.00000000000E+00 -0.33387371894E+04  0.33387371894E+04  0.00000000000E+00 0. -1.
         24    2    1    2    0    0  0.51868216184E+03 -0.11569315211E+04 -0.81657470585E+03  0.15101186004E+04  0.78372235741E+02 0.  0.
        254    2    1    2    0    0 -0.51868216184E+03  0.11569315211E+04 -0.18977383383E+04  0.24530427343E+04  0.89915856563E+03 0.  0.
         23    2    4    4    0    0 -0.26220060074E+03  0.65157086658E+03 -0.32536874102E+03  0.77913963002E+03  0.88881922977E+02 0.  0.
         23    2    4    4    0    0 -0.25648156110E+03  0.50536065454E+03 -0.15723695973E+04  0.16739031043E+04  0.91832835986E+02 0.  0.
          4    1    3    3  502    0  0.49225955158E+03 -0.10577461631E+04 -0.76616921789E+03  0.13957656258E+04  0.00000000000E+00 0. -1.
         -3    1    3    3    0  502  0.26422610265E+02 -0.99185357977E+02 -0.50405487961E+02  0.11435297454E+03  0.00000000000E+00 0.  1.
         13    1    5    5    0    0 -0.14627638615E+02  0.12523812675E+03 -0.65280361451E+02  0.14198620283E+03  0.00000000000E+00 0. -1.
        -13    1    5    5    0    0 -0.24757296213E+03  0.52633273983E+03 -0.26008837957E+03  0.63715342719E+03  0.00000000000E+00 0.  1.
          3    1    6    6  503    0 -0.48891835075E+02  0.18237716814E+03 -0.46559758248E+03  0.50242706118E+03  0.00000000000E+00 0. -1.
         -3    1    6    6    0  503 -0.20758972602E+03  0.32298348640E+03 -0.11067720148E+04  0.11714760431E+04  0.00000000000E+00 0.  1.
<mgrwt>
<rscale>  0 0.28877591E+04</rscale>
<asrwt>0</asrwt>
<pdfrwt beam="1">  1        2 0.51365188E+00 0.28877591E+04</pdfrwt>
<pdfrwt beam="2">  1       -3 0.96065252E-01 0.28877591E+04</pdfrwt>
<totfact> 0.55712994E-01</totfact>
</mgrwt>
</event>
<event>
12    7  0.1625631E-007  0.1607714E+04  0.7818608E-02  0.8815823E-01
          2   -1    0    0  501    0  0.00000000000E+00  0.00000000000E+00  0.99604726591E+03  0.99604726591E+03  0.00000000000E+00 0. -1.
         -1   -1    0    0    0  501 -0.00000000000E+00 -0.00000000000E+00 -0.64875058529E+03  0.64875058529E+03  0.00000000000E+00 0.  1.
         24    2    1    2    0    0 -0.16943094197E+03  0.12816458830E+03  0.63780339023E+03  0.67677608618E+03  0.78100579081E+02 0.  0.
        254    2    1    2    0    0  0.16943094197E+03 -0.12816458830E+03 -0.29050670960E+03  0.96802176501E+03  0.89863172848E+03 0.  0.
         23    2    4    4    0    0  0.11962161650E+02 -0.10358603779E+03 -0.59635343547E+03  0.61218591364E+03  0.90890111279E+02 0.  0.
         23    2    4    4    0    0  0.15746878032E+03 -0.24578550508E+02  0.30584672587E+03  0.35583585137E+03  0.87615132693E+02 0.  0.
          2    1    3    3  502    0 -0.10573760521E+03  0.66486303396E+02  0.25642718331E+03  0.28522932885E+03  0.00000000000E+00 0. -1.
         -1    1    3    3    0  502 -0.63693336758E+02  0.61678284903E+02  0.38137620692E+03  0.39154675733E+03  0.00000000000E+00 0.  1.
         13    1    5    5    0    0  0.21146753585E+02  0.70488377869E+01 -0.17655353075E+03  0.17795510816E+03  0.00000000000E+00 0.  1.
        -13    1    5    5    0    0 -0.91845919356E+01 -0.11063487558E+03 -0.41979990472E+03  0.43423080548E+03  0.00000000000E+00 0. -1.
          3    1    6    6  503    0  0.95688688371E+02  0.25931757128E+02  0.13729456222E+03  0.16934750640E+03  0.00000000000E+00 0. -1.
         -3    1    6    6    0  503  0.61780091950E+02 -0.50510307636E+02  0.16855216365E+03  0.18648834497E+03  0.00000000000E+00 0.  1.
<mgrwt>
<rscale>  0 0.16077142E+04</rscale>
<asrwt>0</asrwt>
<pdfrwt beam="1">  1        2 0.15323804E+00 0.16077142E+04</pdfrwt>
<pdfrwt beam="2">  1       -1 0.99807782E-01 0.16077142E+04</pdfrwt>
<totfact> 0.26527902E+01</totfact>
</mgrwt>
</event>
<event>
12    7  0.1625631E-007  0.2427939E+04  0.7818608E-02  0.8429117E-01
          2   -1    0    0  501    0  0.00000000000E+00  0.00000000000E+00  0.22178493860E+04  0.22178493860E+04  0.00000000000E+00 0. -1.
         -1   -1    0    0    0  501 -0.00000000000E+00 -0.00000000000E+00 -0.66448246502E+03  0.66448246502E+03  0.00000000000E+00 0.  1.
         24    2    1    2    0    0  0.92455267673E+03  0.45069189503E+03  0.84286437533E+03  0.13323033124E+04  0.81798072472E+02 0.  0.
        254    2    1    2    0    0 -0.92455267673E+03 -0.45069189503E+03  0.71050254569E+03  0.15500285387E+04  0.91643535886E+03 0.  0.
         23    2    4    4    0    0 -0.20557724882E+01  0.21249934860E+03  0.18450275180E+03  0.29467313383E+03  0.87354398995E+02 0.  0.
         23    2    4    4    0    0 -0.92249690424E+03 -0.66319124363E+03  0.52599979389E+03  0.12553554049E+04  0.91750996416E+02 0.  0.
          4    1    3    3  502    0  0.76755451479E+03  0.37400415091E+03  0.73769203124E+03  0.11283654421E+04  0.00000000000E+00 0. -1.
         -3    1    3    3    0  502  0.15699816194E+03  0.76687744129E+02  0.10517234409E+03  0.20393787023E+03  0.00000000000E+00 0.  1.
         13    1    5    5    0    0 -0.23937226096E+02  0.18242528422E+03  0.11830196831E+03  0.21874032738E+03  0.00000000000E+00 0. -1.
        -13    1    5    5    0    0  0.21881453607E+02  0.30074064371E+02  0.66200783491E+02  0.75932806445E+02  0.00000000000E+00 0.  1.
          3    1    6    6  503    0 -0.64390639121E+03 -0.48594650002E+03  0.41366835031E+03  0.90657649736E+03  0.00000000000E+00 0. -1.
         -3    1    6    6    0  503 -0.27859051304E+03 -0.17724474361E+03  0.11233144358E+03  0.34877890749E+03  0.00000000000E+00 0.  1.
<mgrwt>
<rscale>  0 0.24279391E+04</rscale>
<asrwt>0</asrwt>
<pdfrwt beam="1">  1        2 0.34120759E+00 0.24279391E+04</pdfrwt>
<pdfrwt beam="2">  1       -1 0.10222807E+00 0.24279391E+04</pdfrwt>
<totfact> 0.46650779E+00</totfact>
</mgrwt>
</event>
<event>
12    7  0.1625631E-007  0.1353746E+04  0.7818608E-02  0.8987997E-01
         -1   -1    0    0    0  501 -0.00000000000E+00  0.00000000000E+00  0.61071205690E+03  0.61071205690E+03  0.00000000000E+00 0.  1.
          2   -1    0    0  501    0  0.00000000000E+00 -0.00000000000E+00 -0.75020124863E+03  0.75020124863E+03  0.00000000000E+00 0. -1.
         24    2    1    2    0    0  0.48884849616E+02  0.23714519092E+03  0.26390808195E+03  0.36711933988E+03  0.80632275813E+02 0.  0.
        254    2    1    2    0    0 -0.48884849616E+02 -0.23714519092E+03 -0.40339727367E+03  0.99379396564E+03  0.87536821718E+03 0.  0.
         23    2    4    4    0    0 -0.28859302974E+03 -0.46233810295E+03 -0.16402297666E+03  0.57615426239E+03  0.89485970684E+02 0.  0.
         23    2    4    4    0    0  0.23970818012E+03  0.22519291203E+03 -0.23937429701E+03  0.41763970325E+03  0.94609769136E+02 0.  0.
          2    1    3    3  502    0 -0.50338919440E+01  0.48608732316E+01 -0.43161506772E+01  0.82217585312E+01  0.00000000000E+00 0. -1.
         -1    1    3    3    0  502  0.53918741560E+02  0.23228431769E+03  0.26822423262E+03  0.35889758135E+03  0.00000000000E+00 0.  1.
         13    1    5    5    0    0 -0.33046928648E+02 -0.14156691933E+02 -0.50798077394E+01  0.36308619724E+02  0.00000000000E+00 0. -1.
        -13    1    5    5    0    0 -0.25554610109E+03 -0.44818141102E+03 -0.15894316892E+03  0.53984564267E+03  0.00000000000E+00 0.  1.
          2    1    6    6  503    0  0.29543113000E+02  0.71309260951E+02 -0.85150105194E+02  0.11492757127E+03  0.00000000000E+00 0. -1.
         -2    1    6    6    0  503  0.21016506712E+03  0.15388365108E+03 -0.15422419182E+03  0.30271213198E+03  0.00000000000E+00 0.  1.
<mgrwt>
<rscale>  0 0.13537458E+04</rscale>
<asrwt>0</asrwt>
<pdfrwt beam="1">  1        2 0.11541558E+00 0.13537458E+04</pdfrwt>
<pdfrwt beam="2">  1       -1 0.93955702E-01 0.13537458E+04</pdfrwt>
<totfact> 0.45907119E+01</totfact>
</mgrwt>
</event>
<event>
12    7  0.1625631E-007  0.1158291E+04  0.7818608E-02  0.9150168E-01
         -1   -1    0    0    0  501 -0.00000000000E+00  0.00000000000E+00  0.96185923657E+03  0.96185923657E+03  0.00000000000E+00 0.  1.
          2   -1    0    0  501    0  0.00000000000E+00 -0.00000000000E+00 -0.34870975448E+03  0.34870975448E+03  0.00000000000E+00 0. -1.
         24    2    1    2    0    0 -0.19792463873E+03 -0.78308866060E+02  0.77121573917E+02  0.23962894634E+03  0.78535683862E+02 0.  0.
        254    2    1    2    0    0  0.19792463873E+03  0.78308866060E+02  0.53602790817E+03  0.10709400447E+04  0.90237476688E+03 0.  0.
         23    2    4    4    0    0 -0.28316391990E+03 -0.24880795547E+02  0.48146319891E+03  0.56736134565E+03  0.96391001231E+02 0.  0.
         23    2    4    4    0    0  0.48108855863E+03  0.10318966161E+03  0.54564709263E+02  0.50357869906E+03  0.92303256421E+02 0.  0.
          4    1    3    3  502    0 -0.99452610705E+02 -0.39473830576E+02 -0.27301300691E+01  0.10703484800E+03  0.00000000000E+00 0. -1.
         -3    1    3    3    0  502 -0.98472028026E+02 -0.38835035483E+02  0.79851703986E+02  0.13259409834E+03  0.00000000000E+00 0.  1.
         13    1    5    5    0    0 -0.10509957108E+03 -0.44032292647E+02  0.12980260042E+03  0.17272370339E+03  0.00000000000E+00 0. -1.
        -13    1    5    5    0    0 -0.17806434881E+03  0.19151497099E+02  0.35166059849E+03  0.39463764226E+03  0.00000000000E+00 0.  1.
          1    1    6    6  503    0  0.19377084985E+03 -0.20610088733E+01  0.69417596209E+01  0.19390610624E+03  0.00000000000E+00 0. -1.
         -1    1    6    6    0  503  0.28731770877E+03  0.10525067048E+03  0.47622949642E+02  0.30967259282E+03  0.00000000000E+00 0.  1.
<mgrwt>
<rscale>  0 0.11582913E+04</rscale>
<asrwt>0</asrwt>
<pdfrwt beam="1">  1        2 0.53647655E-01 0.11582913E+04</pdfrwt>
<pdfrwt beam="2">  1       -1 0.14797834E+00 0.11582913E+04</pdfrwt>
<totfact> 0.38050662E+01</totfact>
</mgrwt>
</event>
<event>
12    7  0.1625631E-007  0.1432886E+04  0.7818608E-02  0.8930352E-01
         -1   -1    0    0    0  501 -0.00000000000E+00  0.00000000000E+00  0.22315062294E+03  0.22315062294E+03  0.00000000000E+00 0.  1.
          2   -1    0    0  501    0  0.00000000000E+00 -0.00000000000E+00 -0.23001976369E+04  0.23001976369E+04  0.00000000000E+00 0. -1.
         24    2    1    2    0    0  0.24543892157E+03 -0.28443626258E+03 -0.97445100921E+03  0.10475625026E+04  0.81781267577E+02 0.  0.
        254    2    1    2    0    0 -0.24543892157E+03  0.28443626258E+03 -0.11025960048E+04  0.14757857573E+04  0.90613542035E+03 0.  0.
         23    2    4    4    0    0 -0.49170705260E+02 -0.99561579105E+02 -0.10183923015E+04  0.10283670004E+04  0.89919638505E+02 0.  0.
         23    2    4    4    0    0 -0.19626821631E+03  0.38399784169E+03 -0.84203703260E+02  0.44741875693E+03  0.84366612218E+02 0.  0.
          4    1    3    3  502    0  0.22272881560E+03 -0.28500950853E+03 -0.92097378873E+03  0.98946008751E+03  0.00000000000E+00 0. -1.
         -3    1    3    3    0  502  0.22710105974E+02  0.57324594874E+00 -0.53477220478E+02  0.58102415047E+02  0.00000000000E+00 0.  1.
         13    1    5    5    0    0 -0.24917495649E+02 -0.37218487992E+02 -0.13077232987E+03  0.13822987991E+03  0.00000000000E+00 0. -1.
        -13    1    5    5    0    0 -0.24253209611E+02 -0.62343091113E+02 -0.88761997162E+03  0.89013712045E+03  0.00000000000E+00 0.  1.
          3    1    6    6  503    0 -0.60037372341E+02  0.20653552611E+03 -0.29429415672E+02  0.21708869185E+03  0.00000000000E+00 0. -1.
         -3    1    6    6    0  503 -0.13623084397E+03  0.17746231557E+03 -0.54774287587E+02  0.23033006508E+03  0.00000000000E+00 0.  1.
<mgrwt>
<rscale>  0 0.14328859E+04</rscale>
<asrwt>0</asrwt>
<pdfrwt beam="1">  1        2 0.35387656E+00 0.14328859E+04</pdfrwt>
<pdfrwt beam="2">  1       -1 0.34330865E-01 0.14328859E+04</pdfrwt>
<totfact> 0.40344506E+01</totfact>
</mgrwt>
</event>
<event>
12    7  0.1625631E-007  0.1700740E+04  0.7818608E-02  0.8760942E-01
         -1   -1    0    0    0  501 -0.00000000000E+00  0.00000000000E+00  0.31108955928E+03  0.31108955928E+03  0.00000000000E+00 0.  1.
          2   -1    0    0  501    0  0.00000000000E+00 -0.00000000000E+00 -0.23245044648E+04  0.23245044648E+04  0.00000000000E+00 0. -1.
         24    2    1    2    0    0 -0.10040907157E+03 -0.58067531595E+03 -0.64675233177E+03  0.87872619993E+03  0.81273314202E+02 0.  0.
        254    2    1    2    0    0  0.10040907157E+03  0.58067531595E+03 -0.13666625737E+04  0.17568678241E+04  0.93356957791E+03 0.  0.
         23    2    4    4    0    0  0.44070184792E+03  0.28655377993E+03 -0.34263772279E+03  0.63471384732E+03  0.95550360254E+02 0.  0.
         23    2    4    4    0    0 -0.34029277635E+03  0.29412153602E+03 -0.10240248509E+04  0.11221539768E+04  0.91082384313E+02 0.  0.
          4    1    3    3  502    0 -0.11355823785E+03 -0.53217401061E+03 -0.58199029838E+03  0.79675426473E+03  0.00000000000E+00 0. -1.
         -3    1    3    3    0  502  0.13149166280E+02 -0.48501305337E+02 -0.64762033383E+02  0.81971935204E+02  0.00000000000E+00 0.  1.
         13    1    5    5    0    0  0.42161292891E+03  0.28578605362E+03 -0.34539792543E+03  0.61541112857E+03  0.00000000000E+00 0.  1.
        -13    1    5    5    0    0  0.19088919008E+02  0.76772630474E+00  0.27602026383E+01  0.19302718751E+02  0.00000000000E+00 0. -1.
          3    1    6    6  503    0 -0.76599672678E+02  0.11117968493E+03 -0.24771584553E+03  0.28211978364E+03  0.00000000000E+00 0. -1.
         -3    1    6    6    0  503 -0.26369310367E+03  0.18294185109E+03 -0.77630900541E+03  0.84003419317E+03  0.00000000000E+00 0.  1.
<mgrwt>
<rscale>  0 0.17007399E+04</rscale>
<asrwt>0</asrwt>
<pdfrwt beam="1">  1        2 0.35761606E+00 0.17007399E+04</pdfrwt>
<pdfrwt beam="2">  1       -1 0.47859934E-01 0.17007399E+04</pdfrwt>
<totfact> 0.20767963E+01</totfact>
</mgrwt>
</event>
<event>
12    7  0.1625631E-007  0.1886010E+04  0.7818608E-02  0.8661851E-01
          2   -1    0    0  501    0  0.00000000000E+00  0.00000000000E+00  0.67538954685E+03  0.67538954685E+03  0.00000000000E+00 0. -1.
         -1   -1    0    0    0  501 -0.00000000000E+00 -0.00000000000E+00 -0.13166603635E+04  0.13166603635E+04  0.00000000000E+00 0.  1.
         24    2    1    2    0    0  0.10889663042E+03  0.33760058345E+03 -0.91673183756E+03  0.98641967046E+03  0.82424961000E+02 0.  0.
        254    2    1    2    0    0 -0.10889663042E+03 -0.33760058345E+03  0.27546102096E+03  0.10056302399E+04  0.89976706718E+03 0.  0.
         23    2    4    4    0    0 -0.12182032716E+03 -0.50414134596E+03 -0.14271477436E+03  0.54547438189E+03  0.90421820725E+02 0.  0.
         23    2    4    4    0    0  0.12923696740E+02  0.16654076251E+03  0.41817579533E+03  0.46015585796E+03  0.94707815437E+02 0.  0.
          2    1    3    3  502    0 -0.69690700292E+01  0.95612034291E+02 -0.24547995000E+03  0.26353488363E+03  0.00000000000E+00 0. -1.
         -1    1    3    3    0  502  0.11586570045E+03  0.24198854916E+03 -0.67125188757E+03  0.72288478683E+03  0.00000000000E+00 0.  1.
         13    1    5    5    0    0 -0.98395656234E+01 -0.10777967704E+03 -0.65252092573E+02  0.12637686267E+03  0.00000000000E+00 0. -1.
        -13    1    5    5    0    0 -0.11198076154E+03 -0.39636166892E+03 -0.77462681791E+02  0.41909751922E+03  0.00000000000E+00 0.  1.
          3    1    6    6  503    0 -0.22942571680E+02  0.13339833436E+03  0.35751561291E+03  0.38228116705E+03  0.00000000000E+00 0. -1.
         -3    1    6    6    0  503  0.35866268421E+02  0.33142428146E+02  0.60660182414E+02  0.77874690910E+02  0.00000000000E+00 0.  1.
<mgrwt>
<rscale>  0 0.18860102E+04</rscale>
<asrwt>0</asrwt>
<pdfrwt beam="1">  1        2 0.10390608E+00 0.18860102E+04</pdfrwt>
<pdfrwt beam="2">  1       -1 0.20256313E+00 0.18860102E+04</pdfrwt>
<totfact> 0.66305789E+00</totfact>
</mgrwt>
</event>
<event>
12    7  0.1625631E-007  0.1529967E+04  0.7818608E-02  0.8864766E-01
         -1   -1    0    0    0  501 -0.00000000000E+00  0.00000000000E+00  0.52516157071E+03  0.52516157071E+03  0.00000000000E+00 0.  1.
          2   -1    0    0  501    0  0.00000000000E+00 -0.00000000000E+00 -0.11143226555E+04  0.11143226555E+04  0.00000000000E+00 0. -1.
         24    2    1    2    0    0 -0.30801223051E+03  0.25943123677E+03 -0.50394196601E+03  0.64984701695E+03  0.78533684413E+02 0.  0.
        254    2    1    2    0    0  0.30801223051E+03 -0.25943123677E+03 -0.85219118830E+02  0.98963720930E+03  0.89996855893E+03 0.  0.
         23    2    4    4    0    0  0.15022423437E+03  0.22217453511E+02 -0.45614344517E+03  0.48984862186E+03  0.93935583992E+02 0.  0.
         23    2    4    4    0    0  0.15778799614E+03 -0.28164869028E+03  0.37092432634E+03  0.49978858744E+03  0.89334986476E+02 0.  0.
          2    1    3    3  502    0 -0.27834716531E+03  0.19773697594E+03 -0.40863840209E+03  0.53250577438E+03  0.00000000000E+00 0. -1.
         -1    1    3    3    0  502 -0.29665065196E+02  0.61694260829E+02 -0.95303563919E+02  0.11734124257E+03  0.00000000000E+00 0.  1.
         13    1    5    5    0    0  0.64345671502E+02 -0.22515536908E+02 -0.10183403940E+03  0.12254585437E+03  0.00000000000E+00 0.  1.
        -13    1    5    5    0    0  0.85878562873E+02  0.44732990419E+02 -0.35430940576E+03  0.36730276749E+03  0.00000000000E+00 0. -1.
          2    1    6    6  503    0  0.16052078367E+03 -0.21554554875E+03  0.29389965381E+03  0.39825094110E+03  0.00000000000E+00 0. -1.
         -2    1    6    6    0  503 -0.27327875303E+01 -0.66103141524E+02  0.77024672523E+02  0.10153764634E+03  0.00000000000E+00 0.  1.
<mgrwt>
<rscale>  0 0.15299666E+04</rscale>
<asrwt>0</asrwt>
<pdfrwt beam="1">  1        2 0.17143425E+00 0.15299666E+04</pdfrwt>
<pdfrwt beam="2">  1       -1 0.80794089E-01 0.15299666E+04</pdfrwt>
<totfact> 0.35854963E+01</totfact>
</mgrwt>
</event>
<event>
12    7  0.1625631E-007  0.1917571E+04  0.7818608E-02  0.8646159E-01
          2   -1    0    0  501    0  0.00000000000E+00  0.00000000000E+00  0.63823328431E+03  0.63823328431E+03  0.00000000000E+00 0. -1.
         -1   -1    0    0    0  501 -0.00000000000E+00 -0.00000000000E+00 -0.14403348292E+04  0.14403348292E+04  0.00000000000E+00 0.  1.
         24    2    1    2    0    0 -0.10935053216E+03 -0.25330247612E+03 -0.10609475452E+04  0.10988134619E+04  0.75243916706E+02 0.  0.
        254    2    1    2    0    0  0.10935053216E+03  0.25330247612E+03  0.25884600034E+03  0.97975465161E+03  0.90376890972E+03 0.  0.
         23    2    4    4    0    0  0.42463233019E+03  0.52724284619E+02 -0.10415571747E+03  0.44901240894E+03  0.87585751533E+02 0.  0.
         23    2    4    4    0    0 -0.31528179803E+03  0.20057819150E+03  0.36300171781E+03  0.53074224268E+03  0.10140442769E+03 0.  0.
          4    1    3    3  502    0 -0.32908581953E+02 -0.28142039777E+02 -0.25006309494E+03  0.25378435850E+03  0.00000000000E+00 0. -1.
         -3    1    3    3    0  502 -0.76441950204E+02 -0.22516043634E+03 -0.81088445027E+03  0.84502910337E+03  0.00000000000E+00 0.  1.
         13    1    5    5    0    0  0.36735904260E+03  0.56507751215E+02 -0.59770530950E+02  0.37645492226E+03  0.00000000000E+00 0. -1.
        -13    1    5    5    0    0  0.57273287590E+02 -0.37834665951E+01 -0.44385186516E+02  0.72557486678E+02  0.00000000000E+00 0.  1.
          1    1    6    6  503    0 -0.13715282628E+03  0.14102658966E+03  0.15466039342E+03  0.25023835446E+03  0.00000000000E+00 0. -1.
         -1    1    6    6    0  503 -0.17812897175E+03  0.59551601836E+02  0.20834132438E+03  0.28050388822E+03  0.00000000000E+00 0.  1.
<mgrwt>
<rscale>  0 0.19175710E+04</rscale>
<asrwt>0</asrwt>
<pdfrwt beam="1">  1        2 0.98189736E-01 0.19175710E+04</pdfrwt>
<pdfrwt beam="2">  1       -1 0.22158997E+00 0.19175710E+04</pdfrwt>
<totfact> 0.52735427E+00</totfact>
</mgrwt>
</event>
<event>
12    7  0.1625631E-007  0.2608227E+04  0.7818608E-02  0.8365412E-01
          2   -1    0    0  501    0  0.00000000000E+00  0.00000000000E+00  0.35000305929E+04  0.35000305929E+04  0.00000000000E+00 0. -1.
         -1   -1    0    0    0  501 -0.00000000000E+00 -0.00000000000E+00 -0.48591351383E+03  0.48591351383E+03  0.00000000000E+00 0.  1.
         24    2    1    2    0    0 -0.18195719464E+03  0.90712479764E+03  0.23583505250E+04  0.25347156138E+04  0.83559708959E+02 0.  0.
        254    2    1    2    0    0  0.18195719464E+03 -0.90712479764E+03  0.65576655400E+03  0.14512284929E+04  0.90556642272E+03 0.  0.
         23    2    4    4    0    0  0.67822735015E+02 -0.21366097122E+03 -0.21791667440E+03  0.32618362902E+03  0.93043800727E+02 0.  0.
         23    2    4    4    0    0  0.11413445962E+03 -0.69346382642E+03  0.87368322841E+03  0.11250448638E+04  0.92113020875E+02 0.  0.
          2    1    3    3  502    0 -0.13669243110E+03  0.51103347231E+03  0.12782413333E+04  0.13833802575E+04  0.00000000000E+00 0. -1.
         -1    1    3    3    0  502 -0.45264763541E+02  0.39609132532E+03  0.10801091917E+04  0.11513353563E+04  0.00000000000E+00 0.  1.
         13    1    5    5    0    0  0.32879073510E+02 -0.18832797307E+03 -0.20677093986E+03  0.28160731611E+03  0.00000000000E+00 0.  1.
        -13    1    5    5    0    0  0.34943661505E+02 -0.25332998145E+02 -0.11145734542E+02  0.44576312913E+02  0.00000000000E+00 0. -1.
          2    1    6    6  503    0  0.12395711156E+03 -0.68381041138E+03  0.85431532325E+03  0.11012795811E+04  0.00000000000E+00 0.  1.
         -2    1    6    6    0  503 -0.98226519406E+01 -0.96534150420E+01  0.19367905154E+02  0.23765282729E+02  0.00000000000E+00 0. -1.
<mgrwt>
<rscale>  0 0.26082271E+04</rscale>
<asrwt>0</asrwt>
<pdfrwt beam="1">  1        2 0.53846623E+00 0.26082271E+04</pdfrwt>
<pdfrwt beam="2">  1       -1 0.74755927E-01 0.26082271E+04</pdfrwt>
<totfact> 0.14717736E+00</totfact>
</mgrwt>
</event>
<event>
12    7  0.1625631E-007  0.3028208E+04  0.7818608E-02  0.8235721E-01
          2   -1    0    0  501    0  0.00000000000E+00  0.00000000000E+00  0.24599649778E+04  0.24599649778E+04  0.00000000000E+00 0. -1.
         -1   -1    0    0    0  501 -0.00000000000E+00 -0.00000000000E+00 -0.93192830577E+03  0.93192830577E+03  0.00000000000E+00 0.  1.
         24    2    1    2    0    0  0.60177118155E+03  0.71714882590E+03  0.18288897023E+04  0.20562043334E+04  0.81900695932E+02 0.  0.
        254    2    1    2    0    0 -0.60177118155E+03 -0.71714882590E+03 -0.30085303020E+03  0.13356889503E+04  0.90394769353E+03 0.  0.
         23    2    4    4    0    0  0.29256320935E+02  0.15023384442E+03 -0.17907979848E+03  0.25270581625E+03  0.91457722589E+02 0.  0.
         23    2    4    4    0    0 -0.63102750248E+03 -0.86738267032E+03 -0.12177323173E+03  0.10829831340E+04  0.86460065399E+02 0.  0.
          2    1    3    3  502    0  0.44895254707E+03  0.49025623595E+03  0.12429085676E+04  0.14095145526E+04  0.00000000000E+00 0. -1.
         -1    1    3    3    0  502  0.15281863447E+03  0.22689258995E+03  0.58598113464E+03  0.64668978078E+03  0.00000000000E+00 0.  1.
         13    1    5    5    0    0 -0.29540784009E+01  0.86953172717E+00  0.95036450497E+01  0.99900917840E+01  0.00000000000E+00 0.  1.
        -13    1    5    5    0    0  0.32210399336E+02  0.14936431270E+03 -0.18858344353E+03  0.24271572447E+03  0.00000000000E+00 0. -1.
          1    1    6    6  503    0 -0.24825156552E+03 -0.38328453450E+03 -0.16742757593E+02  0.45696410592E+03  0.00000000000E+00 0. -1.
         -1    1    6    6    0  503 -0.38277593697E+03 -0.48409813583E+03 -0.10503047413E+03  0.62601902809E+03  0.00000000000E+00 0.  1.
<mgrwt>
<rscale>  0 0.30282080E+04</rscale>
<asrwt>0</asrwt>
<pdfrwt beam="1">  1        2 0.37845615E+00 0.30282080E+04</pdfrwt>
<pdfrwt beam="2">  1       -1 0.14337359E+00 0.30282080E+04</pdfrwt>
<totfact> 0.14030006E+00</totfact>
</mgrwt>
</event>
<event>
12    7  0.1625631E-007  0.1193679E+04  0.7818608E-02  0.9118407E-01
          2   -1    0    0  501    0  0.00000000000E+00  0.00000000000E+00  0.66998762282E+03  0.66998762282E+03  0.00000000000E+00 0. -1.
         -1   -1    0    0    0  501 -0.00000000000E+00 -0.00000000000E+00 -0.53167779666E+03  0.53167779666E+03  0.00000000000E+00 0.  1.
         24    2    1    2    0    0  0.75042128082E+02  0.10311252066E+03  0.24316771677E+03  0.28724567303E+03  0.84356536753E+02 0.  0.
        254    2    1    2    0    0 -0.75042128082E+02 -0.10311252066E+03 -0.10485789061E+03  0.91441974645E+03  0.89939134006E+03 0.  0.
         23    2    4    4    0    0 -0.61929101511E+02  0.24861114162E+03  0.27662979863E+03  0.38765005707E+03  0.90032260366E+02 0.  0.
         23    2    4    4    0    0 -0.13113026571E+02 -0.35172366228E+03 -0.38148768924E+03  0.52676968937E+03  0.89844101244E+02 0.  0.
          4    1    3    3  502    0  0.67928503596E+02  0.11644334228E+03  0.19733350516E+03  0.23898503263E+03  0.00000000000E+00 0. -1.
         -3    1    3    3    0  502  0.71136244856E+01 -0.13330821619E+02  0.45834211607E+02  0.48260640402E+02  0.00000000000E+00 0.  1.
         13    1    5    5    0    0 -0.44906516849E+02  0.36205590830E+02  0.47233738603E+02  0.74555121388E+02  0.00000000000E+00 0. -1.
        -13    1    5    5    0    0 -0.17022584662E+02  0.21240555079E+03  0.22939606003E+03  0.31309493568E+03  0.00000000000E+00 0.  1.
          3    1    6    6  503    0  0.31422687765E+01 -0.84378195742E+02 -0.41879618105E+02  0.94252088477E+02  0.00000000000E+00 0. -1.
         -3    1    6    6    0  503 -0.16255295347E+02 -0.26734546653E+03 -0.33960807114E+03  0.43251760090E+03  0.00000000000E+00 0.  1.
<mgrwt>
<rscale>  0 0.11936793E+04</rscale>
<asrwt>0</asrwt>
<pdfrwt beam="1">  1        2 0.10307502E+00 0.11936793E+04</pdfrwt>
<pdfrwt beam="2">  1       -1 0.81796584E-01 0.11936793E+04</pdfrwt>
<totfact> 0.72667380E+01</totfact>
</mgrwt>
</event>
<event>
12    7  0.1625631E-007  0.1391513E+04  0.7818608E-02  0.8959985E-01
          2   -1    0    0  501    0  0.00000000000E+00  0.00000000000E+00  0.36289793865E+04  0.36289793865E+04  0.00000000000E+00 0. -1.
         -1   -1    0    0    0  501 -0.00000000000E+00 -0.00000000000E+00 -0.13339199971E+03  0.13339199971E+03  0.00000000000E+00 0.  1.
         24    2    1    2    0    0 -0.14985621700E+03 -0.10860063980E+03  0.19596422892E+04  0.19699744991E+04  0.79690907413E+02 0.  0.
        254    2    1    2    0    0  0.14985621700E+03  0.10860063980E+03  0.15359450976E+04  0.17923968872E+04  0.90515649110E+03 0.  0.
         23    2    4    4    0    0  0.32609047249E+03  0.24836977027E+03  0.14850715403E+04  0.15433103448E+04  0.91360831337E+02 0.  0.
         23    2    4    4    0    0 -0.17623425549E+03 -0.13976913047E+03  0.50873557351E+02  0.24908654238E+03  0.94138536827E+02 0.  0.
          2    1    3    3  502    0 -0.13491201078E+03 -0.11050595123E+03  0.19136026477E+04  0.19215326979E+04  0.00000000000E+00 0. -1.
         -1    1    3    3    0  502 -0.14944206222E+02  0.19053114319E+01  0.46039641526E+02  0.48441801196E+02  0.00000000000E+00 0.  1.
         13    1    5    5    0    0  0.24949114863E+01  0.13446954865E+01 -0.57714580892E+00  0.28923842346E+01  0.00000000000E+00 0. -1.
        -13    1    5    5    0    0  0.32359556100E+03  0.24702507479E+03  0.14856486861E+04  0.15404179605E+04  0.00000000000E+00 0.  1.
          3    1    6    6  503    0 -0.14867231537E+03 -0.14367810436E+03  0.66472700831E+02  0.21717613816E+03  0.00000000000E+00 0. -1.
         -3    1    6    6    0  503 -0.27561940112E+02  0.39089738933E+01 -0.15599143480E+02  0.31910404212E+02  0.00000000000E+00 0.  1.
<mgrwt>
<rscale>  0 0.13915126E+04</rscale>
<asrwt>0</asrwt>
<pdfrwt beam="1">  1        2 0.55830445E+00 0.13915126E+04</pdfrwt>
<pdfrwt beam="2">  1       -1 0.20521849E-01 0.13915126E+04</pdfrwt>
<totfact> 0.14584085E+01</totfact>
</mgrwt>
</event>
<event>
12    7  0.1625631E-007  0.1901450E+04  0.7818608E-02  0.8654135E-01
          2   -1    0    0  501    0  0.00000000000E+00  0.00000000000E+00  0.34846837170E+04  0.34846837170E+04  0.00000000000E+00 0. -1.
         -1   -1    0    0    0  501 -0.00000000000E+00 -0.00000000000E+00 -0.25938583715E+03  0.25938583715E+03  0.00000000000E+00 0.  1.
         24    2    1    2    0    0 -0.44840538313E+03 -0.13537181609E+03  0.23699996697E+04  0.24172401969E+04  0.82212035398E+02 0.  0.
        254    2    1    2    0    0  0.44840538313E+03  0.13537181609E+03  0.85529821020E+03  0.13268293573E+04  0.89974896439E+03 0.  0.
         23    2    4    4    0    0  0.27521896809E+03 -0.20101880259E+03 -0.35894102095E+02  0.35431689085E+03  0.89989072564E+02 0.  0.
         23    2    4    4    0    0  0.17318641504E+03  0.33639061868E+03  0.89119231229E+03  0.97251246649E+03  0.91676481743E+02 0.  0.
          2    1    3    3  502    0 -0.19242999682E+03 -0.81394570962E+02  0.88118759309E+03  0.90561909988E+03  0.00000000000E+00 0. -1.
         -1    1    3    3    0  502 -0.25597538631E+03 -0.53977245123E+02  0.14888120766E+04  0.15116210970E+04  0.00000000000E+00 0.  1.
         13    1    5    5    0    0  0.12114242030E+03 -0.67629704545E+02 -0.55821536408E+02  0.14955034891E+03  0.00000000000E+00 0.  1.
        -13    1    5    5    0    0  0.15407654779E+03 -0.13338909805E+03  0.19927434313E+02  0.20476654193E+03  0.00000000000E+00 0. -1.
          3    1    6    6  503    0  0.50912716647E+02  0.63041442276E+02  0.11606653265E+03  0.14155482387E+03  0.00000000000E+00 0. -1.
         -3    1    6    6    0  503  0.12227369839E+03  0.27334917640E+03  0.77512577965E+03  0.83095764262E+03  0.00000000000E+00 0.  1.
<mgrwt>
<rscale>  0 0.19014496E+04</rscale>
<asrwt>0</asrwt>
<pdfrwt beam="1">  1        2 0.53610515E+00 0.19014496E+04</pdfrwt>
<pdfrwt beam="2">  1       -1 0.39905516E-01 0.19014496E+04</pdfrwt>
<totfact> 0.54702843E+00</totfact>
</mgrwt>
</event>
<event>
12    7  0.1625631E-007  0.1394297E+04  0.7818608E-02  0.8957957E-01
         -1   -1    0    0    0  501 -0.00000000000E+00  0.00000000000E+00  0.58079853228E+03  0.58079853228E+03  0.00000000000E+00 0.  1.
          2   -1    0    0  501    0  0.00000000000E+00 -0.00000000000E+00 -0.83680695558E+03  0.83680695558E+03  0.00000000000E+00 0. -1.
         24    2    1    2    0    0 -0.19305337289E+03 -0.12433274713E+03 -0.42286640962E+03  0.48782195746E+03  0.80162491229E+02 0.  0.
        254    2    1    2    0    0  0.19305337289E+03  0.12433274713E+03  0.16685798633E+03  0.92978353041E+03  0.88539685397E+03 0.  0.
         23    2    4    4    0    0 -0.36491868271E+02 -0.18223854766E+03 -0.27122619250E+03  0.34076190383E+03  0.89512473458E+02 0.  0.
         23    2    4    4    0    0  0.22954524116E+03  0.30657129479E+03  0.43808417883E+03  0.58902162657E+03  0.91387922095E+02 0.  0.
          2    1    3    3  502    0 -0.14685474641E+03 -0.78794564092E+02 -0.36351673492E+03  0.39989913284E+03  0.00000000000E+00 0. -1.
         -1    1    3    3    0  502 -0.46198626474E+02 -0.45538183038E+02 -0.59349674696E+02  0.87922824619E+02  0.00000000000E+00 0.  1.
         13    1    5    5    0    0 -0.49365669664E+02 -0.18380671295E+03 -0.26529345053E+03  0.32650037054E+03  0.00000000000E+00 0. -1.
        -13    1    5    5    0    0  0.12873801393E+02  0.15681652899E+01 -0.59327419652E+01  0.14261533295E+02  0.00000000000E+00 0.  1.
          1    1    6    6  503    0  0.10625056702E+03  0.19470327022E+03  0.29773402403E+03  0.37127361271E+03  0.00000000000E+00 0. -1.
         -1    1    6    6    0  503  0.12329467414E+03  0.11186802457E+03  0.14035015480E+03  0.21774801387E+03  0.00000000000E+00 0.  1.
<mgrwt>
<rscale>  0 0.13942973E+04</rscale>
<asrwt>0</asrwt>
<pdfrwt beam="1">  1        2 0.12873953E+00 0.13942973E+04</pdfrwt>
<pdfrwt beam="2">  1       -1 0.89353621E-01 0.13942973E+04</pdfrwt>
<totfact> 0.44249008E+01</totfact>
</mgrwt>
</event>
<event>
12    7  0.1625631E-007  0.1280369E+04  0.7818608E-02  0.9045279E-01
         -1   -1    0    0    0  501 -0.00000000000E+00  0.00000000000E+00  0.37970606879E+03  0.37970606879E+03  0.00000000000E+00 0.  1.
          2   -1    0    0  501    0  0.00000000000E+00 -0.00000000000E+00 -0.10793508517E+04  0.10793508517E+04  0.00000000000E+00 0. -1.
         24    2    1    2    0    0  0.10676081050E+03  0.23171515232E+03 -0.38342460632E+03  0.46749246671E+03  0.80280727616E+02 0.  0.
        254    2    1    2    0    0 -0.10676081050E+03 -0.23171515232E+03 -0.31622017655E+03  0.99156445374E+03  0.90449714394E+03 0.  0.
         23    2    4    4    0    0  0.21106374183E+02 -0.32047262180E+03  0.23640120284E+03  0.41013845191E+03  0.95811485113E+02 0.  0.
         23    2    4    4    0    0 -0.12786718468E+03  0.88757469478E+02 -0.55262137938E+03  0.58142600183E+03  0.91858050006E+02 0.  0.
          2    1    3    3  502    0  0.26674940178E+02  0.15018791855E+03 -0.20308385174E+03  0.25399018515E+03  0.00000000000E+00 0. -1.
         -1    1    3    3    0  502  0.80085870320E+02  0.81527233763E+02 -0.18034075458E+03  0.21350228156E+03  0.00000000000E+00 0.  1.
         13    1    5    5    0    0  0.14519191488E+02 -0.46915216651E+02  0.82987942849E+02  0.96430509348E+02  0.00000000000E+00 0.  1.
        -13    1    5    5    0    0  0.65871826944E+01 -0.27355740514E+03  0.15341325999E+03  0.31370794256E+03  0.00000000000E+00 0. -1.
          3    1    6    6  503    0 -0.25847196144E+02  0.69123958950E+02 -0.28348846615E+03  0.29293669912E+03  0.00000000000E+00 0. -1.
         -3    1    6    6    0  503 -0.10201998854E+03  0.19633510528E+02 -0.26913291323E+03  0.28848930271E+03  0.00000000000E+00 0.  1.
<mgrwt>
<rscale>  0 0.12803688E+04</rscale>
<asrwt>0</asrwt>
<pdfrwt beam="1">  1        2 0.16605397E+00 0.12803688E+04</pdfrwt>
<pdfrwt beam="2">  1       -1 0.58416320E-01 0.12803688E+04</pdfrwt>
<totfact> 0.74580522E+01</totfact>
</mgrwt>
</event>
<event>
12    7  0.1625631E-007  0.3672013E+04  0.7818608E-02  0.8074193E-01
          2   -1    0    0  501    0  0.00000000000E+00  0.00000000000E+00  0.15301709646E+04  0.15301709646E+04  0.00000000000E+00 0. -1.
         -1   -1    0    0    0  501 -0.00000000000E+00 -0.00000000000E+00 -0.22029690932E+04  0.22029690932E+04  0.00000000000E+00 0.  1.
         24    2    1    2    0    0 -0.15072751705E+04  0.24945048616E+03  0.49865198725E+03  0.16090967732E+04  0.80216185691E+02 0.  0.
        254    2    1    2    0    0  0.15072751705E+04 -0.24945048616E+03 -0.11714501158E+04  0.21240432846E+04  0.89730737016E+03 0.  0.
         23    2    4    4    0    0  0.10065655533E+04 -0.12457110075E+03 -0.22658831713E+03  0.10435294359E+04  0.94441759236E+02 0.  0.
         23    2    4    4    0    0  0.50070961722E+03 -0.12487938541E+03 -0.94486179865E+03  0.10805138487E+04  0.91876967235E+02 0.  0.
          2    1    3    3  502    0 -0.11801903333E+04  0.21371750251E+03  0.41999140390E+03  0.12707939144E+04  0.00000000000E+00 0. -1.
         -1    1    3    3    0  502 -0.32708483721E+03  0.35732983649E+02  0.78660583349E+02  0.33830285873E+03  0.00000000000E+00 0.  1.
         13    1    5    5    0    0  0.31921887100E+02 -0.52808223481E+00  0.90061450720E+01  0.33172223259E+02  0.00000000000E+00 0. -1.
        -13    1    5    5    0    0  0.97464366617E+03 -0.12404301852E+03 -0.23559446220E+03  0.10103572126E+04  0.00000000000E+00 0.  1.
          2    1    6    6  503    0  0.45331271405E+03 -0.10567376906E+03 -0.89646714500E+03  0.10101052936E+04  0.00000000000E+00 0.  1.
         -2    1    6    6    0  503  0.47396903173E+02 -0.19205616347E+02 -0.48394653651E+02  0.70408555103E+02  0.00000000000E+00 0. -1.
<mgrwt>
<rscale>  0 0.36720127E+04</rscale>
<asrwt>0</asrwt>
<pdfrwt beam="1">  1        2 0.23541092E+00 0.36720127E+04</pdfrwt>
<pdfrwt beam="2">  1       -1 0.33891832E+00 0.36720127E+04</pdfrwt>
<totfact> 0.20704441E-01</totfact>
</mgrwt>
</event>
<event>
12    7  0.1625631E-007  0.1532498E+04  0.7818608E-02  0.8863125E-01
         -1   -1    0    0    0  501 -0.00000000000E+00  0.00000000000E+00  0.62191449263E+03  0.62191449263E+03  0.00000000000E+00 0.  1.
          2   -1    0    0  501    0  0.00000000000E+00 -0.00000000000E+00 -0.94408075198E+03  0.94408075198E+03  0.00000000000E+00 0. -1.
         24    2    1    2    0    0 -0.41524311140E+03  0.45463590925E+02 -0.31036582702E+03  0.52594030696E+03  0.76108345421E+02 0.  0.
        254    2    1    2    0    0  0.41524311140E+03 -0.45463590925E+02 -0.11800432332E+02  0.10400549376E+04  0.95240812862E+03 0.  0.
         23    2    4    4    0    0 -0.24257135921E+03  0.11607493076E+03 -0.17934716035E+03  0.33627321716E+03  0.92736286307E+02 0.  0.
         23    2    4    4    0    0  0.65781447060E+03 -0.16153852168E+03  0.16754672802E+03  0.70378172048E+03  0.91772720837E+02 0.  0.
          4    1    3    3  502    0 -0.34636450223E+03  0.15763154164E+02 -0.23036583670E+03  0.41627546668E+03  0.00000000000E+00 0. -1.
         -3    1    3    3    0  502 -0.68878609162E+02  0.29700436761E+02 -0.79999990317E+02  0.10966484028E+03  0.00000000000E+00 0.  1.
         13    1    5    5    0    0 -0.27047238964E+02  0.54885428109E+01 -0.60398283107E+02  0.66405043785E+02  0.00000000000E+00 0.  1.
        -13    1    5    5    0    0 -0.21552412024E+03  0.11058638795E+03 -0.11894887724E+03  0.26986817338E+03  0.00000000000E+00 0. -1.
          1    1    6    6  503    0  0.27527867928E+03 -0.76034574753E+02  0.11674906326E+03  0.30852868845E+03  0.00000000000E+00 0. -1.
         -1    1    6    6    0  503  0.38253579132E+03 -0.85503946929E+02  0.50797664753E+02  0.39525303203E+03  0.00000000000E+00 0.  1.
<mgrwt>
<rscale>  0 0.15324980E+04</rscale>
<asrwt>0</asrwt>
<pdfrwt beam="1">  1        2 0.14524319E+00 0.15324980E+04</pdfrwt>
<pdfrwt beam="2">  1       -1 0.95679153E-01 0.15324980E+04</pdfrwt>
<totfact> 0.31758659E+01</totfact>
</mgrwt>
</event>
<event>
12    7  0.1625631E-007  0.1923319E+04  0.7818608E-02  0.8643335E-01
          2   -1    0    0  501    0  0.00000000000E+00  0.00000000000E+00  0.11822324158E+04  0.11822324158E+04  0.00000000000E+00 0. -1.
         -1   -1    0    0    0  501 -0.00000000000E+00 -0.00000000000E+00 -0.78223956197E+03  0.78223956197E+03  0.00000000000E+00 0.  1.
         24    2    1    2    0    0 -0.27604267303E+03 -0.59394934963E+03  0.51777033248E+03  0.83872099951E+03  0.79946297980E+02 0.  0.
        254    2    1    2    0    0  0.27604267303E+03  0.59394934963E+03 -0.11777747863E+03  0.11257509783E+04  0.90800239171E+03 0.  0.
         23    2    4    4    0    0 -0.20113821920E+03 -0.10254909064E+03 -0.13499867593E+03  0.27640069320E+03  0.84851643986E+02 0.  0.
         23    2    4    4    0    0  0.47718089223E+03  0.69649844027E+03  0.17221197299E+02  0.84935028507E+03  0.91036563558E+02 0.  0.
          4    1    3    3  502    0 -0.10406324446E+02 -0.14570706121E+01  0.81017003125E+01  0.13268466046E+02  0.00000000000E+00 0. -1.
         -3    1    3    3    0  502 -0.26563634858E+03 -0.59249227902E+03  0.50966863217E+03  0.82545253346E+03  0.00000000000E+00 0.  1.
         13    1    5    5    0    0  0.72824279385E+01  0.23776365601E+01 -0.24704981236E+01  0.80492405400E+01  0.00000000000E+00 0. -1.
        -13    1    5    5    0    0 -0.20842064714E+03 -0.10492672720E+03 -0.13252817781E+03  0.26835145266E+03  0.00000000000E+00 0.  1.
          1    1    6    6  503    0  0.96777085228E+01  0.35181321061E+02 -0.13463884579E+02  0.38892924572E+02  0.00000000000E+00 0. -1.
         -1    1    6    6    0  503  0.46750318370E+03  0.66131711921E+03  0.30685081878E+02  0.81045736050E+03  0.00000000000E+00 0.  1.
<mgrwt>
<rscale>  0 0.19233190E+04</rscale>
<asrwt>0</asrwt>
<pdfrwt beam="1">  1        2 0.18188191E+00 0.19233190E+04</pdfrwt>
<pdfrwt beam="2">  1       -1 0.12034455E+00 0.19233190E+04</pdfrwt>
<totfact> 0.12721032E+01</totfact>
</mgrwt>
</event>
<event>
12    7  0.1625631E-007  0.2612316E+04  0.7818608E-02  0.8364030E-01
         -1   -1    0    0    0  501 -0.00000000000E+00  0.00000000000E+00  0.12715950716E+04  0.12715950716E+04  0.00000000000E+00 0.  1.
          2   -1    0    0  501    0  0.00000000000E+00 -0.00000000000E+00 -0.13416602234E+04  0.13416602234E+04  0.00000000000E+00 0. -1.
         24    2    1    2    0    0 -0.79657741545E+03  0.68239643597E+03  0.43189112239E+03  0.11371801223E+04  0.80300773616E+02 0.  0.
        254    2    1    2    0    0  0.79657741545E+03 -0.68239643597E+03 -0.50195627422E+03  0.14760751727E+04  0.90919598525E+03 0.  0.
         23    2    4    4    0    0  0.39533125657E+03  0.11459972927E+03 -0.38750692606E+03  0.57194364033E+03  0.86821711504E+02 0.  0.
         23    2    4    4    0    0  0.40124615888E+03 -0.79699616524E+03 -0.11444934816E+03  0.90413153237E+03  0.90298433668E+02 0.  0.
          4    1    3    3  502    0 -0.75988940267E+02  0.99052940729E+02  0.49097744601E+02  0.13415063412E+03  0.00000000000E+00 0. -1.
         -1    1    3    3    0  502 -0.72058847519E+03  0.58334349524E+03  0.38279337778E+03  0.10030294881E+04  0.00000000000E+00 0.  1.
         13    1    5    5    0    0  0.31610396624E+02  0.11978401375E+02 -0.48962782035E+01  0.34156592547E+02  0.00000000000E+00 0. -1.
        -13    1    5    5    0    0  0.36372085995E+03  0.10262132789E+03 -0.38261064786E+03  0.53778704778E+03  0.00000000000E+00 0.  1.
          2    1    6    6  503    0  0.24065987354E+02 -0.24155192090E+02 -0.18588949214E+02  0.38835474570E+02  0.00000000000E+00 0. -1.
         -2    1    6    6    0  503  0.37718017152E+03 -0.77284097315E+03 -0.95860398947E+02  0.86529605780E+03  0.00000000000E+00 0.  1.
<mgrwt>
<rscale>  0 0.26123159E+04</rscale>
<asrwt>0</asrwt>
<pdfrwt beam="1">  1        2 0.20640927E+00 0.26123159E+04</pdfrwt>
<pdfrwt beam="2">  1       -1 0.19563001E+00 0.26123159E+04</pdfrwt>
<totfact> 0.25401501E+00</totfact>
</mgrwt>
</event>
<event>
12    7  0.1625631E-007  0.2095818E+04  0.7818608E-02  0.8563088E-01
         -1   -1    0    0    0  501 -0.00000000000E+00  0.00000000000E+00  0.43597226436E+03  0.43597226436E+03  0.00000000000E+00 0.  1.
          2   -1    0    0  501    0  0.00000000000E+00 -0.00000000000E+00 -0.25187688420E+04  0.25187688420E+04  0.00000000000E+00 0. -1.
         24    2    1    2    0    0 -0.60732057919E+03 -0.49847605632E+03 -0.37865684410E+03  0.87577455142E+03  0.79267866781E+02 0.  0.
        254    2    1    2    0    0  0.60732057919E+03  0.49847605632E+03 -0.17041397336E+04  0.20789665550E+04  0.89481452856E+03 0.  0.
         23    2    4    4    0    0 -0.18484191079E+03  0.73125766369E+02 -0.67304741624E+03  0.70771472184E+03  0.91396899881E+02 0.  0.
         23    2    4    4    0    0  0.79216248997E+03  0.42535028995E+03 -0.10310923173E+04  0.13712518331E+04  0.93466268375E+02 0.  0.
          4    1    3    3  502    0 -0.16062472364E+03 -0.10521039106E+03 -0.62892794542E+02  0.20205205230E+03  0.00000000000E+00 0. -1.
         -3    1    3    3    0  502 -0.44669585555E+03 -0.39326566526E+03 -0.31576404956E+03  0.67372249913E+03  0.00000000000E+00 0.  1.
         13    1    5    5    0    0 -0.18100784452E+03  0.89526653960E+02 -0.62251123498E+03  0.65444564268E+03  0.00000000000E+00 0.  1.
        -13    1    5    5    0    0 -0.38340662677E+01 -0.16400887591E+02 -0.50536181260E+02  0.53269079157E+02  0.00000000000E+00 0. -1.
          4    1    6    6  503    0  0.13831285006E+03  0.48025899714E+02 -0.13070911360E+03  0.19626972235E+03  0.00000000000E+00 0. -1.
         -4    1    6    6    0  503  0.65384963991E+03  0.37732439024E+03 -0.90038320373E+03  0.11749821108E+04  0.00000000000E+00 0.  1.
<mgrwt>
<rscale>  0 0.20958181E+04</rscale>
<asrwt>0</asrwt>
<pdfrwt beam="1">  1        2 0.38750289E+00 0.20958181E+04</pdfrwt>
<pdfrwt beam="2">  1       -1 0.67072657E-01 0.20958181E+04</pdfrwt>
<totfact> 0.80233089E+00</totfact>
</mgrwt>
</event>
<event>
12    7  0.1625631E-007  0.3438483E+04  0.7818608E-02  0.8128525E-01
          4   -1    0    0  501    0  0.00000000000E+00  0.00000000000E+00  0.20658241829E+04  0.20658241829E+04  0.00000000000E+00 0. -1.
         -3   -1    0    0    0  501 -0.00000000000E+00 -0.00000000000E+00 -0.14308053004E+04  0.14308053004E+04  0.00000000000E+00 0.  1.
         24    2    1    2    0    0 -0.90936843759E+03 -0.23606029611E+03 -0.10189944853E+04  0.13882584194E+04  0.78969989754E+02 0.  0.
        254    2    1    2    0    0  0.90936843759E+03  0.23606029611E+03  0.16540133678E+04  0.21083710640E+04  0.90928153171E+03 0.  0.
         23    2    4    4    0    0  0.70064310581E+03  0.55508571414E+03  0.12966813500E+04  0.15778270386E+04  0.95575772969E+02 0.  0.
         23    2    4    4    0    0  0.20872533178E+03 -0.31902541803E+03  0.35733201774E+03  0.53054402538E+03  0.91909251427E+02 0.  0.
          2    1    3    3  502    0 -0.59026230785E+03 -0.16881773417E+03 -0.61386855954E+03  0.86818409789E+03  0.00000000000E+00 0. -1.
         -1    1    3    3    0  502 -0.31910612974E+03 -0.67242561939E+02 -0.40512592571E+03  0.52007432148E+03  0.00000000000E+00 0.  1.
         13    1    5    5    0    0  0.68665518947E+03  0.52361951785E+03  0.12311073078E+04  0.15037612683E+04  0.00000000000E+00 0.  1.
        -13    1    5    5    0    0  0.13987916336E+02  0.31466196297E+02  0.65574042255E+02  0.74065770302E+02  0.00000000000E+00 0. -1.
          3    1    6    6  503    0 -0.21186484694E+01  0.69586844919E+00  0.20173233457E+02  0.20296114218E+02  0.00000000000E+00 0. -1.
         -3    1    6    6    0  503  0.21084398025E+03 -0.31972128648E+03  0.33715878428E+03  0.51024791117E+03  0.00000000000E+00 0.  1.
<mgrwt>
<rscale>  0 0.34384835E+04</rscale>
<asrwt>0</asrwt>
<pdfrwt beam="1">  1        4 0.31781911E+00 0.34384835E+04</pdfrwt>
<pdfrwt beam="2">  1       -3 0.22012389E+00 0.34384835E+04</pdfrwt>
<totfact> 0.48795109E-03</totfact>
</mgrwt>
</event>
<event>
12    7  0.1625631E-007  0.1526287E+04  0.7818608E-02  0.8867158E-01
          2   -1    0    0  501    0  0.00000000000E+00  0.00000000000E+00  0.25936007246E+04  0.25936007246E+04  0.00000000000E+00 0. -1.
         -1   -1    0    0    0  501 -0.00000000000E+00 -0.00000000000E+00 -0.22454801315E+03  0.22454801315E+03  0.00000000000E+00 0.  1.
         24    2    1    2    0    0 -0.18978273260E+03  0.17935856075E+03  0.15281928119E+04  0.15532627445E+04  0.95209790793E+02 0.  0.
        254    2    1    2    0    0  0.18978273260E+03 -0.17935856075E+03  0.84085989954E+03  0.12648859932E+04  0.90813227356E+03 0.  0.
         23    2    4    4    0    0  0.32883058231E+03 -0.48475619793E+03  0.59451837674E+03  0.83959298451E+03  0.91357298943E+02 0.  0.
         23    2    4    4    0    0 -0.13904784971E+03  0.30539763718E+03  0.24634152280E+03  0.42529300871E+03  0.87108989780E+02 0.  0.
          4    1    3    3  502    0 -0.13782003897E+03  0.89084739358E+02  0.11215122148E+04  0.11334549404E+04  0.00000000000E+00 0. -1.
         -3    1    3    3    0  502 -0.51962693625E+02  0.90273821389E+02  0.40668059707E+03  0.41980780411E+03  0.00000000000E+00 0.  1.
         13    1    5    5    0    0  0.16560557414E+03 -0.29052754538E+03  0.38980753340E+03  0.51359650885E+03  0.00000000000E+00 0. -1.
        -13    1    5    5    0    0  0.16322500816E+03 -0.19422865255E+03  0.20471084334E+03  0.32599647566E+03  0.00000000000E+00 0.  1.
          3    1    6    6  503    0 -0.18244658006E+02  0.87948956505E+02  0.27385580231E+02  0.93903442433E+02  0.00000000000E+00 0. -1.
         -3    1    6    6    0  503 -0.12080319170E+03  0.21744868067E+03  0.21895594257E+03  0.33138956628E+03  0.00000000000E+00 0.  1.
<mgrwt>
<rscale>  0 0.15262869E+04</rscale>
<asrwt>0</asrwt>
<pdfrwt beam="1">  1        2 0.39901548E+00 0.15262869E+04</pdfrwt>
<pdfrwt beam="2">  1       -1 0.34545850E-01 0.15262869E+04</pdfrwt>
<totfact> 0.26864981E+01</totfact>
</mgrwt>
</event>
<event>
12    7  0.1625631E-007  0.1836489E+04  0.7818608E-02  0.8687132E-01
          2   -1    0    0  501    0  0.00000000000E+00  0.00000000000E+00  0.88490182145E+03  0.88490182145E+03  0.00000000000E+00 0. -1.
         -3   -1    0    0    0  501 -0.00000000000E+00 -0.00000000000E+00 -0.95284307298E+03  0.95284307298E+03  0.00000000000E+00 0.  1.
         24    2    1    2    0    0  0.23751934140E+03 -0.65344337770E+03 -0.12567897789E+02  0.69998569437E+03  0.80114510970E+02 0.  0.
        254    2    1    2    0    0 -0.23751934140E+03  0.65344337770E+03 -0.55373353739E+02  0.11377592001E+04  0.89890272200E+03 0.  0.
         23    2    4    4    0    0 -0.12558490256E+03  0.93540765591E+02  0.37581901071E+03  0.41682921172E+03  0.89360060139E+02 0.  0.
         23    2    4    4    0    0 -0.11193443884E+03  0.55990261211E+03 -0.43119236445E+03  0.72092998834E+03  0.88277626170E+02 0.  0.
          4    1    3    3  502    0  0.14148355093E+03 -0.31007363524E+03  0.23397647069E+02  0.34162948401E+03  0.00000000000E+00 0. -1.
         -3    1    3    3    0  502  0.96035790468E+02 -0.34336974246E+03 -0.35965544858E+02  0.35835621036E+03  0.00000000000E+00 0.  1.
         13    1    5    5    0    0 -0.65803794568E+02  0.84448090999E+02  0.30744731335E+03  0.32555409679E+03  0.00000000000E+00 0.  1.
        -13    1    5    5    0    0 -0.59781107992E+02  0.90926745919E+01  0.68371697368E+02  0.91275114927E+02  0.00000000000E+00 0. -1.
          1    1    6    6  503    0 -0.13166488834E+00  0.16404230039E+03 -0.15321823910E+03  0.22446764231E+03  0.00000000000E+00 0. -1.
         -1    1    6    6    0  503 -0.11180277395E+03  0.39586031172E+03 -0.27797412535E+03  0.49646234603E+03  0.00000000000E+00 0.  1.
<mgrwt>
<rscale>  0 0.18364886E+04</rscale>
<asrwt>0</asrwt>
<pdfrwt beam="1">  1        2 0.13613874E+00 0.18364886E+04</pdfrwt>
<pdfrwt beam="2">  1       -3 0.14659124E+00 0.18364886E+04</pdfrwt>
<totfact> 0.61034728E+00</totfact>
</mgrwt>
</event>
<event>
12    7  0.1625631E-007  0.2641656E+04  0.7818608E-02  0.8354188E-01
          2   -1    0    0  501    0  0.00000000000E+00  0.00000000000E+00  0.31338796580E+04  0.31338796580E+04  0.00000000000E+00 0. -1.
         -1   -1    0    0    0  501 -0.00000000000E+00 -0.00000000000E+00 -0.55668601208E+03  0.55668601208E+03  0.00000000000E+00 0.  1.
         24    2    1    2    0    0 -0.89009716244E+03 -0.62524131855E+03  0.55273904821E+03  0.12227909124E+04  0.80607040377E+02 0.  0.
        254    2    1    2    0    0  0.89009716244E+03  0.62524131855E+03  0.20244545977E+04  0.24677747577E+04  0.89905293039E+03 0.  0.
         23    2    4    4    0    0  0.76336749065E+03  0.43342926061E+03  0.20377238008E+04  0.22206887229E+04  0.92462239989E+02 0.  0.
         23    2    4    4    0    0  0.12672967178E+03  0.19181205794E+03 -0.13269203089E+02  0.24708603484E+03  0.89572102706E+02 0.  0.
          4    1    3    3  502    0 -0.20440995539E+02 -0.23795907970E+02  0.29399621939E+02  0.42993223942E+02  0.00000000000E+00 0. -1.
         -3    1    3    3    0  502 -0.86965616690E+03 -0.60144541058E+03  0.52333942627E+03  0.11797976884E+04  0.00000000000E+00 0.  1.
         13    1    5    5    0    0  0.74115408576E+02  0.46344922323E+02  0.28136992756E+03  0.29463533690E+03  0.00000000000E+00 0. -1.
        -13    1    5    5    0    0  0.68925208208E+03  0.38708433828E+03  0.17563538732E+04  0.19260533860E+04  0.00000000000E+00 0.  1.
          4    1    6    6  503    0  0.13661185137E+03  0.15635470472E+03  0.93815016050E+00  0.20763061371E+03  0.00000000000E+00 0.  1.
         -4    1    6    6    0  503 -0.98821795870E+01  0.35457353217E+02 -0.14207353249E+02  0.39455421135E+02  0.00000000000E+00 0. -1.
<mgrwt>
<rscale>  0 0.26416563E+04</rscale>
<asrwt>0</asrwt>
<pdfrwt beam="1">  1        2 0.48213532E+00 0.26416563E+04</pdfrwt>
<pdfrwt beam="2">  1       -1 0.85644004E-01 0.26416563E+04</pdfrwt>
<totfact> 0.19318501E+00</totfact>
</mgrwt>
</event>
<event>
12    7  0.1625631E-007  0.1871501E+04  0.7818608E-02  0.8669174E-01
          2   -1    0    0  501    0  0.00000000000E+00  0.00000000000E+00  0.66272282648E+03  0.66272282648E+03  0.00000000000E+00 0. -1.
         -1   -1    0    0    0  501 -0.00000000000E+00 -0.00000000000E+00 -0.13212591508E+04  0.13212591508E+04  0.00000000000E+00 0.  1.
         24    2    1    2    0    0  0.63272010201E+03  0.22611232963E+03 -0.53730235203E+03  0.86418943076E+03  0.81658077638E+02 0.  0.
        254    2    1    2    0    0 -0.63272010201E+03 -0.22611232963E+03 -0.12123397225E+03  0.11197925465E+04  0.88756755127E+03 0.  0.
         23    2    4    4    0    0 -0.42906973072E+03 -0.23586397245E+03  0.34265872095E+03  0.60422629675E+03  0.89116616385E+02 0.  0.
         23    2    4    4    0    0 -0.20365037129E+03  0.97516428207E+01 -0.46389269321E+03  0.51556624975E+03  0.95097627747E+02 0.  0.
          4    1    3    3  502    0  0.53058002642E+02  0.44921456591E+02 -0.56737079432E+02  0.89733968424E+02  0.00000000000E+00 0. -1.
         -3    1    3    3    0  502  0.57966209936E+03  0.18119087303E+03 -0.48056527259E+03  0.77445546233E+03  0.00000000000E+00 0.  1.
         13    1    5    5    0    0 -0.27397593067E+03 -0.19486318329E+03  0.21344556651E+03  0.39823796987E+03  0.00000000000E+00 0. -1.
        -13    1    5    5    0    0 -0.15509380005E+03 -0.41000789157E+02  0.12921315445E+03  0.20598832687E+03  0.00000000000E+00 0.  1.
          4    1    6    6  503    0 -0.12466837409E+03 -0.40825569419E+02 -0.27101672569E+03  0.30109632382E+03  0.00000000000E+00 0.  1.
         -4    1    6    6    0  503 -0.78981997196E+02  0.50577212240E+02 -0.19287596752E+03  0.21446992593E+03  0.00000000000E+00 0. -1.
<mgrwt>
<rscale>  0 0.18715006E+04</rscale>
<asrwt>0</asrwt>
<pdfrwt beam="1">  1        2 0.10195736E+00 0.18715006E+04</pdfrwt>
<pdfrwt beam="2">  1       -1 0.20327064E+00 0.18715006E+04</pdfrwt>
<totfact> 0.67220224E+00</totfact>
</mgrwt>
</event>
<event>
12    7  0.1625631E-007  0.2211488E+04  0.7818608E-02  0.8513662E-01
         -1   -1    0    0    0  501 -0.00000000000E+00  0.00000000000E+00  0.20108166821E+04  0.20108166821E+04  0.00000000000E+00 0.  1.
          2   -1    0    0  501    0  0.00000000000E+00 -0.00000000000E+00 -0.60804635420E+03  0.60804635420E+03  0.00000000000E+00 0. -1.
         24    2    1    2    0    0 -0.58317403736E+03 -0.30881441093E+02  0.14191500284E+04  0.15366410710E+04  0.78951611351E+02 0.  0.
        254    2    1    2    0    0  0.58317403736E+03  0.30881441093E+02 -0.16379700434E+02  0.10822219653E+04  0.91098324152E+03 0.  0.
         23    2    4    4    0    0  0.31716050189E+03 -0.42357323172E+03 -0.85242514378E+02  0.54360634611E+03  0.90755202009E+02 0.  0.
         23    2    4    4    0    0  0.26601353547E+03  0.45445467281E+03  0.68862813944E+02  0.53861561919E+03  0.89846799577E+02 0.  0.
          2    1    3    3  502    0 -0.36313320085E+03 -0.27434993076E+02  0.78409872433E+03  0.86453988335E+03  0.00000000000E+00 0. -1.
         -1    1    3    3    0  502 -0.22004083651E+03 -0.34464480168E+01  0.63505130402E+03  0.67210118768E+03  0.00000000000E+00 0.  1.
         13    1    5    5    0    0  0.73905281002E+02 -0.12979319584E+03 -0.61261882629E+02  0.16143507211E+03  0.00000000000E+00 0.  1.
        -13    1    5    5    0    0  0.24325522089E+03 -0.29378003588E+03 -0.23980631749E+02  0.38217127400E+03  0.00000000000E+00 0. -1.
          2    1    6    6  503    0  0.11144840965E+03  0.20593765390E+03 -0.13608426847E+02  0.23455544033E+03  0.00000000000E+00 0. -1.
         -2    1    6    6    0  503  0.15456512583E+03  0.24851701891E+03  0.82471240791E+02  0.30406017886E+03  0.00000000000E+00 0.  1.
<mgrwt>
<rscale>  0 0.22114880E+04</rscale>
<asrwt>0</asrwt>
<pdfrwt beam="1">  1        2 0.93545594E-01 0.22114880E+04</pdfrwt>
<pdfrwt beam="2">  1       -1 0.30935641E+00 0.22114880E+04</pdfrwt>
<totfact> 0.14612532E+00</totfact>
</mgrwt>
</event>
<event>
12    7  0.1625631E-007  0.1705200E+04  0.7818608E-02  0.8758404E-01
         -1   -1    0    0    0  501 -0.00000000000E+00  0.00000000000E+00  0.73491542192E+03  0.73491542192E+03  0.00000000000E+00 0.  1.
          2   -1    0    0  501    0  0.00000000000E+00 -0.00000000000E+00 -0.98912959659E+03  0.98912959659E+03  0.00000000000E+00 0. -1.
         24    2    1    2    0    0 -0.20055163924E+03 -0.36485239222E+03 -0.54941809666E+03  0.69383570791E+03  0.78800485527E+02 0.  0.
        254    2    1    2    0    0  0.20055163924E+03  0.36485239222E+03  0.29520392199E+03  0.10302093106E+04  0.89490091071E+03 0.  0.
         23    2    4    4    0    0  0.36520632767E+02 -0.26666034232E+03 -0.47934841361E+02  0.28740149454E+03  0.88658757408E+02 0.  0.
         23    2    4    4    0    0  0.16403100648E+03  0.63151273454E+03  0.34313876335E+03  0.74280781606E+03  0.91130322719E+02 0.  0.
          4    1    3    3  502    0 -0.15338797529E+03 -0.29987425409E+03 -0.48702027768E+03  0.59214963489E+03  0.00000000000E+00 0. -1.
         -3    1    3    3    0  502 -0.47163663952E+02 -0.64978138133E+02 -0.62397818982E+02  0.10168607302E+03  0.00000000000E+00 0.  1.
         13    1    5    5    0    0  0.64063050989E+02 -0.21703700849E+03 -0.32759375742E+02  0.22865326207E+03  0.00000000000E+00 0.  1.
        -13    1    5    5    0    0 -0.27542418221E+02 -0.49623333830E+02 -0.15175465619E+02  0.58748232472E+02  0.00000000000E+00 0. -1.
          2    1    6    6  503    0  0.50295371572E+02  0.19956327430E+03  0.15723185926E+03  0.25899224393E+03  0.00000000000E+00 0. -1.
         -2    1    6    6    0  503  0.11373563490E+03  0.43194946024E+03  0.18590690410E+03  0.48381557213E+03  0.00000000000E+00 0.  1.
<mgrwt>
<rscale>  0 0.17051998E+04</rscale>
<asrwt>0</asrwt>
<pdfrwt beam="1">  1        2 0.15217378E+00 0.17051998E+04</pdfrwt>
<pdfrwt beam="2">  1       -1 0.11306391E+00 0.17051998E+04</pdfrwt>
<totfact> 0.19863689E+01</totfact>
</mgrwt>
</event>
<event>
12    7  0.1625631E-007  0.1667026E+04  0.7818608E-02  0.8780397E-01
         -1   -1    0    0    0  501 -0.00000000000E+00  0.00000000000E+00  0.10438252523E+04  0.10438252523E+04  0.00000000000E+00 0.  1.
          2   -1    0    0  501    0  0.00000000000E+00 -0.00000000000E+00 -0.66557499471E+03  0.66557499471E+03  0.00000000000E+00 0. -1.
         24    2    1    2    0    0 -0.30922126122E+02  0.44422162280E+03 -0.25913689302E+03  0.52518885706E+03  0.10189395567E+03 0.  0.
        254    2    1    2    0    0  0.30922126122E+02 -0.44422162280E+03  0.63738715059E+03  0.11842113899E+04  0.89319942244E+03 0.  0.
         23    2    4    4    0    0 -0.31249461375E+03 -0.41045250738E+03  0.63989383352E+03  0.82764602617E+03  0.97003515454E+02 0.  0.
         23    2    4    4    0    0  0.34341673987E+03 -0.33769115421E+02 -0.25066829372E+01  0.35656536375E+03  0.89761711141E+02 0.  0.
          4    1    3    3  502    0  0.34803786816E+01  0.26039779574E+03 -0.97738417597E+02  0.27815809055E+03  0.00000000000E+00 0. -1.
         -3    1    3    3    0  502 -0.34402504803E+02  0.18382382706E+03 -0.16139847543E+03  0.24703076651E+03  0.00000000000E+00 0.  1.
         13    1    5    5    0    0 -0.16762159667E+03 -0.20285484445E+03  0.25128999000E+03  0.36385951501E+03  0.00000000000E+00 0. -1.
        -13    1    5    5    0    0 -0.14487301708E+03 -0.20759766293E+03  0.38860384352E+03  0.46378651116E+03  0.00000000000E+00 0.  1.
          3    1    6    6  503    0  0.19267371487E+03  0.25952131684E+02 -0.17199210724E+01  0.19442127371E+03  0.00000000000E+00 0. -1.
         -3    1    6    6    0  503  0.15074302500E+03 -0.59721247105E+02 -0.78676186477E+00  0.16214409005E+03  0.00000000000E+00 0.  1.
<mgrwt>
<rscale>  0 0.16670261E+04</rscale>
<asrwt>0</asrwt>
<pdfrwt beam="1">  1        2 0.10239615E+00 0.16670261E+04</pdfrwt>
<pdfrwt beam="2">  1       -1 0.16058850E+00 0.16670261E+04</pdfrwt>
<totfact> 0.13759759E+01</totfact>
</mgrwt>
</event>
<event>
12    7  0.1625631E-007  0.2173750E+04  0.7818608E-02  0.8529434E-01
          2   -1    0    0  501    0  0.00000000000E+00  0.00000000000E+00  0.14627246129E+04  0.14627246129E+04  0.00000000000E+00 0. -1.
         -1   -1    0    0    0  501 -0.00000000000E+00 -0.00000000000E+00 -0.80760024391E+03  0.80760024391E+03  0.00000000000E+00 0.  1.
         24    2    1    2    0    0  0.97001471349E+02  0.35105994726E+03  0.11334448669E+04  0.11923241741E+04  0.65477460674E+02 0.  0.
        254    2    1    2    0    0 -0.97001471349E+02 -0.35105994726E+03 -0.47832049786E+03  0.10780006827E+04  0.89478634395E+03 0.  0.
         23    2    4    4    0    0 -0.42240762482E+03 -0.42765587918E+03 -0.38024626614E+03  0.71693622873E+03  0.89958771969E+02 0.  0.
         23    2    4    4    0    0  0.32540615347E+03  0.76595931917E+02 -0.98074231725E+02  0.36106445402E+03  0.94830815245E+02 0.  0.
          2    1    3    3  502    0  0.65149643009E+02  0.23725070405E+03  0.85841361076E+03  0.89297609133E+03  0.00000000000E+00 0. -1.
         -1    1    3    3    0  502  0.31851828340E+02  0.11380924321E+03  0.27503125613E+03  0.29934808276E+03  0.00000000000E+00 0.  1.
         13    1    5    5    0    0 -0.35498655255E+03 -0.30594314162E+03 -0.29562339588E+03  0.55408469622E+03  0.00000000000E+00 0. -1.
        -13    1    5    5    0    0 -0.67421072271E+02 -0.12171273756E+03 -0.84622870263E+02  0.16285153251E+03  0.00000000000E+00 0.  1.
          4    1    6    6  503    0  0.27928962427E+03  0.54719187394E+02 -0.11547990236E+03  0.30713594961E+03  0.00000000000E+00 0. -1.
         -4    1    6    6    0  503  0.46116529201E+02  0.21876744523E+02  0.17405670640E+02  0.53928504400E+02  0.00000000000E+00 0.  1.
<mgrwt>
<rscale>  0 0.21737495E+04</rscale>
<asrwt>0</asrwt>
<pdfrwt beam="1">  1        2 0.22503456E+00 0.21737495E+04</pdfrwt>
<pdfrwt beam="2">  1       -1 0.12424619E+00 0.21737495E+04</pdfrwt>
<totfact> 0.79017109E+00</totfact>
</mgrwt>
</event>
<event>
12    7  0.1625631E-007  0.2203698E+04  0.7818608E-02  0.8516890E-01
          2   -1    0    0  501    0  0.00000000000E+00  0.00000000000E+00  0.73300561576E+03  0.73300561576E+03  0.00000000000E+00 0. -1.
         -1   -1    0    0    0  501 -0.00000000000E+00 -0.00000000000E+00 -0.16562925673E+04  0.16562925673E+04  0.00000000000E+00 0.  1.
         24    2    1    2    0    0  0.88097152981E+03 -0.10461524012E+03 -0.20928761319E+03  0.91533187367E+03  0.83522147561E+02 0.  0.
        254    2    1    2    0    0 -0.88097152981E+03  0.10461524012E+03 -0.71399933831E+03  0.14739663093E+04  0.93580256528E+03 0.  0.
         23    2    4    4    0    0 -0.10173080832E+04  0.18407853859E+03 -0.40248618517E+03  0.11129535448E+04  0.88712000940E+02 0.  0.
         23    2    4    4    0    0  0.13633655341E+03 -0.79463298473E+02 -0.31151315314E+03  0.36101276453E+03  0.91584387160E+02 0.  0.
          2    1    3    3  502    0  0.13621271659E+03  0.10903283340E+02 -0.18511952635E+02  0.13789662121E+03  0.00000000000E+00 0. -1.
         -1    1    3    3    0  502  0.74475881321E+03 -0.11551852346E+03 -0.19077566055E+03  0.77743525247E+03  0.00000000000E+00 0.  1.
         13    1    5    5    0    0 -0.52747522222E+03  0.65064049087E+02 -0.24166836994E+03  0.58383819810E+03  0.00000000000E+00 0.  1.
        -13    1    5    5    0    0 -0.48983286100E+03  0.11901448951E+03 -0.16081781523E+03  0.52911534671E+03  0.00000000000E+00 0. -1.
          2    1    6    6  503    0  0.10830542104E+02 -0.52437798881E+02 -0.79545157781E+02  0.95887723511E+02  0.00000000000E+00 0. -1.
         -2    1    6    6    0  503  0.12550601131E+03 -0.27025499593E+02 -0.23196799536E+03  0.26512504102E+03  0.00000000000E+00 0.  1.
<mgrwt>
<rscale>  0 0.22036985E+04</rscale>
<asrwt>0</asrwt>
<pdfrwt beam="1">  1        2 0.11277010E+00 0.22036985E+04</pdfrwt>
<pdfrwt beam="2">  1       -1 0.25481424E+00 0.22036985E+04</pdfrwt>
<totfact> 0.26121882E+00</totfact>
</mgrwt>
</event>
<event>
12    7  0.1625631E-007  0.1395642E+04  0.7818608E-02  0.8956979E-01
          2   -1    0    0  501    0  0.00000000000E+00  0.00000000000E+00  0.48159704053E+03  0.48159704053E+03  0.00000000000E+00 0. -1.
         -1   -1    0    0    0  501 -0.00000000000E+00 -0.00000000000E+00 -0.10111242553E+04  0.10111242553E+04  0.00000000000E+00 0.  1.
         24    2    1    2    0    0 -0.90318298816E+02 -0.17577809896E+03 -0.53729367171E+03  0.57862145446E+03  0.84041434631E+02 0.  0.
        254    2    1    2    0    0  0.90318298816E+02  0.17577809896E+03  0.77664569569E+01  0.91409984135E+03  0.89244768302E+03 0.  0.
         23    2    4    4    0    0 -0.96293484131E+02  0.49405753724E+03 -0.94145385948E+02  0.51984980528E+03  0.89527544145E+02 0.  0.
         23    2    4    4    0    0  0.18661178295E+03 -0.31827943828E+03  0.10191184290E+03  0.39425003607E+03  0.94452680461E+02 0.  0.
          2    1    3    3  502    0 -0.39637915386E+02 -0.10206149019E+02 -0.12169457153E+03  0.12839353003E+03  0.00000000000E+00 0. -1.
         -1    1    3    3    0  502 -0.50680383430E+02 -0.16557194994E+03 -0.41559910018E+03  0.45022792444E+03  0.00000000000E+00 0.  1.
         13    1    5    5    0    0 -0.12025730616E+01  0.15141628867E+03 -0.59061192546E+02  0.16253172958E+03  0.00000000000E+00 0.  1.
        -13    1    5    5    0    0 -0.95090911069E+02  0.34264124858E+03 -0.35084193402E+02  0.35731807570E+03  0.00000000000E+00 0. -1.
          4    1    6    6  503    0  0.13610158109E+03 -0.27908282884E+03  0.55931749146E+02  0.31549837764E+03  0.00000000000E+00 0.  1.
         -4    1    6    6    0  503  0.50510201861E+02 -0.39196609444E+02  0.45980093759E+02  0.78751658433E+02  0.00000000000E+00 0. -1.
<mgrwt>
<rscale>  0 0.13956424E+04</rscale>
<asrwt>0</asrwt>
<pdfrwt beam="1">  1        2 0.74091853E-01 0.13956424E+04</pdfrwt>
<pdfrwt beam="2">  1       -1 0.15555758E+00 0.13956424E+04</pdfrwt>
<totfact> 0.22629778E+01</totfact>
</mgrwt>
</event>
<event>
12    7  0.1625631E-007  0.1872491E+04  0.7818608E-02  0.8668672E-01
          2   -1    0    0  501    0  0.00000000000E+00  0.00000000000E+00  0.54350637427E+03  0.54350637427E+03  0.00000000000E+00 0. -1.
         -1   -1    0    0    0  501 -0.00000000000E+00 -0.00000000000E+00 -0.16127780848E+04  0.16127780848E+04  0.00000000000E+00 0.  1.
         24    2    1    2    0    0  0.36911305238E+03 -0.38750166033E+03 -0.96984438162E+03  0.11104981896E+04  0.78778946190E+02 0.  0.
        254    2    1    2    0    0 -0.36911305238E+03  0.38750166033E+03 -0.99427328924E+02  0.10457862695E+04  0.89296200676E+03 0.  0.
         23    2    4    4    0    0  0.14418850275E+03 -0.71388777867E+02  0.21382763875E+03  0.28367538323E+03  0.94142349787E+02 0.  0.
         23    2    4    4    0    0 -0.51330155512E+03  0.45889043820E+03 -0.31325496768E+03  0.76211088626E+03  0.92873071593E+02 0.  0.
          2    1    3    3  502    0  0.45570095561E+02 -0.22378909646E+02 -0.12502564320E+03  0.13494021144E+03  0.00000000000E+00 0. -1.
         -1    1    3    3    0  502  0.32354295681E+03 -0.36512275068E+03 -0.84481873842E+03  0.97555797816E+03  0.00000000000E+00 0.  1.
         13    1    5    5    0    0  0.29077466369E+02 -0.59698606960E+02  0.10852077132E+03  0.12722492103E+03  0.00000000000E+00 0.  1.
        -13    1    5    5    0    0  0.11511103638E+03 -0.11690170906E+02  0.10530686743E+03  0.15645046219E+03  0.00000000000E+00 0. -1.
          1    1    6    6  503    0 -0.48793106920E+03  0.42225837495E+03 -0.26835046903E+03  0.69884965317E+03  0.00000000000E+00 0. -1.
         -1    1    6    6    0  503 -0.25370485923E+02  0.36632063247E+02 -0.44904498652E+02  0.63261233097E+02  0.00000000000E+00 0.  1.
<mgrwt>
<rscale>  0 0.18724905E+04</rscale>
<asrwt>0</asrwt>
<pdfrwt beam="1">  1        2 0.83616365E-01 0.18724905E+04</pdfrwt>
<pdfrwt beam="2">  1       -1 0.24811971E+00 0.18724905E+04</pdfrwt>
<totfact> 0.42940469E+00</totfact>
</mgrwt>
</event>
<event>
12    7  0.1625631E-007  0.1473105E+04  0.7818608E-02  0.8902538E-01
          2   -1    0    0  501    0  0.00000000000E+00  0.00000000000E+00  0.11268887765E+04  0.11268887765E+04  0.00000000000E+00 0. -1.
         -1   -1    0    0    0  501 -0.00000000000E+00 -0.00000000000E+00 -0.48142232738E+03  0.48142232738E+03  0.00000000000E+00 0.  1.
         24    2    1    2    0    0 -0.44224026220E+03 -0.55268370582E+02  0.81540599725E+02  0.45984526894E+03  0.78598725604E+02 0.  0.
        254    2    1    2    0    0  0.44224026220E+03  0.55268370582E+02  0.56392584938E+03  0.11484658349E+04  0.89572895905E+03 0.  0.
         23    2    4    4    0    0  0.92888317107E+02  0.36306944714E+03  0.55255277068E+03  0.67380301299E+03  0.90820003464E+02 0.  0.
         23    2    4    4    0    0  0.34935194509E+03 -0.30780107656E+03  0.11373078706E+02  0.47466282193E+03  0.91581457346E+02 0.  0.
          2    1    3    3  502    0 -0.78212926291E+02 -0.60435468396E+01 -0.15367564936E+02  0.79937152498E+02  0.00000000000E+00 0. -1.
         -1    1    3    3    0  502 -0.36402733591E+03 -0.49224823743E+02  0.96908164661E+02  0.37990811644E+03  0.00000000000E+00 0.  1.
         13    1    5    5    0    0  0.13425624109E+02  0.18583102546E+03  0.21629188640E+03  0.28547433778E+03  0.00000000000E+00 0. -1.
        -13    1    5    5    0    0  0.79462692998E+02  0.17723842168E+03  0.33626088427E+03  0.38832867521E+03  0.00000000000E+00 0.  1.
          3    1    6    6  503    0  0.34996800766E+03 -0.29736164563E+03  0.21982230632E+02  0.45976599825E+03  0.00000000000E+00 0. -1.
         -3    1    6    6    0  503 -0.61606256998E+00 -0.10439430926E+02 -0.10609151926E+02  0.14896823680E+02  0.00000000000E+00 0.  1.
<mgrwt>
<rscale>  0 0.14731048E+04</rscale>
<asrwt>0</asrwt>
<pdfrwt beam="1">  1        2 0.17336750E+00 0.14731048E+04</pdfrwt>
<pdfrwt beam="2">  1       -1 0.74064974E-01 0.14731048E+04</pdfrwt>
<totfact> 0.42506672E+01</totfact>
</mgrwt>
</event>
<event>
12    7  0.1625631E-007  0.3238782E+04  0.7818608E-02  0.8178649E-01
         -1   -1    0    0    0  501 -0.00000000000E+00  0.00000000000E+00  0.10790494939E+04  0.10790494939E+04  0.00000000000E+00 0.  1.
          2   -1    0    0  501    0  0.00000000000E+00 -0.00000000000E+00 -0.24303128898E+04  0.24303128898E+04  0.00000000000E+00 0. -1.
         24    2    1    2    0    0 -0.48265532037E+03 -0.32416365214E+02 -0.21761268934E+04  0.22304785355E+04  0.74157010925E+02 0.  0.
        254    2    1    2    0    0  0.48265532037E+03  0.32416365214E+02  0.82486349757E+03  0.12788838481E+04  0.84919793237E+03 0.  0.
         23    2    4    4    0    0  0.93512305059E+02 -0.16845298105E+03 -0.11208373187E+03  0.24072564834E+03  0.90912687776E+02 0.  0.
         23    2    4    4    0    0  0.38914301531E+03  0.20086934626E+03  0.93694722944E+03  0.10381581998E+04  0.90119678036E+02 0.  0.
          4    1    3    3  502    0 -0.44082175320E+03 -0.30295505755E+02 -0.18697394854E+04  0.19212411038E+04  0.00000000000E+00 0. -1.
         -3    1    3    3    0  502 -0.41833567170E+02 -0.21208594591E+01 -0.30638740799E+03  0.30923743170E+03  0.00000000000E+00 0.  1.
         13    1    5    5    0    0  0.39609083740E+02 -0.16409807543E+02  0.23585243514E+01  0.42938606585E+02  0.00000000000E+00 0. -1.
        -13    1    5    5    0    0  0.53903221319E+02 -0.15204317351E+03 -0.11444225622E+03  0.19778704176E+03  0.00000000000E+00 0.  1.
          4    1    6    6  503    0  0.32958361482E+03  0.19404919714E+03  0.75092990902E+03  0.84271951344E+03  0.00000000000E+00 0.  1.
         -4    1    6    6    0  503  0.59559400497E+02  0.68201491261E+01  0.18601732042E+03  0.19543868634E+03  0.00000000000E+00 0. -1.
<mgrwt>
<rscale>  0 0.32387824E+04</rscale>
<asrwt>0</asrwt>
<pdfrwt beam="1">  1        2 0.37389428E+00 0.32387824E+04</pdfrwt>
<pdfrwt beam="2">  1       -1 0.16600762E+00 0.32387824E+04</pdfrwt>
<totfact> 0.95953901E-01</totfact>
</mgrwt>
</event>
<event>
12    7  0.1625631E-007  0.1689255E+04  0.7818608E-02  0.8767516E-01
          2   -1    0    0  501    0  0.00000000000E+00  0.00000000000E+00  0.41685950890E+03  0.41685950890E+03  0.00000000000E+00 0. -1.
         -1   -1    0    0    0  501 -0.00000000000E+00 -0.00000000000E+00 -0.17113579965E+04  0.17113579965E+04  0.00000000000E+00 0.  1.
         24    2    1    2    0    0 -0.29585758988E+03 -0.13591546875E+03 -0.97645105030E+03  0.10323232268E+04  0.78929480416E+02 0.  0.
        254    2    1    2    0    0  0.29585758988E+03  0.13591546875E+03 -0.31804743731E+03  0.10958942786E+04  0.99690790413E+03 0.  0.
         23    2    4    4    0    0 -0.32859700579E+03  0.10320019431E+03 -0.29696705200E+03  0.46373407558E+03  0.90739134631E+02 0.  0.
         23    2    4    4    0    0  0.62445459568E+03  0.32715274432E+02 -0.21080385305E+02  0.63216020301E+03  0.90378694300E+02 0.  0.
          2    1    3    3  502    0 -0.42051721725E+02 -0.49583696153E+02 -0.15016530214E+03  0.16363529018E+03  0.00000000000E+00 0. -1.
         -1    1    3    3    0  502 -0.25380586816E+03 -0.86331772593E+02 -0.82628574816E+03  0.86868793666E+03  0.00000000000E+00 0.  1.
         13    1    5    5    0    0 -0.30767479766E+03  0.67940754778E+02 -0.26599970251E+03  0.41235369407E+03  0.00000000000E+00 0. -1.
        -13    1    5    5    0    0 -0.20922208133E+02  0.35259439536E+02 -0.30967349492E+02  0.51380381510E+02  0.00000000000E+00 0.  1.
          1    1    6    6  503    0  0.52668852127E+03  0.49334032081E+02  0.71829989759E+01  0.52904275879E+03  0.00000000000E+00 0. -1.
         -1    1    6    6    0  503  0.97766074408E+02 -0.16618757649E+02 -0.28263384281E+02  0.10311744422E+03  0.00000000000E+00 0.  1.
<mgrwt>
<rscale>  0 0.16892553E+04</rscale>
<asrwt>0</asrwt>
<pdfrwt beam="1">  1        2 0.64132231E-01 0.16892553E+04</pdfrwt>
<pdfrwt beam="2">  1       -1 0.26328585E+00 0.16892553E+04</pdfrwt>
<totfact> 0.47232856E+00</totfact>
</mgrwt>
</event>
<event>
12    7  0.1625631E-007  0.1897767E+04  0.7818608E-02  0.8655969E-01
          2   -1    0    0  501    0  0.00000000000E+00  0.00000000000E+00  0.23056382280E+04  0.23056382280E+04  0.00000000000E+00 0. -1.
         -1   -1    0    0    0  501 -0.00000000000E+00 -0.00000000000E+00 -0.39051212889E+03  0.39051212889E+03  0.00000000000E+00 0.  1.
         24    2    1    2    0    0 -0.42160632863E+03  0.61576865316E+03  0.47246748706E+03  0.88683812436E+03  0.79582673531E+02 0.  0.
        254    2    1    2    0    0  0.42160632863E+03 -0.61576865316E+03  0.14426586121E+04  0.18093122326E+04  0.79713484013E+03 0.  0.
         23    2    4    4    0    0 -0.18646942307E+03 -0.22482333634E+03  0.72417558305E+03  0.78603805127E+03  0.90050900360E+02 0.  0.
         23    2    4    4    0    0  0.60807575171E+03 -0.39094531682E+03  0.71848302903E+03  0.10232741813E+04  0.90982561760E+02 0.  0.
          4    1    3    3  502    0 -0.24424810235E+03  0.31580024484E+03  0.29028229282E+03  0.49360990637E+03  0.00000000000E+00 0. -1.
         -3    1    3    3    0  502 -0.17735822628E+03  0.29996840832E+03  0.18218519424E+03  0.39322821799E+03  0.00000000000E+00 0.  1.
         13    1    5    5    0    0 -0.19162840074E+03 -0.22323753577E+03  0.72292491318E+03  0.78049783565E+03  0.00000000000E+00 0.  1.
        -13    1    5    5    0    0  0.51589776680E+01 -0.15858005651E+01  0.12506698634E+01  0.55402156203E+01  0.00000000000E+00 0. -1.
          1    1    6    6  503    0  0.38324881505E+03 -0.27425982543E+03  0.51741512354E+03  0.69986892784E+03  0.00000000000E+00 0. -1.
         -1    1    6    6    0  503  0.22482693665E+03 -0.11668549139E+03  0.20106790549E+03  0.32340525346E+03  0.00000000000E+00 0.  1.
<mgrwt>
<rscale>  0 0.18977668E+04</rscale>
<asrwt>0</asrwt>
<pdfrwt beam="1">  1        2 0.35471357E+00 0.18977668E+04</pdfrwt>
<pdfrwt beam="2">  1       -1 0.60078790E-01 0.18977668E+04</pdfrwt>
<totfact> 0.13487660E+01</totfact>
</mgrwt>
</event>
<event>
12    7  0.1625631E-007  0.1370105E+04  0.7818608E-02  0.8975747E-01
          2   -1    0    0  501    0  0.00000000000E+00  0.00000000000E+00  0.18293246237E+04  0.18293246237E+04  0.00000000000E+00 0. -1.
         -1   -1    0    0    0  501 -0.00000000000E+00 -0.00000000000E+00 -0.25654126752E+03  0.25654126752E+03  0.00000000000E+00 0.  1.
         24    2    1    2    0    0  0.67028593734E+02  0.39701924895E+02  0.10250113725E+04  0.10311030398E+04  0.80349795942E+02 0.  0.
        254    2    1    2    0    0 -0.67028593734E+02 -0.39701924895E+02  0.54777198371E+03  0.10547628515E+04  0.89799858099E+03 0.  0.
         23    2    4    4    0    0 -0.32620072161E+03  0.13874939042E+03 -0.52891821070E+02  0.36989484852E+03  0.91467754478E+02 0.  0.
         23    2    4    4    0    0  0.25917212787E+03 -0.17845131532E+03  0.60066380478E+03  0.68486800294E+03  0.96083876202E+02 0.  0.
          2    1    3    3  502    0  0.64166246347E+01 -0.19986455858E+02  0.36937962357E+03  0.36997559082E+03  0.00000000000E+00 0. -1.
         -1    1    3    3    0  502  0.60611969099E+02  0.59688380753E+02  0.65563174892E+03  0.66112744897E+03  0.00000000000E+00 0.  1.
         13    1    5    5    0    0 -0.26348556682E+03  0.14778264987E+03 -0.35430216562E+02  0.30417043869E+03  0.00000000000E+00 0. -1.
        -13    1    5    5    0    0 -0.62715154790E+02 -0.90332594517E+01 -0.17461604509E+02  0.65724409839E+02  0.00000000000E+00 0.  1.
          3    1    6    6  503    0  0.70763625441E+02 -0.78005616569E+01  0.17716727857E+03  0.19093607319E+03  0.00000000000E+00 0. -1.
         -3    1    6    6    0  503  0.18840850243E+03 -0.17065075366E+03  0.42349652621E+03  0.49393192975E+03  0.00000000000E+00 0.  1.
<mgrwt>
<rscale>  0 0.13701055E+04</rscale>
<asrwt>0</asrwt>
<pdfrwt beam="1">  1        2 0.28143455E+00 0.13701055E+04</pdfrwt>
<pdfrwt beam="2">  1       -1 0.39467888E-01 0.13701055E+04</pdfrwt>
<totfact> 0.57657217E+01</totfact>
</mgrwt>
</event>
<event>
12    7  0.1625631E-007  0.1771588E+04  0.7818608E-02  0.8721556E-01
          2   -1    0    0  501    0  0.00000000000E+00  0.00000000000E+00  0.10895132847E+04  0.10895132847E+04  0.00000000000E+00 0. -1.
         -1   -1    0    0    0  501 -0.00000000000E+00 -0.00000000000E+00 -0.72016665430E+03  0.72016665430E+03  0.00000000000E+00 0.  1.
         24    2    1    2    0    0  0.39900245213E+03  0.39459868966E+03  0.20342077615E+03  0.60182570344E+03  0.76831520010E+02 0.  0.
        254    2    1    2    0    0 -0.39900245213E+03 -0.39459868966E+03  0.16592585421E+03  0.12078542355E+04  0.10566311478E+04 0.  0.
         23    2    4    4    0    0 -0.43070600454E+02  0.29145222754E+03 -0.17860139606E+03  0.35619873486E+03  0.90441154774E+02 0.  0.
         23    2    4    4    0    0 -0.35593185167E+03 -0.68605091720E+03  0.34452725026E+03  0.85165550066E+03  0.96253423837E+02 0.  0.
          2    1    3    3  502    0  0.78834721606E+02  0.92969180202E+02  0.76880458463E+02  0.14411379771E+03  0.00000000000E+00 0. -1.
         -1    1    3    3    0  502  0.32016773052E+03  0.30162950946E+03  0.12654031768E+03  0.45771190572E+03  0.00000000000E+00 0.  1.
         13    1    5    5    0    0 -0.52965973225E+02  0.27470161036E+03 -0.18536801880E+03  0.33560046402E+03  0.00000000000E+00 0. -1.
        -13    1    5    5    0    0  0.98953727707E+01  0.16750617186E+02  0.67666227429E+01  0.20598270843E+02  0.00000000000E+00 0.  1.
          2    1    6    6  503    0 -0.21199306689E+03 -0.48751541012E+03  0.20693891397E+03  0.57047002518E+03  0.00000000000E+00 0. -1.
         -2    1    6    6    0  503 -0.14393878478E+03 -0.19853550709E+03  0.13758833629E+03  0.28118547548E+03  0.00000000000E+00 0.  1.
<mgrwt>
<rscale>  0 0.17715881E+04</rscale>
<asrwt>0</asrwt>
<pdfrwt beam="1">  1        2 0.16761743E+00 0.17715881E+04</pdfrwt>
<pdfrwt beam="2">  1       -1 0.11079487E+00 0.17715881E+04</pdfrwt>
<totfact> 0.17908753E+01</totfact>
</mgrwt>
</event>
<event>
12    7  0.1625631E-007  0.1300006E+04  0.7818608E-02  0.9029560E-01
          2   -1    0    0  501    0  0.00000000000E+00  0.00000000000E+00  0.21340896177E+03  0.21340896177E+03  0.00000000000E+00 0. -1.
         -1   -1    0    0    0  501 -0.00000000000E+00 -0.00000000000E+00 -0.19797863031E+04  0.19797863031E+04  0.00000000000E+00 0.  1.
         24    2    1    2    0    0  0.23530181899E+03 -0.20778769222E+03 -0.65597844344E+03  0.73154053052E+03  0.79379836681E+02 0.  0.
        254    2    1    2    0    0 -0.23530181899E+03  0.20778769222E+03 -0.11103988979E+04  0.14616547343E+04  0.89716563630E+03 0.  0.
         23    2    4    4    0    0 -0.34917524190E+02 -0.10332411102E+02 -0.11444955480E+04  0.11489821508E+04  0.94678039081E+02 0.  0.
         23    2    4    4    0    0 -0.20038429480E+03  0.21812010332E+03  0.34096650144E+02  0.31267258359E+03  0.94187673842E+02 0.  0.
          4    1    3    3  502    0  0.16496946319E+03 -0.12835535172E+03 -0.50921180869E+03  0.55044226419E+03  0.00000000000E+00 0. -1.
         -3    1    3    3    0  502  0.70332355796E+02 -0.79432340499E+02 -0.14676663475E+03  0.18109826632E+03  0.00000000000E+00 0.  1.
         13    1    5    5    0    0  0.13693444238E+02 -0.12061875862E+01 -0.26146184547E+02  0.29539605109E+02  0.00000000000E+00 0. -1.
        -13    1    5    5    0    0 -0.48610968428E+02 -0.91262235154E+01 -0.11183493635E+04  0.11194425456E+04  0.00000000000E+00 0.  1.
          1    1    6    6  503    0 -0.64423109207E+02  0.14865054386E+02  0.32158854558E+01  0.66194023605E+02  0.00000000000E+00 0. -1.
         -1    1    6    6    0  503 -0.13596118559E+03  0.20325504893E+03  0.30880764689E+02  0.24647855999E+03  0.00000000000E+00 0.  1.
<mgrwt>
<rscale>  0 0.13000064E+04</rscale>
<asrwt>0</asrwt>
<pdfrwt beam="1">  1        2 0.32832148E-01 0.13000064E+04</pdfrwt>
<pdfrwt beam="2">  1       -1 0.30458251E+00 0.13000064E+04</pdfrwt>
<totfact> 0.56025629E+00</totfact>
</mgrwt>
</event>
<event>
12    7  0.1625631E-007  0.1254391E+04  0.7818608E-02  0.9066537E-01
         -1   -1    0    0    0  501 -0.00000000000E+00  0.00000000000E+00  0.12169661951E+03  0.12169661951E+03  0.00000000000E+00 0.  1.
          2   -1    0    0  501    0  0.00000000000E+00 -0.00000000000E+00 -0.32324158148E+04  0.32324158148E+04  0.00000000000E+00 0. -1.
         24    2    1    2    0    0  0.10467854360E+03  0.65596128755E+02 -0.15258385933E+04  0.15329117661E+04  0.79841217738E+02 0.  0.
        254    2    1    2    0    0 -0.10467854360E+03 -0.65596128755E+02 -0.15848806020E+04  0.18212006683E+04  0.88863091437E+03 0.  0.
         23    2    4    4    0    0 -0.74628774433E+02 -0.10375449633E+03 -0.16771390022E+04  0.16844139762E+04  0.90115265951E+02 0.  0.
         23    2    4    4    0    0 -0.30049769170E+02  0.38158367573E+02  0.92258400218E+02  0.13678669204E+03  0.88543419094E+02 0.  0.
          4    1    3    3  502    0  0.25159705873E+02  0.40755323169E+02 -0.93533777428E+03  0.93656327024E+03  0.00000000000E+00 0. -1.
         -3    1    3    3    0  502  0.79518837731E+02  0.24840805586E+02 -0.59050081906E+03  0.59634849583E+03  0.00000000000E+00 0.  1.
         13    1    5    5    0    0 -0.14031257282E+02  0.50786478506E+01 -0.42647893176E+02  0.45183090169E+02  0.00000000000E+00 0. -1.
        -13    1    5    5    0    0 -0.60597517152E+02 -0.10883314418E+03 -0.16344911090E+04  0.16392308860E+04  0.00000000000E+00 0.  1.
          3    1    6    6  503    0 -0.25149138168E+02  0.52958140804E+02  0.18614211589E+02  0.61510427580E+02  0.00000000000E+00 0. -1.
         -3    1    6    6    0  503 -0.49006310025E+01 -0.14799773231E+02  0.73644188628E+02  0.75276264457E+02  0.00000000000E+00 0.  1.
<mgrwt>
<rscale>  0 0.12543908E+04</rscale>
<asrwt>0</asrwt>
<pdfrwt beam="1">  1        2 0.49729482E+00 0.12543908E+04</pdfrwt>
<pdfrwt beam="2">  1       -1 0.18722554E-01 0.12543908E+04</pdfrwt>
<totfact> 0.32126037E+01</totfact>
</mgrwt>
</event>
<event>
12    7  0.1625631E-007  0.1411735E+04  0.7818608E-02  0.8945368E-01
          2   -1    0    0  501    0  0.00000000000E+00  0.00000000000E+00  0.52022662191E+03  0.52022662191E+03  0.00000000000E+00 0. -1.
         -1   -1    0    0    0  501 -0.00000000000E+00 -0.00000000000E+00 -0.95775386912E+03  0.95775386912E+03  0.00000000000E+00 0.  1.
         24    2    1    2    0    0  0.32330375869E+03 -0.95269923234E+02 -0.34357782667E+03  0.48728362128E+03  0.76144112874E+02 0.  0.
        254    2    1    2    0    0 -0.32330375869E+03  0.95269923234E+02 -0.93949420540E+02  0.99069686975E+03  0.92685064355E+03 0.  0.
         23    2    4    4    0    0 -0.12634892046E+03 -0.25983522308E+03  0.29358019276E+03  0.42203885591E+03  0.91918841711E+02 0.  0.
         23    2    4    4    0    0 -0.19695483823E+03  0.35510514631E+03 -0.38752961330E+03  0.56865801384E+03  0.91114555833E+02 0.  0.
          4    1    3    3  502    0  0.17105140628E+03 -0.49088380319E+02 -0.23451154840E+03  0.29438736217E+03  0.00000000000E+00 0. -1.
         -3    1    3    3    0  502  0.15225235241E+03 -0.46181542915E+02 -0.10906627827E+03  0.19289625911E+03  0.00000000000E+00 0.  1.
         13    1    5    5    0    0 -0.13665331534E+03 -0.25815296716E+03  0.27768398181E+03  0.40302044217E+03  0.00000000000E+00 0. -1.
        -13    1    5    5    0    0  0.10304394878E+02 -0.16822559140E+01  0.15896210946E+02  0.19018413741E+02  0.00000000000E+00 0.  1.
          3    1    6    6  503    0 -0.13656322879E+03  0.21650343087E+03 -0.29842142407E+03  0.39316484759E+03  0.00000000000E+00 0. -1.
         -3    1    6    6    0  503 -0.60391609443E+02  0.13860171544E+03 -0.89108189227E+02  0.17549316625E+03  0.00000000000E+00 0.  1.
<mgrwt>
<rscale>  0 0.14117352E+04</rscale>
<asrwt>0</asrwt>
<pdfrwt beam="1">  1        2 0.80034865E-01 0.14117352E+04</pdfrwt>
<pdfrwt beam="2">  1       -1 0.14734675E+00 0.14117352E+04</pdfrwt>
<totfact> 0.23928776E+01</totfact>
</mgrwt>
</event>
<event>
12    7  0.1625631E-007  0.1574373E+04  0.7818608E-02  0.8836448E-01
          2   -1    0    0  501    0  0.00000000000E+00  0.00000000000E+00  0.28277032527E+04  0.28277032527E+04  0.00000000000E+00 0. -1.
         -1   -1    0    0    0  501 -0.00000000000E+00 -0.00000000000E+00 -0.21913982595E+03  0.21913982595E+03  0.00000000000E+00 0.  1.
         24    2    1    2    0    0  0.22988869806E+03  0.15684594418E+03  0.16559805533E+02  0.28983338258E+03  0.79244550593E+02 0.  0.
        254    2    1    2    0    0 -0.22988869806E+03 -0.15684594418E+03  0.25920036212E+04  0.27570096960E+04  0.89731278161E+03 0.  0.
         23    2    4    4    0    0  0.33288438894E+03  0.41871178667E+01  0.87391293317E+03  0.93972088554E+03  0.92314568836E+02 0.  0.
         23    2    4    4    0    0 -0.56277308700E+03 -0.16103306204E+03  0.17180906880E+04  0.18172888105E+04  0.89765326935E+02 0.  0.
          2    1    3    3  502    0  0.86803220991E+01  0.36471023452E+02  0.35575075447E+01  0.37658191716E+02  0.00000000000E+00 0. -1.
         -1    1    3    3    0  502  0.22120837596E+03  0.12037492072E+03  0.13002297988E+02  0.25217519087E+03  0.00000000000E+00 0.  1.
         13    1    5    5    0    0  0.27812865545E+03 -0.72353516733E+01  0.61759757314E+03  0.67737335469E+03  0.00000000000E+00 0. -1.
        -13    1    5    5    0    0  0.54755733489E+02  0.11422469540E+02  0.25631536002E+03  0.26234753085E+03  0.00000000000E+00 0.  1.
          2    1    6    6  503    0 -0.54689622244E+02 -0.16671968474E+02  0.10024505455E+03  0.11540355400E+03  0.00000000000E+00 0.  1.
         -2    1    6    6    0  503 -0.50808346476E+03 -0.14436109357E+03  0.16178456335E+04  0.17018852565E+04  0.00000000000E+00 0. -1.
<mgrwt>
<rscale>  0 0.15743728E+04</rscale>
<asrwt>0</asrwt>
<pdfrwt beam="1">  1        2 0.43503124E+00 0.15743728E+04</pdfrwt>
<pdfrwt beam="2">  1       -1 0.33713821E-01 0.15743728E+04</pdfrwt>
<totfact> 0.20291054E+01</totfact>
</mgrwt>
</event>
<event>
12    7  0.1625631E-007  0.1844022E+04  0.7818608E-02  0.8683233E-01
          2   -1    0    0  501    0  0.00000000000E+00  0.00000000000E+00  0.13106524070E+04  0.13106524070E+04  0.00000000000E+00 0. -1.
         -1   -1    0    0    0  501 -0.00000000000E+00 -0.00000000000E+00 -0.64861153162E+03  0.64861153162E+03  0.00000000000E+00 0.  1.
         24    2    1    2    0    0 -0.50658841601E+03  0.41042869500E+03 -0.16117332212E+02  0.65666839079E+03  0.76616383088E+02 0.  0.
        254    2    1    2    0    0  0.50658841601E+03 -0.41042869500E+03  0.67815820760E+03  0.13025955478E+04  0.90098450031E+03 0.  0.
         23    2    4    4    0    0 -0.19274917888E+02 -0.44829788915E+02  0.64691377987E+03  0.65521641432E+03  0.91814370211E+02 0.  0.
         23    2    4    4    0    0  0.52586333390E+03 -0.36559890608E+03  0.31244427731E+02  0.64737913352E+03  0.89043372488E+02 0.  0.
          4    1    3    3  502    0 -0.12027751347E+03  0.10288900477E+03  0.28695540044E+02  0.16086100077E+03  0.00000000000E+00 0. -1.
         -3    1    3    3    0  502 -0.38631090254E+03  0.30753969023E+03 -0.44812872256E+02  0.49580739002E+03  0.00000000000E+00 0.  1.
         13    1    5    5    0    0 -0.61582400637E+01 -0.13796909544E+02  0.58095336955E+03  0.58114980532E+03  0.00000000000E+00 0.  1.
        -13    1    5    5    0    0 -0.13116677825E+02 -0.31032879371E+02  0.65960410319E+02  0.74066609000E+02  0.00000000000E+00 0. -1.
          3    1    6    6  503    0  0.45619835320E+03 -0.27716919619E+03  0.32660969633E+02  0.53479569905E+03  0.00000000000E+00 0. -1.
         -3    1    6    6    0  503  0.69664980697E+02 -0.88429709887E+02 -0.14165419012E+01  0.11258343447E+03  0.00000000000E+00 0.  1.
<mgrwt>
<rscale>  0 0.18440220E+04</rscale>
<asrwt>0</asrwt>
<pdfrwt beam="1">  1        2 0.20163883E+00 0.18440220E+04</pdfrwt>
<pdfrwt beam="2">  1       -1 0.99786390E-01 0.18440220E+04</pdfrwt>
<totfact> 0.16740009E+01</totfact>
</mgrwt>
</event>
<event>
12    7  0.2002148E-007  0.1535475E+04  0.7818608E-02  0.8861199E-01
         -1   -1    0    0    0  501 -0.00000000000E+00  0.00000000000E+00  0.33877693245E+03  0.33877693245E+03  0.00000000000E+00 0.  1.
          2   -1    0    0  501    0  0.00000000000E+00 -0.00000000000E+00 -0.17398497079E+04  0.17398497079E+04  0.00000000000E+00 0. -1.
         24    2    1    2    0    0  0.32969895711E+03 -0.29755002792E+02 -0.94333659285E+03  0.10029274061E+04  0.79954311396E+02 0.  0.
        254    2    1    2    0    0 -0.32969895711E+03  0.29755002792E+02 -0.45773618263E+03  0.10756992343E+04  0.91543414145E+03 0.  0.
         23    2    4    4    0    0 -0.30887602938E+03 -0.21930837297E+03  0.14558984827E+03  0.41639247494E+03  0.93197238615E+02 0.  0.
         23    2    4    4    0    0 -0.20822927731E+02  0.24906337576E+03 -0.60332603090E+03  0.65930675939E+03  0.90647360415E+02 0.  0.
          4    1    3    3  502    0  0.32250214726E+03 -0.29986545534E+02 -0.85492271889E+03  0.91422080657E+03  0.00000000000E+00 0. -1.
         -3    1    3    3    0  502  0.71968098511E+01  0.23154274211E+00 -0.88413873962E+02  0.88706599490E+02  0.00000000000E+00 0.  1.
         13    1    5    5    0    0 -0.29030986639E+03 -0.18560907539E+03  0.10443060970E+03  0.36005041263E+03  0.00000000000E+00 0. -1.
        -13    1    5    5    0    0 -0.18566162986E+02 -0.33699297572E+02  0.41159238573E+02  0.56342062305E+02  0.00000000000E+00 0.  1.
          2    1    6    6  503    0  0.13686719282E+02  0.20164694943E+03 -0.40718315944E+03  0.45458436382E+03  0.00000000000E+00 0. -1.
         -2    1    6    6    0  503 -0.34509647012E+02  0.47416426332E+02 -0.19614287146E+03  0.20472239556E+03  0.00000000000E+00 0.  1.
<mgrwt>
<rscale>  0 0.15354751E+04</rscale>
<asrwt>0</asrwt>
<pdfrwt beam="1">  1        2 0.26766918E+00 0.15354751E+04</pdfrwt>
<pdfrwt beam="2">  1       -1 0.52119529E-01 0.15354751E+04</pdfrwt>
<totfact> 0.37923171E+01</totfact>
</mgrwt>
</event>
<event>
12    7  0.1625631E-007  0.2630655E+04  0.7818608E-02  0.8357862E-01
          2   -1    0    0  501    0  0.00000000000E+00  0.00000000000E+00  0.10045098160E+04  0.10045098160E+04  0.00000000000E+00 0. -1.
         -1   -1    0    0    0  501 -0.00000000000E+00 -0.00000000000E+00 -0.17223193210E+04  0.17223193210E+04  0.00000000000E+00 0.  1.
         24    2    1    2    0    0 -0.40385592298E+02  0.76248198047E+03  0.58810489906E+03  0.96707390229E+03  0.79716959184E+02 0.  0.
        254    2    1    2    0    0  0.40385592298E+02 -0.76248198047E+03 -0.13059144041E+04  0.17597552347E+04  0.89906411821E+03 0.  0.
         23    2    4    4    0    0 -0.39873195410E+03 -0.39480194875E+03 -0.44889957000E+03  0.72449026250E+03  0.92301498096E+02 0.  0.
         23    2    4    4    0    0  0.43911754640E+03 -0.36768003172E+03 -0.85701483406E+03  0.10352649722E+04  0.96365510160E+02 0.  0.
          2    1    3    3  502    0  0.12467039231E+02  0.48078613174E+03  0.37747020081E+03  0.61138734370E+03  0.00000000000E+00 0. -1.
         -1    1    3    3    0  502 -0.52852631529E+02  0.28169584874E+03  0.21063469825E+03  0.35568655859E+03  0.00000000000E+00 0.  1.
         13    1    5    5    0    0 -0.25473507186E+03 -0.23676390226E+03 -0.33206868492E+03  0.48084999091E+03  0.00000000000E+00 0. -1.
        -13    1    5    5    0    0 -0.14399688224E+03 -0.15803804649E+03 -0.11683088508E+03  0.24364027159E+03  0.00000000000E+00 0.  1.
          3    1    6    6  503    0  0.22985394628E+02 -0.17003241121E+02 -0.92726814208E+02  0.97034533275E+02  0.00000000000E+00 0. -1.
         -3    1    6    6    0  503  0.41613215177E+03 -0.35067679060E+03 -0.76428801985E+03  0.93823043891E+03  0.00000000000E+00 0.  1.
<mgrwt>
<rscale>  0 0.26306552E+04</rscale>
<asrwt>0</asrwt>
<pdfrwt beam="1">  1        2 0.15453997E+00 0.26306552E+04</pdfrwt>
<pdfrwt beam="2">  1       -1 0.26497220E+00 0.26306552E+04</pdfrwt>
<totfact> 0.14017355E+00</totfact>
</mgrwt>
</event>
<event>
12    7  0.1948969E-007  0.1952203E+04  0.7818608E-02  0.8629299E-01
         -1   -1    0    0    0  501 -0.00000000000E+00  0.00000000000E+00  0.77963011215E+03  0.77963011215E+03  0.00000000000E+00 0.  1.
          2   -1    0    0  501    0  0.00000000000E+00 -0.00000000000E+00 -0.12220845648E+04  0.12220845648E+04  0.00000000000E+00 0. -1.
         24    2    1    2    0    0  0.39430088382E+03 -0.37987894974E+03 -0.71585543362E+03  0.90474141964E+03  0.79541380007E+02 0.  0.
        254    2    1    2    0    0 -0.39430088382E+03  0.37987894974E+03  0.27340098099E+03  0.10969732573E+04  0.91039608269E+03 0.  0.
         23    2    4    4    0    0 -0.20085161473E+03  0.66767178793E+03  0.19138714475E+03  0.72887389330E+03  0.92201548865E+02 0.  0.
         23    2    4    4    0    0 -0.19344926909E+03 -0.28779283819E+03  0.82013836239E+02  0.36809936400E+03  0.92322992900E+02 0.  0.
          4    1    3    3  502    0  0.29568117963E+03 -0.31945903675E+03 -0.53007183828E+03  0.68589911058E+03  0.00000000000E+00 0. -1.
         -3    1    3    3    0  502  0.98619704188E+02 -0.60419912989E+02 -0.18578359534E+03  0.21884230906E+03  0.00000000000E+00 0.  1.
         13    1    5    5    0    0 -0.19550642447E+03  0.66275267026E+03  0.19826608682E+03  0.71886946320E+03  0.00000000000E+00 0. -1.
        -13    1    5    5    0    0 -0.53451902621E+01  0.49191176731E+01 -0.68789420625E+01  0.10004430095E+02  0.00000000000E+00 0.  1.
          3    1    6    6  503    0 -0.18398125842E+03 -0.25865958243E+03  0.99725199854E+02  0.33271459018E+03  0.00000000000E+00 0. -1.
         -3    1    6    6    0  503 -0.94680106680E+01 -0.29133255755E+02 -0.17711363615E+02  0.35384773816E+02  0.00000000000E+00 0.  1.
<mgrwt>
<rscale>  0 0.19522028E+04</rscale>
<asrwt>0</asrwt>
<pdfrwt beam="1">  1        2 0.18801301E+00 0.19522028E+04</pdfrwt>
<pdfrwt beam="2">  1       -1 0.11994310E+00 0.19522028E+04</pdfrwt>
<totfact> 0.12111130E+01</totfact>
</mgrwt>
</event>
<event>
12    7  0.1625631E-007  0.3115556E+04  0.7818608E-02  0.8211482E-01
         -1   -1    0    0    0  501 -0.00000000000E+00  0.00000000000E+00  0.67512104858E+03  0.67512104858E+03  0.00000000000E+00 0.  1.
          2   -1    0    0  501    0  0.00000000000E+00 -0.00000000000E+00 -0.35944257014E+04  0.35944257014E+04  0.00000000000E+00 0. -1.
         24    2    1    2    0    0  0.12993381238E+04  0.17049660589E+03 -0.21262334155E+04  0.24997055660E+04  0.10154175012E+03 0.  0.
        254    2    1    2    0    0 -0.12993381238E+04 -0.17049660589E+03 -0.79307123737E+03  0.17698411840E+04  0.88658173693E+03 0.  0.
         23    2    4    4    0    0 -0.73194551596E+03 -0.34339144236E+03 -0.51085873020E+02  0.81540915202E+03  0.92846097138E+02 0.  0.
         23    2    4    4    0    0 -0.56739260788E+03  0.17289483647E+03 -0.74198536435E+03  0.95443203195E+03  0.92580920032E+02 0.  0.
          2    1    3    3  502    0  0.12514790175E+04  0.14437623463E+03 -0.20316629248E+04  0.23905435508E+04  0.00000000000E+00 0. -1.
         -1    1    3    3    0  502  0.47859106311E+02  0.26120371268E+02 -0.94570490698E+02  0.10916201520E+03  0.00000000000E+00 0.  1.
         13    1    5    5    0    0 -0.26360877823E+03 -0.98640276378E+02 -0.55881903060E+02  0.28695344426E+03  0.00000000000E+00 0.  1.
        -13    1    5    5    0    0 -0.46833673773E+03 -0.24475116598E+03  0.47960300399E+01  0.52845570776E+03  0.00000000000E+00 0. -1.
          1    1    6    6  503    0 -0.89330220495E+02  0.43389009599E+02 -0.17805001867E+03  0.20387325375E+03  0.00000000000E+00 0. -1.
         -1    1    6    6    0  503 -0.47806238739E+03  0.12950582687E+03 -0.56393534568E+03  0.75055877820E+03  0.00000000000E+00 0.  1.
<mgrwt>
<rscale>  0 0.31155561E+04</rscale>
<asrwt>0</asrwt>
<pdfrwt beam="1">  1        2 0.55298856E+00 0.31155561E+04</pdfrwt>
<pdfrwt beam="2">  1       -1 0.10386478E+00 0.31155561E+04</pdfrwt>
<totfact> 0.58528165E-01</totfact>
</mgrwt>
</event>
<event>
12    7  0.1625631E-007  0.1263642E+04  0.7818608E-02  0.9058905E-01
          2   -1    0    0  501    0  0.00000000000E+00  0.00000000000E+00  0.75719501709E+03  0.75719501709E+03  0.00000000000E+00 0. -1.
         -1   -1    0    0    0  501 -0.00000000000E+00 -0.00000000000E+00 -0.52720622925E+03  0.52720622925E+03  0.00000000000E+00 0.  1.
         24    2    1    2    0    0 -0.25609498044E+03 -0.36683154605E+02  0.20235538889E+03  0.33839370272E+03  0.81438945195E+02 0.  0.
        254    2    1    2    0    0  0.25609498044E+03  0.36683154605E+02  0.27633398945E+02  0.94600754362E+03  0.90952535699E+03 0.  0.
         23    2    4    4    0    0 -0.56759758513E+02 -0.11475217591E+03 -0.37453507691E+03  0.40624163922E+03  0.91465914636E+02 0.  0.
         23    2    4    4    0    0  0.31285473895E+03  0.15143533051E+03  0.40216847586E+03  0.53976590439E+03  0.93792332103E+02 0.  0.
          2    1    3    3  502    0 -0.65923266683E+02  0.10409653446E+02  0.91611935396E+02  0.11334453971E+03  0.00000000000E+00 0. -1.
         -1    1    3    3    0  502 -0.19017171375E+03 -0.47092808051E+02  0.11074345349E+03  0.22504916301E+03  0.00000000000E+00 0.  1.
         13    1    5    5    0    0 -0.12536236161E+02 -0.41652289948E+00 -0.14913148401E+03  0.14965804433E+03  0.00000000000E+00 0.  1.
        -13    1    5    5    0    0 -0.44223522352E+02 -0.11433565301E+03 -0.22540359290E+03  0.25658359490E+03  0.00000000000E+00 0. -1.
          1    1    6    6  503    0  0.27555657656E+03  0.15563180215E+03  0.38532544093E+03  0.49862649363E+03  0.00000000000E+00 0. -1.
         -1    1    6    6    0  503  0.37298162394E+02 -0.41964716399E+01  0.16843034927E+02  0.41139410761E+02  0.00000000000E+00 0.  1.
<mgrwt>
<rscale>  0 0.12636422E+04</rscale>
<asrwt>0</asrwt>
<pdfrwt beam="1">  1        2 0.11649154E+00 0.12636422E+04</pdfrwt>
<pdfrwt beam="2">  1       -1 0.81108650E-01 0.12636422E+04</pdfrwt>
<totfact> 0.62972613E+01</totfact>
</mgrwt>
</event>
<event>
12    7  0.1625631E-007  0.1330914E+04  0.7818608E-02  0.9005403E-01
          2   -1    0    0  501    0  0.00000000000E+00  0.00000000000E+00  0.77860216198E+03  0.77860216198E+03  0.00000000000E+00 0. -1.
         -1   -1    0    0    0  501 -0.00000000000E+00 -0.00000000000E+00 -0.56875376315E+03  0.56875376315E+03  0.00000000000E+00 0.  1.
         24    2    1    2    0    0 -0.26034204834E+02 -0.26651623593E+03 -0.16533778023E+03  0.32479957523E+03  0.80308770764E+02 0.  0.
        254    2    1    2    0    0  0.26034204834E+02  0.26651623593E+03  0.37518617906E+03  0.10225563499E+04  0.91276948674E+03 0.  0.
         23    2    4    4    0    0  0.26422987479E+03  0.44126897986E+03 -0.17490135068E+02  0.52262783338E+03  0.91094500852E+02 0.  0.
         23    2    4    4    0    0 -0.23819566996E+03 -0.17475274392E+03  0.39267631413E+03  0.49992851652E+03  0.91968120868E+02 0.  0.
          4    1    3    3  502    0  0.10881447354E+02 -0.61498232294E+02 -0.75380606253E+02  0.97891134792E+02  0.00000000000E+00 0. -1.
         -3    1    3    3    0  502 -0.36915652188E+02 -0.20501800364E+03 -0.89957173977E+02  0.22690844044E+03  0.00000000000E+00 0.  1.
         13    1    5    5    0    0  0.45277447458E+02  0.15428900051E+03 -0.16690485917E+02  0.16165925660E+03  0.00000000000E+00 0. -1.
        -13    1    5    5    0    0  0.21895242733E+03  0.28697997935E+03 -0.79964915103E+00  0.36096857678E+03  0.00000000000E+00 0.  1.
          3    1    6    6  503    0  0.71692050298E+01  0.42139628162E+00  0.46788175694E+01  0.85712548342E+01  0.00000000000E+00 0. -1.
         -3    1    6    6    0  503 -0.24536487499E+03 -0.17517414021E+03  0.38799749656E+03  0.49135726168E+03  0.00000000000E+00 0.  1.
<mgrwt>
<rscale>  0 0.13309138E+04</rscale>
<asrwt>0</asrwt>
<pdfrwt beam="1">  1        2 0.11978495E+00 0.13309138E+04</pdfrwt>
<pdfrwt beam="2">  1       -1 0.87500579E-01 0.13309138E+04</pdfrwt>
<totfact> 0.51272122E+01</totfact>
</mgrwt>
</event>
<event>
12    7  0.1625631E-007  0.2259339E+04  0.7818608E-02  0.8494128E-01
         -1   -1    0    0    0  501 -0.00000000000E+00  0.00000000000E+00  0.45238576216E+03  0.45238576216E+03  0.00000000000E+00 0.  1.
          2   -1    0    0  501    0  0.00000000000E+00 -0.00000000000E+00 -0.28209400785E+04  0.28209400785E+04  0.00000000000E+00 0. -1.
         24    2    1    2    0    0  0.41218984651E+03 -0.23526283541E+03 -0.21960058930E+04  0.22480981311E+04  0.79083837748E+02 0.  0.
        254    2    1    2    0    0 -0.41218984651E+03  0.23526283541E+03 -0.17254842332E+03  0.10252277096E+04  0.89222745242E+03 0.  0.
         23    2    4    4    0    0 -0.67718654908E+03  0.80428096187E+02 -0.15891153881E+03  0.70581159487E+03  0.88695148560E+02 0.  0.
         23    2    4    4    0    0  0.26499670257E+03  0.15483473922E+03 -0.13636884512E+02  0.31941611473E+03  0.87427918258E+02 0.  0.
          4    1    3    3  502    0  0.39162129817E+03 -0.20373284173E+03 -0.20720047051E+04  0.21185083927E+04  0.00000000000E+00 0. -1.
         -3    1    3    3    0  502  0.20568548337E+02 -0.31529993675E+02 -0.12400118792E+03  0.12958973835E+03  0.00000000000E+00 0.  1.
         13    1    5    5    0    0 -0.61438564980E+03  0.53406158103E+02 -0.16114117303E+03  0.63740757922E+03  0.00000000000E+00 0.  1.
        -13    1    5    5    0    0 -0.62800899280E+02  0.27021938084E+02  0.22296342255E+01  0.68404015650E+02  0.00000000000E+00 0. -1.
          1    1    6    6  503    0  0.12182520307E+03  0.77722412433E+02 -0.49761961930E+02  0.15283457185E+03  0.00000000000E+00 0. -1.
         -1    1    6    6    0  503  0.14317149950E+03  0.77112326786E+02  0.36125077417E+02  0.16658154288E+03  0.00000000000E+00 0.  1.
<mgrwt>
<rscale>  0 0.22593390E+04</rscale>
<asrwt>0</asrwt>
<pdfrwt beam="1">  1        2 0.43399078E+00 0.22593390E+04</pdfrwt>
<pdfrwt beam="2">  1       -1 0.69597810E-01 0.22593390E+04</pdfrwt>
<totfact> 0.48550729E+00</totfact>
</mgrwt>
</event>
<event>
12    7  0.1625631E-007  0.1561646E+04  0.7818608E-02  0.8844463E-01
          2   -1    0    0  501    0  0.00000000000E+00  0.00000000000E+00  0.81401900972E+03  0.81401900972E+03  0.00000000000E+00 0. -1.
         -1   -1    0    0    0  501 -0.00000000000E+00 -0.00000000000E+00 -0.74898098081E+03  0.74898098081E+03  0.00000000000E+00 0.  1.
         24    2    1    2    0    0  0.30096726852E+03  0.75199614973E+02 -0.35269457148E+03  0.47641311013E+03  0.79622308096E+02 0.  0.
        254    2    1    2    0    0 -0.30096726852E+03 -0.75199614973E+02  0.41773260039E+03  0.10865868804E+04  0.95390473551E+03 0.  0.
         23    2    4    4    0    0 -0.50769680436E+02 -0.45518696953E+03  0.61289762436E+01  0.46650562126E+03  0.88414889201E+02 0.  0.
         23    2    4    4    0    0 -0.25019758808E+03  0.37998735456E+03  0.41160362415E+03  0.62008125914E+03  0.89966670627E+02 0.  0.
          2    1    3    3  502    0  0.23621929659E+03  0.34346542964E+02 -0.30043065300E+03  0.38371580415E+03  0.00000000000E+00 0. -1.
         -1    1    3    3    0  502  0.64747971928E+02  0.40853072009E+02 -0.52263918476E+02  0.92697305979E+02  0.00000000000E+00 0.  1.
         13    1    5    5    0    0  0.73472989084E+01 -0.30997675539E+00  0.29405003961E+01  0.79199387257E+01  0.00000000000E+00 0.  1.
        -13    1    5    5    0    0 -0.58116979345E+02 -0.45487699278E+03  0.31884758475E+01  0.45858568253E+03  0.00000000000E+00 0. -1.
          3    1    6    6  503    0 -0.23526995689E+03  0.35474334288E+03  0.40952191053E+03  0.59068010559E+03  0.00000000000E+00 0. -1.
         -3    1    6    6    0  503 -0.14927631194E+02  0.25244011684E+02  0.20817136137E+01  0.29401153558E+02  0.00000000000E+00 0.  1.
<mgrwt>
<rscale>  0 0.15616463E+04</rscale>
<asrwt>0</asrwt>
<pdfrwt beam="1">  1        2 0.12523369E+00 0.15616463E+04</pdfrwt>
<pdfrwt beam="2">  1       -1 0.11522784E+00 0.15616463E+04</pdfrwt>
<totfact> 0.25249910E+01</totfact>
</mgrwt>
</event>
<event>
12    7  0.1625631E-007  0.2178282E+04  0.7818608E-02  0.8527522E-01
         -1   -1    0    0    0  501 -0.00000000000E+00  0.00000000000E+00  0.91717281138E+03  0.91717281138E+03  0.00000000000E+00 0.  1.
          2   -1    0    0  501    0  0.00000000000E+00 -0.00000000000E+00 -0.12933530705E+04  0.12933530705E+04  0.00000000000E+00 0. -1.
         24    2    1    2    0    0  0.83877023808E+03  0.28646116691E+03 -0.31502144941E+03  0.94403935166E+03  0.79851558938E+02 0.  0.
        254    2    1    2    0    0 -0.83877023808E+03 -0.28646116691E+03 -0.61158809674E+02  0.12664865302E+04  0.90258086547E+03 0.  0.
         23    2    4    4    0    0 -0.15317074687E+03 -0.31053106512E+03 -0.36447567688E+03  0.51108800379E+03  0.92073929423E+02 0.  0.
         23    2    4    4    0    0 -0.68559949121E+03  0.24069898209E+02  0.30331686721E+03  0.75539852640E+03  0.89441541829E+02 0.  0.
          4    1    3    3  502    0  0.14975244899E+03  0.27009016216E+02 -0.75055984122E+02  0.16967228321E+03  0.00000000000E+00 0. -1.
         -3    1    3    3    0  502  0.68901778909E+03  0.25945215069E+03 -0.23996546529E+03  0.77436706846E+03  0.00000000000E+00 0.  1.
         13    1    5    5    0    0 -0.47201419949E+02 -0.25917277637E+02 -0.67142719846E+02  0.86068717625E+02  0.00000000000E+00 0. -1.
        -13    1    5    5    0    0 -0.10596932692E+03 -0.28461378748E+03 -0.29733295704E+03  0.42501928616E+03  0.00000000000E+00 0.  1.
          4    1    6    6  503    0 -0.38087459058E+03  0.15619967450E+02  0.21672563757E+03  0.43849679487E+03  0.00000000000E+00 0. -1.
         -4    1    6    6    0  503 -0.30472490063E+03  0.84499307595E+01  0.86591229635E+02  0.31690173153E+03  0.00000000000E+00 0.  1.
<mgrwt>
<rscale>  0 0.21782821E+04</rscale>
<asrwt>0</asrwt>
<pdfrwt beam="1">  1        2 0.19897739E+00 0.21782821E+04</pdfrwt>
<pdfrwt beam="2">  1       -1 0.14110351E+00 0.21782821E+04</pdfrwt>
<totfact> 0.71484466E+00</totfact>
</mgrwt>
</event>
<event>
12    7  0.1625631E-007  0.1572400E+04  0.7818608E-02  0.8837686E-01
         -1   -1    0    0    0  501 -0.00000000000E+00  0.00000000000E+00  0.26147778065E+03  0.26147778065E+03  0.00000000000E+00 0.  1.
          2   -1    0    0  501    0  0.00000000000E+00 -0.00000000000E+00 -0.23639112477E+04  0.23639112477E+04  0.00000000000E+00 0. -1.
         24    2    1    2    0    0 -0.29735189030E+03  0.33258192049E+03 -0.27386403950E+03  0.52939814380E+03  0.78943030251E+02 0.  0.
        254    2    1    2    0    0  0.29735189030E+03 -0.33258192049E+03 -0.18285694275E+04  0.20959908845E+04  0.92221621988E+03 0.  0.
         23    2    4    4    0    0  0.38475312725E+03  0.19352070753E+03 -0.52905060115E+03  0.68837232124E+03  0.92068892128E+02 0.  0.
         23    2    4    4    0    0 -0.87401236951E+02 -0.52610262802E+03 -0.12995188264E+04  0.14076185633E+04  0.90652568408E+02 0.  0.
          4    1    3    3  502    0  0.10609148906E+01  0.47978362132E+01  0.39116797379E+01  0.62806059505E+01  0.00000000000E+00 0. -1.
         -3    1    3    3    0  502 -0.29841280519E+03  0.32778408428E+03 -0.27777571924E+03  0.52311753785E+03  0.00000000000E+00 0.  1.
         13    1    5    5    0    0  0.67059710053E+02  0.76266393902E+02 -0.11314377466E+03  0.15203644726E+03  0.00000000000E+00 0.  1.
        -13    1    5    5    0    0  0.31769341720E+03  0.11725431363E+03 -0.41590682649E+03  0.53633587398E+03  0.00000000000E+00 0. -1.
          1    1    6    6  503    0 -0.10318451322E+03 -0.48086903292E+03 -0.12089373699E+04  0.13051481275E+04  0.00000000000E+00 0. -1.
         -1    1    6    6    0  503  0.15783276266E+02 -0.45233595103E+02 -0.90581456498E+02  0.10247043572E+03  0.00000000000E+00 0.  1.
<mgrwt>
<rscale>  0 0.15723998E+04</rscale>
<asrwt>0</asrwt>
<pdfrwt beam="1">  1        2 0.36367867E+00 0.15723998E+04</pdfrwt>
<pdfrwt beam="2">  1       -1 0.40227349E-01 0.15723998E+04</pdfrwt>
<totfact> 0.27546264E+01</totfact>
</mgrwt>
</event>
<event>
12    7  0.1625631E-007  0.1329575E+04  0.7818608E-02  0.9006435E-01
         -1   -1    0    0    0  501 -0.00000000000E+00  0.00000000000E+00  0.18348881841E+04  0.18348881841E+04  0.00000000000E+00 0.  1.
          2   -1    0    0  501    0  0.00000000000E+00 -0.00000000000E+00 -0.24085524080E+03  0.24085524080E+03  0.00000000000E+00 0. -1.
         24    2    1    2    0    0 -0.12980571127E+03  0.22303277874E+03  0.90186819523E+03  0.94145422206E+03  0.79854039405E+02 0.  0.
        254    2    1    2    0    0  0.12980571127E+03 -0.22303277874E+03  0.69216474807E+03  0.11342892028E+04  0.86077105789E+03 0.  0.
         23    2    4    4    0    0  0.14165060225E+03  0.28287303183E+03  0.47065656912E+03  0.57437068612E+03  0.91115496811E+02 0.  0.
         23    2    4    4    0    0 -0.11844890976E+02 -0.50590581057E+03  0.22150817894E+03  0.55991851670E+03  0.91443323413E+02 0.  0.
          4    1    3    3  502    0 -0.24201885217E+02  0.30177025435E+02  0.60336551579E+02  0.71672055703E+02  0.00000000000E+00 0. -1.
         -3    1    3    3    0  502 -0.10560382606E+03  0.19285575331E+03  0.84153164365E+03  0.86978216636E+03  0.00000000000E+00 0.  1.
         13    1    5    5    0    0  0.12198817221E+03  0.28337558381E+03  0.45205182453E+03  0.54729670904E+03  0.00000000000E+00 0. -1.
        -13    1    5    5    0    0  0.19662430042E+02 -0.50255198494E+00  0.18604744589E+02  0.27073977079E+02  0.00000000000E+00 0.  1.
          2    1    6    6  503    0  0.11699044622E+02 -0.60584505201E+02  0.58758427051E+02  0.85205062438E+02  0.00000000000E+00 0.  1.
         -2    1    6    6    0  503 -0.23543935598E+02 -0.44532130537E+03  0.16274975189E+03  0.47471345426E+03  0.00000000000E+00 0. -1.
<mgrwt>
<rscale>  0 0.13295750E+04</rscale>
<asrwt>0</asrwt>
<pdfrwt beam="1">  1        2 0.37054654E-01 0.13295750E+04</pdfrwt>
<pdfrwt beam="2">  1       -1 0.28229048E+00 0.13295750E+04</pdfrwt>
<totfact> 0.67897015E+00</totfact>
</mgrwt>
</event>
<event>
12    7  0.1625631E-007  0.1610859E+04  0.7818608E-02  0.8813905E-01
         -1   -1    0    0    0  501 -0.00000000000E+00  0.00000000000E+00  0.78850821357E+03  0.78850821357E+03  0.00000000000E+00 0.  1.
          2   -1    0    0  501    0  0.00000000000E+00 -0.00000000000E+00 -0.82271352461E+03  0.82271352461E+03  0.00000000000E+00 0. -1.
         24    2    1    2    0    0  0.30770294216E+03  0.19611407320E+03 -0.42012428131E+03  0.56210085591E+03  0.79442621719E+02 0.  0.
        254    2    1    2    0    0 -0.30770294216E+03 -0.19611407320E+03  0.38591897027E+03  0.10491208823E+04  0.90475374755E+03 0.  0.
         23    2    4    4    0    0 -0.31530008367E+03 -0.53006359341E+03  0.30293449987E+03  0.69295140036E+03  0.89614598346E+02 0.  0.
         23    2    4    4    0    0  0.75971415032E+01  0.33394952020E+03  0.82984470392E+02  0.35616948192E+03  0.91598465702E+02 0.  0.
          4    1    3    3  502    0  0.11134741736E+03  0.95348358220E+02 -0.21880318834E+03  0.26337120571E+03  0.00000000000E+00 0. -1.
         -3    1    3    3    0  502  0.19635552480E+03  0.10076571498E+03 -0.20132109297E+03  0.29872965020E+03  0.00000000000E+00 0.  1.
         13    1    5    5    0    0 -0.11234390937E+03 -0.26033379401E+03  0.16689394477E+03  0.32901128716E+03  0.00000000000E+00 0. -1.
        -13    1    5    5    0    0 -0.20295617429E+03 -0.26972979940E+03  0.13604055510E+03  0.36394011320E+03  0.00000000000E+00 0.  1.
          4    1    6    6  503    0 -0.34020000422E+02  0.87423993307E+02  0.36899604206E+01  0.93882537473E+02  0.00000000000E+00 0. -1.
         -4    1    6    6    0  503  0.41617141926E+02  0.24652552690E+03  0.79294509972E+02  0.26228694444E+03  0.00000000000E+00 0.  1.
<mgrwt>
<rscale>  0 0.16108586E+04</rscale>
<asrwt>0</asrwt>
<pdfrwt beam="1">  1        2 0.12657131E+00 0.16108586E+04</pdfrwt>
<pdfrwt beam="2">  1       -1 0.12130896E+00 0.16108586E+04</pdfrwt>
<totfact> 0.21879132E+01</totfact>
</mgrwt>
</event>
<event>
12    7  0.1625631E-007  0.1967283E+04  0.7818608E-02  0.8622072E-01
          2   -1    0    0  501    0  0.00000000000E+00  0.00000000000E+00  0.10543409479E+04  0.10543409479E+04  0.00000000000E+00 0. -1.
         -1   -1    0    0    0  501 -0.00000000000E+00 -0.00000000000E+00 -0.91768281836E+03  0.91768281836E+03  0.00000000000E+00 0.  1.
         24    2    1    2    0    0 -0.63665224965E+03  0.70921131858E+02 -0.38263035189E+03  0.75175235552E+03  0.91486195192E+02 0.  0.
        254    2    1    2    0    0  0.63665224965E+03 -0.70921131858E+02  0.51928848144E+03  0.12202714108E+04  0.89946978550E+03 0.  0.
         23    2    4    4    0    0 -0.64528761212E+02 -0.32479152742E+03  0.23941327528E+03  0.41861005580E+03  0.90896452808E+02 0.  0.
         23    2    4    4    0    0  0.70118101086E+03  0.25387039556E+03  0.27987520616E+03  0.80166135496E+03  0.90696247267E+02 0.  0.
          2    1    3    3  502    0 -0.14908468883E+03  0.40986622057E+02 -0.57519902201E+02  0.16496874486E+03  0.00000000000E+00 0. -1.
         -1    1    3    3    0  502 -0.48756756082E+03  0.29934509801E+02 -0.32511044968E+03  0.58678361066E+03  0.00000000000E+00 0.  1.
         13    1    5    5    0    0  0.65778196069E+01 -0.63611145833E+02  0.11984803898E+02  0.65063669659E+02  0.00000000000E+00 0. -1.
        -13    1    5    5    0    0 -0.71106580819E+02 -0.26118038159E+03  0.22742847138E+03  0.35354638614E+03  0.00000000000E+00 0.  1.
          1    1    6    6  503    0  0.25747800829E+03  0.12912806786E+03  0.13814657334E+03  0.31945806985E+03  0.00000000000E+00 0. -1.
         -1    1    6    6    0  503  0.44370300257E+03  0.12474232770E+03  0.14172863282E+03  0.48220328511E+03  0.00000000000E+00 0.  1.
<mgrwt>
<rscale>  0 0.19672830E+04</rscale>
<asrwt>0</asrwt>
<pdfrwt beam="1">  1        2 0.16220630E+00 0.19672830E+04</pdfrwt>
<pdfrwt beam="2">  1       -1 0.14118197E+00 0.19672830E+04</pdfrwt>
<totfact> 0.10134214E+01</totfact>
</mgrwt>
</event>
<event>
12    7  0.1625631E-007  0.1772461E+04  0.7818608E-02  0.8721083E-01
          2   -1    0    0  501    0  0.00000000000E+00  0.00000000000E+00  0.81999494936E+03  0.81999494936E+03  0.00000000000E+00 0. -1.
         -1   -1    0    0    0  501 -0.00000000000E+00 -0.00000000000E+00 -0.95781618320E+03  0.95781618320E+03  0.00000000000E+00 0.  1.
         24    2    1    2    0    0  0.26678936165E+03  0.45278974426E+03  0.12554255424E+03  0.54648171727E+03  0.81769299815E+02 0.  0.
        254    2    1    2    0    0 -0.26678936165E+03 -0.45278974426E+03 -0.26336378808E+03  0.12313294153E+04  0.10819503353E+04 0.  0.
         23    2    4    4    0    0 -0.64866862931E+03 -0.44410718541E+03 -0.71449639288E+02  0.79445145266E+03  0.89698812118E+02 0.  0.
         23    2    4    4    0    0  0.38187926766E+03 -0.86825588520E+01 -0.19191414879E+03  0.43687796264E+03  0.90134076996E+02 0.  0.
          2    1    3    3  502    0  0.51048037358E+02  0.78331870757E+02  0.55363888116E+02  0.10865976349E+03  0.00000000000E+00 0. -1.
         -1    1    3    3    0  502  0.21574132429E+03  0.37445787350E+03  0.70178666124E+02  0.43782195378E+03  0.00000000000E+00 0.  1.
         13    1    5    5    0    0 -0.14432161037E+03 -0.13848447450E+03  0.30720547543E+01  0.20004028198E+03  0.00000000000E+00 0.  1.
        -13    1    5    5    0    0 -0.50434701894E+03 -0.30562271091E+03 -0.74521694043E+02  0.59441117067E+03  0.00000000000E+00 0. -1.
          1    1    6    6  503    0  0.15063643562E+03 -0.44809309539E+02 -0.60064046417E+02  0.16824654418E+03  0.00000000000E+00 0. -1.
         -1    1    6    6    0  503  0.23124283204E+03  0.36126750687E+02 -0.13185010237E+03  0.26863141846E+03  0.00000000000E+00 0.  1.
<mgrwt>
<rscale>  0 0.17724609E+04</rscale>
<asrwt>0</asrwt>
<pdfrwt beam="1">  1        2 0.12615307E+00 0.17724609E+04</pdfrwt>
<pdfrwt beam="2">  1       -1 0.14735634E+00 0.17724609E+04</pdfrwt>
<totfact> 0.13173176E+01</totfact>
</mgrwt>
</event>
<event>
12    7  0.1625631E-007  0.1682905E+04  0.7818608E-02  0.8771175E-01
          2   -1    0    0  501    0  0.00000000000E+00  0.00000000000E+00  0.63565423813E+03  0.63565423813E+03  0.00000000000E+00 0. -1.
         -1   -1    0    0    0  501 -0.00000000000E+00 -0.00000000000E+00 -0.11138799664E+04  0.11138799664E+04  0.00000000000E+00 0.  1.
         24    2    1    2    0    0  0.15181154154E+03 -0.19189739369E+03  0.38906167106E+03  0.46984157591E+03  0.97523170153E+02 0.  0.
        254    2    1    2    0    0 -0.15181154154E+03  0.19189739369E+03 -0.86728739938E+03  0.12796926287E+04  0.90860026243E+03 0.  0.
         23    2    4    4    0    0 -0.33396829296E+03  0.44181112296E+03 -0.32088786897E+03  0.64565359652E+03  0.84661993701E+02 0.  0.
         23    2    4    4    0    0  0.18215675142E+03 -0.24991372927E+03 -0.54639953041E+03  0.63403903214E+03  0.88403016280E+02 0.  0.
          4    1    3    3  502    0  0.11954306754E+03 -0.80408345906E+02  0.17826158771E+03  0.22920131052E+03  0.00000000000E+00 0. -1.
         -3    1    3    3    0  502  0.32268473999E+02 -0.11148904779E+03  0.21080008335E+03  0.24064026540E+03  0.00000000000E+00 0.  1.
         13    1    5    5    0    0 -0.22046407322E+03  0.22194972613E+03 -0.17961737584E+03  0.36073326740E+03  0.00000000000E+00 0. -1.
        -13    1    5    5    0    0 -0.11350421974E+03  0.21986139684E+03 -0.14127049313E+03  0.28492032912E+03  0.00000000000E+00 0.  1.
          3    1    6    6  503    0  0.15206977144E+03 -0.16303554729E+03 -0.44115683743E+03  0.49429258570E+03  0.00000000000E+00 0. -1.
         -3    1    6    6    0  503  0.30086979974E+02 -0.86878181982E+02 -0.10524269297E+03  0.13974644644E+03  0.00000000000E+00 0.  1.
<mgrwt>
<rscale>  0 0.16829053E+04</rscale>
<asrwt>0</asrwt>
<pdfrwt beam="1">  1        2 0.97792960E-01 0.16829053E+04</pdfrwt>
<pdfrwt beam="2">  1       -1 0.17136615E+00 0.16829053E+04</pdfrwt>
<totfact> 0.12094415E+01</totfact>
</mgrwt>
</event>
<event>
12    7  0.1625631E-007  0.1455400E+04  0.7818608E-02  0.8914665E-01
          2   -1    0    0  501    0  0.00000000000E+00  0.00000000000E+00  0.16747370996E+04  0.16747370996E+04  0.00000000000E+00 0. -1.
         -1   -1    0    0    0  501 -0.00000000000E+00 -0.00000000000E+00 -0.31619721017E+03  0.31619721017E+03  0.00000000000E+00 0.  1.
         24    2    1    2    0    0  0.21731593150E+03 -0.18535394854E+03  0.89057048182E+03  0.93864535029E+03  0.79730861019E+02 0.  0.
        254    2    1    2    0    0 -0.21731593150E+03  0.18535394854E+03  0.46796940761E+03  0.10522889595E+04  0.89818393854E+03 0.  0.
         23    2    4    4    0    0  0.27568798877E+03  0.30455241602E+03  0.15089438757E+03  0.44713487594E+03  0.91675731954E+02 0.  0.
         23    2    4    4    0    0 -0.49300392026E+03 -0.11919846748E+03  0.31707502004E+03  0.60515408353E+03  0.91726530746E+02 0.  0.
          2    1    3    3  502    0  0.12766353203E+03 -0.61251198818E+02  0.48043327700E+03  0.50086507206E+03  0.00000000000E+00 0. -1.
         -1    1    3    3    0  502  0.89652399463E+02 -0.12410274972E+03  0.41013720483E+03  0.43778027822E+03  0.00000000000E+00 0.  1.
         13    1    5    5    0    0  0.16681839611E+03  0.22393353706E+03  0.13675784982E+03  0.31092976022E+03  0.00000000000E+00 0. -1.
        -13    1    5    5    0    0  0.10886959266E+03  0.80618878962E+02  0.14136537750E+02  0.13620511573E+03  0.00000000000E+00 0.  1.
          2    1    6    6  503    0 -0.36649727495E+02 -0.37136497733E+01  0.55525389098E+02  0.66633794389E+02  0.00000000000E+00 0.  1.
         -2    1    6    6    0  503 -0.45635419277E+03 -0.11548481771E+03  0.26154963094E+03  0.53852028915E+03  0.00000000000E+00 0. -1.
<mgrwt>
<rscale>  0 0.14553999E+04</rscale>
<asrwt>0</asrwt>
<pdfrwt beam="1">  1        2 0.25765186E+00 0.14553999E+04</pdfrwt>
<pdfrwt beam="2">  1       -1 0.48645726E-01 0.14553999E+04</pdfrwt>
<totfact> 0.47310278E+01</totfact>
</mgrwt>
</event>
<event>
12    7  0.1625631E-007  0.1408945E+04  0.7818608E-02  0.8947369E-01
          2   -1    0    0  501    0  0.00000000000E+00  0.00000000000E+00  0.21915391054E+04  0.21915391054E+04  0.00000000000E+00 0. -1.
         -1   -1    0    0    0  501 -0.00000000000E+00 -0.00000000000E+00 -0.22645343973E+03  0.22645343973E+03  0.00000000000E+00 0.  1.
         24    2    1    2    0    0 -0.16466731935E+03 -0.57549734538E+02  0.92440704841E+03  0.94370625152E+03  0.75005333176E+02 0.  0.
        254    2    1    2    0    0  0.16466731935E+03  0.57549734538E+02  0.10406786172E+04  0.14742862936E+04  0.10296022499E+04 0.  0.
         23    2    4    4    0    0  0.35599490156E+03  0.15956819690E+03  0.11477703534E+04  0.12159926487E+04  0.95220576601E+02 0.  0.
         23    2    4    4    0    0 -0.19132758221E+03 -0.10201846236E+03 -0.10709173612E+03  0.25829364490E+03  0.90735641702E+02 0.  0.
          4    1    3    3  502    0 -0.11479948223E+03 -0.72671885346E+02  0.72377956149E+03  0.73642173900E+03  0.00000000000E+00 0. -1.
         -3    1    3    3    0  502 -0.49867837118E+02  0.15122150808E+02  0.20062748692E+03  0.20728451252E+03  0.00000000000E+00 0.  1.
         13    1    5    5    0    0  0.22396148490E+03  0.11435451651E+03  0.86254997043E+03  0.89845876569E+03  0.00000000000E+00 0. -1.
        -13    1    5    5    0    0  0.13203341665E+03  0.45213680396E+02  0.28522038292E+03  0.31753388299E+03  0.00000000000E+00 0.  1.
          4    1    6    6  503    0 -0.13785941191E+03 -0.96989362272E+02 -0.11494142882E+03  0.20401883713E+03  0.00000000000E+00 0. -1.
         -4    1    6    6    0  503 -0.53468170303E+02 -0.50291000912E+01  0.78496926997E+01  0.54274807772E+02  0.00000000000E+00 0.  1.
<mgrwt>
<rscale>  0 0.14089451E+04</rscale>
<asrwt>0</asrwt>
<pdfrwt beam="1">  1        2 0.33715985E+00 0.14089451E+04</pdfrwt>
<pdfrwt beam="2">  1       -1 0.34838992E-01 0.14089451E+04</pdfrwt>
<totfact> 0.45321850E+01</totfact>
</mgrwt>
</event>
<event>
12    7  0.1625631E-007  0.2027575E+04  0.7818608E-02  0.8593836E-01
         -1   -1    0    0    0  501 -0.00000000000E+00  0.00000000000E+00  0.23114497098E+03  0.23114497098E+03  0.00000000000E+00 0.  1.
          2   -1    0    0  501    0  0.00000000000E+00 -0.00000000000E+00 -0.44464112136E+04  0.44464112136E+04  0.00000000000E+00 0. -1.
         24    2    1    2    0    0 -0.43073455160E+03 -0.37232020840E+03 -0.36439955200E+03  0.68222157022E+03  0.92112137379E+02 0.  0.
        254    2    1    2    0    0  0.43073455160E+03  0.37232020840E+03 -0.38508666906E+04  0.39953346143E+04  0.89964983199E+03 0.  0.
         23    2    4    4    0    0  0.41750596579E+03 -0.12272258610E+03 -0.27363539207E+04  0.27722268599E+04  0.90757471633E+02 0.  0.
         23    2    4    4    0    0  0.13228585808E+02  0.49504279450E+03 -0.11145127699E+04  0.12231077544E+04  0.92798172819E+02 0.  0.
          4    1    3    3  502    0 -0.77025842120E+02 -0.11009220355E+03 -0.61384801331E+02  0.14772057227E+03  0.00000000000E+00 0. -1.
         -3    1    3    3    0  502 -0.35370870948E+03 -0.26222800485E+03 -0.30301475067E+03  0.53450099795E+03  0.00000000000E+00 0.  1.
         13    1    5    5    0    0  0.13873640289E+03 -0.77842237796E+02 -0.83462572575E+03  0.84965128468E+03  0.00000000000E+00 0. -1.
        -13    1    5    5    0    0  0.27876956289E+03 -0.44880348303E+02 -0.19017281950E+04  0.19225755752E+04  0.00000000000E+00 0.  1.
          1    1    6    6  503    0 -0.13116107897E+01  0.14504376901E+03 -0.43615759896E+03  0.45964428245E+03  0.00000000000E+00 0. -1.
         -1    1    6    6    0  503  0.14540196598E+02  0.34999902549E+03 -0.67835517089E+03  0.76346347197E+03  0.00000000000E+00 0.  1.
<mgrwt>
<rscale>  0 0.20275755E+04</rscale>
<asrwt>0</asrwt>
<pdfrwt beam="1">  1        2 0.68406330E+00 0.20275755E+04</pdfrwt>
<pdfrwt beam="2">  1       -1 0.35560763E-01 0.20275755E+04</pdfrwt>
<totfact> 0.11204108E+00</totfact>
</mgrwt>
</event>
<event>
12    7  0.1625631E-007  0.1308856E+04  0.7818608E-02  0.9022572E-01
         -1   -1    0    0    0  501 -0.00000000000E+00  0.00000000000E+00  0.43169254970E+03  0.43169254970E+03  0.00000000000E+00 0.  1.
          2   -1    0    0  501    0  0.00000000000E+00 -0.00000000000E+00 -0.99208581704E+03  0.99208581704E+03  0.00000000000E+00 0. -1.
         24    2    1    2    0    0  0.24780097503E+03 -0.14532766492E+03  0.41186697900E+02  0.30350596028E+03  0.88848581458E+02 0.  0.
        254    2    1    2    0    0 -0.24780097503E+03  0.14532766492E+03 -0.60157996523E+03  0.11202724065E+04  0.90032569478E+03 0.  0.
         23    2    4    4    0    0 -0.49557506365E+03  0.30858325417E+03 -0.22430445780E+03  0.63146071905E+03  0.87246097004E+02 0.  0.
         23    2    4    4    0    0  0.24777408862E+03 -0.16325558925E+03 -0.37727550743E+03  0.48881168741E+03  0.92496869297E+02 0.  0.
          4    1    3    3  502    0  0.74964869435E+02 -0.81928555737E+02  0.43839221202E+02  0.11938968636E+03  0.00000000000E+00 0. -1.
         -3    1    3    3    0  502  0.17283610559E+03 -0.63399109182E+02 -0.26525233013E+01  0.18411627392E+03  0.00000000000E+00 0.  1.
         13    1    5    5    0    0 -0.45284338761E+03  0.27462401398E+03 -0.17462550449E+03  0.55765540396E+03  0.00000000000E+00 0.  1.
        -13    1    5    5    0    0 -0.42731676042E+02  0.33959240193E+02 -0.49678953316E+02  0.73805315082E+02  0.00000000000E+00 0. -1.
          2    1    6    6  503    0  0.15670962908E+03 -0.59813940964E+02 -0.16195020352E+03  0.23315978170E+03  0.00000000000E+00 0. -1.
         -2    1    6    6    0  503  0.91064459538E+02 -0.10344164829E+03 -0.21532530391E+03  0.25565190571E+03  0.00000000000E+00 0.  1.
<mgrwt>
<rscale>  0 0.13088561E+04</rscale>
<asrwt>0</asrwt>
<pdfrwt beam="1">  1        2 0.15262859E+00 0.13088561E+04</pdfrwt>
<pdfrwt beam="2">  1       -1 0.66414239E-01 0.13088561E+04</pdfrwt>
<totfact> 0.65441866E+01</totfact>
</mgrwt>
</event>
<event>
12    7  0.1625631E-007  0.1658872E+04  0.7818608E-02  0.8785175E-01
         -1   -1    0    0    0  501 -0.00000000000E+00  0.00000000000E+00  0.90332408552E+03  0.90332408552E+03  0.00000000000E+00 0.  1.
          2   -1    0    0  501    0  0.00000000000E+00 -0.00000000000E+00 -0.76159179334E+03  0.76159179334E+03  0.00000000000E+00 0. -1.
         24    2    1    2    0    0  0.34730108163E+03  0.41346806276E+03  0.25238376401E+03  0.60099206663E+03  0.76941663631E+02 0.  0.
        254    2    1    2    0    0 -0.34730108163E+03 -0.41346806276E+03 -0.11065147183E+03  0.10639238122E+04  0.91000892842E+03 0.  0.
         23    2    4    4    0    0  0.70029149045E+00  0.18634086745E+03  0.20852266011E+03  0.29509951961E+03  0.94226415641E+02 0.  0.
         23    2    4    4    0    0 -0.34800137312E+03 -0.59980893021E+03 -0.31917413194E+03  0.76882429262E+03  0.91339794059E+02 0.  0.
          4    1    3    3  502    0  0.66465913946E+02  0.88318929142E+02  0.86823063492E+02  0.14055673344E+03  0.00000000000E+00 0. -1.
         -3    1    3    3    0  502  0.28083516768E+03  0.32514913361E+03  0.16556070052E+03  0.46043533319E+03  0.00000000000E+00 0.  1.
         13    1    5    5    0    0 -0.37050878626E+02  0.30242112725E+02  0.40510659774E+02  0.62677480361E+02  0.00000000000E+00 0. -1.
        -13    1    5    5    0    0  0.37751170117E+02  0.15609875473E+03  0.16801200033E+03  0.23242203925E+03  0.00000000000E+00 0.  1.
          2    1    6    6  503    0 -0.41148690618E+02 -0.52545829499E+02 -0.60816070264E+02  0.90293262980E+02  0.00000000000E+00 0. -1.
         -2    1    6    6    0  503 -0.30685268250E+03 -0.54726310071E+03 -0.25835806167E+03  0.67853102964E+03  0.00000000000E+00 0.  1.
<mgrwt>
<rscale>  0 0.16588722E+04</rscale>
<asrwt>0</asrwt>
<pdfrwt beam="1">  1        2 0.11716797E+00 0.16588722E+04</pdfrwt>
<pdfrwt beam="2">  1       -1 0.13897294E+00 0.16588722E+04</pdfrwt>
<totfact> 0.17121941E+01</totfact>
</mgrwt>
</event>
<event>
12    7  0.1625631E-007  0.2164421E+04  0.7818608E-02  0.8533385E-01
         -1   -1    0    0    0  501 -0.00000000000E+00  0.00000000000E+00  0.14742917556E+04  0.14742917556E+04  0.00000000000E+00 0.  1.
          2   -1    0    0  501    0  0.00000000000E+00 -0.00000000000E+00 -0.79440118458E+03  0.79440118458E+03  0.00000000000E+00 0. -1.
         24    2    1    2    0    0  0.58061313364E+03 -0.62511881960E+02 -0.34331351895E+03  0.68199326477E+03  0.78938549239E+02 0.  0.
        254    2    1    2    0    0 -0.58061313364E+03  0.62511881960E+02  0.10232040899E+04  0.15866996754E+04  0.10628498972E+04 0.  0.
         23    2    4    4    0    0  0.29344385358E+03 -0.91421700190E+02  0.28563120688E+03  0.42909257260E+03  0.89822196862E+02 0.  0.
         23    2    4    4    0    0 -0.87405698722E+03  0.15393358215E+03  0.73757288306E+03  0.11576071028E+04  0.91483780008E+02 0.  0.
          4    1    3    3  502    0  0.43352808118E+03 -0.67239139719E+02 -0.28791554592E+03  0.52475047466E+03  0.00000000000E+00 0. -1.
         -3    1    3    3    0  502  0.14708505246E+03  0.47272577593E+01 -0.55397973029E+02  0.15724279010E+03  0.00000000000E+00 0.  1.
         13    1    5    5    0    0  0.11378814881E+03  0.60347637331E+01  0.80467517018E+02  0.13949617371E+03  0.00000000000E+00 0.  1.
        -13    1    5    5    0    0  0.17965570476E+03 -0.97456463923E+02  0.20516368986E+03  0.28959639889E+03  0.00000000000E+00 0. -1.
          4    1    6    6  503    0 -0.73185409741E+03  0.11301990153E+03  0.57327612437E+03  0.93649849589E+03  0.00000000000E+00 0. -1.
         -4    1    6    6    0  503 -0.14220288981E+03  0.40913680618E+02  0.16429675869E+03  0.22110860690E+03  0.00000000000E+00 0.  1.
<mgrwt>
<rscale>  0 0.21644206E+04</rscale>
<asrwt>0</asrwt>
<pdfrwt beam="1">  1        2 0.12221557E+00 0.21644206E+04</pdfrwt>
<pdfrwt beam="2">  1       -1 0.22681411E+00 0.21644206E+04</pdfrwt>
<totfact> 0.36040592E+00</totfact>
</mgrwt>
</event>
<event>
12    7  0.1625631E-007  0.1387794E+04  0.7818608E-02  0.8962701E-01
         -1   -1    0    0    0  501 -0.00000000000E+00  0.00000000000E+00  0.54939336847E+03  0.54939336847E+03  0.00000000000E+00 0.  1.
          2   -1    0    0  501    0  0.00000000000E+00 -0.00000000000E+00 -0.87640877080E+03  0.87640877080E+03  0.00000000000E+00 0. -1.
         24    2    1    2    0    0 -0.17879087844E+03 -0.33545756433E+02  0.19363515745E+03  0.27731244838E+03  0.79474045052E+02 0.  0.
        254    2    1    2    0    0  0.17879087844E+03  0.33545756433E+02 -0.52065055977E+03  0.11484896909E+04  0.10074026348E+04 0.  0.
         23    2    4    4    0    0 -0.35471880544E+03  0.14869874200E+03 -0.10494229758E+02  0.39586280658E+03  0.93061732009E+02 0.  0.
         23    2    4    4    0    0  0.53350968389E+03 -0.11515298556E+03 -0.51015633002E+03  0.75262688431E+03  0.91076632820E+02 0.  0.
          2    1    3    3  502    0 -0.50285775603E+02 -0.23926534580E+02  0.16156056508E+02  0.57984105123E+02  0.00000000000E+00 0. -1.
         -1    1    3    3    0  502 -0.12850510284E+03 -0.96192218534E+01  0.17747910094E+03  0.21932834326E+03  0.00000000000E+00 0.  1.
         13    1    5    5    0    0 -0.28115822682E+03  0.13341667633E+03  0.26087805524E+02  0.31229878582E+03  0.00000000000E+00 0. -1.
        -13    1    5    5    0    0 -0.73560578628E+02  0.15282065670E+02 -0.36582035282E+02  0.83564020754E+02  0.00000000000E+00 0.  1.
          4    1    6    6  503    0  0.27514858202E+02  0.13830167979E+02 -0.22375430929E+02  0.38065744147E+02  0.00000000000E+00 0.  1.
         -4    1    6    6    0  503  0.50599482569E+03 -0.12898315354E+03 -0.48778089909E+03  0.71456114016E+03  0.00000000000E+00 0. -1.
<mgrwt>
<rscale>  0 0.13877942E+04</rscale>
<asrwt>0</asrwt>
<pdfrwt beam="1">  1        2 0.13483212E+00 0.13877942E+04</pdfrwt>
<pdfrwt beam="2">  1       -1 0.84522057E-01 0.13877942E+04</pdfrwt>
<totfact> 0.46908124E+01</totfact>
</mgrwt>
</event>
<event>
12    7  0.1625631E-007  0.1291730E+04  0.7818608E-02  0.9036149E-01
         -1   -1    0    0    0  501 -0.00000000000E+00  0.00000000000E+00  0.17243780677E+03  0.17243780677E+03  0.00000000000E+00 0.  1.
          2   -1    0    0  501    0  0.00000000000E+00 -0.00000000000E+00 -0.24190834542E+04  0.24190834542E+04  0.00000000000E+00 0. -1.
         24    2    1    2    0    0 -0.20678016154E+03 -0.18396706132E+02 -0.10687787939E+04  0.10915714693E+04  0.78381683663E+02 0.  0.
        254    2    1    2    0    0  0.20678016154E+03  0.18396706132E+02 -0.11778668536E+04  0.14999497917E+04  0.90519753583E+03 0.  0.
         23    2    4    4    0    0  0.33400258291E+03  0.17168417465E+03 -0.99950144195E+02  0.39946151701E+03  0.92446152091E+02 0.  0.
         23    2    4    4    0    0 -0.12722242137E+03 -0.15328746852E+03 -0.10779167094E+04  0.11004882747E+04  0.97403377101E+02 0.  0.
          2    1    3    3  502    0 -0.21272063553E+03 -0.23529582511E+02 -0.10273660827E+04  0.10494211633E+04  0.00000000000E+00 0. -1.
         -1    1    3    3    0  502  0.59404739871E+01  0.51328763797E+01 -0.41412711152E+02  0.42150306002E+02  0.00000000000E+00 0.  1.
         13    1    5    5    0    0  0.30794634030E+03  0.14933219208E+03 -0.61167265166E+02  0.34766720643E+03  0.00000000000E+00 0.  1.
        -13    1    5    5    0    0  0.26056242608E+02  0.22351982566E+02 -0.38782879029E+02  0.51794310588E+02  0.00000000000E+00 0. -1.
          1    1    6    6  503    0 -0.15313870119E+02  0.81040742232E+01 -0.20597639043E+03  0.20670380754E+03  0.00000000000E+00 0. -1.
         -1    1    6    6    0  503 -0.11190855125E+03 -0.16139154274E+03 -0.87194031893E+03  0.89378446714E+03  0.00000000000E+00 0.  1.
<mgrwt>
<rscale>  0 0.12917298E+04</rscale>
<asrwt>0</asrwt>
<pdfrwt beam="1">  1        2 0.37216665E+00 0.12917298E+04</pdfrwt>
<pdfrwt beam="2">  1       -1 0.26528896E-01 0.12917298E+04</pdfrwt>
<totfact> 0.54975626E+01</totfact>
</mgrwt>
</event>
<event>
12    7  0.1625631E-007  0.2558024E+04  0.7818608E-02  0.8382601E-01
          2   -1    0    0  501    0  0.00000000000E+00  0.00000000000E+00  0.91212639163E+03  0.91212639163E+03  0.00000000000E+00 0. -1.
         -1   -1    0    0    0  501 -0.00000000000E+00 -0.00000000000E+00 -0.17934709700E+04  0.17934709700E+04  0.00000000000E+00 0.  1.
         24    2    1    2    0    0 -0.26316566755E+03  0.10095284152E+04 -0.81944969275E+03  0.13289004892E+04  0.77941783241E+02 0.  0.
        254    2    1    2    0    0  0.26316566755E+03 -0.10095284152E+04 -0.61894885657E+02  0.13766968724E+04  0.89613587809E+03 0.  0.
         23    2    4    4    0    0  0.18504426653E+03 -0.82911366876E+03  0.34082592272E+03  0.91977922772E+03  0.90336381684E+02 0.  0.
         23    2    4    4    0    0  0.78121401022E+02 -0.18041474646E+03 -0.40272080837E+03  0.45691764472E+03  0.89091248264E+02 0.  0.
          2    1    3    3  502    0 -0.60773476005E+00  0.14716881900E+00 -0.64893896094E+01  0.65194461193E+01  0.00000000000E+00 0. -1.
         -1    1    3    3    0  502 -0.26255793279E+03  0.10093812464E+04 -0.81296030314E+03  0.13223810431E+04  0.00000000000E+00 0.  1.
         13    1    5    5    0    0  0.23001615661E+02 -0.21751390672E+03  0.55148569739E+02  0.22557202549E+03  0.00000000000E+00 0.  1.
        -13    1    5    5    0    0  0.16204265087E+03 -0.61159976204E+03  0.28567735298E+03  0.69420720224E+03  0.00000000000E+00 0. -1.
          1    1    6    6  503    0  0.41840550783E+02 -0.17325214013E+03 -0.31953116323E+03  0.36587853179E+03  0.00000000000E+00 0. -1.
         -1    1    6    6    0  503  0.36280850238E+02 -0.71626063357E+01 -0.83189645146E+02  0.91039112930E+02  0.00000000000E+00 0.  1.
<mgrwt>
<rscale>  0 0.25580244E+04</rscale>
<asrwt>0</asrwt>
<pdfrwt beam="1">  1        2 0.14032714E+00 0.25580244E+04</pdfrwt>
<pdfrwt beam="2">  1       -1 0.27591861E+00 0.25580244E+04</pdfrwt>
<totfact> 0.13774465E+00</totfact>
</mgrwt>
</event>
<event>
12    7  0.1625631E-007  0.2669945E+04  0.7818608E-02  0.8344823E-01
         -1   -1    0    0    0  501 -0.00000000000E+00  0.00000000000E+00  0.72319315239E+03  0.72319315239E+03  0.00000000000E+00 0.  1.
          2   -1    0    0  501    0  0.00000000000E+00 -0.00000000000E+00 -0.24642815256E+04  0.24642815256E+04  0.00000000000E+00 0. -1.
         24    2    1    2    0    0  0.17705603473E+03  0.23261105279E+03 -0.21389606926E+04  0.21604328343E+04  0.82827807027E+02 0.  0.
        254    2    1    2    0    0 -0.17705603473E+03 -0.23261105279E+03  0.39787231943E+03  0.10270418437E+04  0.90058637830E+03 0.  0.
         23    2    4    4    0    0 -0.11598790935E+03 -0.53779178369E+03  0.63971937943E+02  0.56158221271E+03  0.92784562676E+02 0.  0.
         23    2    4    4    0    0 -0.61068125380E+02  0.30518073090E+03  0.33390038148E+03  0.46545963096E+03  0.91096700521E+02 0.  0.
          2    1    3    3  502    0  0.13588235241E+03  0.12195762985E+03 -0.14466671950E+04  0.14581439059E+04  0.00000000000E+00 0. -1.
         -1    1    3    3    0  502  0.41173682327E+02  0.11065342294E+03 -0.69229349756E+03  0.70228892836E+03  0.00000000000E+00 0.  1.
         13    1    5    5    0    0 -0.81509667492E+02 -0.22889032021E+03  0.62000946213E+02  0.25075629984E+03  0.00000000000E+00 0. -1.
        -13    1    5    5    0    0 -0.34478241861E+02 -0.30890146348E+03  0.19709917295E+01  0.31082591287E+03  0.00000000000E+00 0.  1.
          1    1    6    6  503    0 -0.20226288772E+02  0.20666389832E+03  0.16287681035E+03  0.26390893311E+03  0.00000000000E+00 0. -1.
         -1    1    6    6    0  503 -0.40841836608E+02  0.98516832583E+02  0.17102357113E+03  0.20155069785E+03  0.00000000000E+00 0.  1.
<mgrwt>
<rscale>  0 0.26699450E+04</rscale>
<asrwt>0</asrwt>
<pdfrwt beam="1">  1        2 0.37912024E+00 0.26699450E+04</pdfrwt>
<pdfrwt beam="2">  1       -1 0.11126048E+00 0.26699450E+04</pdfrwt>
<totfact> 0.27113750E+00</totfact>
</mgrwt>
</event>
<event>
12    7  0.1625631E-007  0.1467488E+04  0.7818608E-02  0.8906366E-01
         -1   -1    0    0    0  501 -0.00000000000E+00  0.00000000000E+00  0.47945773168E+03  0.47945773168E+03  0.00000000000E+00 0.  1.
          2   -1    0    0  501    0  0.00000000000E+00 -0.00000000000E+00 -0.11228941780E+04  0.11228941780E+04  0.00000000000E+00 0. -1.
         24    2    1    2    0    0  0.34915723418E+02  0.32596091928E+03 -0.50353120727E+03  0.60570189828E+03  0.76560330723E+02 0.  0.
        254    2    1    2    0    0 -0.34915723418E+02 -0.32596091928E+03 -0.13990523909E+03  0.99665001145E+03  0.93073526889E+03 0.  0.
         23    2    4    4    0    0 -0.43069199450E+03 -0.24886812453E+03  0.10462395651E+03  0.51653789551E+03  0.91838378064E+02 0.  0.
         23    2    4    4    0    0  0.39577627109E+03 -0.77092794751E+02 -0.24452919560E+03  0.48011211594E+03  0.90171839367E+02 0.  0.
          2    1    3    3  502    0  0.52381710201E+02  0.22917731371E+03 -0.39119330864E+03  0.45639707428E+03  0.00000000000E+00 0. -1.
         -1    1    3    3    0  502 -0.17465986783E+02  0.96783605563E+02 -0.11233789863E+03  0.14930482400E+03  0.00000000000E+00 0.  1.
         13    1    5    5    0    0 -0.39751289320E+03 -0.19826128213E+03  0.10302849966E+03  0.45600318858E+03  0.00000000000E+00 0. -1.
        -13    1    5    5    0    0 -0.33179101309E+02 -0.50606842395E+02  0.15954568485E+01  0.60534706933E+02  0.00000000000E+00 0.  1.
          1    1    6    6  503    0  0.35565095178E+03 -0.94513699057E+02 -0.23027292830E+03  0.43410374373E+03  0.00000000000E+00 0. -1.
         -1    1    6    6    0  503  0.40125319306E+02  0.17420904305E+02 -0.14256267298E+02  0.46008372210E+02  0.00000000000E+00 0.  1.
<mgrwt>
<rscale>  0 0.14674881E+04</rscale>
<asrwt>0</asrwt>
<pdfrwt beam="1">  1        2 0.17275295E+00 0.14674881E+04</pdfrwt>
<pdfrwt beam="2">  1       -1 0.73762728E-01 0.14674881E+04</pdfrwt>
<totfact> 0.43131582E+01</totfact>
</mgrwt>
</event>
<event>
12    7  0.1625631E-007  0.2338992E+04  0.7818608E-02  0.8462704E-01
         -1   -1    0    0    0  501 -0.00000000000E+00  0.00000000000E+00  0.71795774451E+03  0.71795774451E+03  0.00000000000E+00 0.  1.
          2   -1    0    0  501    0  0.00000000000E+00 -0.00000000000E+00 -0.19050151959E+04  0.19050151959E+04  0.00000000000E+00 0. -1.
         24    2    1    2    0    0 -0.37793272472E+03 -0.90007582348E+03 -0.74160288246E+03  0.12283836987E+04  0.77343671412E+02 0.  0.
        254    2    1    2    0    0  0.37793272472E+03  0.90007582348E+03 -0.44545456891E+03  0.13945892417E+04  0.89077480186E+03 0.  0.
         23    2    4    4    0    0 -0.10021873705E+03  0.45117429305E+03 -0.55012916866E+03  0.72411844343E+03  0.90018775470E+02 0.  0.
         23    2    4    4    0    0  0.47815146177E+03  0.44890153044E+03  0.10467459975E+03  0.67047079826E+03  0.91830904737E+02 0.  0.
          2    1    3    3  502    0 -0.35483646466E+03 -0.82928032457E+03 -0.70801879974E+03  0.11466932433E+04  0.00000000000E+00 0. -1.
         -1    1    3    3    0  502 -0.23096260052E+02 -0.70795498911E+02 -0.33584082713E+02  0.81690455416E+02  0.00000000000E+00 0.  1.
         13    1    5    5    0    0 -0.95640204599E+02  0.41777671422E+03 -0.46410985590E+03  0.63172968113E+03  0.00000000000E+00 0. -1.
        -13    1    5    5    0    0 -0.45785324522E+01  0.33397578833E+02 -0.86019312758E+02  0.92388762297E+02  0.00000000000E+00 0.  1.
          4    1    6    6  503    0  0.36932240233E+03  0.39303105473E+03  0.96261765053E+02  0.54784922584E+03  0.00000000000E+00 0. -1.
         -4    1    6    6    0  503  0.10882905944E+03  0.55870475705E+02  0.84128346983E+01  0.12262157242E+03  0.00000000000E+00 0.  1.
<mgrwt>
<rscale>  0 0.23389916E+04</rscale>
<asrwt>0</asrwt>
<pdfrwt beam="1">  1        2 0.29307926E+00 0.23389916E+04</pdfrwt>
<pdfrwt beam="2">  1       -1 0.11045504E+00 0.23389916E+04</pdfrwt>
<totfact> 0.58651377E+00</totfact>
</mgrwt>
</event>
<event>
12    7  0.1625631E-007  0.1522438E+04  0.7818608E-02  0.8869668E-01
         -1   -1    0    0    0  501 -0.00000000000E+00  0.00000000000E+00  0.18324766756E+04  0.18324766756E+04  0.00000000000E+00 0.  1.
          2   -1    0    0  501    0  0.00000000000E+00 -0.00000000000E+00 -0.31621372553E+03  0.31621372553E+03  0.00000000000E+00 0. -1.
         24    2    1    2    0    0 -0.19948850834E+03  0.72378208666E+02 -0.13178535058E+03  0.26222609217E+03  0.79755092237E+02 0.  0.
        254    2    1    2    0    0  0.19948850834E+03 -0.72378208666E+02  0.16480483006E+04  0.18864643090E+04  0.89311260078E+03 0.  0.
         23    2    4    4    0    0  0.95483188294E+02 -0.25666918564E+03  0.77297875655E+02  0.29898722621E+03  0.91773033894E+02 0.  0.
         23    2    4    4    0    0  0.10400532004E+03  0.18429097697E+03  0.15707504250E+04  0.15874770827E+04  0.89701281282E+02 0.  0.
          2    1    3    3  502    0 -0.14598410562E+03  0.32450035580E+02 -0.12539164665E+03  0.19516000859E+03  0.00000000000E+00 0. -1.
         -1    1    3    3    0  502 -0.53504402714E+02  0.39928173087E+02 -0.63937039220E+01  0.67066083572E+02  0.00000000000E+00 0.  1.
         13    1    5    5    0    0  0.86033286787E+02 -0.10168283134E+03  0.28336680765E+02  0.13617669442E+03  0.00000000000E+00 0.  1.
        -13    1    5    5    0    0  0.94499015070E+01 -0.15498635430E+03  0.48961194890E+02  0.16281053179E+03  0.00000000000E+00 0. -1.
          3    1    6    6  503    0  0.38933859821E+02  0.38013449981E+02  0.19523665920E+03  0.20267762805E+03  0.00000000000E+00 0. -1.
         -3    1    6    6    0  503  0.65071460221E+02  0.14627752699E+03  0.13755137658E+04  0.13847994547E+04  0.00000000000E+00 0.  1.
<mgrwt>
<rscale>  0 0.15224379E+04</rscale>
<asrwt>0</asrwt>
<pdfrwt beam="1">  1        2 0.48648266E-01 0.15224379E+04</pdfrwt>
<pdfrwt beam="2">  1       -1 0.28191948E+00 0.15224379E+04</pdfrwt>
<totfact> 0.49525202E+00</totfact>
</mgrwt>
</event>
<event>
12    7  0.1625631E-007  0.1902911E+04  0.7818608E-02  0.8653409E-01
         -1   -1    0    0    0  501 -0.00000000000E+00  0.00000000000E+00  0.13579276902E+04  0.13579276902E+04  0.00000000000E+00 0.  1.
          2   -1    0    0  501    0  0.00000000000E+00 -0.00000000000E+00 -0.66665362676E+03  0.66665362676E+03  0.00000000000E+00 0. -1.
         24    2    1    2    0    0 -0.27722391757E+03  0.53951629032E+03  0.73357887033E+03  0.95514243377E+03  0.78918830431E+02 0.  0.
        254    2    1    2    0    0  0.27722391757E+03 -0.53951629032E+03 -0.42304806901E+02  0.10694388832E+04  0.87976070619E+03 0.  0.
         23    2    4    4    0    0  0.51001004705E+03 -0.57183940561E+03  0.10577604537E+03  0.77867536254E+03  0.89644824422E+02 0.  0.
         23    2    4    4    0    0 -0.23278612948E+03  0.32323115294E+02 -0.14808085227E+03  0.29076352063E+03  0.85914610283E+02 0.  0.
          2    1    3    3  502    0 -0.60522638305E+02  0.11467418360E+03  0.21097643821E+03  0.24763726620E+03  0.00000000000E+00 0. -1.
         -1    1    3    3    0  502 -0.21670127926E+03  0.42484210672E+03  0.52260243212E+03  0.70750516756E+03  0.00000000000E+00 0.  1.
         13    1    5    5    0    0  0.43139702283E+02 -0.19890957165E+02 -0.30807499567E+01  0.47604360203E+02  0.00000000000E+00 0. -1.
        -13    1    5    5    0    0  0.46687034477E+03 -0.55194844845E+03  0.10885679532E+03  0.73107100234E+03  0.00000000000E+00 0.  1.
          4    1    6    6  503    0 -0.12058270986E+03  0.58344394718E+02 -0.66033419506E+02  0.14934748342E+03  0.00000000000E+00 0. -1.
         -4    1    6    6    0  503 -0.11220341962E+03 -0.26021279424E+02 -0.82047432762E+02  0.14141603721E+03  0.00000000000E+00 0.  1.
<mgrwt>
<rscale>  0 0.19029108E+04</rscale>
<asrwt>0</asrwt>
<pdfrwt beam="1">  1        2 0.10256210E+00 0.19029108E+04</pdfrwt>
<pdfrwt beam="2">  1       -1 0.20891195E+00 0.19029108E+04</pdfrwt>
<totfact> 0.60904420E+00</totfact>
</mgrwt>
</event>
<event>
12    7  0.1625631E-007  0.3883648E+04  0.7818608E-02  0.8028439E-01
          2   -1    0    0  501    0  0.00000000000E+00  0.00000000000E+00  0.14649780802E+04  0.14649780802E+04  0.00000000000E+00 0. -1.
         -1   -1    0    0    0  501 -0.00000000000E+00 -0.00000000000E+00 -0.25738822471E+04  0.25738822471E+04  0.00000000000E+00 0.  1.
         24    2    1    2    0    0  0.10307727984E+03 -0.98568105496E+03 -0.21333956328E+04  0.23537180307E+04  0.80122245911E+02 0.  0.
        254    2    1    2    0    0 -0.10307727984E+03  0.98568105496E+03  0.10244914659E+04  0.16851422967E+04  0.89884911338E+03 0.  0.
         23    2    4    4    0    0 -0.31249072052E+03  0.88687939243E+03  0.42545702880E+03  0.10364110278E+04  0.94491417917E+02 0.  0.
         23    2    4    4    0    0  0.20941344068E+03  0.98801662527E+02  0.59903443706E+03  0.64873126885E+03  0.91620111013E+02 0.  0.
          2    1    3    3  502    0  0.49104220794E+02 -0.37966325336E+03 -0.73575148937E+03  0.82938872946E+03  0.00000000000E+00 0. -1.
         -3    1    3    3    0  502  0.53973059051E+02 -0.60601780160E+03 -0.13976441434E+04  0.15243293012E+04  0.00000000000E+00 0.  1.
         13    1    5    5    0    0 -0.90628255811E+02  0.31128529301E+03  0.10198068483E+03  0.33987067316E+03  0.00000000000E+00 0. -1.
        -13    1    5    5    0    0 -0.22186246471E+03  0.57559409942E+03  0.32347634396E+03  0.69654035464E+03  0.00000000000E+00 0.  1.
          1    1    6    6  503    0  0.96769265500E+02  0.95400495301E+02  0.34643587280E+03  0.37213352337E+03  0.00000000000E+00 0. -1.
         -1    1    6    6    0  503  0.11264417518E+03  0.34011672263E+01  0.25259856426E+03  0.27659774548E+03  0.00000000000E+00 0.  1.
<mgrwt>
<rscale>  0 0.38836483E+04</rscale>
<asrwt>0</asrwt>
<pdfrwt beam="1">  1        2 0.22538125E+00 0.38836483E+04</pdfrwt>
<pdfrwt beam="2">  1       -1 0.39598188E+00 0.38836483E+04</pdfrwt>
<totfact> 0.91766714E-02</totfact>
</mgrwt>
</event>
<event>
12    7  0.1625631E-007  0.1202635E+04  0.7818608E-02  0.9110554E-01
         -1   -1    0    0    0  501 -0.00000000000E+00  0.00000000000E+00  0.36051400365E+03  0.36051400365E+03  0.00000000000E+00 0.  1.
          2   -1    0    0  501    0  0.00000000000E+00 -0.00000000000E+00 -0.10029638986E+04  0.10029638986E+04  0.00000000000E+00 0. -1.
         24    2    1    2    0    0  0.83289328878E+02  0.12154826376E+02  0.11330018933E+03  0.16219808578E+03  0.79915167643E+02 0.  0.
        254    2    1    2    0    0 -0.83289328878E+02 -0.12154826376E+02 -0.75575008432E+03  0.12012798165E+04  0.92996244843E+03 0.  0.
         23    2    4    4    0    0 -0.45440765380E+03 -0.26949719620E+00 -0.15336168555E+03  0.48779519476E+03  0.89095212938E+02 0.  0.
         23    2    4    4    0    0  0.37111832493E+03 -0.11885329180E+02 -0.60238839876E+03  0.71348462175E+03  0.91205539106E+02 0.  0.
          2    1    3    3  502    0  0.45036144996E+02  0.37892879239E+02  0.27873240416E+02  0.65123284503E+02  0.00000000000E+00 0. -1.
         -1    1    3    3    0  502  0.38253183882E+02 -0.25738052863E+02  0.85426948915E+02  0.97074801278E+02  0.00000000000E+00 0.  1.
         13    1    5    5    0    0 -0.30886392775E+03  0.41497547525E+02 -0.10395313368E+03  0.32851975027E+03  0.00000000000E+00 0.  1.
        -13    1    5    5    0    0 -0.14554372605E+03 -0.41767044721E+02 -0.49408551871E+02  0.15927544449E+03  0.00000000000E+00 0. -1.
          1    1    6    6  503    0 -0.69365682536E+00  0.93660129692E-01  0.29194707860E+01  0.30022061358E+01  0.00000000000E+00 0. -1.
         -1    1    6    6    0  503  0.37181198175E+03 -0.11978989310E+02 -0.60530786955E+03  0.71048241561E+03  0.00000000000E+00 0.  1.
<mgrwt>
<rscale>  0 0.12026347E+04</rscale>
<asrwt>0</asrwt>
<pdfrwt beam="1">  1        2 0.15430214E+00 0.12026347E+04</pdfrwt>
<pdfrwt beam="2">  1       -1 0.55463693E-01 0.12026347E+04</pdfrwt>
<totfact> 0.92754098E+01</totfact>
</mgrwt>
</event>
<event>
12    7  0.1625631E-007  0.1254412E+04  0.7818608E-02  0.9066519E-01
         -1   -1    0    0    0  501 -0.00000000000E+00  0.00000000000E+00  0.14776240898E+03  0.14776240898E+03  0.00000000000E+00 0.  1.
          2   -1    0    0  501    0  0.00000000000E+00 -0.00000000000E+00 -0.26622965225E+04  0.26622965225E+04  0.00000000000E+00 0. -1.
         24    2    1    2    0    0  0.14248846022E+03 -0.13650829301E+02 -0.11855176811E+04  0.11966816319E+04  0.78137375805E+02 0.  0.
        254    2    1    2    0    0 -0.14248846022E+03  0.13650829301E+02 -0.13290164324E+04  0.16133772996E+04  0.90344470043E+03 0.  0.
         23    2    4    4    0    0 -0.36947112892E+03  0.33103239185E+03 -0.63044629335E+03  0.80736503225E+03  0.91018717559E+02 0.  0.
         23    2    4    4    0    0  0.22698266870E+03 -0.31738156255E+03 -0.69857013909E+03  0.80601226735E+03  0.96970860314E+02 0.  0.
          2    1    3    3  502    0  0.53980705290E+02 -0.29477859540E+02 -0.71569606344E+03  0.71833398637E+03  0.00000000000E+00 0. -1.
         -1    1    3    3    0  502  0.88507754934E+02  0.15827030239E+02 -0.46982161765E+03  0.47834764553E+03  0.00000000000E+00 0.  1.
         13    1    5    5    0    0 -0.25111454011E+03  0.17197290120E+03 -0.41402712355E+03  0.51385956256E+03  0.00000000000E+00 0.  1.
        -13    1    5    5    0    0 -0.11835658881E+03  0.15905949066E+03 -0.21641916980E+03  0.29350546969E+03  0.00000000000E+00 0. -1.
          4    1    6    6  503    0  0.51079881178E+02 -0.13860184732E+03 -0.20891818796E+03  0.25586409596E+03  0.00000000000E+00 0. -1.
         -4    1    6    6    0  503  0.17590278752E+03 -0.17877971524E+03 -0.48965195113E+03  0.55014817139E+03  0.00000000000E+00 0.  1.
<mgrwt>
<rscale>  0 0.12544120E+04</rscale>
<asrwt>0</asrwt>
<pdfrwt beam="1">  1        2 0.40958405E+00 0.12544120E+04</pdfrwt>
<pdfrwt beam="2">  1       -1 0.22732680E-01 0.12544120E+04</pdfrwt>
<totfact> 0.51984022E+01</totfact>
</mgrwt>
</event>
<event>
12    7  0.1625631E-007  0.1222727E+04  0.7818608E-02  0.9093193E-01
          2   -1    0    0  501    0  0.00000000000E+00  0.00000000000E+00  0.25796575890E+03  0.25796575890E+03  0.00000000000E+00 0. -1.
         -1   -1    0    0    0  501 -0.00000000000E+00 -0.00000000000E+00 -0.14488948003E+04  0.14488948003E+04  0.00000000000E+00 0.  1.
         24    2    1    2    0    0 -0.76964084765E+02 -0.11473716654E+03  0.49382608851E+02  0.16711572303E+03  0.80005844139E+02 0.  0.
        254    2    1    2    0    0  0.76964084765E+02  0.11473716654E+03 -0.12403116503E+04  0.15397448362E+04  0.90186090007E+03 0.  0.
         23    2    4    4    0    0 -0.21201478482E+03  0.39862413221E+03 -0.86261384655E+03  0.97821305901E+03  0.94586853213E+02 0.  0.
         23    2    4    4    0    0  0.28897886958E+03 -0.28388696567E+03 -0.37769780374E+03  0.56153177720E+03  0.92529506179E+02 0.  0.
          4    1    3    3  502    0 -0.67856081197E+02 -0.11151188013E+03  0.67222616482E+02  0.14682720229E+03  0.00000000000E+00 0. -1.
         -3    1    3    3    0  502 -0.91080035681E+01 -0.32252864111E+01 -0.17840007631E+02  0.20288520737E+02  0.00000000000E+00 0.  1.
         13    1    5    5    0    0 -0.16187263488E+03  0.35423276424E+03 -0.67899351845E+03  0.78276164908E+03  0.00000000000E+00 0.  1.
        -13    1    5    5    0    0 -0.50142149936E+02  0.44391367975E+02 -0.18362032810E+03  0.19545140993E+03  0.00000000000E+00 0. -1.
          1    1    6    6  503    0  0.50417357235E+02 -0.34165156825E+02 -0.19473815175E+02  0.63940576545E+02  0.00000000000E+00 0. -1.
         -1    1    6    6    0  503  0.23856151235E+03 -0.24972180884E+03 -0.35822398857E+03  0.49759120066E+03  0.00000000000E+00 0.  1.
<mgrwt>
<rscale>  0 0.12227269E+04</rscale>
<asrwt>0</asrwt>
<pdfrwt beam="1">  1        2 0.39687041E-01 0.12227269E+04</pdfrwt>
<pdfrwt beam="2">  1       -1 0.22290689E+00 0.12227269E+04</pdfrwt>
<totfact> 0.15459054E+01</totfact>
</mgrwt>
</event>
<event>
12    7  0.1625631E-007  0.1057869E+04  0.7818608E-02  0.9247258E-01
          2   -1    0    0  501    0  0.00000000000E+00  0.00000000000E+00  0.11319269539E+04  0.11319269539E+04  0.00000000000E+00 0. -1.
         -1   -1    0    0    0  501 -0.00000000000E+00 -0.00000000000E+00 -0.24716391887E+03  0.24716391887E+03  0.00000000000E+00 0.  1.
         24    2    1    2    0    0  0.10877914914E+03 -0.11652940996E+02  0.49409264400E+02  0.14466149821E+03  0.80727810165E+02 0.  0.
        254    2    1    2    0    0 -0.10877914914E+03  0.11652940996E+02  0.83535377065E+03  0.12344293746E+04  0.90223681170E+03 0.  0.
         23    2    4    4    0    0 -0.38957481685E+03  0.18374107746E+02  0.85121943126E+03  0.94099201854E+03  0.93730000797E+02 0.  0.
         23    2    4    4    0    0  0.28079566771E+03 -0.67211667500E+01 -0.15865660607E+02  0.29343735605E+03  0.83440887154E+02 0.  0.
          2    1    3    3  502    0  0.23036464380E+02  0.18139298005E+02  0.45093515813E+02  0.53787898190E+02  0.00000000000E+00 0. -1.
         -1    1    3    3    0  502  0.85742684761E+02 -0.29792239001E+02  0.43157485863E+01  0.90873600020E+02  0.00000000000E+00 0.  1.
         13    1    5    5    0    0 -0.32922091975E+03  0.21157256990E+02  0.62354934562E+03  0.70544158507E+03  0.00000000000E+00 0.  1.
        -13    1    5    5    0    0 -0.60353897108E+02 -0.27831492440E+01  0.22767008563E+03  0.23555043347E+03  0.00000000000E+00 0. -1.
          4    1    6    6  503    0  0.23949308853E+03 -0.25724292205E+02  0.10096655409E+02  0.24108218747E+03  0.00000000000E+00 0.  1.
         -4    1    6    6    0  503  0.41302579179E+02  0.19003125455E+02 -0.25962316016E+02  0.52355168577E+02  0.00000000000E+00 0. -1.
<mgrwt>
<rscale>  0 0.10578686E+04</rscale>
<asrwt>0</asrwt>
<pdfrwt beam="1">  1        2 0.17414261E+00 0.10578686E+04</pdfrwt>
<pdfrwt beam="2">  1       -1 0.38025219E-01 0.10578686E+04</pdfrwt>
<totfact> 0.15768016E+02</totfact>
</mgrwt>
</event>
<event>
12    7  0.1625631E-007  0.2148530E+04  0.7818608E-02  0.8540162E-01
          2   -1    0    0  501    0  0.00000000000E+00  0.00000000000E+00  0.37584283682E+03  0.37584283682E+03  0.00000000000E+00 0. -1.
         -1   -1    0    0    0  501 -0.00000000000E+00 -0.00000000000E+00 -0.30705520678E+04  0.30705520678E+04  0.00000000000E+00 0.  1.
         24    2    1    2    0    0 -0.13354625168E+03 -0.83566116929E+03 -0.68860307063E+03  0.10941247191E+04  0.82283174957E+02 0.  0.
        254    2    1    2    0    0  0.13354625168E+03  0.83566116929E+03 -0.20061061604E+04  0.23522701856E+04  0.89025215974E+03 0.  0.
         23    2    4    4    0    0  0.33223607753E+03  0.17591618755E+03 -0.13209957516E+04  0.13763919999E+04  0.89988030129E+02 0.  0.
         23    2    4    4    0    0 -0.19868982585E+03  0.65974498174E+03 -0.68511040883E+03  0.97587818563E+03  0.90669030448E+02 0.  0.
          2    1    3    3  502    0 -0.14501619537E+03 -0.75742180103E+03 -0.62498163408E+03  0.99263262314E+03  0.00000000000E+00 0. -1.
         -1    1    3    3    0  502  0.11469943687E+02 -0.78239368259E+02 -0.63621436548E+02  0.10149209596E+03  0.00000000000E+00 0.  1.
         13    1    5    5    0    0  0.29501378320E+03  0.18489046830E+03 -0.11993481292E+04  0.12488609021E+04  0.00000000000E+00 0. -1.
        -13    1    5    5    0    0  0.37222294336E+02 -0.89742807556E+01 -0.12164762232E+03  0.12753109788E+03  0.00000000000E+00 0.  1.
          4    1    6    6  503    0 -0.20051468109E+03  0.56478022864E+03 -0.60547483191E+03  0.85192876232E+03  0.00000000000E+00 0. -1.
         -4    1    6    6    0  503  0.18248552393E+01  0.94964753100E+02 -0.79635576914E+02  0.12394942331E+03  0.00000000000E+00 0.  1.
<mgrwt>
<rscale>  0 0.21485297E+04</rscale>
<asrwt>0</asrwt>
<pdfrwt beam="1">  1        2 0.57821975E-01 0.21485297E+04</pdfrwt>
<pdfrwt beam="2">  1       -1 0.47239263E+00 0.21485297E+04</pdfrwt>
<totfact> 0.20309372E-01</totfact>
</mgrwt>
</event>
<event>
12    7  0.1625631E-007  0.1086414E+04  0.7818608E-02  0.9218535E-01
         -1   -1    0    0    0  501 -0.00000000000E+00  0.00000000000E+00  0.26858912937E+03  0.26858912937E+03  0.00000000000E+00 0.  1.
          2   -1    0    0  501    0  0.00000000000E+00 -0.00000000000E+00 -0.10986074500E+04  0.10986074500E+04  0.00000000000E+00 0. -1.
         24    2    1    2    0    0 -0.53219822311E+02  0.35471975097E+02 -0.31223928044E+03  0.32829400881E+03  0.78695472950E+02 0.  0.
        254    2    1    2    0    0  0.53219822311E+02 -0.35471975097E+02 -0.51777904020E+03  0.10389025706E+04  0.89840570243E+03 0.  0.
         23    2    4    4    0    0  0.15558584205E+03 -0.17146179163E+02  0.22215578451E+03  0.28639430919E+03  0.90374565219E+02 0.  0.
         23    2    4    4    0    0 -0.10236601974E+03 -0.18325795934E+02 -0.73993482472E+03  0.75250826138E+03  0.89165586548E+02 0.  0.
          2    1    3    3  502    0 -0.68024277292E+02  0.30468640833E+02 -0.29790649791E+03  0.30708943628E+03  0.00000000000E+00 0. -1.
         -1    1    3    3    0  502  0.14804454981E+02  0.50033342645E+01 -0.14332782530E+02  0.21204572528E+02  0.00000000000E+00 0.  1.
         13    1    5    5    0    0  0.15113396446E+03 -0.40878175671E+02  0.19056023825E+03  0.24662867811E+03  0.00000000000E+00 0. -1.
        -13    1    5    5    0    0  0.44518775872E+01  0.23731996508E+02  0.31595546260E+02  0.39765631087E+02  0.00000000000E+00 0.  1.
          2    1    6    6  503    0  0.33873353317E+01  0.42403185493E+01 -0.77687319107E+00  0.54825061791E+01  0.00000000000E+00 0.  1.
         -2    1    6    6    0  503 -0.10575335507E+03 -0.22566114483E+02 -0.73915795152E+03  0.74702575520E+03  0.00000000000E+00 0. -1.
<mgrwt>
<rscale>  0 0.10864143E+04</rscale>
<asrwt>0</asrwt>
<pdfrwt beam="1">  1        2 0.16901654E+00 0.10864143E+04</pdfrwt>
<pdfrwt beam="2">  1       -1 0.41321403E-01 0.10864143E+04</pdfrwt>
<totfact> 0.14178191E+02</totfact>
</mgrwt>
</event>
<event>
12    7  0.1625631E-007  0.1622092E+04  0.7818608E-02  0.8807090E-01
          2   -1    0    0  501    0  0.00000000000E+00  0.00000000000E+00  0.56098146215E+03  0.56098146215E+03  0.00000000000E+00 0. -1.
         -1   -1    0    0    0  501 -0.00000000000E+00 -0.00000000000E+00 -0.11725794336E+04  0.11725794336E+04  0.00000000000E+00 0.  1.
         24    2    1    2    0    0 -0.86936405559E+02 -0.15445098975E+03 -0.77547342723E+03  0.79966685412E+03  0.81822945397E+02 0.  0.
        254    2    1    2    0    0  0.86936405559E+02  0.15445098975E+03  0.16387545580E+03  0.93389404160E+03  0.90215845010E+03 0.  0.
         23    2    4    4    0    0 -0.37092052918E+03  0.51461388858E+02 -0.85470182876E+02  0.39477914554E+03  0.91187214481E+02 0.  0.
         23    2    4    4    0    0  0.45785693473E+03  0.10298960089E+03  0.24934563868E+03  0.53911489606E+03  0.90729229316E+02 0.  0.
          4    1    3    3  502    0  0.68681016194E+01 -0.16050580201E+02 -0.23184745153E+02  0.29022824681E+02  0.00000000000E+00 0. -1.
         -3    1    3    3    0  502 -0.93804507178E+02 -0.13840040955E+03 -0.75228868208E+03  0.77064402944E+03  0.00000000000E+00 0.  1.
         13    1    5    5    0    0 -0.25997326886E+03  0.12160664136E+02 -0.94134015709E+02  0.27675836968E+03  0.00000000000E+00 0. -1.
        -13    1    5    5    0    0 -0.11094726032E+03  0.39300724722E+02  0.86638328332E+01  0.11802077586E+03  0.00000000000E+00 0.  1.
          1    1    6    6  503    0  0.20228182848E+03  0.11467890388E+02  0.14091825605E+03  0.24679425749E+03  0.00000000000E+00 0.  1.
         -1    1    6    6    0  503  0.25557510625E+03  0.91521710503E+02  0.10842738263E+03  0.29232063857E+03  0.00000000000E+00 0. -1.
<mgrwt>
<rscale>  0 0.16220916E+04</rscale>
<asrwt>0</asrwt>
<pdfrwt beam="1">  1        2 0.86304840E-01 0.16220916E+04</pdfrwt>
<pdfrwt beam="2">  1       -1 0.18039684E+00 0.16220916E+04</pdfrwt>
<totfact> 0.12160064E+01</totfact>
</mgrwt>
</event>
<event>
12    7  0.1625631E-007  0.1909890E+04  0.7818608E-02  0.8649949E-01
          2   -1    0    0  501    0  0.00000000000E+00  0.00000000000E+00  0.17666894847E+04  0.17666894847E+04  0.00000000000E+00 0. -1.
         -1   -1    0    0    0  501 -0.00000000000E+00 -0.00000000000E+00 -0.51617465222E+03  0.51617465222E+03  0.00000000000E+00 0.  1.
         24    2    1    2    0    0  0.28617117740E+03  0.41865563931E+03 -0.16117014345E+03  0.53800892434E+03  0.79443693452E+02 0.  0.
        254    2    1    2    0    0 -0.28617117740E+03 -0.41865563931E+03  0.14116849759E+04  0.17448552125E+04  0.89134659616E+03 0.  0.
         23    2    4    4    0    0  0.30835560666E+03 -0.69697549932E+02  0.49206253167E+03  0.59182106226E+03  0.90474891725E+02 0.  0.
         23    2    4    4    0    0 -0.59452678406E+03 -0.34895808937E+03  0.91962244422E+03  0.11530341503E+04  0.92457918605E+02 0.  0.
          4    1    3    3  502    0  0.95520304007E+02  0.80344545477E+02 -0.33628238175E+02  0.12926806593E+03  0.00000000000E+00 0. -1.
         -3    1    3    3    0  502  0.19065087339E+03  0.33831109383E+03 -0.12754190527E+03  0.40874085841E+03  0.00000000000E+00 0.  1.
         13    1    5    5    0    0  0.19556418412E+02  0.58746697120E+01  0.82625126180E+02  0.85110967105E+02  0.00000000000E+00 0.  1.
        -13    1    5    5    0    0  0.28879918825E+03 -0.75572219644E+02  0.40943740549E+03  0.50671009515E+03  0.00000000000E+00 0. -1.
          1    1    6    6  503    0 -0.11008024525E+03 -0.27181693122E+02  0.16802786435E+03  0.20270635913E+03  0.00000000000E+00 0.  1.
         -1    1    6    6    0  503 -0.48444653881E+03 -0.32177639625E+03  0.75159457987E+03  0.95032779116E+03  0.00000000000E+00 0. -1.
<mgrwt>
<rscale>  0 0.19098904E+04</rscale>
<asrwt>0</asrwt>
<pdfrwt beam="1">  1        2 0.27179838E+00 0.19098904E+04</pdfrwt>
<pdfrwt beam="2">  1       -1 0.79411486E-01 0.19098904E+04</pdfrwt>
<totfact> 0.15206986E+01</totfact>
</mgrwt>
</event>
<event>
12    7  0.1625631E-007  0.1560711E+04  0.7818608E-02  0.8845055E-01
          2   -1    0    0  501    0  0.00000000000E+00  0.00000000000E+00  0.57789287312E+03  0.57789287312E+03  0.00000000000E+00 0. -1.
         -1   -1    0    0    0  501 -0.00000000000E+00 -0.00000000000E+00 -0.10537497509E+04  0.10537497509E+04  0.00000000000E+00 0.  1.
         24    2    1    2    0    0 -0.41373250987E+03 -0.31193997541E+03 -0.20962026175E+03  0.56426899158E+03  0.77315604744E+02 0.  0.
        254    2    1    2    0    0  0.41373250987E+03  0.31193997541E+03 -0.26623661599E+03  0.10673736324E+04  0.89438436786E+03 0.  0.
         23    2    4    4    0    0  0.38512457064E+03 -0.14675132961E+03 -0.39855110108E+03  0.58065362350E+03  0.91971531771E+02 0.  0.
         23    2    4    4    0    0  0.28607939232E+02  0.45869130502E+03  0.13231448509E+03  0.48672000891E+03  0.90405290869E+02 0.  0.
          4    1    3    3  502    0 -0.33139884440E+03 -0.25086395851E+03 -0.13339917771E+03  0.43652406619E+03  0.00000000000E+00 0. -1.
         -3    1    3    3    0  502 -0.82333665470E+02 -0.61076016899E+02 -0.76221084038E+02  0.12774492539E+03  0.00000000000E+00 0.  1.
         13    1    5    5    0    0  0.47335144946E+02 -0.47441423846E+02 -0.91961980035E+02  0.11379064292E+03  0.00000000000E+00 0.  1.
        -13    1    5    5    0    0  0.33778942569E+03 -0.99309905764E+02 -0.30658912104E+03  0.46686298058E+03  0.00000000000E+00 0. -1.
          1    1    6    6  503    0 -0.85726245263E+01  0.38417982239E+03  0.11976948812E+03  0.40250758516E+03  0.00000000000E+00 0. -1.
         -1    1    6    6    0  503  0.37180563758E+02  0.74511482633E+02  0.12544996969E+02  0.84212423754E+02  0.00000000000E+00 0.  1.
<mgrwt>
<rscale>  0 0.15607107E+04</rscale>
<asrwt>0</asrwt>
<pdfrwt beam="1">  1        2 0.88906598E-01 0.15607107E+04</pdfrwt>
<pdfrwt beam="2">  1       -1 0.16211534E+00 0.15607107E+04</pdfrwt>
<totfact> 0.16065035E+01</totfact>
</mgrwt>
</event>
<event>
12    7  0.1625631E-007  0.1464973E+04  0.7818608E-02  0.8908085E-01
          2   -1    0    0  501    0  0.00000000000E+00  0.00000000000E+00  0.89028979771E+03  0.89028979771E+03  0.00000000000E+00 0. -1.
         -3   -1    0    0    0  501 -0.00000000000E+00 -0.00000000000E+00 -0.60265394377E+03  0.60265394377E+03  0.00000000000E+00 0.  1.
         24    2    1    2    0    0 -0.39570725877E+03  0.13067634404E+03 -0.83095738628E+02  0.43223894516E+03  0.79152147189E+02 0.  0.
        254    2    1    2    0    0  0.39570725877E+03 -0.13067634404E+03  0.37073159257E+03  0.10607047963E+04  0.90221516817E+03 0.  0.
         23    2    4    4    0    0 -0.44934870735E+02 -0.16632761814E+03  0.54315774223E+03  0.57677815333E+03  0.89267497172E+02 0.  0.
         23    2    4    4    0    0  0.44064212950E+03  0.35651274101E+02 -0.17242614966E+03  0.48392664299E+03  0.94961671591E+02 0.  0.
          2    1    3    3  502    0 -0.65867897088E+02  0.14714171879E+01  0.82756159342E+01  0.66402038782E+02  0.00000000000E+00 0. -1.
         -3    1    3    3    0  502 -0.32983936168E+03  0.12920492685E+03 -0.91371354562E+02  0.36583690638E+03  0.00000000000E+00 0.  1.
         13    1    5    5    0    0 -0.13587072193E+01 -0.12814792329E+03  0.44200321876E+03  0.46020710742E+03  0.00000000000E+00 0.  1.
        -13    1    5    5    0    0 -0.43576163516E+02 -0.38179694850E+02  0.10115452347E+03  0.11657104591E+03  0.00000000000E+00 0. -1.
          2    1    6    6  503    0  0.17794487202E+03 -0.31583052650E+02 -0.60705654227E+02  0.19064900511E+03  0.00000000000E+00 0. -1.
         -2    1    6    6    0  503  0.26269725748E+03  0.67234326752E+02 -0.11172049544E+03  0.29327763788E+03  0.00000000000E+00 0.  1.
<mgrwt>
<rscale>  0 0.14649733E+04</rscale>
<asrwt>0</asrwt>
<pdfrwt beam="1">  1        2 0.13696766E+00 0.14649733E+04</pdfrwt>
<pdfrwt beam="2">  1       -3 0.92715991E-01 0.14649733E+04</pdfrwt>
<totfact> 0.19028410E+01</totfact>
</mgrwt>
</event>
<event>
12    7  0.1625631E-007  0.1782434E+04  0.7818608E-02  0.8715697E-01
         -1   -1    0    0    0  501 -0.00000000000E+00  0.00000000000E+00  0.67851143048E+03  0.67851143048E+03  0.00000000000E+00 0.  1.
          2   -1    0    0  501    0  0.00000000000E+00 -0.00000000000E+00 -0.11706027180E+04  0.11706027180E+04  0.00000000000E+00 0. -1.
         24    2    1    2    0    0  0.12580222909E+02  0.52393036836E+03  0.22817630337E+03  0.57739862538E+03  0.81629983907E+02 0.  0.
        254    2    1    2    0    0 -0.12580222909E+02 -0.52393036836E+03 -0.72026759085E+03  0.12717155231E+04  0.90764182158E+03 0.  0.
         23    2    4    4    0    0 -0.20210690970E+03 -0.70000437901E+03 -0.35943374773E+03  0.81713260075E+03  0.87519909841E+02 0.  0.
         23    2    4    4    0    0  0.18952668680E+03  0.17607401065E+03 -0.36083384312E+03  0.45458292232E+03  0.97581497654E+02 0.  0.
          4    1    3    3  502    0  0.30224216176E+02  0.49205188635E+03  0.22106258178E+03  0.54027514024E+03  0.00000000000E+00 0. -1.
         -3    1    3    3    0  502 -0.17643993267E+02  0.31878482010E+02  0.71137215918E+01  0.37123485135E+02  0.00000000000E+00 0.  1.
         13    1    5    5    0    0 -0.16923685003E+03 -0.63713602267E+03 -0.29869987053E+03  0.72374376366E+03  0.00000000000E+00 0.  1.
        -13    1    5    5    0    0 -0.32870059673E+02 -0.62868356338E+02 -0.60733877204E+02  0.93388837083E+02  0.00000000000E+00 0. -1.
          2    1    6    6  503    0  0.33482814368E+02 -0.86289458356E+01 -0.49579513540E+02  0.60445725466E+02  0.00000000000E+00 0. -1.
         -2    1    6    6    0  503  0.15604387243E+03  0.18470295649E+03 -0.31125432958E+03  0.39413719685E+03  0.00000000000E+00 0.  1.
<mgrwt>
<rscale>  0 0.17824335E+04</rscale>
<asrwt>0</asrwt>
<pdfrwt beam="1">  1        2 0.18009273E+00 0.17824335E+04</pdfrwt>
<pdfrwt beam="2">  1       -1 0.10438637E+00 0.17824335E+04</pdfrwt>
<totfact> 0.18357595E+01</totfact>
</mgrwt>
</event>
<event>
12    7  0.1625631E-007  0.2262402E+04  0.7818608E-02  0.8492895E-01
          2   -1    0    0  501    0  0.00000000000E+00  0.00000000000E+00  0.14120102603E+04  0.14120102603E+04  0.00000000000E+00 0. -1.
         -1   -1    0    0    0  501 -0.00000000000E+00 -0.00000000000E+00 -0.90623664022E+03  0.90623664022E+03  0.00000000000E+00 0.  1.
         24    2    1    2    0    0  0.19202933839E+03  0.18059433439E+02 -0.73253507471E+03  0.76179923084E+03  0.80802366869E+02 0.  0.
        254    2    1    2    0    0 -0.19202933839E+03 -0.18059433439E+02  0.12383086948E+04  0.15564476697E+04  0.92299486181E+03 0.  0.
         23    2    4    4    0    0  0.27783932346E+03 -0.14478852678E+03  0.89901444040E+03  0.95631582185E+03  0.90302712732E+02 0.  0.
         23    2    4    4    0    0 -0.46986866185E+03  0.12672909334E+03  0.33929425440E+03  0.60013184784E+03  0.90558385783E+02 0.  0.
          4    1    3    3  502    0  0.29170250410E+02 -0.15186202443E+02 -0.23363905688E+03  0.23594222419E+03  0.00000000000E+00 0. -1.
         -3    1    3    3    0  502  0.16285908798E+03  0.33245635882E+02 -0.49889601782E+03  0.52585700665E+03  0.00000000000E+00 0.  1.
         13    1    5    5    0    0  0.27770743976E+03 -0.14943366980E+03  0.84211904008E+03  0.89923096112E+03  0.00000000000E+00 0.  1.
        -13    1    5    5    0    0  0.13188369530E+00  0.46451430243E+01  0.56895400328E+02  0.57084860738E+02  0.00000000000E+00 0. -1.
          4    1    6    6  503    0 -0.20570189181E+03  0.97683495716E+02  0.13309763843E+03  0.26376185278E+03  0.00000000000E+00 0. -1.
         -4    1    6    6    0  503 -0.26416677004E+03  0.29045597622E+02  0.20619661597E+03  0.33636999505E+03  0.00000000000E+00 0.  1.
<mgrwt>
<rscale>  0 0.22624018E+04</rscale>
<asrwt>0</asrwt>
<pdfrwt beam="1">  1        2 0.21723235E+00 0.22624018E+04</pdfrwt>
<pdfrwt beam="2">  1       -1 0.13942102E+00 0.22624018E+04</pdfrwt>
<totfact> 0.62539114E+00</totfact>
</mgrwt>
</event>
<event>
12    7  0.1625631E-007  0.1685116E+04  0.7818608E-02  0.8769899E-01
         -1   -1    0    0    0  501 -0.00000000000E+00  0.00000000000E+00  0.14955415087E+04  0.14955415087E+04  0.00000000000E+00 0.  1.
          2   -1    0    0  501    0  0.00000000000E+00 -0.00000000000E+00 -0.47468005695E+03  0.47468005695E+03  0.00000000000E+00 0. -1.
         24    2    1    2    0    0  0.47463933984E+03 -0.29114052069E+03  0.69880878604E+03  0.89723440472E+03  0.81550915769E+02 0.  0.
        254    2    1    2    0    0 -0.47463933984E+03  0.29114052069E+03  0.32205266573E+03  0.10729871610E+04  0.85880045549E+03 0.  0.
         23    2    4    4    0    0  0.33058896313E+01  0.16838809509E+03 -0.24896868472E+03  0.31250162991E+03  0.85477384415E+02 0.  0.
         23    2    4    4    0    0 -0.47794522947E+03  0.12275242560E+03  0.57102135046E+03  0.76048553105E+03  0.93664613866E+02 0.  0.
          4    1    3    3  502    0  0.42318049037E+02 -0.16885531354E+01  0.47602899495E+02  0.63715810646E+02  0.00000000000E+00 0. -1.
         -3    1    3    3    0  502  0.43232129081E+03 -0.28945196755E+03  0.65120588654E+03  0.83351859408E+03  0.00000000000E+00 0.  1.
         13    1    5    5    0    0 -0.37334247082E+02  0.11397432266E+03 -0.14298331765E+03  0.18662320691E+03  0.00000000000E+00 0. -1.
        -13    1    5    5    0    0  0.40640136713E+02  0.54413772427E+02 -0.10598536707E+03  0.12587842299E+03  0.00000000000E+00 0.  1.
          1    1    6    6  503    0 -0.40703900114E+02  0.13533589192E+02  0.16591274784E+02  0.45991694031E+02  0.00000000000E+00 0. -1.
         -1    1    6    6    0  503 -0.43724132936E+03  0.10921883641E+03  0.55443007567E+03  0.71449383702E+03  0.00000000000E+00 0.  1.
<mgrwt>
<rscale>  0 0.16851157E+04</rscale>
<asrwt>0</asrwt>
<pdfrwt beam="1">  1        2 0.73027702E-01 0.16851157E+04</pdfrwt>
<pdfrwt beam="2">  1       -1 0.23008331E+00 0.16851157E+04</pdfrwt>
<totfact> 0.67145631E+00</totfact>
</mgrwt>
</event>
<event>
12    7  0.1625631E-007  0.1289581E+04  0.7818608E-02  0.9037868E-01
          2   -1    0    0  501    0  0.00000000000E+00  0.00000000000E+00  0.27877610495E+04  0.27877610495E+04  0.00000000000E+00 0. -1.
         -1   -1    0    0    0  501 -0.00000000000E+00 -0.00000000000E+00 -0.14913579002E+03  0.14913579002E+03  0.00000000000E+00 0.  1.
         24    2    1    2    0    0 -0.11504308385E+03  0.11794493499E+03  0.46937626592E+02  0.18766081570E+03  0.76599752804E+02 0.  0.
        254    2    1    2    0    0  0.11504308385E+03 -0.11794493499E+03  0.25916876329E+04  0.27492360238E+04  0.90239016472E+03 0.  0.
         23    2    4    4    0    0  0.34461730457E+03  0.27696536717E+03  0.12475604833E+04  0.13266624957E+04  0.90306792290E+02 0.  0.
         23    2    4    4    0    0 -0.22957422072E+03 -0.39491030216E+03  0.13441271496E+04  0.14225735282E+04  0.91537856295E+02 0.  0.
          2    1    3    3  502    0 -0.82046296648E+02  0.93409208798E+02  0.67736378380E+02  0.14158069091E+03  0.00000000000E+00 0. -1.
         -1    1    3    3    0  502 -0.32996787199E+02  0.24535726191E+02 -0.20798751788E+02  0.46080124795E+02  0.00000000000E+00 0.  1.
         13    1    5    5    0    0 -0.50899349762E+01  0.57881185270E+01  0.35931597449E+02  0.36749006101E+02  0.00000000000E+00 0. -1.
        -13    1    5    5    0    0  0.34970723954E+03  0.27117724865E+03  0.12116288858E+04  0.12899134896E+04  0.00000000000E+00 0.  1.
          2    1    6    6  503    0 -0.51523687355E+02 -0.31268915276E+02  0.14922584717E+03  0.16093722032E+03  0.00000000000E+00 0. -1.
         -2    1    6    6    0  503 -0.17805053337E+03 -0.36364138689E+03  0.11949013024E+04  0.12616363078E+04  0.00000000000E+00 0.  1.
<mgrwt>
<rscale>  0 0.12895812E+04</rscale>
<asrwt>0</asrwt>
<pdfrwt beam="1">  1        2 0.42888628E+00 0.12895812E+04</pdfrwt>
<pdfrwt beam="2">  1       -1 0.22943970E-01 0.12895812E+04</pdfrwt>
<totfact> 0.42986771E+01</totfact>
</mgrwt>
</event>
<event>
12    7  0.1625631E-007  0.1653079E+04  0.7818608E-02  0.8788587E-01
          2   -1    0    0  501    0  0.00000000000E+00  0.00000000000E+00  0.11556921035E+04  0.11556921035E+04  0.00000000000E+00 0. -1.
         -1   -1    0    0    0  501 -0.00000000000E+00 -0.00000000000E+00 -0.59113300223E+03  0.59113300223E+03  0.00000000000E+00 0.  1.
         24    2    1    2    0    0  0.49695869660E+03 -0.23504807599E+03  0.39951566734E+03  0.68444363653E+03  0.81454152640E+02 0.  0.
        254    2    1    2    0    0 -0.49695869660E+03  0.23504807599E+03  0.16504343388E+03  0.10623814692E+04  0.89397958969E+03 0.  0.
         23    2    4    4    0    0 -0.28025536538E+02  0.13363677120E+03 -0.32909197001E+03  0.36759184166E+03  0.90432405781E+02 0.  0.
         23    2    4    4    0    0 -0.46893316006E+03  0.10141130479E+03  0.49413540389E+03  0.69478962749E+03  0.91543802311E+02 0.  0.
          4    1    3    3  502    0  0.44536801504E+03 -0.22974531612E+03  0.38044814346E+03  0.62918706993E+03  0.00000000000E+00 0. -1.
         -3    1    3    3    0  502  0.51590681557E+02 -0.53027598663E+01  0.19067523888E+02  0.55256566604E+02  0.00000000000E+00 0.  1.
         13    1    5    5    0    0 -0.43611893133E+02  0.13236488209E+03 -0.32107903248E+03  0.35002029131E+03  0.00000000000E+00 0.  1.
        -13    1    5    5    0    0  0.15586356594E+02  0.12718891135E+01 -0.80129375320E+01  0.17571550350E+02  0.00000000000E+00 0. -1.
          1    1    6    6  503    0 -0.18180892047E+03  0.19511015384E+01  0.15005731413E+03  0.23574453946E+03  0.00000000000E+00 0. -1.
         -1    1    6    6    0  503 -0.28712423959E+03  0.99460203252E+02  0.34407808975E+03  0.45904508802E+03  0.00000000000E+00 0.  1.
<mgrwt>
<rscale>  0 0.16530792E+04</rscale>
<asrwt>0</asrwt>
<pdfrwt beam="1">  1        2 0.17779878E+00 0.16530792E+04</pdfrwt>
<pdfrwt beam="2">  1       -1 0.90943539E-01 0.16530792E+04</pdfrwt>
<totfact> 0.25897091E+01</totfact>
</mgrwt>
</event>
<event>
12    7  0.1625631E-007  0.2327285E+04  0.7818608E-02  0.8467240E-01
          2   -1    0    0  501    0  0.00000000000E+00  0.00000000000E+00  0.35227414232E+04  0.35227414232E+04  0.00000000000E+00 0. -1.
         -1   -1    0    0    0  501 -0.00000000000E+00 -0.00000000000E+00 -0.38437795873E+03  0.38437795873E+03  0.00000000000E+00 0.  1.
         24    2    1    2    0    0  0.29566826815E+03 -0.59708158740E+03  0.10804594259E+03  0.68061344963E+03  0.87376171234E+02 0.  0.
        254    2    1    2    0    0 -0.29566826815E+03  0.59708158740E+03  0.30303175219E+04  0.32265059323E+04  0.88520624768E+03 0.  0.
         23    2    4    4    0    0 -0.22918854462E+03 -0.11514556428E+03  0.16190499023E+04  0.16417612362E+04  0.90947680896E+02 0.  0.
         23    2    4    4    0    0 -0.66479723532E+02  0.71222715168E+03  0.14112676197E+04  0.15847446961E+04  0.89735101540E+02 0.  0.
          4    1    3    3  502    0  0.31231466639E+02 -0.10846806836E+03  0.44815647188E+02  0.12144615512E+03  0.00000000000E+00 0. -1.
         -3    1    3    3    0  502  0.26443680151E+03 -0.48861351905E+03  0.63230295402E+02  0.55916729451E+03  0.00000000000E+00 0.  1.
         13    1    5    5    0    0 -0.41793574370E+01 -0.21475711976E+02  0.61907206307E+02  0.65659541776E+02  0.00000000000E+00 0. -1.
        -13    1    5    5    0    0 -0.22500918718E+03 -0.93669852304E+02  0.15571426960E+04  0.15761016944E+04  0.00000000000E+00 0.  1.
          4    1    6    6  503    0 -0.10193933281E+02  0.90650502452E+01  0.14217847828E+02  0.19703771430E+02  0.00000000000E+00 0. -1.
         -4    1    6    6    0  503 -0.56285790251E+02  0.70316210144E+03  0.13970497718E+04  0.15650409247E+04  0.00000000000E+00 0.  1.
<mgrwt>
<rscale>  0 0.23272852E+04</rscale>
<asrwt>0</asrwt>
<pdfrwt beam="1">  1        2 0.54196020E+00 0.23272852E+04</pdfrwt>
<pdfrwt beam="2">  1       -1 0.59135073E-01 0.23272852E+04</pdfrwt>
<totfact> 0.23435110E+00</totfact>
</mgrwt>
</event>
<event>
12    7  0.1625631E-007  0.1898277E+04  0.7818608E-02  0.8655715E-01
         -1   -1    0    0    0  501 -0.00000000000E+00  0.00000000000E+00  0.80251252947E+03  0.80251252947E+03  0.00000000000E+00 0.  1.
          2   -1    0    0  501    0  0.00000000000E+00 -0.00000000000E+00 -0.11225537964E+04  0.11225537964E+04  0.00000000000E+00 0. -1.
         24    2    1    2    0    0 -0.25244744772E+03 -0.63970508125E+03 -0.39676237235E+03  0.79792745406E+03  0.79470352879E+02 0.  0.
        254    2    1    2    0    0  0.25244744772E+03  0.63970508125E+03  0.76721105458E+02  0.11271388718E+04  0.88972108180E+03 0.  0.
         23    2    4    4    0    0  0.13274653476E+03 -0.20673001912E+03  0.74155472436E+01  0.26492520764E+03  0.98850553899E+02 0.  0.
         23    2    4    4    0    0  0.11970091296E+03  0.84643510037E+03  0.69305558215E+02  0.86221366414E+03  0.88478554046E+02 0.  0.
          2    1    3    3  502    0 -0.17802265187E+03 -0.53479919508E+03 -0.32090937760E+03  0.64860239922E+03  0.00000000000E+00 0. -1.
         -1    1    3    3    0  502 -0.74424795851E+02 -0.10490588617E+03 -0.75852994751E+02  0.14932505484E+03  0.00000000000E+00 0.  1.
         13    1    5    5    0    0  0.43221190011E+02 -0.21196131283E+02 -0.28310303450E+02  0.55846401216E+02  0.00000000000E+00 0.  1.
        -13    1    5    5    0    0  0.89525344753E+02 -0.18553388783E+03  0.35725850693E+02  0.20907880642E+03  0.00000000000E+00 0. -1.
          4    1    6    6  503    0  0.73280378659E+02  0.42199493530E+03 -0.75693344189E+01  0.42837721011E+03  0.00000000000E+00 0. -1.
         -4    1    6    6    0  503  0.46420534298E+02  0.42444016506E+03  0.76874892633E+02  0.43383645403E+03  0.00000000000E+00 0.  1.
<mgrwt>
<rscale>  0 0.18982766E+04</rscale>
<asrwt>0</asrwt>
<pdfrwt beam="1">  1        2 0.17270058E+00 0.18982766E+04</pdfrwt>
<pdfrwt beam="2">  1       -1 0.12346347E+00 0.18982766E+04</pdfrwt>
<totfact> 0.13009777E+01</totfact>
</mgrwt>
</event>
<event>
12    7  0.1625631E-007  0.1811973E+04  0.7818608E-02  0.8699958E-01
          2   -1    0    0  501    0  0.00000000000E+00  0.00000000000E+00  0.13284358294E+04  0.13284358294E+04  0.00000000000E+00 0. -1.
         -1   -1    0    0    0  501 -0.00000000000E+00 -0.00000000000E+00 -0.61787801188E+03  0.61787801188E+03  0.00000000000E+00 0.  1.
         24    2    1    2    0    0  0.55143855677E+03  0.29586207932E+03 -0.27553404726E+02  0.63111898893E+03  0.77026853761E+02 0.  0.
        254    2    1    2    0    0 -0.55143855677E+03 -0.29586207932E+03  0.73811122226E+03  0.13151948524E+04  0.89067978050E+03 0.  0.
         23    2    4    4    0    0 -0.23065556676E+03 -0.21099468275E+03  0.88417130239E+03  0.94234042639E+03  0.92335478630E+02 0.  0.
         23    2    4    4    0    0 -0.32078299001E+03 -0.84867396571E+02 -0.14606008012E+03  0.37285442598E+03  0.87078552407E+02 0.  0.
          4    1    3    3  502    0  0.11417734325E+03  0.79968778992E+02  0.21333419739E+02  0.14101980756E+03  0.00000000000E+00 0. -1.
         -3    1    3    3    0  502  0.43726121352E+03  0.21589330033E+03 -0.48886824464E+02  0.49009918137E+03  0.00000000000E+00 0.  1.
         13    1    5    5    0    0 -0.82342739528E+02 -0.58321087500E+02  0.17600936922E+03  0.20288167501E+03  0.00000000000E+00 0. -1.
        -13    1    5    5    0    0 -0.14831282723E+03 -0.15267359525E+03  0.70816193316E+03  0.73945875138E+03  0.00000000000E+00 0.  1.
          1    1    6    6  503    0 -0.14015405632E+03 -0.82039321056E+02 -0.70108679988E+02  0.17688650800E+03  0.00000000000E+00 0. -1.
         -1    1    6    6    0  503 -0.18062893369E+03 -0.28280755155E+01 -0.75951400134E+02  0.19596791798E+03  0.00000000000E+00 0.  1.
<mgrwt>
<rscale>  0 0.18119727E+04</rscale>
<asrwt>0</asrwt>
<pdfrwt beam="1">  1        2 0.20437474E+00 0.18119727E+04</pdfrwt>
<pdfrwt beam="2">  1       -1 0.95058156E-01 0.18119727E+04</pdfrwt>
<totfact> 0.18294790E+01</totfact>
</mgrwt>
</event>
<event>
12    7  0.1625631E-007  0.1180595E+04  0.7818608E-02  0.9130013E-01
          2   -1    0    0  501    0  0.00000000000E+00  0.00000000000E+00  0.36819402121E+03  0.36819402121E+03  0.00000000000E+00 0. -1.
         -1   -1    0    0    0  501 -0.00000000000E+00 -0.00000000000E+00 -0.94637923437E+03  0.94637923437E+03  0.00000000000E+00 0.  1.
         24    2    1    2    0    0  0.18914306969E+03  0.74117930645E+02  0.12223047964E+02  0.22071476843E+03  0.85422699812E+02 0.  0.
        254    2    1    2    0    0 -0.18914306969E+03 -0.74117930645E+02 -0.59040826113E+03  0.10938584872E+04  0.89815138293E+03 0.  0.
         23    2    4    4    0    0  0.22876625354E+03  0.27338724721E+03 -0.26504340106E+03  0.45338600779E+03  0.90753963642E+02 0.  0.
         23    2    4    4    0    0 -0.41790932324E+03 -0.34750517785E+03 -0.32536486007E+03  0.64047247937E+03  0.94523296453E+02 0.  0.
          4    1    3    3  502    0  0.13066613742E+03  0.30103631911E+02 -0.28317754979E+02  0.13704657373E+03  0.00000000000E+00 0. -1.
         -3    1    3    3    0  502  0.58476932270E+02  0.44014298733E+02  0.40540802942E+02  0.83668194697E+02  0.00000000000E+00 0.  1.
         13    1    5    5    0    0  0.14109155287E+01  0.24547495352E+02 -0.43703208221E+02  0.50145195378E+02  0.00000000000E+00 0.  1.
        -13    1    5    5    0    0  0.22735533802E+03  0.24883975186E+03 -0.22134019284E+03  0.40324081241E+03  0.00000000000E+00 0. -1.
          2    1    6    6  503    0 -0.38954428102E+03 -0.30435694850E+03 -0.31925874816E+03  0.58847603796E+03  0.00000000000E+00 0. -1.
         -2    1    6    6    0  503 -0.28365042218E+02 -0.43148229356E+02 -0.61061119142E+01  0.51996441410E+02  0.00000000000E+00 0.  1.
<mgrwt>
<rscale>  0 0.11805951E+04</rscale>
<asrwt>0</asrwt>
<pdfrwt beam="1">  1        2 0.56645234E-01 0.11805951E+04</pdfrwt>
<pdfrwt beam="2">  1       -1 0.14559680E+00 0.11805951E+04</pdfrwt>
<totfact> 0.37324129E+01</totfact>
</mgrwt>
</event>
<event>
12    7  0.1625631E-007  0.1160773E+04  0.7818608E-02  0.9147902E-01
          2   -1    0    0  501    0  0.00000000000E+00  0.00000000000E+00  0.42449382834E+03  0.42449382834E+03  0.00000000000E+00 0. -1.
         -1   -1    0    0    0  501 -0.00000000000E+00 -0.00000000000E+00 -0.79352951806E+03  0.79352951806E+03  0.00000000000E+00 0.  1.
         24    2    1    2    0    0  0.15563025414E+03  0.50654496344E+02 -0.22651725306E+03  0.29021387092E+03  0.78277525098E+02 0.  0.
        254    2    1    2    0    0 -0.15563025414E+03 -0.50654496344E+02 -0.14251843665E+03  0.92780947548E+03  0.90207109698E+03 0.  0.
         23    2    4    4    0    0 -0.45679468661E+03  0.73013934071E+02 -0.29616929406E+03  0.55644252690E+03  0.88992217166E+02 0.  0.
         23    2    4    4    0    0  0.30116443247E+03 -0.12366843041E+03  0.15365085740E+03  0.37136694858E+03  0.91164293725E+02 0.  0.
          2    1    3    3  502    0  0.12353223914E+02 -0.31134026100E+01 -0.70610691506E+02  0.71750715479E+02  0.00000000000E+00 0. -1.
         -1    1    3    3    0  502  0.14327703023E+03  0.53767898954E+02 -0.15590656156E+03  0.21846315544E+03  0.00000000000E+00 0.  1.
         13    1    5    5    0    0 -0.33324594619E+02  0.17063341209E+02 -0.53111656455E+02  0.64981030086E+02  0.00000000000E+00 0.  1.
        -13    1    5    5    0    0 -0.42347009199E+03  0.55950592862E+02 -0.24305763760E+03  0.49146149682E+03  0.00000000000E+00 0. -1.
          3    1    6    6  503    0  0.28943753206E+03 -0.10345966790E+03  0.16085288627E+03  0.34691733723E+03  0.00000000000E+00 0. -1.
         -3    1    6    6    0  503  0.11726900408E+02 -0.20208762510E+02 -0.72020288667E+01  0.24449611349E+02  0.00000000000E+00 0.  1.
<mgrwt>
<rscale>  0 0.11607728E+04</rscale>
<asrwt>0</asrwt>
<pdfrwt beam="1">  1        2 0.65306743E-01 0.11607728E+04</pdfrwt>
<pdfrwt beam="2">  1       -1 0.12208146E+00 0.11607728E+04</pdfrwt>
<totfact> 0.49953657E+01</totfact>
</mgrwt>
</event>
<event>
12    7  0.1625631E-007  0.1578833E+04  0.7818608E-02  0.8833659E-01
         -1   -1    0    0    0  501 -0.00000000000E+00  0.00000000000E+00  0.15105172638E+04  0.15105172638E+04  0.00000000000E+00 0.  1.
          2   -1    0    0  501    0  0.00000000000E+00 -0.00000000000E+00 -0.41255936939E+03  0.41255936939E+03  0.00000000000E+00 0. -1.
         24    2    1    2    0    0  0.43167096398E+02  0.49577384897E+03  0.15462283506E+03  0.52718397053E+03  0.79747163761E+02 0.  0.
        254    2    1    2    0    0 -0.43167096398E+02 -0.49577384897E+03  0.94333505936E+03  0.13958926627E+04  0.90054438200E+03 0.  0.
         23    2    4    4    0    0  0.35813862962E+03 -0.13668692093E+03  0.68838024765E+03  0.79317424951E+03  0.91167057447E+02 0.  0.
         23    2    4    4    0    0 -0.40130572601E+03 -0.35908692804E+03  0.25495481171E+03  0.60271841316E+03  0.90982536364E+02 0.  0.
          4    1    3    3  502    0  0.87901887241E+01  0.49821078257E+02  0.42489266409E+02  0.66066216908E+02  0.00000000000E+00 0. -1.
         -3    1    3    3    0  502  0.34376907674E+02  0.44595277071E+03  0.11213356865E+03  0.46111775362E+03  0.00000000000E+00 0.  1.
         13    1    5    5    0    0  0.24530441874E+03 -0.12886235086E+03  0.43587794701E+03  0.51649719071E+03  0.00000000000E+00 0. -1.
        -13    1    5    5    0    0  0.11283421088E+03 -0.78245700743E+01  0.25250230064E+03  0.27667705881E+03  0.00000000000E+00 0.  1.
          1    1    6    6  503    0 -0.33703026541E+03 -0.26642180121E+03  0.17221853837E+03  0.46284900445E+03  0.00000000000E+00 0. -1.
         -1    1    6    6    0  503 -0.64275460607E+02 -0.92665126823E+02  0.82736273337E+02  0.13986940870E+03  0.00000000000E+00 0.  1.
<mgrwt>
<rscale>  0 0.15788325E+04</rscale>
<asrwt>0</asrwt>
<pdfrwt beam="1">  1        2 0.63470673E-01 0.15788325E+04</pdfrwt>
<pdfrwt beam="2">  1       -1 0.23238727E+00 0.15788325E+04</pdfrwt>
<totfact> 0.76781284E+00</totfact>
</mgrwt>
</event>
<event>
12    7  0.1625631E-007  0.1628936E+04  0.7818608E-02  0.8802966E-01
          2   -1    0    0  501    0  0.00000000000E+00  0.00000000000E+00  0.98229770908E+03  0.98229770908E+03  0.00000000000E+00 0. -1.
         -1   -1    0    0    0  501 -0.00000000000E+00 -0.00000000000E+00 -0.67531292440E+03  0.67531292440E+03  0.00000000000E+00 0.  1.
         24    2    1    2    0    0 -0.28994454125E+03 -0.14619511692E+03  0.57214496165E+03  0.66280938845E+03  0.80781056279E+02 0.  0.
        254    2    1    2    0    0  0.28994454125E+03  0.14619511692E+03 -0.26516017698E+03  0.99480124503E+03  0.90215228672E+03 0.  0.
         23    2    4    4    0    0  0.15982144830E+03  0.20831700436E+03  0.29717157384E+03  0.40693842046E+03  0.91373213272E+02 0.  0.
         23    2    4    4    0    0  0.13012309295E+03 -0.62121887436E+02 -0.56233175082E+03  0.58786282457E+03  0.92598889400E+02 0.  0.
          2    1    3    3  502    0 -0.24952594033E+03 -0.90183043543E+02  0.46344321126E+03  0.53401852618E+03  0.00000000000E+00 0. -1.
         -1    1    3    3    0  502 -0.40418600923E+02 -0.56012073382E+02  0.10870175040E+03  0.12879086227E+03  0.00000000000E+00 0.  1.
         13    1    5    5    0    0  0.14097351376E+02  0.39569363329E+02  0.10316305286E+03  0.11138709667E+03  0.00000000000E+00 0. -1.
        -13    1    5    5    0    0  0.14572409692E+03  0.16874764103E+03  0.19400852098E+03  0.29555132379E+03  0.00000000000E+00 0.  1.
          2    1    6    6  503    0  0.56496316903E+02  0.98220228065E+01 -0.11096320067E+03  0.12490451497E+03  0.00000000000E+00 0. -1.
         -2    1    6    6    0  503  0.73626776048E+02 -0.71943910243E+02 -0.45136855014E+03  0.46295830960E+03  0.00000000000E+00 0.  1.
<mgrwt>
<rscale>  0 0.16289363E+04</rscale>
<asrwt>0</asrwt>
<pdfrwt beam="1">  1        2 0.15112272E+00 0.16289363E+04</pdfrwt>
<pdfrwt beam="2">  1       -1 0.10389430E+00 0.16289363E+04</pdfrwt>
<totfact> 0.24641268E+01</totfact>
</mgrwt>
</event>
<event>
12    7  0.1625631E-007  0.2840052E+04  0.7818608E-02  0.8290940E-01
         -1   -1    0    0    0  501 -0.00000000000E+00  0.00000000000E+00  0.76669475945E+03  0.76669475945E+03  0.00000000000E+00 0.  1.
          2   -1    0    0  501    0  0.00000000000E+00 -0.00000000000E+00 -0.26300877099E+04  0.26300877099E+04  0.00000000000E+00 0. -1.
         24    2    1    2    0    0 -0.11173557677E+03 -0.12601431919E+04 -0.64189747202E+03  0.14208193883E+04  0.79054831353E+02 0.  0.
        254    2    1    2    0    0  0.11173557677E+03  0.12601431919E+04 -0.12214954785E+04  0.19759630811E+04  0.90107335468E+03 0.  0.
         23    2    4    4    0    0 -0.34061465406E+03  0.26189700623E+03 -0.47389730255E+03  0.64620010859E+03  0.91583527645E+02 0.  0.
         23    2    4    4    0    0  0.45235023083E+03  0.99824618570E+03 -0.74759817590E+03  0.13297629725E+04  0.90831446778E+02 0.  0.
          4    1    3    3  502    0 -0.51679764988E+02 -0.63450781487E+03 -0.36700480794E+03  0.73482208343E+03  0.00000000000E+00 0. -1.
         -3    1    3    3    0  502 -0.60055811781E+02 -0.62563537706E+03 -0.27489266408E+03  0.68599730489E+03  0.00000000000E+00 0.  1.
         13    1    5    5    0    0 -0.32020449829E+03  0.25299546754E+03 -0.40976480726E+03  0.57831204777E+03  0.00000000000E+00 0. -1.
        -13    1    5    5    0    0 -0.20410155776E+02  0.89015386857E+01 -0.64132495289E+02  0.67888060819E+02  0.00000000000E+00 0.  1.
          3    1    6    6  503    0  0.23424015851E+03  0.61881398780E+03 -0.43248416187E+03  0.79046932491E+03  0.00000000000E+00 0. -1.
         -3    1    6    6    0  503  0.21811007233E+03  0.37943219791E+03 -0.31511401403E+03  0.53929364756E+03  0.00000000000E+00 0.  1.
<mgrwt>
<rscale>  0 0.28400524E+04</rscale>
<asrwt>0</asrwt>
<pdfrwt beam="1">  1        2 0.40462888E+00 0.28400524E+04</pdfrwt>
<pdfrwt beam="2">  1       -1 0.11795304E+00 0.28400524E+04</pdfrwt>
<totfact> 0.18590937E+00</totfact>
</mgrwt>
</event>
<event>
12    7  0.1625631E-007  0.3402193E+04  0.7818608E-02  0.8137368E-01
         -1   -1    0    0    0  501 -0.00000000000E+00  0.00000000000E+00  0.20676090508E+04  0.20676090508E+04  0.00000000000E+00 0.  1.
          2   -1    0    0  501    0  0.00000000000E+00 -0.00000000000E+00 -0.13995533430E+04  0.13995533430E+04  0.00000000000E+00 0. -1.
         24    2    1    2    0    0 -0.62316555409E+03  0.14274058465E+04  0.14436263199E+03  0.15662854835E+04  0.81159643397E+02 0.  0.
        254    2    1    2    0    0  0.62316555409E+03 -0.14274058465E+04  0.52369307578E+03  0.19008769103E+04  0.95564419735E+03 0.  0.
         23    2    4    4    0    0  0.11094799388E+03 -0.54215381558E+03 -0.25077994318E+03  0.61479952072E+03  0.94061967236E+02 0.  0.
         23    2    4    4    0    0  0.51221756020E+03 -0.88525203096E+03  0.77447301896E+03  0.12860773896E+04  0.90269638183E+02 0.  0.
          2    1    3    3  502    0 -0.62445157690E+03  0.14090936921E+04  0.14278274920E+03  0.15478603679E+04  0.00000000000E+00 0. -1.
         -1    1    3    3    0  502  0.12860228154E+01  0.18312154472E+02  0.15798827856E+01  0.18425115622E+02  0.00000000000E+00 0.  1.
         13    1    5    5    0    0  0.70045983853E+02 -0.15497892908E+03 -0.99991215016E+02  0.19728951161E+03  0.00000000000E+00 0. -1.
        -13    1    5    5    0    0  0.40902010029E+02 -0.38717488650E+03 -0.15078872817E+03  0.41751000911E+03  0.00000000000E+00 0.  1.
          3    1    6    6  503    0  0.25053024174E+03 -0.51486176056E+03  0.40942721749E+03  0.70390246550E+03  0.00000000000E+00 0. -1.
         -3    1    6    6    0  503  0.26168731846E+03 -0.37039027040E+03  0.36504580147E+03  0.58217492407E+03  0.00000000000E+00 0.  1.
<mgrwt>
<rscale>  0 0.34021929E+04</rscale>
<asrwt>0</asrwt>
<pdfrwt beam="1">  1        2 0.21531590E+00 0.34021929E+04</pdfrwt>
<pdfrwt beam="2">  1       -1 0.31809370E+00 0.34021929E+04</pdfrwt>
<totfact> 0.34389171E-01</totfact>
</mgrwt>
</event>
<event>
12    7  0.1625631E-007  0.1308759E+04  0.7818608E-02  0.9022648E-01
         -1   -1    0    0    0  501 -0.00000000000E+00  0.00000000000E+00  0.10178808824E+04  0.10178808824E+04  0.00000000000E+00 0.  1.
          2   -1    0    0  501    0  0.00000000000E+00 -0.00000000000E+00 -0.42069045620E+03  0.42069045620E+03  0.00000000000E+00 0. -1.
         24    2    1    2    0    0 -0.15071543971E+03 -0.29319017219E+03  0.50750446135E+02  0.34916418753E+03  0.10326858784E+03 0.  0.
        254    2    1    2    0    0  0.15071543971E+03  0.29319017219E+03  0.54643998010E+03  0.10894071511E+04  0.88291317137E+03 0.  0.
         23    2    4    4    0    0  0.31207536965E+03 -0.14716267153E+03 -0.92677390709E+01  0.35660230686E+03  0.89618223820E+02 0.  0.
         23    2    4    4    0    0 -0.16135992994E+03  0.44035284372E+03  0.55570771918E+03  0.73280484424E+03  0.90797668622E+02 0.  0.
          2    1    3    3  502    0 -0.13589166841E+03 -0.26633137558E+03  0.77040538246E+02  0.30876235473E+03  0.00000000000E+00 0. -1.
         -1    1    3    3    0  502 -0.14823771291E+02 -0.26858796613E+02 -0.26290092111E+02  0.40401832805E+02  0.00000000000E+00 0.  1.
         13    1    5    5    0    0  0.25983340396E+03 -0.15462979449E+03 -0.18915596500E+02  0.30295473416E+03  0.00000000000E+00 0.  1.
        -13    1    5    5    0    0  0.52241965681E+02  0.74671229630E+01  0.96478574292E+01  0.53647572699E+02  0.00000000000E+00 0. -1.
          3    1    6    6  503    0 -0.11295326769E+03  0.18728956604E+03  0.22804789670E+03  0.31597731789E+03  0.00000000000E+00 0. -1.
         -3    1    6    6    0  503 -0.48406662247E+02  0.25306327768E+03  0.32765982248E+03  0.41682752636E+03  0.00000000000E+00 0.  1.
<mgrwt>
<rscale>  0 0.13087594E+04</rscale>
<asrwt>0</asrwt>
<pdfrwt beam="1">  1        2 0.64721609E-01 0.13087594E+04</pdfrwt>
<pdfrwt beam="2">  1       -1 0.15659706E+00 0.13087594E+04</pdfrwt>
<totfact> 0.26115102E+01</totfact>
</mgrwt>
</event>
<event>
12    7  0.1625631E-007  0.2228553E+04  0.7818608E-02  0.8506637E-01
          2   -1    0    0  501    0  0.00000000000E+00  0.00000000000E+00  0.10815782210E+04  0.10815782210E+04  0.00000000000E+00 0. -1.
         -1   -1    0    0    0  501 -0.00000000000E+00 -0.00000000000E+00 -0.11479635987E+04  0.11479635987E+04  0.00000000000E+00 0.  1.
         24    2    1    2    0    0 -0.22915783630E+03 -0.30833865720E+03 -0.87589881886E+03  0.95965588466E+03  0.78451479431E+02 0.  0.
        254    2    1    2    0    0  0.22915783630E+03  0.30833865720E+03  0.80951344112E+03  0.12698859350E+04  0.89984011640E+03 0.  0.
         23    2    4    4    0    0  0.39710070521E+02  0.46603411482E+03  0.66493254244E+02  0.48165970114E+03  0.93861754514E+02 0.  0.
         23    2    4    4    0    0  0.18944776578E+03 -0.15769545762E+03  0.74302018687E+03  0.78822623386E+03  0.91996110382E+02 0.  0.
          2    1    3    3  502    0 -0.49302042333E+01 -0.17337132926E+02 -0.94543519924E+02  0.96246351886E+02  0.00000000000E+00 0. -1.
         -1    1    3    3    0  502 -0.22422763207E+03 -0.29100152427E+03 -0.78135529894E+03  0.86340953278E+03  0.00000000000E+00 0.  1.
         13    1    5    5    0    0  0.40370009540E+02  0.40150661540E+03  0.89160149506E+02  0.41326363516E+03  0.00000000000E+00 0.  1.
        -13    1    5    5    0    0 -0.65993901900E+00  0.64527499417E+02 -0.22666895262E+02  0.68396065978E+02  0.00000000000E+00 0. -1.
          3    1    6    6  503    0  0.29846302275E+02 -0.35932797687E+00  0.37286979352E+02  0.47762429851E+02  0.00000000000E+00 0. -1.
         -3    1    6    6    0  503  0.15960146351E+03 -0.15733612964E+03  0.70573320752E+03  0.74046380401E+03  0.00000000000E+00 0.  1.
<mgrwt>
<rscale>  0 0.22285533E+04</rscale>
<asrwt>0</asrwt>
<pdfrwt beam="1">  1        2 0.16639665E+00 0.22285533E+04</pdfrwt>
<pdfrwt beam="2">  1       -1 0.17660979E+00 0.22285533E+04</pdfrwt>
<totfact> 0.51206888E+00</totfact>
</mgrwt>
</event>
<event>
12    7  0.1625631E-007  0.1999647E+04  0.7818608E-02  0.8606786E-01
         -1   -1    0    0    0  501 -0.00000000000E+00  0.00000000000E+00  0.12841325448E+04  0.12841325448E+04  0.00000000000E+00 0.  1.
          2   -1    0    0  501    0  0.00000000000E+00 -0.00000000000E+00 -0.77846061706E+03  0.77846061706E+03  0.00000000000E+00 0. -1.
         24    2    1    2    0    0  0.61157706378E+03 -0.42970516359E+03  0.40793354476E+03  0.85521818692E+03  0.79469099330E+02 0.  0.
        254    2    1    2    0    0 -0.61157706378E+03  0.42970516359E+03  0.97738383016E+02  0.12073749750E+04  0.94314818883E+03 0.  0.
         23    2    4    4    0    0  0.59344737990E+02 -0.12106744758E+03 -0.22416843492E+03  0.27715151138E+03  0.91555165110E+02 0.  0.
         23    2    4    4    0    0 -0.67092180177E+03  0.55077261117E+03  0.32190681793E+03  0.93022346358E+03  0.90582335202E+02 0.  0.
          2    1    3    3  502    0  0.53968436577E+03 -0.36442348084E+03  0.38088621881E+03  0.75441235391E+03  0.00000000000E+00 0. -1.
         -1    1    3    3    0  502  0.71892698008E+02 -0.65281682747E+02  0.27047325948E+02  0.10080583302E+03  0.00000000000E+00 0.  1.
         13    1    5    5    0    0  0.42043319696E+02 -0.69924377031E+02 -0.52087480210E+02  0.96799611719E+02  0.00000000000E+00 0.  1.
        -13    1    5    5    0    0  0.17301418294E+02 -0.51143070553E+02 -0.17208095471E+03  0.18035189967E+03  0.00000000000E+00 0. -1.
          1    1    6    6  503    0 -0.58741965481E+03  0.44118501693E+03  0.26169618454E+03  0.77986599043E+03  0.00000000000E+00 0. -1.
         -1    1    6    6    0  503 -0.83502146958E+02  0.10958759424E+03  0.60210633392E+02  0.15035747315E+03  0.00000000000E+00 0.  1.
<mgrwt>
<rscale>  0 0.19996466E+04</rscale>
<asrwt>0</asrwt>
<pdfrwt beam="1">  1        2 0.11976317E+00 0.19996466E+04</pdfrwt>
<pdfrwt beam="2">  1       -1 0.19755885E+00 0.19996466E+04</pdfrwt>
<totfact> 0.59254235E+00</totfact>
</mgrwt>
</event>
<event>
12    7  0.1625631E-007  0.2207145E+04  0.7818608E-02  0.8515460E-01
         -1   -1    0    0    0  501 -0.00000000000E+00  0.00000000000E+00  0.53772004698E+03  0.53772004698E+03  0.00000000000E+00 0.  1.
          2   -1    0    0  501    0  0.00000000000E+00 -0.00000000000E+00 -0.22648812399E+04  0.22648812399E+04  0.00000000000E+00 0. -1.
         24    2    1    2    0    0  0.63462094059E+03  0.39380750010E+03 -0.13893606483E+04  0.15812398528E+04  0.11031036127E+03 0.  0.
        254    2    1    2    0    0 -0.63462094059E+03 -0.39380750010E+03 -0.33780054462E+03  0.12213614340E+04  0.90542059797E+03 0.  0.
         23    2    4    4    0    0 -0.71752268266E+02  0.24048644737E+03  0.69798003082E+02  0.27602826229E+03  0.91311121891E+02 0.  0.
         23    2    4    4    0    0 -0.56286867232E+03 -0.63429394747E+03 -0.40759854771E+03  0.94533317174E+03  0.91478278432E+02 0.  0.
          4    1    3    3  502    0  0.59541447313E+03  0.39271046277E+03 -0.13417851490E+04  0.15195812872E+04  0.00000000000E+00 0. -1.
         -3    1    3    3    0  502  0.39206467459E+02  0.10970373347E+01 -0.47575499299E+02  0.61658565626E+02  0.00000000000E+00 0.  1.
         13    1    5    5    0    0 -0.19860223538E+02  0.20066077921E+03  0.52094897967E+02  0.20826198689E+03  0.00000000000E+00 0. -1.
        -13    1    5    5    0    0 -0.51892044728E+02  0.39825668158E+02  0.17703105115E+02  0.67766275396E+02  0.00000000000E+00 0.  1.
          4    1    6    6  503    0 -0.14410999698E+03 -0.15654867709E+03 -0.14724738105E+03  0.25876045052E+03  0.00000000000E+00 0.  1.
         -4    1    6    6    0  503 -0.41875867535E+03 -0.47774527038E+03 -0.26035116666E+03  0.68657272122E+03  0.00000000000E+00 0. -1.
<mgrwt>
<rscale>  0 0.22071448E+04</rscale>
<asrwt>0</asrwt>
<pdfrwt beam="1">  1        2 0.34844327E+00 0.22071448E+04</pdfrwt>
<pdfrwt beam="2">  1       -1 0.82726161E-01 0.22071448E+04</pdfrwt>
<totfact> 0.71628350E+00</totfact>
</mgrwt>
</event>
<event>
12    7  0.1625631E-007  0.1322149E+04  0.7818608E-02  0.9012183E-01
         -1   -1    0    0    0  501 -0.00000000000E+00  0.00000000000E+00  0.18533816352E+03  0.18533816352E+03  0.00000000000E+00 0.  1.
          2   -1    0    0  501    0  0.00000000000E+00 -0.00000000000E+00 -0.23579585470E+04  0.23579585470E+04  0.00000000000E+00 0. -1.
         24    2    1    2    0    0  0.15692830207E+03  0.17612826298E+03 -0.94114256470E+02  0.26633292311E+03  0.80175280803E+02 0.  0.
        254    2    1    2    0    0 -0.15692830207E+03 -0.17612826298E+03 -0.20785061270E+04  0.22769637874E+04  0.89929345162E+03 0.  0.
         23    2    4    4    0    0 -0.16728743011E+03  0.14764219448E+03 -0.87024643385E+02  0.25711991536E+03  0.93563136190E+02 0.  0.
         23    2    4    4    0    0  0.10359128040E+02 -0.32377045746E+03 -0.19914814837E+04  0.20198438721E+04  0.94000782744E+02 0.  0.
          4    1    3    3  502    0  0.69266703157E+02  0.87838588562E+02 -0.86999718295E+02  0.14171254281E+03  0.00000000000E+00 0. -1.
         -3    1    3    3    0  502  0.87661598911E+02  0.88289674418E+02 -0.71145381743E+01  0.12462038030E+03  0.00000000000E+00 0.  1.
         13    1    5    5    0    0 -0.17726220446E+03  0.12801387984E+03 -0.71013787868E+02  0.22989649982E+03  0.00000000000E+00 0. -1.
        -13    1    5    5    0    0  0.99747743534E+01  0.19628314649E+02 -0.16010855516E+02  0.27223415541E+02  0.00000000000E+00 0.  1.
          3    1    6    6  503    0  0.49765962538E+02 -0.13238484679E+03 -0.78408789880E+03  0.79674100668E+03  0.00000000000E+00 0. -1.
         -3    1    6    6    0  503 -0.39406834497E+02 -0.19138561067E+03 -0.12073935849E+04  0.12231028654E+04  0.00000000000E+00 0.  1.
<mgrwt>
<rscale>  0 0.13221493E+04</rscale>
<asrwt>0</asrwt>
<pdfrwt beam="1">  1        2 0.36276285E+00 0.13221493E+04</pdfrwt>
<pdfrwt beam="2">  1       -1 0.28513564E-01 0.13221493E+04</pdfrwt>
<totfact> 0.52411466E+01</totfact>
</mgrwt>
</event>
<event>
12    7  0.1625631E-007  0.1567310E+04  0.7818608E-02  0.8840886E-01
         -1   -1    0    0    0  501 -0.00000000000E+00  0.00000000000E+00  0.26250523577E+03  0.26250523577E+03  0.00000000000E+00 0.  1.
          2   -1    0    0  501    0  0.00000000000E+00 -0.00000000000E+00 -0.23394394572E+04  0.23394394572E+04  0.00000000000E+00 0. -1.
         24    2    1    2    0    0 -0.24044287377E+03  0.43529778881E+02  0.79025150902E+02  0.26542392304E+03  0.67061667516E+02 0.  0.
        254    2    1    2    0    0  0.24044287377E+03 -0.43529778881E+02 -0.21559593723E+04  0.23365207699E+04  0.86686843058E+03 0.  0.
         23    2    4    4    0    0  0.33929164003E+03 -0.39108157463E+03 -0.13575433025E+04  0.14555821942E+04  0.87932309582E+02 0.  0.
         23    2    4    4    0    0 -0.98848766256E+02  0.34755179575E+03 -0.79841606982E+03  0.88093857565E+03  0.89561287428E+02 0.  0.
          2    1    3    3  502    0 -0.17613745086E+02 -0.11953542400E+02  0.17854365583E+02  0.27783260468E+02  0.00000000000E+00 0. -1.
         -1    1    3    3    0  502 -0.22282912869E+03  0.55483321281E+02  0.61170785319E+02  0.23764066257E+03  0.00000000000E+00 0.  1.
         13    1    5    5    0    0  0.27430180901E+03 -0.30705578498E+03 -0.97051985557E+03  0.10542454779E+04  0.00000000000E+00 0.  1.
        -13    1    5    5    0    0  0.64989831019E+02 -0.84025789653E+02 -0.38702344692E+03  0.40133671639E+03  0.00000000000E+00 0. -1.
          3    1    6    6  503    0 -0.93978748288E+02  0.16833491710E+03 -0.39945207928E+03  0.44354324827E+03  0.00000000000E+00 0. -1.
         -3    1    6    6    0  503 -0.48700179684E+01  0.17921687865E+03 -0.39896399054E+03  0.43739532739E+03  0.00000000000E+00 0.  1.
<mgrwt>
<rscale>  0 0.15673099E+04</rscale>
<asrwt>0</asrwt>
<pdfrwt beam="1">  1        2 0.35991376E+00 0.15673099E+04</pdfrwt>
<pdfrwt beam="2">  1       -1 0.40385421E-01 0.15673099E+04</pdfrwt>
<totfact> 0.28250641E+01</totfact>
</mgrwt>
</event>
<event>
12    7  0.1625631E-007  0.1674168E+04  0.7818608E-02  0.8776236E-01
          2   -1    0    0  501    0  0.00000000000E+00  0.00000000000E+00  0.16886578141E+04  0.16886578141E+04  0.00000000000E+00 0. -1.
         -1   -1    0    0    0  501 -0.00000000000E+00 -0.00000000000E+00 -0.41495073532E+03  0.41495073532E+03  0.00000000000E+00 0.  1.
         24    2    1    2    0    0 -0.10073964674E+03 -0.33128946821E+03 -0.10554009557E+03  0.37035234621E+03  0.78236566885E+02 0.  0.
        254    2    1    2    0    0  0.10073964674E+03  0.33128946821E+03  0.13792471744E+04  0.17332562033E+04  0.99093547210E+03 0.  0.
         23    2    4    4    0    0 -0.37807996558E+03  0.30992132135E+03  0.39605140627E+03  0.63566679937E+03  0.90663540725E+02 0.  0.
         23    2    4    4    0    0  0.47881961232E+03  0.21368146864E+02  0.98319576812E+03  0.10975894039E+04  0.91124981268E+02 0.  0.
          2    1    3    3  502    0 -0.24701579215E+01 -0.91589287132E+02 -0.53553588726E+02  0.10612580300E+03  0.00000000000E+00 0. -1.
         -1    1    3    3    0  502 -0.98269488814E+02 -0.23970018108E+03 -0.51986506843E+02  0.26422654321E+03  0.00000000000E+00 0.  1.
         13    1    5    5    0    0 -0.10670065823E+03  0.11805510314E+03  0.84751048425E+02  0.18029081522E+03  0.00000000000E+00 0.  1.
        -13    1    5    5    0    0 -0.27137930735E+03  0.19186621821E+03  0.31130035784E+03  0.45537598415E+03  0.00000000000E+00 0. -1.
          1    1    6    6  503    0  0.28863238408E+03 -0.13733937288E+02  0.66754506833E+03  0.72740201568E+03  0.00000000000E+00 0. -1.
         -1    1    6    6    0  503  0.19018722824E+03  0.35102084152E+02  0.31565069980E+03  0.37018738820E+03  0.00000000000E+00 0.  1.
<mgrwt>
<rscale>  0 0.16741682E+04</rscale>
<asrwt>0</asrwt>
<pdfrwt beam="1">  1        2 0.25979351E+00 0.16741682E+04</pdfrwt>
<pdfrwt beam="2">  1       -1 0.63838576E-01 0.16741682E+04</pdfrwt>
<totfact> 0.26895049E+01</totfact>
</mgrwt>
</event>
<event>
12    7  0.1625631E-007  0.1901074E+04  0.7818608E-02  0.8654322E-01
         -1   -1    0    0    0  501 -0.00000000000E+00  0.00000000000E+00  0.34526853875E+03  0.34526853875E+03  0.00000000000E+00 0.  1.
          2   -1    0    0  501    0  0.00000000000E+00 -0.00000000000E+00 -0.26168623817E+04  0.26168623817E+04  0.00000000000E+00 0. -1.
         24    2    1    2    0    0  0.24437442796E+03 -0.11329295539E+03  0.18426855679E+03  0.33566964686E+03  0.78517870698E+02 0.  0.
        254    2    1    2    0    0 -0.24437442796E+03  0.11329295539E+03 -0.24558623998E+04  0.26264612736E+04  0.89133862275E+03 0.  0.
         23    2    4    4    0    0 -0.21875592572E+03  0.17818379186E+03 -0.17292098847E+03  0.34064307719E+03  0.80823381917E+02 0.  0.
         23    2    4    4    0    0 -0.25618502243E+02 -0.64890836475E+02 -0.22829414113E+04  0.22858181964E+04  0.90973684945E+02 0.  0.
          2    1    3    3  502    0  0.57407706900E+02 -0.45151590402E+01  0.11240774960E+02  0.58671854363E+02  0.00000000000E+00 0. -1.
         -1    1    3    3    0  502  0.18696672106E+03 -0.10877779635E+03  0.17302778183E+03  0.27699779250E+03  0.00000000000E+00 0.  1.
         13    1    5    5    0    0 -0.92785537231E+02  0.10940582075E+03 -0.12212278740E+03  0.18839523544E+03  0.00000000000E+00 0. -1.
        -13    1    5    5    0    0 -0.12597038849E+03  0.68777971114E+02 -0.50798201066E+02  0.15224784175E+03  0.00000000000E+00 0.  1.
          4    1    6    6  503    0 -0.28016382398E+02  0.16763227255E+02 -0.57898682258E+03  0.57990659954E+03  0.00000000000E+00 0.  1.
         -4    1    6    6    0  503  0.23978801546E+01 -0.81654063730E+02 -0.17039545887E+04  0.17059115969E+04  0.00000000000E+00 0. -1.
<mgrwt>
<rscale>  0 0.19010736E+04</rscale>
<asrwt>0</asrwt>
<pdfrwt beam="1">  1        2 0.40259422E+00 0.19010736E+04</pdfrwt>
<pdfrwt beam="2">  1       -1 0.53118235E-01 0.19010736E+04</pdfrwt>
<totfact> 0.11348024E+01</totfact>
</mgrwt>
</event>
<event>
12    7  0.1625631E-007  0.1604128E+04  0.7818608E-02  0.8818016E-01
         -1   -1    0    0    0  501 -0.00000000000E+00  0.00000000000E+00  0.17256796951E+04  0.17256796951E+04  0.00000000000E+00 0.  1.
          2   -1    0    0  501    0  0.00000000000E+00 -0.00000000000E+00 -0.37278469798E+03  0.37278469798E+03  0.00000000000E+00 0. -1.
         24    2    1    2    0    0 -0.85433907470E+02  0.33263633186E+03  0.11518550054E+04  0.12048377251E+04  0.83175167082E+02 0.  0.
        254    2    1    2    0    0  0.85433907470E+02 -0.33263633186E+03  0.20103999170E+03  0.89362666802E+03  0.80012852825E+03 0.  0.
         23    2    4    4    0    0  0.21477982379E+03  0.93877640046E+02  0.33567954415E+03  0.41929946433E+03  0.90487017931E+02 0.  0.
         23    2    4    4    0    0 -0.12934591632E+03 -0.42651397190E+03 -0.13463955246E+03  0.47432720369E+03  0.90630859985E+02 0.  0.
          2    1    3    3  502    0 -0.77025854235E+01  0.30957841829E+02  0.46287351311E+02  0.56215982463E+02  0.00000000000E+00 0. -1.
         -1    1    3    3    0  502 -0.77731322047E+02  0.30167849003E+03  0.11055676541E+04  0.11486217426E+04  0.00000000000E+00 0.  1.
         13    1    5    5    0    0 -0.22668093224E+01 -0.47714141238E+00 -0.44004553587E+01  0.49729363354E+01  0.00000000000E+00 0. -1.
        -13    1    5    5    0    0  0.21704663311E+03  0.94354781458E+02  0.34007999951E+03  0.41432652799E+03  0.00000000000E+00 0.  1.
          2    1    6    6  503    0 -0.33926031476E+02 -0.42115576999E+02 -0.39573917295E+02  0.67013374544E+02  0.00000000000E+00 0. -1.
         -2    1    6    6    0  503 -0.95419884842E+02 -0.38439839490E+03 -0.95065635160E+02  0.40731382915E+03  0.00000000000E+00 0.  1.
<mgrwt>
<rscale>  0 0.16041284E+04</rscale>
<asrwt>0</asrwt>
<pdfrwt beam="1">  1        2 0.57351493E-01 0.16041284E+04</pdfrwt>
<pdfrwt beam="2">  1       -1 0.26548918E+00 0.16041284E+04</pdfrwt>
<totfact> 0.52228492E+00</totfact>
</mgrwt>
</event>
<event>
12    7  0.1625631E-007  0.1418105E+04  0.7818608E-02  0.8940816E-01
         -1   -1    0    0    0  501 -0.00000000000E+00  0.00000000000E+00  0.10746994786E+04  0.10746994786E+04  0.00000000000E+00 0.  1.
          2   -1    0    0  501    0  0.00000000000E+00 -0.00000000000E+00 -0.46781034616E+03  0.46781034616E+03  0.00000000000E+00 0. -1.
         24    2    1    2    0    0 -0.28761034117E+03  0.57472060870E+02  0.55608966531E+03  0.63396532714E+03  0.81569442921E+02 0.  0.
        254    2    1    2    0    0  0.28761034117E+03 -0.57472060870E+02  0.50799467135E+02  0.90854449763E+03  0.85839954111E+03 0.  0.
         23    2    4    4    0    0 -0.39342101758E+02 -0.25516592676E+03 -0.28245436869E+03  0.39322082410E+03  0.90469303963E+02 0.  0.
         23    2    4    4    0    0  0.32695244293E+03  0.19769386589E+03  0.33325383582E+03  0.51532367353E+03  0.92301705628E+02 0.  0.
          2    1    3    3  502    0 -0.12952840223E+02  0.45121667960E+01  0.84927789498E+02  0.86028281095E+02  0.00000000000E+00 0. -1.
         -1    1    3    3    0  502 -0.27465750095E+03  0.52959894074E+02  0.47116187581E+03  0.54793704605E+03  0.00000000000E+00 0.  1.
         13    1    5    5    0    0 -0.14825995203E+02 -0.62939900622E+02 -0.21416724087E+02  0.68116938383E+02  0.00000000000E+00 0. -1.
        -13    1    5    5    0    0 -0.24516106556E+02 -0.19222602614E+03 -0.26103764460E+03  0.32510388571E+03  0.00000000000E+00 0.  1.
          1    1    6    6  503    0  0.16809054519E+03  0.93690127746E+02  0.10783833606E+03  0.22059324139E+03  0.00000000000E+00 0. -1.
         -1    1    6    6    0  503  0.15886189774E+03  0.10400373815E+03  0.22541549976E+03  0.29473043214E+03  0.00000000000E+00 0.  1.
<mgrwt>
<rscale>  0 0.14181051E+04</rscale>
<asrwt>0</asrwt>
<pdfrwt beam="1">  1        2 0.71970823E-01 0.14181051E+04</pdfrwt>
<pdfrwt beam="2">  1       -1 0.16533838E+00 0.14181051E+04</pdfrwt>
<totfact> 0.19699480E+01</totfact>
</mgrwt>
</event>
<event>
12    7  0.1625631E-007  0.1221565E+04  0.7818608E-02  0.9094188E-01
          2   -1    0    0  501    0  0.00000000000E+00  0.00000000000E+00  0.16063621917E+04  0.16063621917E+04  0.00000000000E+00 0. -1.
         -1   -1    0    0    0  501 -0.00000000000E+00 -0.00000000000E+00 -0.23223590482E+03  0.23223590482E+03  0.00000000000E+00 0.  1.
         24    2    1    2    0    0 -0.76012881294E+02 -0.27157608076E+03  0.28828972207E+03  0.41079852049E+03  0.78185259637E+02 0.  0.
        254    2    1    2    0    0  0.76012881294E+02  0.27157608076E+03  0.10858365649E+04  0.14277995761E+04  0.88319819865E+03 0.  0.
         23    2    4    4    0    0  0.88448352917E+01  0.15440330715E+03  0.12106846927E+04  0.12239187442E+04  0.91110125018E+02 0.  0.
         23    2    4    4    0    0  0.67168046002E+02  0.11717277362E+03 -0.12484812781E+03  0.20388083191E+03  0.87973480786E+02 0.  0.
          4    1    3    3  502    0  0.36582157665E+01 -0.19221962544E+02  0.53711100734E+02  0.57164225952E+02  0.00000000000E+00 0. -1.
         -3    1    3    3    0  502 -0.79671097060E+02 -0.25235411822E+03  0.23457862133E+03  0.35363429454E+03  0.00000000000E+00 0.  1.
         13    1    5    5    0    0  0.10405427818E+02  0.96645594512E+02  0.41895824634E+03  0.43008680059E+03  0.00000000000E+00 0. -1.
        -13    1    5    5    0    0 -0.15605925262E+01  0.57757712636E+02  0.79172644632E+03  0.79383194357E+03  0.00000000000E+00 0.  1.
          4    1    6    6  503    0  0.47771691841E+02  0.12618902001E+03 -0.87424226580E+02  0.16077561602E+03  0.00000000000E+00 0. -1.
         -4    1    6    6    0  503  0.19396354161E+02 -0.90162463933E+01 -0.37423901234E+02  0.43105215895E+02  0.00000000000E+00 0.  1.
<mgrwt>
<rscale>  0 0.12215645E+04</rscale>
<asrwt>0</asrwt>
<pdfrwt beam="1">  1        2 0.24713264E+00 0.12215645E+04</pdfrwt>
<pdfrwt beam="2">  1       -1 0.35728602E-01 0.12215645E+04</pdfrwt>
<totfact> 0.92822947E+01</totfact>
</mgrwt>
</event>
<event>
12    7  0.1625631E-007  0.2567000E+04  0.7818608E-02  0.8379498E-01
          2   -1    0    0  501    0  0.00000000000E+00  0.00000000000E+00  0.22133409851E+04  0.22133409851E+04  0.00000000000E+00 0. -1.
         -1   -1    0    0    0  501 -0.00000000000E+00 -0.00000000000E+00 -0.74429229341E+03  0.74429229341E+03  0.00000000000E+00 0.  1.
         24    2    1    2    0    0 -0.84833335462E+03  0.43254799332E+03  0.13301717176E+04  0.16375836206E+04  0.74539045452E+02 0.  0.
        254    2    1    2    0    0  0.84833335462E+03 -0.43254799332E+03  0.13887697411E+03  0.13200496579E+04  0.90359118974E+03 0.  0.
         23    2    4    4    0    0  0.77219977098E+03  0.75365261491E+02  0.16215378671E+03  0.79798104486E+03  0.92236047579E+02 0.  0.
         23    2    4    4    0    0  0.76133583640E+02 -0.50791325482E+03 -0.23276812600E+02  0.52206861299E+03  0.90783421891E+02 0.  0.
          2    1    3    3  502    0 -0.53374877894E+03  0.25409794869E+03  0.88003884882E+03  0.10601518297E+04  0.00000000000E+00 0. -1.
         -1    1    3    3    0  502 -0.31458457569E+03  0.17845004463E+03  0.45013286875E+03  0.57743179096E+03  0.00000000000E+00 0.  1.
         13    1    5    5    0    0  0.71769680270E+03  0.85907646861E+02  0.13188956799E+03  0.73475416470E+03  0.00000000000E+00 0. -1.
        -13    1    5    5    0    0  0.54502968281E+02 -0.10542385371E+02  0.30264218720E+02  0.63226880166E+02  0.00000000000E+00 0.  1.
          2    1    6    6  503    0  0.94568271025E+02 -0.42096649129E+03 -0.32675645961E+02  0.43269347408E+03  0.00000000000E+00 0. -1.
         -2    1    6    6    0  503 -0.18434687385E+02 -0.86946763529E+02  0.93988333615E+01  0.89375138913E+02  0.00000000000E+00 0.  1.
<mgrwt>
<rscale>  0 0.25670003E+04</rscale>
<asrwt>0</asrwt>
<pdfrwt beam="1">  1        2 0.34051399E+00 0.25670003E+04</pdfrwt>
<pdfrwt beam="2">  1       -1 0.11450651E+00 0.25670003E+04</pdfrwt>
<totfact> 0.35507430E+00</totfact>
</mgrwt>
</event>
<event>
12    7  0.1625631E-007  0.1128270E+04  0.7818608E-02  0.9178068E-01
         -1   -1    0    0    0  501 -0.00000000000E+00  0.00000000000E+00  0.36625211779E+03  0.36625211779E+03  0.00000000000E+00 0.  1.
          2   -1    0    0  501    0  0.00000000000E+00 -0.00000000000E+00 -0.86893197253E+03  0.86893197253E+03  0.00000000000E+00 0. -1.
         24    2    1    2    0    0  0.12566254532E+03  0.16240888506E+03 -0.62657031423E+02  0.22484684607E+03  0.66801791579E+02 0.  0.
        254    2    1    2    0    0 -0.12566254532E+03 -0.16240888506E+03 -0.44002282332E+03  0.10103372443E+04  0.88599861221E+03 0.  0.
         23    2    4    4    0    0 -0.29959296080E+03 -0.94395004388E+02  0.16811092593E+03  0.36755434603E+03  0.90380057819E+02 0.  0.
         23    2    4    4    0    0  0.17393041548E+03 -0.68013880675E+02 -0.60813374926E+03  0.64278289822E+03  0.92008259786E+02 0.  0.
          4    1    3    3  502    0  0.10471621949E+03  0.13579905993E+03 -0.23515976509E+02  0.17308920375E+03  0.00000000000E+00 0. -1.
         -3    1    3    3    0  502  0.20946325833E+02  0.26609825130E+02 -0.39141054914E+02  0.51757642326E+02  0.00000000000E+00 0.  1.
         13    1    5    5    0    0 -0.28758675942E+03 -0.87984228720E+02  0.17912346817E+03  0.35004654769E+03  0.00000000000E+00 0.  1.
        -13    1    5    5    0    0 -0.12006201382E+02 -0.64107756683E+01 -0.11012542238E+02  0.17507798343E+02  0.00000000000E+00 0. -1.
          2    1    6    6  503    0  0.79754792896E+02  0.11081389346E+02 -0.30981781822E+03  0.32011045697E+03  0.00000000000E+00 0. -1.
         -2    1    6    6    0  503  0.94175622586E+02 -0.79095270021E+02 -0.29831593104E+03  0.32267244125E+03  0.00000000000E+00 0.  1.
<mgrwt>
<rscale>  0 0.11282698E+04</rscale>
<asrwt>0</asrwt>
<pdfrwt beam="1">  1        2 0.13368184E+00 0.11282698E+04</pdfrwt>
<pdfrwt beam="2">  1       -1 0.56346481E-01 0.11282698E+04</pdfrwt>
<totfact> 0.11100317E+02</totfact>
</mgrwt>
</event>
<event>
12    7  0.1625631E-007  0.2308458E+04  0.7818608E-02  0.8474594E-01
          2   -1    0    0  501    0  0.00000000000E+00  0.00000000000E+00  0.20081792206E+04  0.20081792206E+04  0.00000000000E+00 0. -1.
         -1   -1    0    0    0  501 -0.00000000000E+00 -0.00000000000E+00 -0.66340934775E+03  0.66340934775E+03  0.00000000000E+00 0.  1.
         24    2    1    2    0    0 -0.74910254161E+03 -0.62639481780E+03  0.59211611180E+03  0.11447268727E+04  0.79202510344E+02 0.  0.
        254    2    1    2    0    0  0.74910254161E+03  0.62639481780E+03  0.75265376106E+03  0.15268616956E+04  0.90071852871E+03 0.  0.
         23    2    4    4    0    0  0.53418934089E+03  0.79597342570E+03  0.33569610450E+03  0.10198491932E+04  0.92024756867E+02 0.  0.
         23    2    4    4    0    0  0.21491320073E+03 -0.16957860789E+03  0.41695765656E+03  0.50701250249E+03  0.90903257428E+02 0.  0.
          4    1    3    3  502    0 -0.13348054349E+03 -0.11325232620E+03  0.14293369957E+03  0.22599377724E+03  0.00000000000E+00 0. -1.
         -3    1    3    3    0  502 -0.61562199812E+03 -0.51314249160E+03  0.44918241223E+03  0.91873309547E+03  0.00000000000E+00 0.  1.
         13    1    5    5    0    0  0.40260735023E+02  0.28859720674E+02  0.28478101574E+02  0.57138538056E+02  0.00000000000E+00 0.  1.
        -13    1    5    5    0    0  0.49392860586E+03  0.76711370502E+03  0.30721800293E+03  0.96271065510E+03  0.00000000000E+00 0. -1.
          1    1    6    6  503    0  0.19798087815E+03 -0.12536168697E+03  0.38204064086E+03  0.44818191836E+03  0.00000000000E+00 0. -1.
         -1    1    6    6    0  503  0.16932322580E+02 -0.44216920922E+02  0.34917015703E+02  0.58830584133E+02  0.00000000000E+00 0.  1.
<mgrwt>
<rscale>  0 0.23084582E+04</rscale>
<asrwt>0</asrwt>
<pdfrwt beam="1">  1        2 0.30895065E+00 0.23084582E+04</pdfrwt>
<pdfrwt beam="2">  1       -1 0.10206298E+00 0.23084582E+04</pdfrwt>
<totfact> 0.61986168E+00</totfact>
</mgrwt>
</event>
<event>
12    7  0.1625631E-007  0.1694529E+04  0.7818608E-02  0.8764491E-01
         -1   -1    0    0    0  501 -0.00000000000E+00  0.00000000000E+00  0.80294569939E+03  0.80294569939E+03  0.00000000000E+00 0.  1.
          2   -1    0    0  501    0  0.00000000000E+00 -0.00000000000E+00 -0.89402980447E+03  0.89402980447E+03  0.00000000000E+00 0. -1.
         24    2    1    2    0    0 -0.24862867379E+03  0.41966512277E+03 -0.32222969228E+03  0.59015051548E+03  0.80688435542E+02 0.  0.
        254    2    1    2    0    0  0.24862867379E+03 -0.41966512277E+03  0.23114558720E+03  0.11068249884E+04  0.96628062161E+03 0.  0.
         23    2    4    4    0    0 -0.24798169735E+03 -0.22209854783E+03 -0.21359385053E+03  0.40546232151E+03  0.89188979204E+02 0.  0.
         23    2    4    4    0    0  0.49661037113E+03 -0.19756657494E+03  0.44473943773E+03  0.70136266687E+03  0.91989188231E+02 0.  0.
          2    1    3    3  502    0 -0.22583048720E+03  0.31953256043E+03 -0.24498068801E+03  0.46164488908E+03  0.00000000000E+00 0. -1.
         -1    1    3    3    0  502 -0.22798186591E+02  0.10013256235E+03 -0.77249004272E+02  0.12850562639E+03  0.00000000000E+00 0.  1.
         13    1    5    5    0    0 -0.12218735031E+03 -0.14462290193E+03 -0.77444619865E+02  0.20455610840E+03  0.00000000000E+00 0. -1.
        -13    1    5    5    0    0 -0.12579434704E+03 -0.77475645899E+02 -0.13614923066E+03  0.20090621311E+03  0.00000000000E+00 0.  1.
          2    1    6    6  503    0  0.19049794321E+03 -0.43950528556E+02  0.12001912111E+03  0.22940293102E+03  0.00000000000E+00 0. -1.
         -2    1    6    6    0  503  0.30611242792E+03 -0.15361604639E+03  0.32472031662E+03  0.47195973585E+03  0.00000000000E+00 0.  1.
<mgrwt>
<rscale>  0 0.16945293E+04</rscale>
<asrwt>0</asrwt>
<pdfrwt beam="1">  1        2 0.13754305E+00 0.16945293E+04</pdfrwt>
<pdfrwt beam="2">  1       -1 0.12353011E+00 0.16945293E+04</pdfrwt>
<totfact> 0.18535287E+01</totfact>
</mgrwt>
</event>
<event>
12    7  0.1625631E-007  0.1421388E+04  0.7818608E-02  0.8938480E-01
          2   -1    0    0  501    0  0.00000000000E+00  0.00000000000E+00  0.84714546423E+03  0.84714546423E+03  0.00000000000E+00 0. -1.
         -1   -1    0    0    0  501 -0.00000000000E+00 -0.00000000000E+00 -0.59622139728E+03  0.59622139728E+03  0.00000000000E+00 0.  1.
         24    2    1    2    0    0  0.21456410961E+03  0.25377273205E+02  0.44610989889E+03  0.50479304284E+03  0.95499796222E+02 0.  0.
        254    2    1    2    0    0 -0.21456410961E+03 -0.25377273205E+02 -0.19518583194E+03  0.93857381868E+03  0.89226763977E+03 0.  0.
         23    2    4    4    0    0 -0.75476427718E+02  0.14395898954E+02 -0.54003900883E+03  0.55376760102E+03  0.95459372655E+02 0.  0.
         23    2    4    4    0    0 -0.13908768189E+03 -0.39773172159E+02  0.34485317689E+03  0.38480621766E+03  0.90690810228E+02 0.  0.
          2    1    3    3  502    0  0.71171505178E+02 -0.18468669898E+02  0.23219113588E+03  0.24355532944E+03  0.00000000000E+00 0. -1.
         -1    1    3    3    0  502  0.14339260443E+03  0.43845943102E+02  0.21391876301E+03  0.26123771340E+03  0.00000000000E+00 0.  1.
         13    1    5    5    0    0 -0.33548094625E+02 -0.40959580775E+02 -0.21994239405E+03  0.22622515026E+03  0.00000000000E+00 0.  1.
        -13    1    5    5    0    0 -0.41928333094E+02  0.55355479729E+02 -0.32009661478E+03  0.32754245076E+03  0.00000000000E+00 0. -1.
          4    1    6    6  503    0 -0.12257928016E+03 -0.65376170072E+02  0.26242212825E+03  0.29692607991E+03  0.00000000000E+00 0. -1.
         -4    1    6    6    0  503 -0.16508401726E+02  0.25602997913E+02  0.82431048642E+02  0.87880137744E+02  0.00000000000E+00 0.  1.
<mgrwt>
<rscale>  0 0.14213884E+04</rscale>
<asrwt>0</asrwt>
<pdfrwt beam="1">  1        2 0.13033007E+00 0.14213884E+04</pdfrwt>
<pdfrwt beam="2">  1       -1 0.91726369E-01 0.14213884E+04</pdfrwt>
<totfact> 0.40979054E+01</totfact>
</mgrwt>
</event>
<event>
12    7  0.1625631E-007  0.1275764E+04  0.7818608E-02  0.9049009E-01
          2   -1    0    0  501    0  0.00000000000E+00  0.00000000000E+00  0.12420500612E+04  0.12420500612E+04  0.00000000000E+00 0. -1.
         -1   -1    0    0    0  501 -0.00000000000E+00 -0.00000000000E+00 -0.32759803746E+03  0.32759803746E+03  0.00000000000E+00 0.  1.
         24    2    1    2    0    0  0.48195674969E+02 -0.30078922027E+03  0.32488029470E+03  0.45243518433E+03  0.79708293289E+02 0.  0.
        254    2    1    2    0    0 -0.48195674969E+02  0.30078922027E+03  0.58957172907E+03  0.11172129144E+04  0.89876186734E+03 0.  0.
         23    2    4    4    0    0  0.38113003863E+03  0.32560397534E+03  0.33229932529E+03  0.60826470825E+03  0.91022297307E+02 0.  0.
         23    2    4    4    0    0 -0.42932571360E+03 -0.24814755074E+02  0.25727240378E+03  0.50894820611E+03  0.88897954572E+02 0.  0.
          4    1    3    3  502    0  0.35096922066E+01 -0.19297520265E+01  0.29831886812E+02  0.30099557356E+02  0.00000000000E+00 0. -1.
         -3    1    3    3    0  502  0.44685982762E+02 -0.29885946824E+03  0.29504840788E+03  0.42233562697E+03  0.00000000000E+00 0.  1.
         13    1    5    5    0    0  0.32183460851E+03  0.29820808390E+03  0.31668697472E+03  0.54110647426E+03  0.00000000000E+00 0. -1.
        -13    1    5    5    0    0  0.59295430127E+02  0.27395891448E+02  0.15612350576E+02  0.67158233990E+02  0.00000000000E+00 0.  1.
          4    1    6    6  503    0 -0.13440952732E+03 -0.49372424286E+02  0.85247307620E+02  0.16664531428E+03  0.00000000000E+00 0. -1.
         -4    1    6    6    0  503 -0.29491618628E+03  0.24557669212E+02  0.17202509616E+03  0.34230289183E+03  0.00000000000E+00 0.  1.
<mgrwt>
<rscale>  0 0.12757636E+04</rscale>
<asrwt>0</asrwt>
<pdfrwt beam="1">  1        2 0.19108462E+00 0.12757636E+04</pdfrwt>
<pdfrwt beam="2">  1       -1 0.50399699E-01 0.12757636E+04</pdfrwt>
<totfact> 0.79094307E+01</totfact>
</mgrwt>
</event>
<event>
12    7  0.1625631E-007  0.2260367E+04  0.7818608E-02  0.8493714E-01
         -1   -1    0    0    0  501 -0.00000000000E+00  0.00000000000E+00  0.11983606299E+04  0.11983606299E+04  0.00000000000E+00 0.  1.
          2   -1    0    0  501    0  0.00000000000E+00 -0.00000000000E+00 -0.10658847668E+04  0.10658847668E+04  0.00000000000E+00 0. -1.
         24    2    1    2    0    0  0.42689331955E+03  0.82677564184E+03 -0.12820192170E+03  0.94293000054E+03  0.82978219865E+02 0.  0.
        254    2    1    2    0    0 -0.42689331955E+03 -0.82677564184E+03  0.26067778482E+03  0.13213153962E+04  0.90118011543E+03 0.  0.
         23    2    4    4    0    0 -0.37247854884E+03 -0.54841347250E+02 -0.17827246126E+03  0.42687425196E+03  0.93234724383E+02 0.  0.
         23    2    4    4    0    0 -0.54414770713E+02 -0.77193429459E+03  0.43895024608E+03  0.89444114422E+03  0.92217783000E+02 0.  0.
          4    1    3    3  502    0  0.32638032325E+03  0.57162273764E+03 -0.64487721226E+02  0.66138894440E+03  0.00000000000E+00 0. -1.
         -3    1    3    3    0  502  0.10051299630E+03  0.25515290420E+03 -0.63714200477E+02  0.28154105614E+03  0.00000000000E+00 0.  1.
         13    1    5    5    0    0 -0.31630406052E+03 -0.78306620468E+02 -0.16176839555E+03  0.36379829482E+03  0.00000000000E+00 0. -1.
        -13    1    5    5    0    0 -0.56174488312E+02  0.23465273218E+02 -0.16504065705E+02  0.63075957140E+02  0.00000000000E+00 0.  1.
          1    1    6    6  503    0 -0.63138452682E+02 -0.56674941626E+03  0.36020528940E+03  0.67449182023E+03  0.00000000000E+00 0. -1.
         -1    1    6    6    0  503  0.87236819682E+01 -0.20518487833E+03  0.78744956671E+02  0.21994932399E+03  0.00000000000E+00 0.  1.
<mgrwt>
<rscale>  0 0.22603666E+04</rscale>
<asrwt>0</asrwt>
<pdfrwt beam="1">  1        2 0.16398227E+00 0.22603666E+04</pdfrwt>
<pdfrwt beam="2">  1       -1 0.18436317E+00 0.22603666E+04</pdfrwt>
<totfact> 0.45952081E+00</totfact>
</mgrwt>
</event>
<event>
12    7  0.1625631E-007  0.3534644E+04  0.7818608E-02  0.8105628E-01
         -1   -1    0    0    0  501 -0.00000000000E+00  0.00000000000E+00  0.32370938275E+04  0.32370938275E+04  0.00000000000E+00 0.  1.
          2   -1    0    0  501    0  0.00000000000E+00 -0.00000000000E+00 -0.96488627151E+03  0.96488627151E+03  0.00000000000E+00 0. -1.
         24    2    1    2    0    0  0.48867615905E+03 -0.12438675457E+04 -0.95782266984E+02  0.13420980810E+04  0.77731311048E+02 0.  0.
        254    2    1    2    0    0 -0.48867615905E+03  0.12438675457E+04  0.23679898230E+04  0.28598820180E+04  0.88630609581E+03 0.  0.
         23    2    4    4    0    0 -0.37910275287E+03  0.49939058833E+03  0.18123394558E+04  0.19199239580E+04  0.91781504653E+02 0.  0.
         23    2    4    4    0    0 -0.10957340619E+03  0.74447695738E+03  0.55565036716E+03  0.93995805997E+03  0.92312255705E+02 0.  0.
          4    1    3    3  502    0  0.49142461487E+03 -0.12395687771E+04 -0.96637012422E+02  0.13369246865E+04  0.00000000000E+00 0. -1.
         -3    1    3    3    0  502 -0.27484558152E+01 -0.42987686403E+01  0.85474543794E+00  0.51733945292E+01  0.00000000000E+00 0.  1.
         13    1    5    5    0    0 -0.30213254081E+03  0.41377611599E+03  0.15729983222E+04  0.16543332397E+04  0.00000000000E+00 0.  1.
        -13    1    5    5    0    0 -0.76970212057E+02  0.85614472337E+02  0.23934113358E+03  0.26559071829E+03  0.00000000000E+00 0. -1.
          1    1    6    6  503    0 -0.13309234853E+01  0.28981134580E+02  0.47737334675E+02  0.55861709970E+02  0.00000000000E+00 0. -1.
         -1    1    6    6    0  503 -0.10824248270E+03  0.71549582280E+03  0.50791303249E+03  0.88409635000E+03  0.00000000000E+00 0.  1.
<mgrwt>
<rscale>  0 0.35346442E+04</rscale>
<asrwt>0</asrwt>
<pdfrwt beam="1">  1        2 0.14844404E+00 0.35346442E+04</pdfrwt>
<pdfrwt beam="2">  1       -1 0.49801443E+00 0.35346442E+04</pdfrwt>
<totfact> 0.38014881E-02</totfact>
</mgrwt>
</event>
<event>
12    7  0.1625631E-007  0.1525687E+04  0.7818608E-02  0.8867549E-01
          2   -1    0    0  501    0  0.00000000000E+00  0.00000000000E+00  0.17504728613E+04  0.17504728613E+04  0.00000000000E+00 0. -1.
         -1   -1    0    0    0  501 -0.00000000000E+00 -0.00000000000E+00 -0.33244182139E+03  0.33244182139E+03  0.00000000000E+00 0.  1.
         24    2    1    2    0    0 -0.25946732100E+03  0.23609309895E+03  0.93082570001E+03  0.99793802535E+03  0.79878511581E+02 0.  0.
        254    2    1    2    0    0  0.25946732100E+03 -0.23609309895E+03  0.48720533992E+03  0.10849766574E+04  0.90373782798E+03 0.  0.
         23    2    4    4    0    0  0.57623719933E+02  0.31350256270E+03  0.33964403960E+03  0.47449711344E+03  0.90471471266E+02 0.  0.
         23    2    4    4    0    0  0.20184360106E+03 -0.54959566165E+03  0.14756130032E+03  0.61047954391E+03  0.90081660712E+02 0.  0.
          2    1    3    3  502    0 -0.23791567266E+03  0.17855000451E+03  0.79621271087E+03  0.84996391238E+03  0.00000000000E+00 0. -1.
         -1    1    3    3    0  502 -0.21551648338E+02  0.57543094438E+02  0.13461298914E+03  0.14797411297E+03  0.00000000000E+00 0.  1.
         13    1    5    5    0    0  0.78645284977E+02  0.24346344302E+03  0.23918194924E+03  0.35023925220E+03  0.00000000000E+00 0. -1.
        -13    1    5    5    0    0 -0.21021565044E+02  0.70039119672E+02  0.10046209036E+03  0.12425786124E+03  0.00000000000E+00 0.  1.
          4    1    6    6  503    0  0.91502406191E+02 -0.36829984570E+03  0.10827065520E+03  0.39463907746E+03  0.00000000000E+00 0. -1.
         -4    1    6    6    0  503  0.11034119487E+03 -0.18129581595E+03  0.39290645113E+02  0.21584046645E+03  0.00000000000E+00 0.  1.
<mgrwt>
<rscale>  0 0.15256872E+04</rscale>
<asrwt>0</asrwt>
<pdfrwt beam="1">  1        2 0.26930351E+00 0.15256872E+04</pdfrwt>
<pdfrwt beam="2">  1       -1 0.51144897E-01 0.15256872E+04</pdfrwt>
<totfact> 0.38819513E+01</totfact>
</mgrwt>
</event>
<event>
12    7  0.1625631E-007  0.1556618E+04  0.7818608E-02  0.8847651E-01
          2   -1    0    0  501    0  0.00000000000E+00  0.00000000000E+00  0.27320809236E+03  0.27320809236E+03  0.00000000000E+00 0. -1.
         -1   -1    0    0    0  501 -0.00000000000E+00 -0.00000000000E+00 -0.22172298922E+04  0.22172298922E+04  0.00000000000E+00 0.  1.
         24    2    1    2    0    0 -0.12831433348E+03 -0.33040746625E+03 -0.12453681395E+04  0.12974595290E+04  0.82618185613E+02 0.  0.
        254    2    1    2    0    0  0.12831433348E+03  0.33040746625E+03 -0.69865366030E+03  0.11929784555E+04  0.89969272328E+03 0.  0.
         23    2    4    4    0    0 -0.17412791860E+03  0.27284882890E+03  0.84428896188E+02  0.34679005594E+03  0.91477258992E+02 0.  0.
         23    2    4    4    0    0  0.30244225209E+03  0.57558637350E+02 -0.78308255649E+03  0.84618839957E+03  0.89622568125E+02 0.  0.
          2    1    3    3  502    0 -0.11370952486E+03 -0.22726484694E+03 -0.77146662647E+03  0.81224375803E+03  0.00000000000E+00 0. -1.
         -1    1    3    3    0  502 -0.14604808626E+02 -0.10314261932E+03 -0.47390151306E+03  0.48521577101E+03  0.00000000000E+00 0.  1.
         13    1    5    5    0    0 -0.33452326638E+02  0.50279248714E+01  0.77430906481E+01  0.34702934152E+02  0.00000000000E+00 0. -1.
        -13    1    5    5    0    0 -0.14067559197E+03  0.26782090403E+03  0.76685805540E+02  0.31208712178E+03  0.00000000000E+00 0.  1.
          2    1    6    6  503    0  0.23597330740E+03  0.77709634369E+01 -0.61349068594E+03  0.65735425108E+03  0.00000000000E+00 0.  1.
         -2    1    6    6    0  503  0.66468944688E+02  0.49787673913E+02 -0.16959187054E+03  0.18883414849E+03  0.00000000000E+00 0. -1.
<mgrwt>
<rscale>  0 0.15566183E+04</rscale>
<asrwt>0</asrwt>
<pdfrwt beam="1">  1        2 0.42032015E-01 0.15566183E+04</pdfrwt>
<pdfrwt beam="2">  1       -1 0.34111229E+00 0.15566183E+04</pdfrwt>
<totfact> 0.23986430E+00</totfact>
</mgrwt>
</event>
<event>
12    7  0.1625631E-007  0.1915172E+04  0.7818608E-02  0.8647341E-01
         -1   -1    0    0    0  501 -0.00000000000E+00  0.00000000000E+00  0.61395534335E+03  0.61395534335E+03  0.00000000000E+00 0.  1.
          2   -1    0    0  501    0  0.00000000000E+00 -0.00000000000E+00 -0.14935471771E+04  0.14935471771E+04  0.00000000000E+00 0. -1.
         24    2    1    2    0    0  0.18961123756E+03  0.51555510429E+03  0.21326174279E+03  0.59390255076E+03  0.74095761572E+02 0.  0.
        254    2    1    2    0    0 -0.18961123756E+03 -0.51555510429E+03 -0.10928535765E+04  0.15135999697E+04  0.89157525849E+03 0.  0.
         23    2    4    4    0    0 -0.14138826237E+03  0.22874770783E+03 -0.21108542417E+03  0.35507588543E+03  0.95946201281E+02 0.  0.
         23    2    4    4    0    0 -0.48222975186E+02 -0.74430281213E+03 -0.88176815238E+03  0.11585240843E+04  0.91382973353E+02 0.  0.
          4    1    3    3  502    0  0.91169372608E+02  0.19968536554E+03  0.11991857710E+03  0.25013309427E+03  0.00000000000E+00 0. -1.
         -3    1    3    3    0  502  0.98441864952E+02  0.31586973875E+03  0.93343165696E+02  0.34376945649E+03  0.00000000000E+00 0.  1.
         13    1    5    5    0    0 -0.11358935409E+03  0.22864219954E+03 -0.20285870425E+03  0.32608503593E+03  0.00000000000E+00 0. -1.
        -13    1    5    5    0    0 -0.27798908283E+02  0.10550829834E+00 -0.82267199194E+01  0.28990849494E+02  0.00000000000E+00 0.  1.
          2    1    6    6  503    0 -0.60612768188E+02 -0.67702953049E+03 -0.76646331428E+03  0.10244554187E+04  0.00000000000E+00 0. -1.
         -2    1    6    6    0  503  0.12389793003E+02 -0.67273281640E+02 -0.11530483809E+03  0.13406866554E+03  0.00000000000E+00 0.  1.
<mgrwt>
<rscale>  0 0.19151723E+04</rscale>
<asrwt>0</asrwt>
<pdfrwt beam="1">  1        2 0.22977649E+00 0.19151723E+04</pdfrwt>
<pdfrwt beam="2">  1       -1 0.94454669E-01 0.19151723E+04</pdfrwt>
<totfact> 0.14799795E+01</totfact>
</mgrwt>
</event>
<event>
12    7  0.1625631E-007  0.1526319E+04  0.7818608E-02  0.8867137E-01
          2   -1    0    0  501    0  0.00000000000E+00  0.00000000000E+00  0.21697498179E+04  0.21697498179E+04  0.00000000000E+00 0. -1.
         -1   -1    0    0    0  501 -0.00000000000E+00 -0.00000000000E+00 -0.26842387368E+03  0.26842387368E+03  0.00000000000E+00 0.  1.
         24    2    1    2    0    0 -0.27824584017E+03  0.37746195571E+03  0.39528328278E+03  0.61768807180E+03  0.73426186202E+02 0.  0.
        254    2    1    2    0    0  0.27824584017E+03 -0.37746195571E+03  0.15060426614E+04  0.18204856198E+04  0.90890325018E+03 0.  0.
         23    2    4    4    0    0 -0.83603103717E+02  0.11396054644E+03  0.10232659122E+04  0.10369432341E+04  0.90563009218E+02 0.  0.
         23    2    4    4    0    0  0.36184894389E+03 -0.49142250215E+03  0.48277674925E+03  0.78354238566E+03  0.91839788265E+02 0.  0.
          2    1    3    3  502    0 -0.23904174556E+03  0.29561988470E+03  0.28660181454E+03  0.47610153585E+03  0.00000000000E+00 0. -1.
         -1    1    3    3    0  502 -0.39204094613E+02  0.81842071009E+02  0.10868146824E+03  0.14158653594E+03  0.00000000000E+00 0.  1.
         13    1    5    5    0    0 -0.48177663429E+02  0.11940483096E+03  0.87406708636E+03  0.88349978629E+03  0.00000000000E+00 0. -1.
        -13    1    5    5    0    0 -0.35425440289E+02 -0.54442845214E+01  0.14919882582E+03  0.15344344783E+03  0.00000000000E+00 0.  1.
          2    1    6    6  503    0  0.36179152889E+03 -0.49500667581E+03  0.47734635633E+03  0.77703556120E+03  0.00000000000E+00 0. -1.
         -2    1    6    6    0  503  0.57414991457E-01  0.35841736599E+01  0.54303929186E+01  0.65068244602E+01  0.00000000000E+00 0.  1.
<mgrwt>
<rscale>  0 0.15263193E+04</rscale>
<asrwt>0</asrwt>
<pdfrwt beam="1">  1        2 0.33380765E+00 0.15263193E+04</pdfrwt>
<pdfrwt beam="2">  1       -1 0.41295982E-01 0.15263193E+04</pdfrwt>
<totfact> 0.33908025E+01</totfact>
</mgrwt>
</event>
<event>
12    7  0.1625631E-007  0.2590352E+04  0.7818608E-02  0.8371486E-01
          2   -1    0    0  501    0  0.00000000000E+00  0.00000000000E+00  0.17354304099E+04  0.17354304099E+04  0.00000000000E+00 0. -1.
         -1   -1    0    0    0  501 -0.00000000000E+00 -0.00000000000E+00 -0.96660828796E+03  0.96660828796E+03  0.00000000000E+00 0.  1.
         24    2    1    2    0    0 -0.15273036855E+03  0.10305492980E+04  0.79381035568E+03  0.13120650768E+04  0.77598092843E+02 0.  0.
        254    2    1    2    0    0  0.15273036855E+03 -0.10305492980E+04 -0.24988233747E+02  0.13899736210E+04  0.91980641134E+03 0.  0.
         23    2    4    4    0    0  0.17470015186E+03 -0.11569704571E+04 -0.15873962432E+03  0.11843777840E+04  0.91933046738E+02 0.  0.
         23    2    4    4    0    0 -0.21969783304E+02  0.12642115917E+03  0.13375139057E+03  0.20559583707E+03  0.88967594540E+02 0.  0.
          2    1    3    3  502    0 -0.13141664265E+03  0.96469408343E+03  0.75952336756E+03  0.12348201304E+04  0.00000000000E+00 0. -1.
         -1    1    3    3    0  502 -0.21313725905E+02  0.65855214532E+02  0.34286988124E+02  0.77244946421E+02  0.00000000000E+00 0.  1.
         13    1    5    5    0    0  0.75390028098E+01 -0.39854696843E+01  0.30084165455E+00  0.85329383961E+01  0.00000000000E+00 0. -1.
        -13    1    5    5    0    0  0.16716114905E+03 -0.11529849874E+04 -0.15904046597E+03  0.11758448456E+04  0.00000000000E+00 0.  1.
          2    1    6    6  503    0  0.28981280423E+02  0.13200518930E+02  0.30868832534E+02  0.44351472771E+02  0.00000000000E+00 0. -1.
         -2    1    6    6    0  503 -0.50951063727E+02  0.11322064024E+03  0.10288255804E+03  0.16124436430E+03  0.00000000000E+00 0.  1.
<mgrwt>
<rscale>  0 0.25903524E+04</rscale>
<asrwt>0</asrwt>
<pdfrwt beam="1">  1        2 0.26698929E+00 0.25903524E+04</pdfrwt>
<pdfrwt beam="2">  1       -1 0.14870897E+00 0.25903524E+04</pdfrwt>
<totfact> 0.33728980E+00</totfact>
</mgrwt>
</event>
<event>
12    7  0.1625631E-007  0.2071150E+04  0.7818608E-02  0.8574059E-01
          2   -1    0    0  501    0  0.00000000000E+00  0.00000000000E+00  0.39521586991E+04  0.39521586991E+04  0.00000000000E+00 0. -1.
         -1   -1    0    0    0  501 -0.00000000000E+00 -0.00000000000E+00 -0.27134939545E+03  0.27134939545E+03  0.00000000000E+00 0.  1.
         24    2    1    2    0    0  0.70695952732E+02 -0.35542387887E+03 -0.45217476190E+02  0.37388874943E+03  0.80150641855E+02 0.  0.
        254    2    1    2    0    0 -0.70695952732E+02  0.35542387887E+03  0.37260267798E+04  0.38496193451E+04  0.89720091776E+03 0.  0.
         23    2    4    4    0    0 -0.22856002951E+03  0.48176497006E+03  0.12270003341E+04  0.13408776631E+04  0.89921711486E+02 0.  0.
         23    2    4    4    0    0  0.15786407677E+03 -0.12634109119E+03  0.24990264458E+04  0.25087416820E+04  0.88139164137E+02 0.  0.
          2    1    3    3  502    0 -0.17506181573E+02 -0.73812445297E+02 -0.45190281368E+01  0.75994506968E+02  0.00000000000E+00 0. -1.
         -1    1    3    3    0  502  0.88202134305E+02 -0.28161143358E+03 -0.40698448053E+02  0.29789424246E+03  0.00000000000E+00 0.  1.
         13    1    5    5    0    0 -0.59509097709E+02  0.18482985702E+03  0.53432412394E+03  0.56851181006E+03  0.00000000000E+00 0. -1.
        -13    1    5    5    0    0 -0.16905093180E+03  0.29693511305E+03  0.69267621012E+03  0.77236585306E+03  0.00000000000E+00 0.  1.
          1    1    6    6  503    0  0.13093098992E+02 -0.55456451287E+02  0.82811280059E+03  0.83007087513E+03  0.00000000000E+00 0. -1.
         -1    1    6    6    0  503  0.14477097778E+03 -0.70884639904E+02  0.16709136452E+04  0.16786708068E+04  0.00000000000E+00 0.  1.
<mgrwt>
<rscale>  0 0.20711503E+04</rscale>
<asrwt>0</asrwt>
<pdfrwt beam="1">  1        2 0.60802438E+00 0.20711503E+04</pdfrwt>
<pdfrwt beam="2">  1       -1 0.41746064E-01 0.20711503E+04</pdfrwt>
<totfact> 0.22321598E+00</totfact>
</mgrwt>
</event>
<event>
12    7  0.1625631E-007  0.1515794E+04  0.7818608E-02  0.8874018E-01
         -1   -1    0    0    0  501 -0.00000000000E+00  0.00000000000E+00  0.10927836724E+04  0.10927836724E+04  0.00000000000E+00 0.  1.
          2   -1    0    0  501    0  0.00000000000E+00 -0.00000000000E+00 -0.52563711970E+03  0.52563711970E+03  0.00000000000E+00 0. -1.
         24    2    1    2    0    0 -0.35324198835E+03 -0.14323432265E+03  0.51090560479E+03  0.64013837613E+03  0.58793112427E+02 0.  0.
        254    2    1    2    0    0  0.35324198835E+03  0.14323432265E+03  0.56240947911E+02  0.97828241597E+03  0.89920935696E+03 0.  0.
         23    2    4    4    0    0  0.23133663578E+03 -0.36737309166E+03  0.43357060827E+01  0.44389183887E+03  0.92420445462E+02 0.  0.
         23    2    4    4    0    0  0.12190535257E+03  0.51060741431E+03  0.51905241828E+02  0.53439057710E+03  0.85430019493E+02 0.  0.
          2    1    3    3  502    0 -0.14744059224E+03 -0.65065528520E+02  0.26435412843E+03  0.30960516220E+03  0.00000000000E+00 0. -1.
         -1    1    3    3    0  502 -0.20580139611E+03 -0.78168794128E+02  0.24655147636E+03  0.33053321393E+03  0.00000000000E+00 0.  1.
         13    1    5    5    0    0  0.77605056066E+02 -0.18856762525E+03  0.32219670292E+02  0.20644224658E+03  0.00000000000E+00 0. -1.
        -13    1    5    5    0    0  0.15373157971E+03 -0.17880546641E+03 -0.27883964209E+02  0.23744959229E+03  0.00000000000E+00 0.  1.
          1    1    6    6  503    0  0.27092412325E+00  0.15765179063E+03  0.29533305510E+02  0.16039444075E+03  0.00000000000E+00 0.  1.
         -1    1    6    6    0  503  0.12163442845E+03  0.35295562367E+03  0.22371936318E+02  0.37399613634E+03  0.00000000000E+00 0. -1.
<mgrwt>
<rscale>  0 0.15157937E+04</rscale>
<asrwt>0</asrwt>
<pdfrwt beam="1">  1        2 0.80867250E-01 0.15157937E+04</pdfrwt>
<pdfrwt beam="2">  1       -1 0.16812056E+00 0.15157937E+04</pdfrwt>
<totfact> 0.16275505E+01</totfact>
</mgrwt>
</event>
<event>
12    7  0.1625631E-007  0.2007385E+04  0.7818608E-02  0.8603176E-01
          2   -1    0    0  501    0  0.00000000000E+00  0.00000000000E+00  0.32276435607E+03  0.32276435607E+03  0.00000000000E+00 0. -1.
         -1   -1    0    0    0  501 -0.00000000000E+00 -0.00000000000E+00 -0.31211571034E+04  0.31211571034E+04  0.00000000000E+00 0.  1.
         24    2    1    2    0    0 -0.26800338687E+03  0.18567302925E+02 -0.24139622876E+04  0.24302836253E+04  0.83030193356E+02 0.  0.
        254    2    1    2    0    0  0.26800338687E+03 -0.18567302925E+02 -0.38443045968E+03  0.10136378342E+04  0.89861244174E+03 0.  0.
         23    2    4    4    0    0 -0.46259374997E+02  0.34619588239E+02 -0.60547126981E+03  0.61487685263E+03  0.90219951621E+02 0.  0.
         23    2    4    4    0    0  0.31426276186E+03 -0.53186891164E+02  0.22104081013E+03  0.39876098156E+03  0.92527573087E+02 0.  0.
          2    1    3    3  502    0 -0.15861705912E+03  0.25903666393E+02 -0.10893269061E+04  0.11011191941E+04  0.00000000000E+00 0. -1.
         -1    1    3    3    0  502 -0.10938632774E+03 -0.73363634679E+01 -0.13246353816E+04  0.13291644311E+04  0.00000000000E+00 0.  1.
         13    1    5    5    0    0 -0.11282734005E+02  0.28217539854E+02 -0.53575614717E+03  0.53661734865E+03  0.00000000000E+00 0.  1.
        -13    1    5    5    0    0 -0.34976640992E+02  0.64020483851E+01 -0.69715122647E+02  0.78259503987E+02  0.00000000000E+00 0. -1.
          3    1    6    6  503    0  0.28110980204E+02  0.13366464022E+02  0.37318457700E-01  0.31127013367E+02  0.00000000000E+00 0. -1.
         -3    1    6    6    0  503  0.28615178166E+03 -0.66553355186E+02  0.22100349167E+03  0.36763396819E+03  0.00000000000E+00 0.  1.
<mgrwt>
<rscale>  0 0.20073846E+04</rscale>
<asrwt>0</asrwt>
<pdfrwt beam="1">  1        2 0.49656055E-01 0.20073846E+04</pdfrwt>
<pdfrwt beam="2">  1       -1 0.48017801E+00 0.20073846E+04</pdfrwt>
<totfact> 0.21598467E-01</totfact>
</mgrwt>
</event>
<event>
12    7  0.1625631E-007  0.1603383E+04  0.7818608E-02  0.8818472E-01
          2   -1    0    0  501    0  0.00000000000E+00  0.00000000000E+00  0.61527610753E+03  0.61527610753E+03  0.00000000000E+00 0. -1.
         -3   -1    0    0    0  501 -0.00000000000E+00 -0.00000000000E+00 -0.10445866788E+04  0.10445866788E+04  0.00000000000E+00 0.  1.
         24    2    1    2    0    0 -0.11862434283E+03  0.23851459328E+03  0.34766683949E+03  0.44501526459E+03  0.78774415380E+02 0.  0.
        254    2    1    2    0    0  0.11862434283E+03 -0.23851459328E+03 -0.77697741075E+03  0.12148475217E+04  0.89509756916E+03 0.  0.
         23    2    4    4    0    0 -0.10091790806E+03  0.28545345286E+03 -0.45768129606E+03  0.55659106474E+03  0.93023366273E+02 0.  0.
         23    2    4    4    0    0  0.21954225088E+03 -0.52396804614E+03 -0.31929611469E+03  0.65825645699E+03  0.92791384329E+02 0.  0.
          2    1    3    3  502    0 -0.61338577304E+02  0.62845937428E+02  0.15444103097E+03  0.17766278441E+03  0.00000000000E+00 0. -1.
         -3    1    3    3    0  502 -0.57285765524E+02  0.17566865586E+03  0.19322580852E+03  0.26735248018E+03  0.00000000000E+00 0.  1.
         13    1    5    5    0    0 -0.85461322862E+02  0.20045539071E+03 -0.24990475595E+03  0.33156958307E+03  0.00000000000E+00 0. -1.
        -13    1    5    5    0    0 -0.15456585194E+02  0.84998062149E+02 -0.20777654011E+03  0.22502148167E+03  0.00000000000E+00 0.  1.
          4    1    6    6  503    0  0.91083349147E+02 -0.29258689010E+03 -0.21232103607E+03  0.37280489147E+03  0.00000000000E+00 0. -1.
         -4    1    6    6    0  503  0.12845890174E+03 -0.23138115605E+03 -0.10697507863E+03  0.28545156552E+03  0.00000000000E+00 0.  1.
<mgrwt>
<rscale>  0 0.16033830E+04</rscale>
<asrwt>0</asrwt>
<pdfrwt beam="1">  1        2 0.94657864E-01 0.16033830E+04</pdfrwt>
<pdfrwt beam="2">  1       -3 0.16070564E+00 0.16033830E+04</pdfrwt>
<totfact> 0.77939429E+00</totfact>
</mgrwt>
</event>
<event>
12    7  0.1625631E-007  0.2631941E+04  0.7818608E-02  0.8357432E-01
         -1   -1    0    0    0  501 -0.00000000000E+00  0.00000000000E+00  0.19089649308E+04  0.19089649308E+04  0.00000000000E+00 0.  1.
          2   -1    0    0  501    0  0.00000000000E+00 -0.00000000000E+00 -0.90718154793E+03  0.90718154793E+03  0.00000000000E+00 0. -1.
         24    2    1    2    0    0 -0.77718751318E+03 -0.66628318917E+03 -0.14067575846E+03  0.10365262715E+04  0.81506586680E+02 0.  0.
        254    2    1    2    0    0  0.77718751318E+03  0.66628318917E+03  0.11424591413E+04  0.17796202072E+04  0.90215379706E+03 0.  0.
         23    2    4    4    0    0 -0.71689926966E+02  0.49220917896E+02 -0.93081016821E+02  0.15622903357E+03  0.90450488399E+02 0.  0.
         23    2    4    4    0    0  0.84887744015E+03  0.61706227128E+03  0.12355401582E+04  0.16233911737E+04  0.86490839198E+02 0.  0.
          4    1    3    3  502    0 -0.57855467391E+03 -0.52410742520E+03 -0.79340921671E+02  0.78467132336E+03  0.00000000000E+00 0. -1.
         -3    1    3    3    0  502 -0.19863283927E+03 -0.14217576397E+03 -0.61334836790E+02  0.25185494814E+03  0.00000000000E+00 0.  1.
         13    1    5    5    0    0  0.98694578940E+01  0.41927913747E+01  0.11800645390E+02  0.15944934313E+02  0.00000000000E+00 0.  1.
        -13    1    5    5    0    0 -0.81559384860E+02  0.45028126521E+02 -0.10488166221E+03  0.14028409926E+03  0.00000000000E+00 0. -1.
          3    1    6    6  503    0  0.58740539327E+03  0.42031433446E+03  0.91000996983E+03  0.11618207181E+04  0.00000000000E+00 0. -1.
         -3    1    6    6    0  503  0.26147204688E+03  0.19674793682E+03  0.32553018833E+03  0.46157045557E+03  0.00000000000E+00 0.  1.
<mgrwt>
<rscale>  0 0.26319405E+04</rscale>
<asrwt>0</asrwt>
<pdfrwt beam="1">  1        2 0.13956639E+00 0.26319405E+04</pdfrwt>
<pdfrwt beam="2">  1       -1 0.29368691E+00 0.26319405E+04</pdfrwt>
<totfact> 0.10583794E+00</totfact>
</mgrwt>
</event>
<event>
12    7  0.1625631E-007  0.1101909E+04  0.7818608E-02  0.9203333E-01
         -1   -1    0    0    0  501 -0.00000000000E+00  0.00000000000E+00  0.30058567542E+03  0.30058567542E+03  0.00000000000E+00 0.  1.
          2   -1    0    0  501    0  0.00000000000E+00 -0.00000000000E+00 -0.10098648704E+04  0.10098648704E+04  0.00000000000E+00 0. -1.
         24    2    1    2    0    0 -0.27315570469E+02 -0.58304080160E+01  0.76359254350E+02  0.11477324140E+03  0.81006340294E+02 0.  0.
        254    2    1    2    0    0  0.27315570469E+02  0.58304080160E+01 -0.78563844930E+03  0.11956773044E+04  0.90090860201E+03 0.  0.
         23    2    4    4    0    0  0.31764150011E+03 -0.10055409347E+03 -0.80090820970E+03  0.87213513754E+03  0.90324356999E+02 0.  0.
         23    2    4    4    0    0 -0.29032592964E+03  0.10638450148E+03  0.15269760398E+02  0.32354216686E+03  0.94018937305E+02 0.  0.
          4    1    3    3  502    0 -0.11391655913E+02 -0.10488957324E+02 -0.15214427361E+02  0.21708681446E+02  0.00000000000E+00 0. -1.
         -3    1    3    3    0  502 -0.15923914556E+02  0.46585493085E+01  0.91573681711E+02  0.93064559949E+02  0.00000000000E+00 0.  1.
         13    1    5    5    0    0  0.27570361355E+03 -0.57595550122E+02 -0.70250717602E+03  0.75686594736E+03  0.00000000000E+00 0.  1.
        -13    1    5    5    0    0  0.41937886565E+02 -0.42958543345E+02 -0.98401033680E+02  0.11526919018E+03  0.00000000000E+00 0. -1.
          3    1    6    6  503    0 -0.15786949383E+03  0.34140002174E+02 -0.33543362010E+02  0.16496506893E+03  0.00000000000E+00 0. -1.
         -3    1    6    6    0  503 -0.13245643581E+03  0.72244499308E+02  0.48813122408E+02  0.15857709793E+03  0.00000000000E+00 0.  1.
<mgrwt>
<rscale>  0 0.11019091E+04</rscale>
<asrwt>0</asrwt>
<pdfrwt beam="1">  1        2 0.15536383E+00 0.11019091E+04</pdfrwt>
<pdfrwt beam="2">  1       -1 0.46243950E-01 0.11019091E+04</pdfrwt>
<totfact> 0.13071605E+02</totfact>
</mgrwt>
</event>
<event>
12    7  0.1625631E-007  0.2263232E+04  0.7818608E-02  0.8492561E-01
          2   -1    0    0  501    0  0.00000000000E+00  0.00000000000E+00  0.84522808344E+03  0.84522808344E+03  0.00000000000E+00 0. -1.
         -1   -1    0    0    0  501 -0.00000000000E+00 -0.00000000000E+00 -0.15150403691E+04  0.15150403691E+04  0.00000000000E+00 0.  1.
         24    2    1    2    0    0 -0.62086833046E+03  0.64131805746E+03  0.62514628051E+02  0.89836221922E+03  0.79876552239E+02 0.  0.
        254    2    1    2    0    0  0.62086833046E+03 -0.64131805746E+03 -0.73232691373E+03  0.14619062333E+04  0.89671667315E+03 0.  0.
         23    2    4    4    0    0 -0.92055786648E+02 -0.45108764233E+03 -0.49320759345E+03  0.68082351583E+03  0.91173464040E+02 0.  0.
         23    2    4    4    0    0  0.71292411711E+03 -0.19023041513E+03 -0.23911932028E+03  0.78108271751E+03  0.91998666646E+02 0.  0.
          4    1    3    3  502    0 -0.53511027781E+03  0.52679627580E+03  0.29250235639E+02  0.75147381984E+03  0.00000000000E+00 0. -1.
         -3    1    3    3    0  502 -0.85758052650E+02  0.11452178166E+03  0.33264392412E+02  0.14688839938E+03  0.00000000000E+00 0.  1.
         13    1    5    5    0    0 -0.10676559395E+03 -0.43158182085E+03 -0.47268743577E+03  0.64891846335E+03  0.00000000000E+00 0.  1.
        -13    1    5    5    0    0  0.14709807298E+02 -0.19505821489E+02 -0.20520157678E+02  0.31905052482E+02  0.00000000000E+00 0. -1.
          1    1    6    6  503    0  0.16583208681E+03 -0.82590360621E+02 -0.44680095804E+02  0.19057219011E+03  0.00000000000E+00 0. -1.
         -1    1    6    6    0  503  0.54709203030E+03 -0.10764005451E+03 -0.19443922448E+03  0.59051052740E+03  0.00000000000E+00 0.  1.
<mgrwt>
<rscale>  0 0.22632319E+04</rscale>
<asrwt>0</asrwt>
<pdfrwt beam="1">  1        2 0.13003509E+00 0.22632319E+04</pdfrwt>
<pdfrwt beam="2">  1       -1 0.23308313E+00 0.22632319E+04</pdfrwt>
<totfact> 0.29875748E+00</totfact>
</mgrwt>
</event>
<event>
12    7  0.1625631E-007  0.1491152E+04  0.7818608E-02  0.8890358E-01
         -1   -1    0    0    0  501 -0.00000000000E+00  0.00000000000E+00  0.30718187963E+03  0.30718187963E+03  0.00000000000E+00 0.  1.
          2   -1    0    0  501    0  0.00000000000E+00 -0.00000000000E+00 -0.18096224440E+04  0.18096224440E+04  0.00000000000E+00 0. -1.
         24    2    1    2    0    0  0.30485801871E+03 -0.68294720820E+02 -0.95861657714E+03  0.10113929381E+04  0.79795694508E+02 0.  0.
        254    2    1    2    0    0 -0.30485801871E+03  0.68294720820E+02 -0.54382398720E+03  0.11054113855E+04  0.91026766481E+03 0.  0.
         23    2    4    4    0    0 -0.15372095335E+03  0.83273275163E+02  0.23478618800E+03  0.30680230917E+03  0.91861488022E+02 0.  0.
         23    2    4    4    0    0 -0.15113706536E+03 -0.14978554343E+02 -0.77861017520E+03  0.79860907629E+03  0.92064554436E+02 0.  0.
          4    1    3    3  502    0  0.25121661251E+03 -0.68512575335E+02 -0.86667538632E+03  0.90494750380E+03  0.00000000000E+00 0. -1.
         -3    1    3    3    0  502  0.53641406199E+02  0.21785451559E+00 -0.91941190814E+02  0.10644543432E+03  0.00000000000E+00 0.  1.
         13    1    5    5    0    0 -0.51488469799E+02  0.56057060165E+02  0.16019211416E+03  0.17735549035E+03  0.00000000000E+00 0. -1.
        -13    1    5    5    0    0 -0.10223248355E+03  0.27216214998E+02  0.74594073842E+02  0.12944681883E+03  0.00000000000E+00 0.  1.
          1    1    6    6  503    0 -0.31068554389E+01 -0.61160699384E+01 -0.93791627989E+00  0.69237669775E+01  0.00000000000E+00 0. -1.
         -1    1    6    6    0  503 -0.14803020992E+03 -0.88624844049E+01 -0.77767225892E+03  0.79168530931E+03  0.00000000000E+00 0.  1.
<mgrwt>
<rscale>  0 0.14911515E+04</rscale>
<asrwt>0</asrwt>
<pdfrwt beam="1">  1        2 0.27840345E+00 0.14911515E+04</pdfrwt>
<pdfrwt beam="2">  1       -1 0.47258751E-01 0.14911515E+04</pdfrwt>
<totfact> 0.41935473E+01</totfact>
</mgrwt>
</event>
<event>
12    7  0.1625631E-007  0.2320324E+04  0.7818608E-02  0.8469951E-01
         -1   -1    0    0    0  501 -0.00000000000E+00  0.00000000000E+00  0.26230650244E+04  0.26230650244E+04  0.00000000000E+00 0.  1.
          2   -1    0    0  501    0  0.00000000000E+00 -0.00000000000E+00 -0.51313085993E+03  0.51313085993E+03  0.00000000000E+00 0. -1.
         24    2    1    2    0    0  0.45396277315E+03 -0.29375773083E+02 -0.29584359174E+03  0.54858564043E+03  0.80483778873E+02 0.  0.
        254    2    1    2    0    0 -0.45396277315E+03  0.29375773083E+02  0.24057777562E+04  0.25876102439E+04  0.83726640125E+03 0.  0.
         23    2    4    4    0    0 -0.86486618283E+00  0.30696381164E+03  0.40829530914E+03  0.51867662653E+03  0.89960290106E+02 0.  0.
         23    2    4    4    0    0 -0.45309790697E+03 -0.27758803856E+03  0.19974824471E+04  0.20689336174E+04  0.90539241767E+02 0.  0.
          4    1    3    3  502    0  0.31594190037E+03 -0.13482233092E+02 -0.24719808193E+03  0.40138254413E+03  0.00000000000E+00 0. -1.
         -3    1    3    3    0  502  0.13802087278E+03 -0.15893539990E+02 -0.48645509803E+02  0.14720309630E+03  0.00000000000E+00 0.  1.
         13    1    5    5    0    0 -0.16987503596E+02  0.29357485278E+03  0.39923178654E+03  0.49584351246E+03  0.00000000000E+00 0. -1.
        -13    1    5    5    0    0  0.16122637413E+02  0.13388958859E+02  0.90635226049E+01  0.22833114078E+02  0.00000000000E+00 0.  1.
          3    1    6    6  503    0 -0.32658161169E+03 -0.18662936098E+03  0.15539377151E+04  0.15988147141E+04  0.00000000000E+00 0. -1.
         -3    1    6    6    0  503 -0.12651629528E+03 -0.90958677577E+02  0.44354473195E+03  0.47011890330E+03  0.00000000000E+00 0.  1.
<mgrwt>
<rscale>  0 0.23203238E+04</rscale>
<asrwt>0</asrwt>
<pdfrwt beam="1">  1        2 0.78943211E-01 0.23203238E+04</pdfrwt>
<pdfrwt beam="2">  1       -1 0.40354846E+00 0.23203238E+04</pdfrwt>
<totfact> 0.41781014E-01</totfact>
</mgrwt>
</event>
<event>
12    7  0.1625631E-007  0.1093369E+04  0.7818608E-02  0.9211679E-01
         -1   -1    0    0    0  501 -0.00000000000E+00  0.00000000000E+00  0.36726735820E+03  0.36726735820E+03  0.00000000000E+00 0.  1.
          2   -1    0    0  501    0  0.00000000000E+00 -0.00000000000E+00 -0.81375027399E+03  0.81375027399E+03  0.00000000000E+00 0. -1.
         24    2    1    2    0    0 -0.11823824805E+03 -0.85958070963E+02 -0.16008474528E+01  0.16675657769E+03  0.80225433778E+02 0.  0.
        254    2    1    2    0    0  0.11823824805E+03  0.85958070963E+02 -0.44488206834E+03  0.10142610545E+04  0.89968681145E+03 0.  0.
         23    2    4    4    0    0  0.83477521110E+02  0.36730205741E+03  0.92277014466E+02  0.39832111733E+03  0.90914064919E+02 0.  0.
         23    2    4    4    0    0  0.34760726938E+02 -0.28134398645E+03 -0.53715908281E+03  0.61593993718E+03  0.10236883864E+03 0.  0.
          4    1    3    3  502    0 -0.41979907788E+02 -0.29300166187E+02  0.38076510494E+02  0.63801512896E+02  0.00000000000E+00 0. -1.
         -3    1    3    3    0  502 -0.76258340260E+02 -0.56657904776E+02 -0.39677357947E+02  0.10295506479E+03  0.00000000000E+00 0.  1.
         13    1    5    5    0    0  0.35745688904E+02  0.83897858201E+02 -0.13272473840E+02  0.92156190502E+02  0.00000000000E+00 0. -1.
        -13    1    5    5    0    0  0.47731832205E+02  0.28340419921E+03  0.10554948831E+03  0.30616492683E+03  0.00000000000E+00 0.  1.
          1    1    6    6  503    0 -0.31769898749E+02 -0.58841078985E+02 -0.90637904364E+02  0.11263582356E+03  0.00000000000E+00 0. -1.
         -1    1    6    6    0  503  0.66530625687E+02 -0.22250290746E+03 -0.44652117844E+03  0.50330411362E+03  0.00000000000E+00 0.  1.
<mgrwt>
<rscale>  0 0.10933689E+04</rscale>
<asrwt>0</asrwt>
<pdfrwt beam="1">  1        2 0.12519235E+00 0.10933689E+04</pdfrwt>
<pdfrwt beam="2">  1       -1 0.56502672E-01 0.10933689E+04</pdfrwt>
<totfact> 0.12099991E+02</totfact>
</mgrwt>
</event>
<event>
12    7  0.1625631E-007  0.1671496E+04  0.7818608E-02  0.8777791E-01
          2   -1    0    0  501    0  0.00000000000E+00  0.00000000000E+00  0.14030224561E+04  0.14030224561E+04  0.00000000000E+00 0. -1.
         -1   -1    0    0    0  501 -0.00000000000E+00 -0.00000000000E+00 -0.49783550929E+03  0.49783550929E+03  0.00000000000E+00 0.  1.
         24    2    1    2    0    0  0.47599784151E+03 -0.27835842831E+02  0.72163415185E+03  0.86859460577E+03  0.79699189400E+02 0.  0.
        254    2    1    2    0    0 -0.47599784151E+03  0.27835842831E+02  0.18355279499E+03  0.10322633597E+04  0.89695442241E+03 0.  0.
         23    2    4    4    0    0 -0.60930105685E+03  0.28453382994E+03  0.24422332706E+03  0.72275254800E+03  0.10256185403E+03 0.  0.
         23    2    4    4    0    0  0.13330321534E+03 -0.25669798711E+03 -0.60670532069E+02  0.30951081166E+03  0.91937072323E+02 0.  0.
          4    1    3    3  502    0  0.26672651238E+03  0.22658819328E+02  0.41876353906E+03  0.49701041855E+03  0.00000000000E+00 0. -1.
         -3    1    3    3    0  502  0.20927132913E+03 -0.50494662159E+02  0.30287061279E+03  0.37158418722E+03  0.00000000000E+00 0.  1.
         13    1    5    5    0    0 -0.10745163152E+03  0.72800616047E+02  0.11069607682E+02  0.13026250047E+03  0.00000000000E+00 0. -1.
        -13    1    5    5    0    0 -0.50184942533E+03  0.21173321389E+03  0.23315371938E+03  0.59249004754E+03  0.00000000000E+00 0.  1.
          1    1    6    6  503    0  0.46479502938E+02 -0.10945831000E+03  0.19848922388E+02  0.12056303555E+03  0.00000000000E+00 0. -1.
         -1    1    6    6    0  503  0.86823712402E+02 -0.14723967711E+03 -0.80519454457E+02  0.18894777611E+03  0.00000000000E+00 0.  1.
<mgrwt>
<rscale>  0 0.16714956E+04</rscale>
<asrwt>0</asrwt>
<pdfrwt beam="1">  1        2 0.21584961E+00 0.16714956E+04</pdfrwt>
<pdfrwt beam="2">  1       -1 0.76590079E-01 0.16714956E+04</pdfrwt>
<totfact> 0.26801696E+01</totfact>
</mgrwt>
</event>
<event>
12    7  0.1625631E-007  0.1221625E+04  0.7818608E-02  0.9094136E-01
          2   -1    0    0  501    0  0.00000000000E+00  0.00000000000E+00  0.57911526458E+03  0.57911526458E+03  0.00000000000E+00 0. -1.
         -1   -1    0    0    0  501 -0.00000000000E+00 -0.00000000000E+00 -0.64424502380E+03  0.64424502380E+03  0.00000000000E+00 0.  1.
         24    2    1    2    0    0  0.25823949117E+03 -0.87254932127E+02  0.23314573908E+02  0.28419184036E+03  0.76943971759E+02 0.  0.
        254    2    1    2    0    0 -0.25823949117E+03  0.87254932127E+02 -0.88444333128E+02  0.93916844801E+03  0.89437906712E+03 0.  0.
         23    2    4    4    0    0  0.18953078912E+03 -0.80354159914E+02 -0.32719590366E+03  0.39748665636E+03  0.92519033545E+02 0.  0.
         23    2    4    4    0    0 -0.44777028029E+03  0.16760909204E+03  0.23875157054E+03  0.54168179165E+03  0.88463661079E+02 0.  0.
          2    1    3    3  502    0  0.24901844981E+03 -0.87674530009E+02  0.38124848149E+02  0.26674053986E+03  0.00000000000E+00 0. -1.
         -1    1    3    3    0  502  0.92210413670E+01  0.41959788189E+00 -0.14810274241E+02  0.17451300506E+02  0.00000000000E+00 0.  1.
         13    1    5    5    0    0  0.44693323797E+02 -0.66331528125E+02 -0.10818740503E+03  0.13454322511E+03  0.00000000000E+00 0.  1.
        -13    1    5    5    0    0  0.14483746532E+03 -0.14022631789E+02 -0.21900849863E+03  0.26294343125E+03  0.00000000000E+00 0. -1.
          4    1    6    6  503    0 -0.14279533795E+03  0.16119622109E+02  0.48824417674E+02  0.15177013711E+03  0.00000000000E+00 0. -1.
         -4    1    6    6    0  503 -0.30497494234E+03  0.15148946993E+03  0.18992715286E+03  0.38991165454E+03  0.00000000000E+00 0.  1.
<mgrwt>
<rscale>  0 0.12216254E+04</rscale>
<asrwt>0</asrwt>
<pdfrwt beam="1">  1        2 0.89094657E-01 0.12216254E+04</pdfrwt>
<pdfrwt beam="2">  1       -1 0.99114619E-01 0.12216254E+04</pdfrwt>
<totfact> 0.56736873E+01</totfact>
</mgrwt>
</event>
<event>
12    7  0.1703152E-007  0.2121664E+04  0.7818608E-02  0.8551760E-01
         -1   -1    0    0    0  501 -0.00000000000E+00  0.00000000000E+00  0.39361509061E+03  0.39361509061E+03  0.00000000000E+00 0.  1.
          2   -1    0    0  501    0  0.00000000000E+00 -0.00000000000E+00 -0.28590471602E+04  0.28590471602E+04  0.00000000000E+00 0. -1.
         24    2    1    2    0    0  0.67615988884E+03  0.10993955875E+03 -0.19349000759E+03  0.71657684430E+03  0.82250160449E+02 0.  0.
        254    2    1    2    0    0 -0.67615988884E+03 -0.10993955875E+03 -0.22719420620E+04  0.25360854065E+04  0.89483493126E+03 0.  0.
         23    2    4    4    0    0 -0.15046034306E+03  0.27365764714E+03 -0.14379628858E+04  0.14742976502E+04  0.91046569590E+02 0.  0.
         23    2    4    4    0    0 -0.52569954579E+03 -0.38359720589E+03 -0.83397917620E+03  0.10617877563E+04  0.91461162687E+02 0.  0.
          4    1    3    3  502    0  0.22238764920E+01  0.74961766274E+01 -0.51386302069E+01  0.93564849748E+01  0.00000000000E+00 0. -1.
         -3    1    3    3    0  502  0.67393601235E+03  0.10244338212E+03 -0.18835137738E+03  0.70722035933E+03  0.00000000000E+00 0.  1.
         13    1    5    5    0    0 -0.45190196088E+02  0.17729518663E+02 -0.22014138768E+03  0.22543007835E+03  0.00000000000E+00 0. -1.
        -13    1    5    5    0    0 -0.10527014697E+03  0.25592812848E+03 -0.12178214981E+04  0.12488675719E+04  0.00000000000E+00 0.  1.
          1    1    6    6  503    0 -0.13692163680E+02 -0.34476430258E+02 -0.55720016141E+02  0.66938925807E+02  0.00000000000E+00 0. -1.
         -1    1    6    6    0  503 -0.51200738211E+03 -0.34912077563E+03 -0.77825916006E+03  0.99484883049E+03  0.00000000000E+00 0.  1.
<mgrwt>
<rscale>  0 0.21216636E+04</rscale>
<asrwt>0</asrwt>
<pdfrwt beam="1">  1        2 0.43985341E+00 0.21216636E+04</pdfrwt>
<pdfrwt beam="2">  1       -1 0.60556167E-01 0.21216636E+04</pdfrwt>
<totfact> 0.61701683E+00</totfact>
</mgrwt>
</event>
<event>
12    7  0.1625631E-007  0.1492636E+04  0.7818608E-02  0.8889365E-01
          2   -1    0    0  501    0  0.00000000000E+00  0.00000000000E+00  0.86203030607E+03  0.86203030607E+03  0.00000000000E+00 0. -1.
         -3   -1    0    0    0  501 -0.00000000000E+00 -0.00000000000E+00 -0.64613807362E+03  0.64613807362E+03  0.00000000000E+00 0.  1.
         24    2    1    2    0    0 -0.10325830476E+03 -0.19826797428E+03  0.48672886086E+03  0.54183816390E+03  0.81921576782E+02 0.  0.
        254    2    1    2    0    0  0.10325830476E+03  0.19826797428E+03 -0.27083662841E+03  0.96633021579E+03  0.90026059535E+03 0.  0.
         23    2    4    4    0    0  0.25777363119E+03 -0.21321728607E+03 -0.36922475676E+03  0.50657668520E+03  0.91565064150E+02 0.  0.
         23    2    4    4    0    0 -0.15451532642E+03  0.41148526035E+03  0.98388128352E+02  0.45975353059E+03  0.92184486265E+02 0.  0.
          2    1    3    3  502    0 -0.96399144802E+02 -0.19706888698E+03  0.48773457658E+03  0.53480272860E+03  0.00000000000E+00 0. -1.
         -1    1    3    3    0  502 -0.68591599631E+01 -0.11990872980E+01 -0.10057157180E+01  0.70354352995E+01  0.00000000000E+00 0.  1.
         13    1    5    5    0    0  0.10644465673E+03 -0.84771087240E+02 -0.86890855514E+02  0.16145161179E+03  0.00000000000E+00 0.  1.
        -13    1    5    5    0    0  0.15132897445E+03 -0.12844619883E+03 -0.28233390125E+03  0.34512507341E+03  0.00000000000E+00 0. -1.
          4    1    6    6  503    0 -0.76509838687E+01  0.40356743463E+02  0.38231568922E+02  0.56114678644E+02  0.00000000000E+00 0. -1.
         -4    1    6    6    0  503 -0.14686434255E+03  0.37112851688E+03  0.60156559429E+02  0.40363885195E+03  0.00000000000E+00 0.  1.
<mgrwt>
<rscale>  0 0.14926361E+04</rscale>
<asrwt>0</asrwt>
<pdfrwt beam="1">  1        2 0.13262005E+00 0.14926361E+04</pdfrwt>
<pdfrwt beam="2">  1       -3 0.99405858E-01 0.14926361E+04</pdfrwt>
<totfact> 0.16883724E+01</totfact>
</mgrwt>
</event>
<event>
12    7  0.1625631E-007  0.2064436E+04  0.7818608E-02  0.8577074E-01
          2   -1    0    0  501    0  0.00000000000E+00  0.00000000000E+00  0.22359647824E+04  0.22359647824E+04  0.00000000000E+00 0. -1.
         -1   -1    0    0    0  501 -0.00000000000E+00 -0.00000000000E+00 -0.47651633349E+03  0.47651633349E+03  0.00000000000E+00 0.  1.
         24    2    1    2    0    0  0.56079081485E+03 -0.54072277746E+03  0.99815407716E+03  0.12686600591E+04  0.79494173736E+02 0.  0.
        254    2    1    2    0    0 -0.56079081485E+03  0.54072277746E+03  0.76129437177E+03  0.14438210568E+04  0.94772499365E+03 0.  0.
         23    2    4    4    0    0  0.24984614412E+03  0.23465936911E+03  0.24393552488E+03  0.43049530844E+03  0.91288307306E+02 0.  0.
         23    2    4    4    0    0 -0.81063695897E+03  0.30606340835E+03  0.51735884689E+03  0.10133257484E+04  0.91442915177E+02 0.  0.
          4    1    3    3  502    0  0.52121082926E+03 -0.47384055279E+03  0.91665854324E+03  0.11560486508E+04  0.00000000000E+00 0. -1.
         -3    1    3    3    0  502  0.39579985590E+02 -0.66882224671E+02  0.81495533922E+02  0.11261140833E+03  0.00000000000E+00 0.  1.
         13    1    5    5    0    0  0.22889706965E+03  0.24012374724E+03  0.23720626088E+03  0.40782360486E+03  0.00000000000E+00 0. -1.
        -13    1    5    5    0    0  0.20949074465E+02 -0.54643781253E+01  0.67292639990E+01  0.22671703580E+02  0.00000000000E+00 0.  1.
          2    1    6    6  503    0 -0.64134583596E+03  0.27960341074E+03  0.40468871990E+03  0.80825460630E+03  0.00000000000E+00 0. -1.
         -2    1    6    6    0  503 -0.16929112301E+03  0.26459997608E+02  0.11267012699E+03  0.20507114209E+03  0.00000000000E+00 0.  1.
<mgrwt>
<rscale>  0 0.20644357E+04</rscale>
<asrwt>0</asrwt>
<pdfrwt beam="1">  1        2 0.34399457E+00 0.20644357E+04</pdfrwt>
<pdfrwt beam="2">  1       -1 0.73310207E-01 0.20644357E+04</pdfrwt>
<totfact> 0.97220304E+00</totfact>
</mgrwt>
</event>
<event>
12    7  0.1625631E-007  0.2239974E+04  0.7818608E-02  0.8501972E-01
         -1   -1    0    0    0  501 -0.00000000000E+00  0.00000000000E+00  0.74990854426E+03  0.74990854426E+03  0.00000000000E+00 0.  1.
          2   -1    0    0  501    0  0.00000000000E+00 -0.00000000000E+00 -0.16726991251E+04  0.16726991251E+04  0.00000000000E+00 0. -1.
         24    2    1    2    0    0  0.62585374047E+03  0.59211478248E+03  0.17342746075E+02  0.86550938150E+03  0.80702531119E+02 0.  0.
        254    2    1    2    0    0 -0.62585374047E+03 -0.59211478248E+03 -0.94013332687E+03  0.15570982878E+04  0.89353879910E+03 0.  0.
         23    2    4    4    0    0 -0.34203144984E+03  0.51018498197E+02 -0.73787782282E+03  0.81997678432E+03  0.91158354419E+02 0.  0.
         23    2    4    4    0    0 -0.28382229063E+03 -0.64313328068E+03 -0.20225550405E+03  0.73712150348E+03  0.90913764653E+02 0.  0.
          2    1    3    3  502    0  0.16822402474E+03  0.12621646831E+03  0.29303220872E+02  0.21234075945E+03  0.00000000000E+00 0. -1.
         -1    1    3    3    0  502  0.45762971573E+03  0.46589831417E+03 -0.11960474797E+02  0.65316862205E+03  0.00000000000E+00 0.  1.
         13    1    5    5    0    0 -0.17443222837E+03  0.55263985729E+02 -0.30380185761E+03  0.35464951586E+03  0.00000000000E+00 0.  1.
        -13    1    5    5    0    0 -0.16759922147E+03 -0.42454875319E+01 -0.43407596520E+03  0.46532726846E+03  0.00000000000E+00 0. -1.
          1    1    6    6  503    0 -0.16642229055E+03 -0.47642001761E+03 -0.15335951233E+03  0.52743867131E+03  0.00000000000E+00 0. -1.
         -1    1    6    6    0  503 -0.11740000008E+03 -0.16671326307E+03 -0.48895991725E+02  0.20968283217E+03  0.00000000000E+00 0.  1.
<mgrwt>
<rscale>  0 0.22399744E+04</rscale>
<asrwt>0</asrwt>
<pdfrwt beam="1">  1        2 0.25733832E+00 0.22399744E+04</pdfrwt>
<pdfrwt beam="2">  1       -1 0.11537055E+00 0.22399744E+04</pdfrwt>
<totfact> 0.71770406E+00</totfact>
</mgrwt>
</event>
<event>
12    7  0.1625631E-007  0.1878688E+04  0.7818608E-02  0.8665538E-01
          2   -1    0    0  501    0  0.00000000000E+00  0.00000000000E+00  0.29401079982E+04  0.29401079982E+04  0.00000000000E+00 0. -1.
         -1   -1    0    0    0  501 -0.00000000000E+00 -0.00000000000E+00 -0.30011375866E+03  0.30011375866E+03  0.00000000000E+00 0.  1.
         24    2    1    2    0    0 -0.29256143486E+02  0.47139539898E+03  0.19701601578E+04  0.20278270003E+04  0.86497120348E+02 0.  0.
        254    2    1    2    0    0  0.29256143486E+02 -0.47139539898E+03  0.66983408171E+03  0.12123947565E+04  0.89339454018E+03 0.  0.
         23    2    4    4    0    0  0.24461525840E+02 -0.50611121706E+02 -0.20827777714E+03  0.23394375674E+03  0.90499707081E+02 0.  0.
         23    2    4    4    0    0  0.47946176459E+01 -0.42078427727E+03  0.87811185885E+03  0.97845099975E+03  0.95935008725E+02 0.  0.
          4    1    3    3  502    0  0.25017897260E+02  0.26948902464E+03  0.10684485945E+04  0.11021944604E+04  0.00000000000E+00 0. -1.
         -3    1    3    3    0  502 -0.54274040746E+02  0.20190637434E+03  0.90171156332E+03  0.92563253990E+03  0.00000000000E+00 0.  1.
         13    1    5    5    0    0 -0.23605719909E+02  0.34959918258E+01 -0.10597534298E+03  0.10862884189E+03  0.00000000000E+00 0.  1.
        -13    1    5    5    0    0  0.48067245749E+02 -0.54107113532E+02 -0.10230243416E+03  0.12531491485E+03  0.00000000000E+00 0. -1.
          4    1    6    6  503    0 -0.27497131202E+02 -0.49308460287E+02  0.15298706703E+03  0.16307194473E+03  0.00000000000E+00 0. -1.
         -4    1    6    6    0  503  0.32291748848E+02 -0.37147581698E+03  0.72512479182E+03  0.81537905502E+03  0.00000000000E+00 0.  1.
<mgrwt>
<rscale>  0 0.18786877E+04</rscale>
<asrwt>0</asrwt>
<pdfrwt beam="1">  1        2 0.45232429E+00 0.18786877E+04</pdfrwt>
<pdfrwt beam="2">  1       -1 0.46171350E-01 0.18786877E+04</pdfrwt>
<totfact> 0.94854949E+00</totfact>
</mgrwt>
</event>
<event>
12    7  0.1625631E-007  0.1438741E+04  0.7818608E-02  0.8926243E-01
         -1   -1    0    0    0  501 -0.00000000000E+00  0.00000000000E+00  0.34539337237E+03  0.34539337237E+03  0.00000000000E+00 0.  1.
          2   -1    0    0  501    0  0.00000000000E+00 -0.00000000000E+00 -0.14982742040E+04  0.14982742040E+04  0.00000000000E+00 0. -1.
         24    2    1    2    0    0  0.16913542571E+03 -0.25309303024E+03  0.22236465933E+02  0.31520914895E+03  0.78736732085E+02 0.  0.
        254    2    1    2    0    0 -0.16913542571E+03  0.25309303024E+03 -0.11751172976E+04  0.15284584274E+04  0.92877426059E+03 0.  0.
         23    2    4    4    0    0 -0.15539869876E+03  0.54104680777E+03 -0.40026330821E+03  0.69672855884E+03  0.91321218958E+02 0.  0.
         23    2    4    4    0    0 -0.13736726943E+02 -0.28795377753E+03 -0.77485398936E+03  0.83172986859E+03  0.90938406714E+02 0.  0.
          2    1    3    3  502    0  0.84313081276E+02 -0.61347986652E+02 -0.84614619376E+00  0.10427361653E+03  0.00000000000E+00 0. -1.
         -1    1    3    3    0  502  0.84822344429E+02 -0.19174504359E+03  0.23082612126E+02  0.21093553242E+03  0.00000000000E+00 0.  1.
         13    1    5    5    0    0 -0.67677977972E+01  0.47270444819E+01 -0.22840984010E+02  0.24287004490E+02  0.00000000000E+00 0. -1.
        -13    1    5    5    0    0 -0.14863090097E+03  0.53631976328E+03 -0.37742232420E+03  0.67244155435E+03  0.00000000000E+00 0.  1.
          1    1    6    6  503    0 -0.51764274369E+02 -0.13543746194E+03 -0.38281972999E+03  0.40935777978E+03  0.00000000000E+00 0. -1.
         -1    1    6    6    0  503  0.38027547426E+02 -0.15251631559E+03 -0.39203425937E+03  0.42237208881E+03  0.00000000000E+00 0.  1.
<mgrwt>
<rscale>  0 0.14387411E+04</rscale>
<asrwt>0</asrwt>
<pdfrwt beam="1">  1        2 0.23050373E+00 0.14387411E+04</pdfrwt>
<pdfrwt beam="2">  1       -1 0.53137441E-01 0.14387411E+04</pdfrwt>
<totfact> 0.50249730E+01</totfact>
</mgrwt>
</event>
<event>
12    7  0.1733649E-007  0.1636954E+04  0.7818608E-02  0.8798162E-01
         -1   -1    0    0    0  501 -0.00000000000E+00  0.00000000000E+00  0.31261168022E+03  0.31261168022E+03  0.00000000000E+00 0.  1.
          2   -1    0    0  501    0  0.00000000000E+00 -0.00000000000E+00 -0.21429296639E+04  0.21429296639E+04  0.00000000000E+00 0. -1.
         24    2    1    2    0    0 -0.23377336016E+03 -0.49851744390E+03 -0.44377547342E+03  0.71165010045E+03  0.79621409628E+02 0.  0.
        254    2    1    2    0    0  0.23377336016E+03  0.49851744390E+03 -0.13865425102E+04  0.17438912436E+04  0.90304313917E+03 0.  0.
         23    2    4    4    0    0 -0.12465228206E+03  0.61230446843E+03 -0.61774224761E+03  0.88338756460E+03  0.91176484523E+02 0.  0.
         23    2    4    4    0    0  0.35842564222E+03 -0.11378702453E+03 -0.76880026262E+03  0.86050367904E+03  0.89422088417E+02 0.  0.
          2    1    3    3  502    0 -0.11451552081E+01  0.29931338282E+01 -0.45787287156E+01  0.55888269982E+01  0.00000000000E+00 0. -1.
         -1    1    3    3    0  502 -0.23262820495E+03 -0.50151057773E+03 -0.43919674470E+03  0.70606127345E+03  0.00000000000E+00 0.  1.
         13    1    5    5    0    0 -0.23763245559E+02  0.26369703443E+02 -0.22242976352E+02  0.41890369969E+02  0.00000000000E+00 0. -1.
        -13    1    5    5    0    0 -0.10088903650E+03  0.58593476498E+03 -0.59549927126E+03  0.84149719463E+03  0.00000000000E+00 0.  1.
          1    1    6    6  503    0  0.64968751562E+02  0.13368742836E+02 -0.11800802916E+03  0.13537192069E+03  0.00000000000E+00 0. -1.
         -1    1    6    6    0  503  0.29345689066E+03 -0.12715576736E+03 -0.65079223346E+03  0.72513175836E+03  0.00000000000E+00 0.  1.
<mgrwt>
<rscale>  0 0.16369543E+04</rscale>
<asrwt>0</asrwt>
<pdfrwt beam="1">  1        2 0.32968149E+00 0.16369543E+04</pdfrwt>
<pdfrwt beam="2">  1       -1 0.48094104E-01 0.16369543E+04</pdfrwt>
<totfact> 0.26177825E+01</totfact>
</mgrwt>
</event>
<event>
12    7  0.1625631E-007  0.2020927E+04  0.7818608E-02  0.8596898E-01
          2   -1    0    0  501    0  0.00000000000E+00  0.00000000000E+00  0.17344412281E+04  0.17344412281E+04  0.00000000000E+00 0. -1.
         -1   -1    0    0    0  501 -0.00000000000E+00 -0.00000000000E+00 -0.58868349486E+03  0.58868349486E+03  0.00000000000E+00 0.  1.
         24    2    1    2    0    0 -0.67679563699E+03 -0.10098617244E+03 -0.18933837721E+02  0.68921202241E+03  0.80026122946E+02 0.  0.
        254    2    1    2    0    0  0.67679563699E+03  0.10098617244E+03  0.11646915710E+04  0.16339127006E+04  0.91919188220E+03 0.  0.
         23    2    4    4    0    0  0.14689241669E+03 -0.38054328484E+03  0.51203389930E+03  0.66086970022E+03  0.90440438511E+02 0.  0.
         23    2    4    4    0    0  0.52990322029E+03  0.48152945728E+03  0.65265767166E+03  0.97304300033E+03  0.90457741585E+02 0.  0.
          2    1    3    3  502    0 -0.13857303527E+03 -0.40335261208E+02  0.22207758174E+02  0.14602261442E+03  0.00000000000E+00 0. -1.
         -1    1    3    3    0  502 -0.53822260172E+03 -0.60650911228E+02 -0.41141595895E+02  0.54318940799E+03  0.00000000000E+00 0.  1.
         13    1    5    5    0    0  0.40292300169E+02 -0.22902737762E+03  0.28241899514E+03  0.36583807616E+03  0.00000000000E+00 0. -1.
        -13    1    5    5    0    0  0.10660011652E+03 -0.15151590723E+03  0.22961490416E+03  0.29503162406E+03  0.00000000000E+00 0.  1.
          3    1    6    6  503    0  0.43838748725E+03  0.42531709439E+03  0.51856576076E+03  0.80124195346E+03  0.00000000000E+00 0. -1.
         -3    1    6    6    0  503  0.91515733047E+02  0.56212362887E+02  0.13409191090E+03  0.17180104687E+03  0.00000000000E+00 0.  1.
<mgrwt>
<rscale>  0 0.20209274E+04</rscale>
<asrwt>0</asrwt>
<pdfrwt beam="1">  1        2 0.26683711E+00 0.20209274E+04</pdfrwt>
<pdfrwt beam="2">  1       -1 0.90566692E-01 0.20209274E+04</pdfrwt>
<totfact> 0.11807352E+01</totfact>
</mgrwt>
</event>
<event>
12    7  0.1625631E-007  0.1465864E+04  0.7818608E-02  0.8907476E-01
          2   -1    0    0  501    0  0.00000000000E+00  0.00000000000E+00  0.97692189467E+03  0.97692189467E+03  0.00000000000E+00 0. -1.
         -1   -1    0    0    0  501 -0.00000000000E+00 -0.00000000000E+00 -0.54987951405E+03  0.54987951405E+03  0.00000000000E+00 0.  1.
         24    2    1    2    0    0  0.29937754948E+03  0.32251912503E+03  0.19291761266E+03  0.48712561303E+03  0.80178890302E+02 0.  0.
        254    2    1    2    0    0 -0.29937754948E+03 -0.32251912503E+03  0.23412476796E+03  0.10396757957E+04  0.91239566528E+03 0.  0.
         23    2    4    4    0    0  0.30997339511E+02 -0.57733792017E+03  0.14037392647E+03  0.60190580498E+03  0.91136434624E+02 0.  0.
         23    2    4    4    0    0 -0.33037488899E+03  0.25481879514E+03  0.93750841494E+02  0.43776999071E+03  0.93665142136E+02 0.  0.
          2    1    3    3  502    0  0.22202245209E+03  0.19028516987E+03  0.10626066516E+03  0.31111692989E+03  0.00000000000E+00 0. -1.
         -1    1    3    3    0  502  0.77355097391E+02  0.13223395516E+03  0.86656947501E+02  0.17600868314E+03  0.00000000000E+00 0.  1.
         13    1    5    5    0    0  0.52115481443E+02 -0.53868894130E+03  0.12748613084E+03  0.55601664763E+03  0.00000000000E+00 0.  1.
        -13    1    5    5    0    0 -0.21118141931E+02 -0.38648978868E+02  0.12887795631E+02  0.45889157351E+02  0.00000000000E+00 0. -1.
          4    1    6    6  503    0 -0.67266798498E+02  0.68031491488E+02  0.60951663859E+02  0.11343813883E+03  0.00000000000E+00 0. -1.
         -4    1    6    6    0  503 -0.26310809050E+03  0.18678730365E+03  0.32799177635E+02  0.32433185188E+03  0.00000000000E+00 0.  1.
<mgrwt>
<rscale>  0 0.14658640E+04</rscale>
<asrwt>0</asrwt>
<pdfrwt beam="1">  1        2 0.15029568E+00 0.14658640E+04</pdfrwt>
<pdfrwt beam="2">  1       -1 0.84596848E-01 0.14658640E+04</pdfrwt>
<totfact> 0.39866986E+01</totfact>
</mgrwt>
</event>
<event>
12    7  0.1625631E-007  0.2602684E+04  0.7818608E-02  0.8367290E-01
          2   -1    0    0  501    0  0.00000000000E+00  0.00000000000E+00  0.24662680571E+04  0.24662680571E+04  0.00000000000E+00 0. -1.
         -1   -1    0    0    0  501 -0.00000000000E+00 -0.00000000000E+00 -0.68666159551E+03  0.68666159551E+03  0.00000000000E+00 0.  1.
         24    2    1    2    0    0  0.58598390767E+03  0.48302018962E+03 -0.24899469536E+03  0.80324189143E+03  0.80706469445E+02 0.  0.
        254    2    1    2    0    0 -0.58598390767E+03 -0.48302018962E+03  0.20286011570E+04  0.23496877612E+04  0.91056261589E+03 0.  0.
         23    2    4    4    0    0 -0.10488415769E+03  0.26031612643E+03  0.46953550849E+03  0.55458193365E+03  0.91281735242E+02 0.  0.
         23    2    4    4    0    0 -0.48109974998E+03 -0.74333631604E+03  0.15590656485E+04  0.17951058275E+04  0.87825893939E+02 0.  0.
          4    1    3    3  502    0  0.13191475523E+03  0.74701783283E+02 -0.30238408377E+02  0.15458402380E+03  0.00000000000E+00 0. -1.
         -3    1    3    3    0  502  0.45406915244E+03  0.40831840633E+03 -0.21875628698E+03  0.64865786764E+03  0.00000000000E+00 0.  1.
         13    1    5    5    0    0 -0.10156981808E+03  0.23528423550E+03  0.35829428849E+03  0.44051094945E+03  0.00000000000E+00 0.  1.
        -13    1    5    5    0    0 -0.33143396085E+01  0.25031890929E+02  0.11124121999E+03  0.11407098420E+03  0.00000000000E+00 0. -1.
          3    1    6    6  503    0 -0.25311744511E+03 -0.31448751975E+03  0.68069769586E+03  0.79140393874E+03  0.00000000000E+00 0. -1.
         -3    1    6    6    0  503 -0.22798230488E+03 -0.42884879629E+03  0.87836795261E+03  0.10037018888E+04  0.00000000000E+00 0.  1.
<mgrwt>
<rscale>  0 0.26026844E+04</rscale>
<asrwt>0</asrwt>
<pdfrwt beam="1">  1        2 0.37942585E+00 0.26026844E+04</pdfrwt>
<pdfrwt beam="2">  1       -1 0.10564025E+00 0.26026844E+04</pdfrwt>
<totfact> 0.30730317E+00</totfact>
</mgrwt>
</event>
<event>
12    7  0.1625631E-007  0.3042564E+04  0.7818608E-02  0.8231680E-01
          2   -1    0    0  501    0  0.00000000000E+00  0.00000000000E+00  0.30532786541E+04  0.30532786541E+04  0.00000000000E+00 0. -1.
         -1   -1    0    0    0  501 -0.00000000000E+00 -0.00000000000E+00 -0.75797152625E+03  0.75797152625E+03  0.00000000000E+00 0.  1.
         24    2    1    2    0    0  0.10943973276E+04 -0.51746215373E+03  0.18841718842E+04  0.22409889595E+04  0.80344484901E+02 0.  0.
        254    2    1    2    0    0 -0.10943973276E+04  0.51746215373E+03  0.41113524363E+03  0.15702612208E+04  0.91171021824E+03 0.  0.
         23    2    4    4    0    0 -0.71618767679E+03  0.79603067828E+01 -0.12719110231E+03  0.73309997859E+03  0.90938700348E+02 0.  0.
         23    2    4    4    0    0 -0.37820965076E+03  0.50950184695E+03  0.53832634594E+03  0.83716124226E+03  0.91700702499E+02 0.  0.
          4    1    3    3  502    0  0.77113586713E+03 -0.40416351072E+03  0.13422851239E+04  0.15999150049E+04  0.00000000000E+00 0. -1.
         -3    1    3    3    0  502  0.32326146042E+03 -0.11329864301E+03  0.54188676030E+03  0.64107395462E+03  0.00000000000E+00 0.  1.
         13    1    5    5    0    0 -0.37843559972E+03  0.97948862709E+01 -0.21416540511E+02  0.37916765571E+03  0.00000000000E+00 0. -1.
        -13    1    5    5    0    0 -0.33775207708E+03 -0.18345794881E+01 -0.10577456180E+03  0.35393232287E+03  0.00000000000E+00 0.  1.
          3    1    6    6  503    0 -0.22189297594E+03  0.35642520562E+03  0.31825865592E+03  0.52684342270E+03  0.00000000000E+00 0. -1.
         -3    1    6    6    0  503 -0.15631667482E+03  0.15307664133E+03  0.22006769002E+03  0.31031781956E+03  0.00000000000E+00 0.  1.
<mgrwt>
<rscale>  0 0.30425636E+04</rscale>
<asrwt>0</asrwt>
<pdfrwt beam="1">  1        2 0.46973517E+00 0.30425636E+04</pdfrwt>
<pdfrwt beam="2">  1       -1 0.11661101E+00 0.30425636E+04</pdfrwt>
<totfact> 0.10359839E+00</totfact>
</mgrwt>
</event>
<event>
12    7  0.1625631E-007  0.1216352E+04  0.7818608E-02  0.9098663E-01
         -1   -1    0    0    0  501 -0.00000000000E+00  0.00000000000E+00  0.28617636823E+03  0.28617636823E+03  0.00000000000E+00 0.  1.
          2   -1    0    0  501    0  0.00000000000E+00 -0.00000000000E+00 -0.12924824509E+04  0.12924824509E+04  0.00000000000E+00 0. -1.
         24    2    1    2    0    0  0.13596765540E+03  0.10679415353E+03 -0.48897170642E+03  0.52495800711E+03  0.81211975727E+02 0.  0.
        254    2    1    2    0    0 -0.13596765540E+03 -0.10679415353E+03 -0.51733437629E+03  0.10537008121E+04  0.90153111423E+03 0.  0.
         23    2    4    4    0    0 -0.12460727461E+03 -0.38079778343E+03  0.52682324657E+02  0.41403586741E+03  0.90090773221E+02 0.  0.
         23    2    4    4    0    0 -0.11360380790E+02  0.27400362990E+03 -0.57001670095E+03  0.63966494466E+03  0.95106017815E+02 0.  0.
          4    1    3    3  502    0  0.13406925757E+03  0.10557587222E+03 -0.38690968230E+03  0.42287105940E+03  0.00000000000E+00 0. -1.
         -3    1    3    3    0  502  0.18983978253E+01  0.12182813022E+01 -0.10206202412E+03  0.10208694771E+03  0.00000000000E+00 0.  1.
         13    1    5    5    0    0 -0.10750333108E+02 -0.73409376385E+02  0.43720506826E+02  0.86116136236E+02  0.00000000000E+00 0.  1.
        -13    1    5    5    0    0 -0.11385694150E+03 -0.30738840704E+03  0.89618178310E+01  0.32791973117E+03  0.00000000000E+00 0. -1.
          3    1    6    6  503    0  0.22251859246E+01  0.25422582759E+03 -0.44621687918E+03  0.51356131682E+03  0.00000000000E+00 0. -1.
         -3    1    6    6    0  503 -0.13585566714E+02  0.19777802314E+02 -0.12379982176E+03  0.12610362785E+03  0.00000000000E+00 0.  1.
<mgrwt>
<rscale>  0 0.12163518E+04</rscale>
<asrwt>0</asrwt>
<pdfrwt beam="1">  1        2 0.19884346E+00 0.12163518E+04</pdfrwt>
<pdfrwt beam="2">  1       -1 0.44027132E-01 0.12163518E+04</pdfrwt>
<totfact> 0.95666028E+01</totfact>
</mgrwt>
</event>
<event>
12    7  0.1625631E-007  0.3425053E+04  0.7818608E-02  0.8131785E-01
         -1   -1    0    0    0  501 -0.00000000000E+00  0.00000000000E+00  0.13523612608E+04  0.13523612608E+04  0.00000000000E+00 0.  1.
          2   -1    0    0  501    0  0.00000000000E+00 -0.00000000000E+00 -0.21686116998E+04  0.21686116998E+04  0.00000000000E+00 0. -1.
         24    2    1    2    0    0  0.46904192659E+03  0.14993203241E+04 -0.10485263856E+03  0.15764987947E+04  0.79953803697E+02 0.  0.
        254    2    1    2    0    0 -0.46904192659E+03 -0.14993203241E+04 -0.71139780043E+03  0.19444741659E+04  0.89829348683E+03 0.  0.
         23    2    4    4    0    0  0.11428701083E+02 -0.40582992702E+03 -0.61543341839E+03  0.74363989315E+03  0.97022952620E+02 0.  0.
         23    2    4    4    0    0 -0.48047062767E+03 -0.10934903970E+04 -0.95964382043E+02  0.12008342728E+04  0.78870245347E+02 0.  0.
          2    1    3    3  502    0  0.20528731783E+03  0.56614879601E+03 -0.12057238170E+02  0.60233937201E+03  0.00000000000E+00 0. -1.
         -3    1    3    3    0  502  0.26375460876E+03  0.93317152806E+03 -0.92795400388E+02  0.97415942266E+03  0.00000000000E+00 0.  1.
         13    1    5    5    0    0 -0.31300090974E+02 -0.50616429258E+02 -0.94567313628E+02  0.11173493372E+03  0.00000000000E+00 0. -1.
        -13    1    5    5    0    0  0.42728792057E+02 -0.35521349776E+03 -0.52086610476E+03  0.63190495943E+03  0.00000000000E+00 0.  1.
          1    1    6    6  503    0 -0.34365462486E+02 -0.13884676452E+03 -0.19016928501E+02  0.14429501932E+03  0.00000000000E+00 0. -1.
         -1    1    6    6    0  503 -0.44610516519E+03 -0.95464363253E+03 -0.76947453541E+02  0.10565392535E+04  0.00000000000E+00 0.  1.
<mgrwt>
<rscale>  0 0.34250527E+04</rscale>
<asrwt>0</asrwt>
<pdfrwt beam="1">  1        2 0.33363257E+00 0.34250527E+04</pdfrwt>
<pdfrwt beam="2">  1       -1 0.20805558E+00 0.34250527E+04</pdfrwt>
<totfact> 0.67005800E-01</totfact>
</mgrwt>
</event>
<event>
12    7  0.1625631E-007  0.2481449E+04  0.7818608E-02  0.8409625E-01
         -1   -1    0    0    0  501 -0.00000000000E+00  0.00000000000E+00  0.68038989607E+03  0.68038989607E+03  0.00000000000E+00 0.  1.
          2   -1    0    0  501    0  0.00000000000E+00 -0.00000000000E+00 -0.22625213899E+04  0.22625213899E+04  0.00000000000E+00 0. -1.
         24    2    1    2    0    0 -0.16988061696E+03  0.10173644911E+04 -0.10577301312E+04  0.14795412022E+04  0.79744633476E+02 0.  0.
        254    2    1    2    0    0  0.16988061696E+03 -0.10173644911E+04 -0.52440136263E+03  0.14633700838E+04  0.89586007907E+03 0.  0.
         23    2    4    4    0    0  0.77465671414E+02 -0.11126956507E+04 -0.61663532502E+03  0.12778525227E+04  0.92603480463E+02 0.  0.
         23    2    4    4    0    0  0.92414945551E+02  0.95331159528E+02  0.92233962390E+02  0.18551756107E+03  0.91000601702E+02 0.  0.
          4    1    3    3  502    0 -0.17033868842E+03  0.97935063727E+03 -0.10359161690E+04  0.14357107121E+04  0.00000000000E+00 0. -1.
         -3    1    3    3    0  502  0.45807145883E+00  0.38013853858E+02 -0.21813962167E+02  0.43830490072E+02  0.00000000000E+00 0.  1.
         13    1    5    5    0    0  0.19514187546E+02 -0.79047034806E+03 -0.46183733338E+03  0.91570622864E+03  0.00000000000E+00 0. -1.
        -13    1    5    5    0    0  0.57951483868E+02 -0.32222530260E+03 -0.15479799164E+03  0.36214629411E+03  0.00000000000E+00 0.  1.
          3    1    6    6  503    0  0.89923684621E+02  0.46184827448E+02  0.91426430390E+02  0.13630150225E+03  0.00000000000E+00 0. -1.
         -3    1    6    6    0  503  0.24912609298E+01  0.49146332080E+02  0.80753199998E+00  0.49216058821E+02  0.00000000000E+00 0.  1.
<mgrwt>
<rscale>  0 0.24814485E+04</rscale>
<asrwt>0</asrwt>
<pdfrwt beam="1">  1        2 0.34808021E+00 0.24814485E+04</pdfrwt>
<pdfrwt beam="2">  1       -1 0.10467537E+00 0.24814485E+04</pdfrwt>
<totfact> 0.41477592E+00</totfact>
</mgrwt>
</event>
<event>
12    7  0.1625631E-007  0.1393292E+04  0.7818608E-02  0.8958689E-01
         -1   -1    0    0    0  501 -0.00000000000E+00  0.00000000000E+00  0.36996555148E+03  0.36996555148E+03  0.00000000000E+00 0.  1.
          2   -1    0    0  501    0  0.00000000000E+00 -0.00000000000E+00 -0.13117852749E+04  0.13117852749E+04  0.00000000000E+00 0. -1.
         24    2    1    2    0    0  0.20705346364E+03  0.90028928758E+02 -0.49593341458E+03  0.55095651003E+03  0.81405033211E+02 0.  0.
        254    2    1    2    0    0 -0.20705346364E+03 -0.90028928758E+02 -0.44588630887E+03  0.11307943164E+04  0.10143494668E+04 0.  0.
         23    2    4    4    0    0  0.27464191653E+03  0.29142094515E+03 -0.24388945473E+03  0.47788295300E+03  0.92388857867E+02 0.  0.
         23    2    4    4    0    0 -0.48169538016E+03 -0.38144987391E+03 -0.20199685415E+03  0.65291136339E+03  0.89196826067E+02 0.  0.
          4    1    3    3  502    0  0.14406301854E+03  0.20365937253E+02 -0.32001276501E+03  0.35153533888E+03  0.00000000000E+00 0. -1.
         -1    1    3    3    0  502  0.62990445094E+02  0.69662991505E+02 -0.17592064957E+03  0.19942117115E+03  0.00000000000E+00 0.  1.
         13    1    5    5    0    0  0.27460973334E+03  0.27298688867E+03 -0.24686404789E+03  0.45921041492E+03  0.00000000000E+00 0.  1.
        -13    1    5    5    0    0  0.32183190341E-01  0.18434056475E+02  0.29745931643E+01  0.18672538081E+02  0.00000000000E+00 0. -1.
          1    1    6    6  503    0 -0.18902313767E+03 -0.20304832728E+03 -0.74908859432E+02  0.28734945103E+03  0.00000000000E+00 0. -1.
         -1    1    6    6    0  503 -0.29267224249E+03 -0.17840154662E+03 -0.12708799471E+03  0.36556191235E+03  0.00000000000E+00 0.  1.
<mgrwt>
<rscale>  0 0.13932916E+04</rscale>
<asrwt>0</asrwt>
<pdfrwt beam="1">  1        2 0.20181312E+00 0.13932916E+04</pdfrwt>
<pdfrwt beam="2">  1       -1 0.56917777E-01 0.13932916E+04</pdfrwt>
<totfact> 0.56438253E+01</totfact>
</mgrwt>
</event>
<event>
12    7  0.1625631E-007  0.1564624E+04  0.7818608E-02  0.8842580E-01
         -1   -1    0    0    0  501 -0.00000000000E+00  0.00000000000E+00  0.23034086588E+03  0.23034086588E+03  0.00000000000E+00 0.  1.
          2   -1    0    0  501    0  0.00000000000E+00 -0.00000000000E+00 -0.26569855918E+04  0.26569855918E+04  0.00000000000E+00 0. -1.
         24    2    1    2    0    0  0.27213367970E+03 -0.18028004791E+03 -0.15650138529E+04  0.16006896340E+04  0.79883098299E+02 0.  0.
        254    2    1    2    0    0 -0.27213367970E+03  0.18028004791E+03 -0.86163087302E+03  0.12866368237E+04  0.89803614592E+03 0.  0.
         23    2    4    4    0    0 -0.45208261132E+03  0.29617013929E+03 -0.89987547255E+03  0.10536622592E+04  0.91284453878E+02 0.  0.
         23    2    4    4    0    0  0.17994893163E+03 -0.11589009138E+03  0.38244599528E+02  0.23297456446E+03  0.83680147107E+02 0.  0.
          4    1    3    3  502    0  0.26478304792E+03 -0.16767222805E+03 -0.13818421826E+04  0.14169374920E+04  0.00000000000E+00 0. -1.
         -3    1    3    3    0  502  0.73506317729E+01 -0.12607819856E+02 -0.18317167031E+03  0.18375214207E+03  0.00000000000E+00 0.  1.
         13    1    5    5    0    0 -0.41424028058E+03  0.24192982403E+03 -0.81942072713E+03  0.94951323206E+03  0.00000000000E+00 0.  1.
        -13    1    5    5    0    0 -0.37842330737E+02  0.54240315256E+02 -0.80454745422E+02  0.10414902715E+03  0.00000000000E+00 0. -1.
          3    1    6    6  503    0  0.80497255577E+02 -0.10067462725E+03  0.27429518958E+02  0.13178606618E+03  0.00000000000E+00 0. -1.
         -3    1    6    6    0  503  0.99451676050E+02 -0.15215464127E+02  0.10815080570E+02  0.10118849829E+03  0.00000000000E+00 0.  1.
<mgrwt>
<rscale>  0 0.15646244E+04</rscale>
<asrwt>0</asrwt>
<pdfrwt beam="1">  1        2 0.40876700E+00 0.15646244E+04</pdfrwt>
<pdfrwt beam="2">  1       -1 0.35437058E-01 0.15646244E+04</pdfrwt>
<totfact> 0.23482891E+01</totfact>
</mgrwt>
</event>
<event>
12    7  0.1625631E-007  0.1343647E+04  0.7818608E-02  0.8995651E-01
          2   -1    0    0  501    0  0.00000000000E+00  0.00000000000E+00  0.50389098549E+03  0.50389098549E+03  0.00000000000E+00 0. -1.
         -1   -1    0    0    0  501 -0.00000000000E+00 -0.00000000000E+00 -0.89572279120E+03  0.89572279120E+03  0.00000000000E+00 0.  1.
         24    2    1    2    0    0 -0.83242701713E+02  0.34733717383E+03 -0.82213310948E+02  0.37496553145E+03  0.79168564232E+02 0.  0.
        254    2    1    2    0    0  0.83242701713E+02 -0.34733717383E+03 -0.30961849476E+03  0.10246482452E+04  0.90910282943E+03 0.  0.
         23    2    4    4    0    0 -0.39890820801E+03 -0.18795692618E+03 -0.21834014961E+03  0.50036841801E+03  0.90777575929E+02 0.  0.
         23    2    4    4    0    0  0.48215090973E+03 -0.15938024765E+03 -0.91278345149E+02  0.52427982723E+03  0.93091556308E+02 0.  0.
          4    1    3    3  502    0 -0.82320486913E+02  0.35024165613E+03 -0.86180078289E+02  0.36996335785E+03  0.00000000000E+00 0. -1.
         -3    1    3    3    0  502 -0.92221479927E+00 -0.29044823013E+01  0.39667673411E+01  0.50021735989E+01  0.00000000000E+00 0.  1.
         13    1    5    5    0    0 -0.31467529268E+03 -0.15788111601E+03 -0.13182698652E+03  0.37593262826E+03  0.00000000000E+00 0. -1.
        -13    1    5    5    0    0 -0.84232915337E+02 -0.30075810172E+02 -0.86513163094E+02  0.12443578976E+03  0.00000000000E+00 0.  1.
          3    1    6    6  503    0  0.46759911481E+03 -0.15140719702E+03 -0.10518483801E+03  0.50263000471E+03  0.00000000000E+00 0. -1.
         -3    1    6    6    0  503  0.14551794913E+02 -0.79730506275E+01  0.13906492863E+02  0.21649822522E+02  0.00000000000E+00 0.  1.
<mgrwt>
<rscale>  0 0.13436467E+04</rscale>
<asrwt>0</asrwt>
<pdfrwt beam="1">  1        2 0.77521691E-01 0.13436467E+04</pdfrwt>
<pdfrwt beam="2">  1       -1 0.13780351E+00 0.13436467E+04</pdfrwt>
<totfact> 0.29793140E+01</totfact>
</mgrwt>
</event>
<event>
12    7  0.1625631E-007  0.1174524E+04  0.7818608E-02  0.9135452E-01
          2   -1    0    0  501    0  0.00000000000E+00  0.00000000000E+00  0.16757961880E+04  0.16757961880E+04  0.00000000000E+00 0. -1.
         -1   -1    0    0    0  501 -0.00000000000E+00 -0.00000000000E+00 -0.20579880943E+03  0.20579880943E+03  0.00000000000E+00 0.  1.
         24    2    1    2    0    0 -0.24024187927E+02 -0.25194732452E+02 -0.70217726056E+02  0.10557423003E+03  0.70735089204E+02 0.  0.
        254    2    1    2    0    0  0.24024187927E+02  0.25194732452E+02  0.15402151046E+04  0.17760207674E+04  0.88361488306E+03 0.  0.
         23    2    4    4    0    0 -0.12660925673E+03 -0.35531980699E+03  0.38312948381E+03  0.54545436904E+03  0.91924959653E+02 0.  0.
         23    2    4    4    0    0  0.15063344465E+03  0.38051453944E+03  0.11570856208E+04  0.12305663984E+04  0.89245602140E+02 0.  0.
          4    1    3    3  502    0 -0.13327217955E+02  0.23965757783E+02 -0.16631713426E+02  0.32071578945E+02  0.00000000000E+00 0. -1.
         -3    1    3    3    0  502 -0.10696969972E+02 -0.49160490234E+02 -0.53586012630E+02  0.73502651083E+02  0.00000000000E+00 0.  1.
         13    1    5    5    0    0 -0.12341933816E+03 -0.30619141843E+03  0.36703162501E+03  0.49365750426E+03  0.00000000000E+00 0. -1.
        -13    1    5    5    0    0 -0.31899185691E+01 -0.49128388557E+02  0.16097858798E+02  0.51796864776E+02  0.00000000000E+00 0.  1.
          1    1    6    6  503    0  0.13537811022E+03  0.25420976944E+03  0.87334220590E+03  0.91960668126E+03  0.00000000000E+00 0. -1.
         -1    1    6    6    0  503  0.15255334434E+02  0.12630477000E+03  0.28374341493E+03  0.31095971712E+03  0.00000000000E+00 0.  1.
<mgrwt>
<rscale>  0 0.11745243E+04</rscale>
<asrwt>0</asrwt>
<pdfrwt beam="1">  1        2 0.25781479E+00 0.11745243E+04</pdfrwt>
<pdfrwt beam="2">  1       -1 0.31661356E-01 0.11745243E+04</pdfrwt>
<totfact> 0.10566924E+02</totfact>
</mgrwt>
</event>
<event>
12    7  0.1625631E-007  0.2254588E+04  0.7818608E-02  0.8496045E-01
          2   -1    0    0  501    0  0.00000000000E+00  0.00000000000E+00  0.25907912445E+04  0.25907912445E+04  0.00000000000E+00 0. -1.
         -1   -1    0    0    0  501 -0.00000000000E+00 -0.00000000000E+00 -0.49050316017E+03  0.49050316017E+03  0.00000000000E+00 0.  1.
         24    2    1    2    0    0  0.38940248768E+03  0.81915531771E+03  0.12579015713E+04  0.15529498793E+04  0.81775500987E+02 0.  0.
        254    2    1    2    0    0 -0.38940248768E+03 -0.81915531771E+03  0.84238651302E+03  0.15283445254E+04  0.89642189789E+03 0.  0.
         23    2    4    4    0    0 -0.42291421843E+03 -0.57591521802E+03  0.82863626995E+02  0.72484181438E+03  0.89411971767E+02 0.  0.
         23    2    4    4    0    0  0.33511730753E+02 -0.24324009969E+03  0.75952288602E+03  0.80350271100E+03  0.91939164713E+02 0.  0.
          2    1    3    3  502    0  0.20644259926E+03  0.40415007373E+03  0.69528584686E+03  0.83028804504E+03  0.00000000000E+00 0. -1.
         -1    1    3    3    0  502  0.18295988842E+03  0.41500524398E+03  0.56261572448E+03  0.72266183429E+03  0.00000000000E+00 0.  1.
         13    1    5    5    0    0 -0.37587620347E+02 -0.20436102778E+02 -0.51551299674E+01  0.43093373795E+02  0.00000000000E+00 0. -1.
        -13    1    5    5    0    0 -0.38532659808E+03 -0.55547911524E+03  0.88018756962E+02  0.68174844058E+03  0.00000000000E+00 0.  1.
          1    1    6    6  503    0  0.29418819378E+02 -0.25098864627E+03  0.72125912622E+03  0.76424832002E+03  0.00000000000E+00 0. -1.
         -1    1    6    6    0  503  0.40929113748E+01  0.77485465876E+01  0.38263759796E+02  0.39254390983E+02  0.00000000000E+00 0.  1.
<mgrwt>
<rscale>  0 0.22545876E+04</rscale>
<asrwt>0</asrwt>
<pdfrwt beam="1">  1        2 0.39858326E+00 0.22545876E+04</pdfrwt>
<pdfrwt beam="2">  1       -1 0.75462026E-01 0.22545876E+04</pdfrwt>
<totfact> 0.56319460E+00</totfact>
</mgrwt>
</event>
<event>
12    7  0.1625631E-007  0.2536371E+04  0.7818608E-02  0.8390142E-01
          2   -1    0    0  501    0  0.00000000000E+00  0.00000000000E+00  0.27634045222E+04  0.27634045222E+04  0.00000000000E+00 0. -1.
         -1   -1    0    0    0  501 -0.00000000000E+00 -0.00000000000E+00 -0.58199734488E+03  0.58199734488E+03  0.00000000000E+00 0.  1.
         24    2    1    2    0    0 -0.25483442813E+03 -0.43607730222E+03 -0.34503162123E+03  0.61626276622E+03  0.75026516018E+02 0.  0.
        254    2    1    2    0    0  0.25483442813E+03  0.43607730222E+03  0.25264387985E+04  0.27291391009E+04  0.90011289832E+03 0.  0.
         23    2    4    4    0    0  0.23301052383E+03  0.89589935296E+02  0.22720470360E+04  0.22880299002E+04  0.10277562614E+03 0.  0.
         23    2    4    4    0    0  0.21823904302E+02  0.34648736693E+03  0.25439176252E+03  0.44110920070E+03  0.96604243523E+02 0.  0.
          4    1    3    3  502    0 -0.79241662788E+02 -0.10848049109E+03 -0.12955106940E+03  0.18662994843E+03  0.00000000000E+00 0. -1.
         -3    1    3    3    0  502 -0.17559276534E+03 -0.32759681113E+03 -0.21548055183E+03  0.42963281779E+03  0.00000000000E+00 0.  1.
         13    1    5    5    0    0  0.16636585903E+03  0.13179427915E+02  0.15339256198E+04  0.15429773503E+04  0.00000000000E+00 0.  1.
        -13    1    5    5    0    0  0.66644664802E+02  0.76410507381E+02  0.73812141624E+03  0.74505254989E+03  0.00000000000E+00 0. -1.
          1    1    6    6  503    0  0.68674267002E+00  0.40689012476E+01 -0.81316779471E+01  0.91187586377E+01  0.00000000000E+00 0. -1.
         -1    1    6    6    0  503  0.21137161632E+02  0.34241846568E+03  0.26252344046E+03  0.43199044206E+03  0.00000000000E+00 0.  1.
<mgrwt>
<rscale>  0 0.25363707E+04</rscale>
<asrwt>0</asrwt>
<pdfrwt beam="1">  1        2 0.42513915E+00 0.25363707E+04</pdfrwt>
<pdfrwt beam="2">  1       -1 0.89538055E-01 0.25363707E+04</pdfrwt>
<totfact> 0.30055856E+00</totfact>
</mgrwt>
</event>
<event>
12    7  0.1625631E-007  0.1435393E+04  0.7818608E-02  0.8928591E-01
         -1   -1    0    0    0  501 -0.00000000000E+00  0.00000000000E+00  0.52715360387E+03  0.52715360387E+03  0.00000000000E+00 0.  1.
          2   -1    0    0  501    0  0.00000000000E+00 -0.00000000000E+00 -0.97711179611E+03  0.97711179611E+03  0.00000000000E+00 0. -1.
         24    2    1    2    0    0  0.22686216716E+03  0.23089698052E+03 -0.39925744244E+03  0.52016067480E+03  0.79879683050E+02 0.  0.
        254    2    1    2    0    0 -0.22686216716E+03 -0.23089698052E+03 -0.50700749800E+02  0.98410472518E+03  0.92796103668E+03 0.  0.
         23    2    4    4    0    0 -0.69018537214E+02  0.33308669009E+03  0.11115403742E+03  0.36970330506E+03  0.92817089702E+02 0.  0.
         23    2    4    4    0    0 -0.15784362995E+03 -0.56398367061E+03 -0.16185478722E+03  0.61440142012E+03  0.91104010201E+02 0.  0.
          4    1    3    3  502    0  0.22753049625E+03  0.21695669337E+03 -0.35720415944E+03  0.47585202011E+03  0.00000000000E+00 0. -1.
         -3    1    3    3    0  502 -0.66832908611E+00  0.13940287147E+02 -0.42053282998E+02  0.44308654690E+02  0.00000000000E+00 0.  1.
         13    1    5    5    0    0 -0.52622032348E+02  0.22965566962E+03  0.30606484671E+02  0.23758695625E+03  0.00000000000E+00 0. -1.
        -13    1    5    5    0    0 -0.16396504866E+02  0.10343102047E+03  0.80547552753E+02  0.13211634880E+03  0.00000000000E+00 0.  1.
          4    1    6    6  503    0 -0.32584643015E+02 -0.38739820042E+02  0.24473621104E+00  0.50622055600E+02  0.00000000000E+00 0. -1.
         -4    1    6    6    0  503 -0.12525898693E+03 -0.52524385057E+03 -0.16209952344E+03  0.56377936452E+03  0.00000000000E+00 0.  1.
<mgrwt>
<rscale>  0 0.14353926E+04</rscale>
<asrwt>0</asrwt>
<pdfrwt beam="1">  1        2 0.15032489E+00 0.14353926E+04</pdfrwt>
<pdfrwt beam="2">  1       -1 0.81100555E-01 0.14353926E+04</pdfrwt>
<totfact> 0.43747862E+01</totfact>
</mgrwt>
</event>
<event>
12    7  0.1625631E-007  0.2407813E+04  0.7818608E-02  0.8436584E-01
          2   -1    0    0  501    0  0.00000000000E+00  0.00000000000E+00  0.16103543804E+04  0.16103543804E+04  0.00000000000E+00 0. -1.
         -1   -1    0    0    0  501 -0.00000000000E+00 -0.00000000000E+00 -0.90004447454E+03  0.90004447454E+03  0.00000000000E+00 0.  1.
         24    2    1    2    0    0 -0.13440977016E+03  0.85986270305E+03  0.89266499817E+03  0.12495018172E+04  0.83511303978E+02 0.  0.
        254    2    1    2    0    0  0.13440977016E+03 -0.85986270305E+03 -0.18235509234E+03  0.12608970377E+04  0.89396761994E+03 0.  0.
         23    2    4    4    0    0  0.24941300437E+03 -0.86900947161E+03 -0.40459659140E+03  0.99465625746E+03  0.90875520550E+02 0.  0.
         23    2    4    4    0    0 -0.11500323420E+03  0.91467685545E+01  0.22224149906E+03  0.26624078022E+03  0.90462488903E+02 0.  0.
          4    1    3    3  502    0 -0.90898873020E+02  0.47798748046E+03  0.55299002864E+03  0.73656812880E+03  0.00000000000E+00 0. -1.
         -3    1    3    3    0  502 -0.43510897144E+02  0.38187522259E+03  0.33967496953E+03  0.51293368843E+03  0.00000000000E+00 0.  1.
         13    1    5    5    0    0  0.23093580262E+03 -0.66980322823E+03 -0.30965975593E+03  0.77321204977E+03  0.00000000000E+00 0.  1.
        -13    1    5    5    0    0  0.18477201741E+02 -0.19920624338E+03 -0.94936835475E+02  0.22144420768E+03  0.00000000000E+00 0. -1.
          3    1    6    6  503    0 -0.39873686314E+02  0.34498266825E+02  0.14991789418E+03  0.15891952766E+03  0.00000000000E+00 0. -1.
         -3    1    6    6    0  503 -0.75129547888E+02 -0.25351498270E+02  0.72323604872E+02  0.10732125256E+03  0.00000000000E+00 0.  1.
<mgrwt>
<rscale>  0 0.24078128E+04</rscale>
<asrwt>0</asrwt>
<pdfrwt beam="1">  1        2 0.24774683E+00 0.24078128E+04</pdfrwt>
<pdfrwt beam="2">  1       -1 0.13846838E+00 0.24078128E+04</pdfrwt>
<totfact> 0.48581321E+00</totfact>
</mgrwt>
</event>
<event>
12    7  0.1625631E-007  0.1625231E+04  0.7818608E-02  0.8805196E-01
          2   -1    0    0  501    0  0.00000000000E+00  0.00000000000E+00  0.32778004044E+04  0.32778004044E+04  0.00000000000E+00 0. -1.
         -1   -1    0    0    0  501 -0.00000000000E+00 -0.00000000000E+00 -0.20145954925E+03  0.20145954925E+03  0.00000000000E+00 0.  1.
         24    2    1    2    0    0  0.14947283057E+03 -0.21365653167E+03  0.21220235655E+04  0.21393199638E+04  0.75595333441E+02 0.  0.
        254    2    1    2    0    0 -0.14947283057E+03  0.21365653167E+03  0.95431728967E+03  0.13399399899E+04  0.90372918868E+03 0.  0.
         23    2    4    4    0    0 -0.23814373740E+03  0.51307568179E+03  0.78647536995E+03  0.97209456713E+03  0.80406747238E+02 0.  0.
         23    2    4    4    0    0  0.88670906828E+02 -0.29941915012E+03  0.16784191972E+03  0.36784542274E+03  0.98107022351E+02 0.  0.
          4    1    3    3  502    0  0.80046970871E+02 -0.52664725035E+02  0.69900901119E+03  0.70554566722E+03  0.00000000000E+00 0. -1.
         -3    1    3    3    0  502  0.69425859696E+02 -0.16099180663E+03  0.14230145543E+04  0.14337742966E+04  0.00000000000E+00 0.  1.
         13    1    5    5    0    0 -0.15668875471E+03  0.41621112155E+03  0.60705044728E+03  0.75252462359E+03  0.00000000000E+00 0. -1.
        -13    1    5    5    0    0 -0.81454982681E+02  0.96864560235E+02  0.17942492267E+03  0.21956994354E+03  0.00000000000E+00 0.  1.
          3    1    6    6  503    0  0.15654223052E+02 -0.16597762790E+03  0.12915686375E+03  0.21089125899E+03  0.00000000000E+00 0. -1.
         -3    1    6    6    0  503  0.73016683777E+02 -0.13344152222E+03  0.38685055968E+02  0.15695416375E+03  0.00000000000E+00 0.  1.
<mgrwt>
<rscale>  0 0.16252313E+04</rscale>
<asrwt>0</asrwt>
<pdfrwt beam="1">  1        2 0.50427694E+00 0.16252313E+04</pdfrwt>
<pdfrwt beam="2">  1       -1 0.30993779E-01 0.16252313E+04</pdfrwt>
<totfact> 0.12203843E+01</totfact>
</mgrwt>
</event>
<event>
12    7  0.1625631E-007  0.1804084E+04  0.7818608E-02  0.8704131E-01
          2   -1    0    0  501    0  0.00000000000E+00  0.00000000000E+00  0.10310974126E+04  0.10310974126E+04  0.00000000000E+00 0. -1.
         -1   -1    0    0    0  501 -0.00000000000E+00 -0.00000000000E+00 -0.78913966772E+03  0.78913966772E+03  0.00000000000E+00 0.  1.
         24    2    1    2    0    0 -0.61220515295E+02  0.29645225091E+03 -0.51840521559E+03  0.60568739716E+03  0.80506937383E+02 0.  0.
        254    2    1    2    0    0  0.61220515295E+02 -0.29645225091E+03  0.76036296050E+03  0.12145496832E+04  0.89741139543E+03 0.  0.
         23    2    4    4    0    0  0.13223981092E+03  0.13479687065E+02 -0.16698347555E+03  0.23003079646E+03  0.85799863987E+02 0.  0.
         23    2    4    4    0    0 -0.71019295621E+02 -0.30993193798E+03  0.92734643605E+03  0.98451888672E+03  0.90578580931E+02 0.  0.
          4    1    3    3  502    0 -0.30307152207E+02  0.48950846907E+02 -0.15111862596E+03  0.16171440258E+03  0.00000000000E+00 0. -1.
         -3    1    3    3    0  502 -0.30913363088E+02  0.24750140401E+03 -0.36728658963E+03  0.44397299459E+03  0.00000000000E+00 0.  1.
         13    1    5    5    0    0  0.13168856899E+03  0.91638390677E+01 -0.10709876468E+03  0.16998823649E+03  0.00000000000E+00 0.  1.
        -13    1    5    5    0    0  0.55124192104E+00  0.43158479978E+01 -0.59884710870E+02  0.60042559969E+02  0.00000000000E+00 0. -1.
          4    1    6    6  503    0  0.66310230724E+01 -0.34330535532E+02  0.45698008719E+02  0.57540108948E+02  0.00000000000E+00 0. -1.
         -4    1    6    6    0  503 -0.77650318694E+02 -0.27560140245E+03  0.88164842733E+03  0.92697877777E+03  0.00000000000E+00 0.  1.
<mgrwt>
<rscale>  0 0.18040841E+04</rscale>
<asrwt>0</asrwt>
<pdfrwt beam="1">  1        2 0.15863037E+00 0.18040841E+04</pdfrwt>
<pdfrwt beam="2">  1       -1 0.12140610E+00 0.18040841E+04</pdfrwt>
<totfact> 0.15586322E+01</totfact>
</mgrwt>
</event>
<event>
12    7  0.1625631E-007  0.2003170E+04  0.7818608E-02  0.8605140E-01
          2   -1    0    0  501    0  0.00000000000E+00  0.00000000000E+00  0.25483857271E+04  0.25483857271E+04  0.00000000000E+00 0. -1.
         -1   -1    0    0    0  501 -0.00000000000E+00 -0.00000000000E+00 -0.39365024898E+03  0.39365024898E+03  0.00000000000E+00 0.  1.
         24    2    1    2    0    0 -0.36159749913E+03 -0.17511853587E+03 -0.14974990956E+03  0.43598007211E+03  0.78957804462E+02 0.  0.
        254    2    1    2    0    0  0.36159749913E+03  0.17511853587E+03  0.23044853877E+04  0.25060559040E+04  0.89902393675E+03 0.  0.
         23    2    4    4    0    0 -0.11533666755E+03 -0.14670910257E+03  0.10861261835E+03  0.23423212084E+03  0.90784788982E+02 0.  0.
         23    2    4    4    0    0  0.47693416667E+03  0.32182763845E+03  0.21958727694E+04  0.22718237832E+04  0.91032160917E+02 0.  0.
          4    1    3    3  502    0 -0.14551436243E+03 -0.66439065378E+02 -0.19170430574E+02  0.16110892120E+03  0.00000000000E+00 0. -1.
         -3    1    3    3    0  502 -0.21608313669E+03 -0.10867947050E+03 -0.13057947899E+03  0.27487115091E+03  0.00000000000E+00 0.  1.
         13    1    5    5    0    0  0.61661137593E+01 -0.13193713204E+02  0.37459229144E+02  0.40190656565E+02  0.00000000000E+00 0.  1.
        -13    1    5    5    0    0 -0.12150278130E+03 -0.13351538937E+03  0.71153389204E+02  0.19404146427E+03  0.00000000000E+00 0. -1.
          1    1    6    6  503    0  0.45487580459E+03  0.32215085544E+03  0.20558283572E+04  0.21300524420E+04  0.00000000000E+00 0. -1.
         -1    1    6    6    0  503  0.22058362080E+02 -0.32321699672E+00  0.14004441218E+03  0.14177134121E+03  0.00000000000E+00 0.  1.
<mgrwt>
<rscale>  0 0.20031702E+04</rscale>
<asrwt>0</asrwt>
<pdfrwt beam="1">  1        2 0.39205933E+00 0.20031702E+04</pdfrwt>
<pdfrwt beam="2">  1       -1 0.60561578E-01 0.20031702E+04</pdfrwt>
<totfact> 0.95439625E+00</totfact>
</mgrwt>
</event>
<event>
12    7  0.1625631E-007  0.1789503E+04  0.7818608E-02  0.8711902E-01
          2   -1    0    0  501    0  0.00000000000E+00  0.00000000000E+00  0.19426394130E+04  0.19426394130E+04  0.00000000000E+00 0. -1.
         -1   -1    0    0    0  501 -0.00000000000E+00 -0.00000000000E+00 -0.41210936835E+03  0.41210936835E+03  0.00000000000E+00 0.  1.
         24    2    1    2    0    0 -0.44341103891E+03  0.45534013418E+03  0.32179793276E+03  0.71726396504E+03  0.83460761975E+02 0.  0.
        254    2    1    2    0    0  0.44341103891E+03 -0.45534013418E+03  0.12087321119E+04  0.16374848163E+04  0.90353484612E+03 0.  0.
         23    2    4    4    0    0  0.32528180770E+03  0.21128583048E+03  0.29081780423E+03  0.49316964925E+03  0.90506083190E+02 0.  0.
         23    2    4    4    0    0  0.11812923121E+03 -0.66662596466E+03  0.91791430768E+03  0.11443151671E+04  0.92443676778E+02 0.  0.
          2    1    3    3  502    0 -0.89210990454E+02  0.14176608358E+03  0.96263517288E+02  0.19319132494E+03  0.00000000000E+00 0. -1.
         -1    1    3    3    0  502 -0.35420004846E+03  0.31357405060E+03  0.22553441547E+03  0.52407264010E+03  0.00000000000E+00 0.  1.
         13    1    5    5    0    0  0.21027049002E+03  0.10269728878E+03  0.13041598592E+03  0.26789688591E+03  0.00000000000E+00 0. -1.
        -13    1    5    5    0    0  0.11501131768E+03  0.10858854169E+03  0.16040181831E+03  0.22527276333E+03  0.00000000000E+00 0.  1.
          1    1    6    6  503    0  0.10473179727E+03 -0.54303435103E+03  0.68582291259E+03  0.88102674374E+03  0.00000000000E+00 0. -1.
         -1    1    6    6    0  503  0.13397433938E+02 -0.12359161363E+03  0.23209139509E+03  0.26328842335E+03  0.00000000000E+00 0.  1.
<mgrwt>
<rscale>  0 0.17895026E+04</rscale>
<asrwt>0</asrwt>
<pdfrwt beam="1">  1        2 0.29886760E+00 0.17895026E+04</pdfrwt>
<pdfrwt beam="2">  1       -1 0.63401443E-01 0.17895026E+04</pdfrwt>
<totfact> 0.19522178E+01</totfact>
</mgrwt>
</event>
<event>
12    7  0.1625631E-007  0.1870007E+04  0.7818608E-02  0.8669932E-01
         -1   -1    0    0    0  501 -0.00000000000E+00  0.00000000000E+00  0.94937154035E+03  0.94937154035E+03  0.00000000000E+00 0.  1.
          2   -1    0    0  501    0  0.00000000000E+00 -0.00000000000E+00 -0.92085264901E+03  0.92085264901E+03  0.00000000000E+00 0. -1.
         24    2    1    2    0    0 -0.18368773927E+02  0.61384867321E+03 -0.36136288497E+03  0.71681099345E+03  0.78020896144E+02 0.  0.
        254    2    1    2    0    0  0.18368773927E+02 -0.61384867321E+03  0.38988177632E+03  0.11534131959E+04  0.89510144427E+03 0.  0.
         23    2    4    4    0    0 -0.41303176854E+03 -0.22687444567E+03  0.69689502678E+02  0.48508653580E+03  0.91569997880E+02 0.  0.
         23    2    4    4    0    0  0.43140054247E+03 -0.38697422754E+03  0.32019227364E+03  0.66832666011E+03  0.91005228906E+02 0.  0.
          4    1    3    3  502    0 -0.20318606829E+02  0.12567458298E+03 -0.44712228637E+02  0.13493009294E+03  0.00000000000E+00 0. -1.
         -1    1    3    3    0  502  0.19498329021E+01  0.48817409023E+03 -0.31665065634E+03  0.58188090051E+03  0.00000000000E+00 0.  1.
         13    1    5    5    0    0 -0.41556110745E+03 -0.21525130524E+03  0.65992207068E+02  0.47263001367E+03  0.00000000000E+00 0. -1.
        -13    1    5    5    0    0  0.25293389061E+01 -0.11623140431E+02  0.36972956101E+01  0.12456522131E+02  0.00000000000E+00 0.  1.
          1    1    6    6  503    0  0.29452225657E+03 -0.28127184416E+03  0.26859320609E+03  0.48785194505E+03  0.00000000000E+00 0. -1.
         -1    1    6    6    0  503  0.13687828590E+03 -0.10570238338E+03  0.51599067555E+02  0.18047471506E+03  0.00000000000E+00 0.  1.
<mgrwt>
<rscale>  0 0.18700067E+04</rscale>
<asrwt>0</asrwt>
<pdfrwt beam="1">  1        2 0.14166964E+00 0.18700067E+04</pdfrwt>
<pdfrwt beam="2">  1       -1 0.14605716E+00 0.18700067E+04</pdfrwt>
<totfact> 0.11397281E+01</totfact>
</mgrwt>
</event>
<event>
12    7  0.1625631E-007  0.1374876E+04  0.7818608E-02  0.8972208E-01
         -1   -1    0    0    0  501 -0.00000000000E+00  0.00000000000E+00  0.26409903793E+03  0.26409903793E+03  0.00000000000E+00 0.  1.
          2   -1    0    0  501    0  0.00000000000E+00 -0.00000000000E+00 -0.17893714738E+04  0.17893714738E+04  0.00000000000E+00 0. -1.
         24    2    1    2    0    0  0.20609368573E+03  0.90717427803E+02 -0.89883636189E+03  0.93044864913E+03  0.84401565149E+02 0.  0.
        254    2    1    2    0    0 -0.20609368573E+03 -0.90717427803E+02 -0.62643607397E+03  0.11230218626E+04  0.90446209987E+03 0.  0.
         23    2    4    4    0    0 -0.46648886907E+02 -0.17767877982E+03  0.19092707397E+03  0.28085170171E+03  0.93159343767E+02 0.  0.
         23    2    4    4    0    0 -0.15944479882E+03  0.86961352018E+02 -0.81736314794E+03  0.84217016089E+03  0.90460729921E+02 0.  0.
          4    1    3    3  502    0  0.12627699088E+03  0.19543424335E+02 -0.38666360159E+03  0.40723035822E+03  0.00000000000E+00 0. -1.
         -3    1    3    3    0  502  0.79816694849E+02  0.71174003468E+02 -0.51217276031E+03  0.52321829091E+03  0.00000000000E+00 0.  1.
         13    1    5    5    0    0 -0.25133521805E+02 -0.91582375796E+02  0.34568607243E+02  0.10106440561E+03  0.00000000000E+00 0. -1.
        -13    1    5    5    0    0 -0.21515365103E+02 -0.86096404025E+02  0.15635846673E+03  0.17978729610E+03  0.00000000000E+00 0.  1.
          4    1    6    6  503    0 -0.29391113001E+01  0.33043466032E+02 -0.83049251573E+02  0.89429789274E+02  0.00000000000E+00 0. -1.
         -4    1    6    6    0  503 -0.15650568752E+03  0.53917885986E+02 -0.73431389637E+03  0.75274037161E+03  0.00000000000E+00 0.  1.
<mgrwt>
<rscale>  0 0.13748764E+04</rscale>
<asrwt>0</asrwt>
<pdfrwt beam="1">  1        2 0.27528793E+00 0.13748764E+04</pdfrwt>
<pdfrwt beam="2">  1       -1 0.40630620E-01 0.13748764E+04</pdfrwt>
<totfact> 0.57508652E+01</totfact>
</mgrwt>
</event>
<event>
12    7  0.1625631E-007  0.2162445E+04  0.7818608E-02  0.8534224E-01
         -1   -1    0    0    0  501 -0.00000000000E+00  0.00000000000E+00  0.10698297420E+04  0.10698297420E+04  0.00000000000E+00 0.  1.
          2   -1    0    0  501    0  0.00000000000E+00 -0.00000000000E+00 -0.10927367545E+04  0.10927367545E+04  0.00000000000E+00 0. -1.
         24    2    1    2    0    0  0.11952657871E+03 -0.74175529736E+03  0.46536851811E+03  0.88731629353E+03  0.79213779933E+02 0.  0.
        254    2    1    2    0    0 -0.11952657871E+03  0.74175529736E+03 -0.48827553057E+03  0.12752502030E+04  0.90739327871E+03 0.  0.
         23    2    4    4    0    0 -0.37489610730E+03  0.81021130650E+03 -0.35659253389E+03  0.96567887654E+03  0.91586052025E+02 0.  0.
         23    2    4    4    0    0  0.25536952859E+03 -0.68456009136E+02 -0.13168299668E+03  0.30957132643E+03  0.92704763720E+02 0.  0.
          4    1    3    3  502    0  0.35396089963E+02 -0.25184852026E+03  0.11468410467E+03  0.27898567025E+03  0.00000000000E+00 0. -1.
         -3    1    3    3    0  502  0.84130488747E+02 -0.48990677710E+03  0.35068441344E+03  0.60833062327E+03  0.00000000000E+00 0.  1.
         13    1    5    5    0    0 -0.74667490716E+02  0.25646556143E+03 -0.92803360978E+02  0.28277602830E+03  0.00000000000E+00 0. -1.
        -13    1    5    5    0    0 -0.30022861658E+03  0.55374574506E+03 -0.26378917291E+03  0.68290284824E+03  0.00000000000E+00 0.  1.
          4    1    6    6  503    0  0.81384568561E+01 -0.28414625514E+02 -0.10761387324E+02  0.31455252029E+02  0.00000000000E+00 0. -1.
         -4    1    6    6    0  503  0.24723107173E+03 -0.40041383623E+02 -0.12092160936E+03  0.27811607441E+03  0.00000000000E+00 0.  1.
<mgrwt>
<rscale>  0 0.21624452E+04</rscale>
<asrwt>0</asrwt>
<pdfrwt beam="1">  1        2 0.16811335E+00 0.21624452E+04</pdfrwt>
<pdfrwt beam="2">  1       -1 0.16458919E+00 0.21624452E+04</pdfrwt>
<totfact> 0.62114242E+00</totfact>
</mgrwt>
</event>
<event>
12    7  0.1625631E-007  0.1405405E+04  0.7818608E-02  0.8949916E-01
          2   -1    0    0  501    0  0.00000000000E+00  0.00000000000E+00  0.22493606618E+04  0.22493606618E+04  0.00000000000E+00 0. -1.
         -1   -1    0    0    0  501 -0.00000000000E+00 -0.00000000000E+00 -0.21952488301E+03  0.21952488301E+03  0.00000000000E+00 0.  1.
         24    2    1    2    0    0 -0.21140369992E+03 -0.19364043407E+03  0.84207925044E+02  0.30936597455E+03  0.80175990943E+02 0.  0.
        254    2    1    2    0    0  0.21140369992E+03  0.19364043407E+03  0.19456278537E+04  0.21595195702E+04  0.89211483956E+03 0.  0.
         23    2    4    4    0    0  0.20606176175E+03  0.46311464684E+03  0.63447059166E+03  0.81739425902E+03  0.92972131436E+02 0.  0.
         23    2    4    4    0    0  0.53419381672E+01 -0.26947421277E+03  0.13111572621E+04  0.13421253112E+04  0.97581235199E+02 0.  0.
          4    1    3    3  502    0 -0.21543448665E+02  0.19130650532E+01  0.19750926217E+02  0.29289572969E+02  0.00000000000E+00 0. -1.
         -3    1    3    3    0  502 -0.18986025125E+03 -0.19555349912E+03  0.64456998827E+02  0.28007640158E+03  0.00000000000E+00 0.  1.
         13    1    5    5    0    0  0.61970630995E+02  0.25351239129E+03  0.32446660133E+03  0.41639820728E+03  0.00000000000E+00 0. -1.
        -13    1    5    5    0    0  0.14409113076E+03  0.20960225555E+03  0.31000399033E+03  0.40099605174E+03  0.00000000000E+00 0.  1.
          1    1    6    6  503    0 -0.26412690953E+02 -0.18914244513E+03  0.10448185699E+04  0.10621291536E+04  0.00000000000E+00 0. -1.
         -1    1    6    6    0  503  0.31754629120E+02 -0.80331767639E+02  0.26633869213E+03  0.27999615763E+03  0.00000000000E+00 0.  1.
<mgrwt>
<rscale>  0 0.14054048E+04</rscale>
<asrwt>0</asrwt>
<pdfrwt beam="1">  1        2 0.34605547E+00 0.14054048E+04</pdfrwt>
<pdfrwt beam="2">  1       -1 0.33773060E-01 0.14054048E+04</pdfrwt>
<totfact> 0.44475050E+01</totfact>
</mgrwt>
</event>
<event>
12    7  0.1625631E-007  0.2295868E+04  0.7818608E-02  0.8479552E-01
          2   -1    0    0  501    0  0.00000000000E+00  0.00000000000E+00  0.25691126936E+04  0.25691126936E+04  0.00000000000E+00 0. -1.
         -1   -1    0    0    0  501 -0.00000000000E+00 -0.00000000000E+00 -0.51292121973E+03  0.51292121973E+03  0.00000000000E+00 0.  1.
         24    2    1    2    0    0 -0.13078759846E+03  0.82436347403E+03  0.14578681023E+04  0.16817543406E+04  0.78979270784E+02 0.  0.
        254    2    1    2    0    0  0.13078759846E+03 -0.82436347403E+03  0.59832337149E+03  0.14002795726E+04  0.95189888721E+03 0.  0.
         23    2    4    4    0    0 -0.22615215683E+03  0.23756221949E+02 -0.75716209407E+02  0.25598488552E+03  0.89923084519E+02 0.  0.
         23    2    4    4    0    0  0.35693975529E+03 -0.84811969598E+03  0.67403958089E+03  0.11442946871E+04  0.91476591215E+02 0.  0.
          2    1    3    3  502    0 -0.77201194616E+02  0.45870830011E+03  0.73347984802E+03  0.86854246672E+03  0.00000000000E+00 0. -1.
         -1    1    3    3    0  502 -0.53586403840E+02  0.36565517392E+03  0.72438825432E+03  0.81321187393E+03  0.00000000000E+00 0.  1.
         13    1    5    5    0    0 -0.18243616639E+03  0.53791236043E+02 -0.69851917329E+02  0.20262216620E+03  0.00000000000E+00 0.  1.
        -13    1    5    5    0    0 -0.43715990442E+02 -0.30035014094E+02 -0.58642920781E+01  0.53362719322E+02  0.00000000000E+00 0. -1.
          3    1    6    6  503    0  0.11330264932E+02 -0.49979548744E+02  0.16098345390E+02  0.53716728496E+02  0.00000000000E+00 0. -1.
         -3    1    6    6    0  503  0.34560949036E+03 -0.79814014723E+03  0.65794123550E+03  0.10905779586E+04  0.00000000000E+00 0.  1.
<mgrwt>
<rscale>  0 0.22958680E+04</rscale>
<asrwt>0</asrwt>
<pdfrwt beam="1">  1        2 0.39524810E+00 0.22958680E+04</pdfrwt>
<pdfrwt beam="2">  1       -1 0.78910958E-01 0.22958680E+04</pdfrwt>
<totfact> 0.52584181E+00</totfact>
</mgrwt>
</event>
<event>
12    7  0.1625631E-007  0.1908887E+04  0.7818608E-02  0.8650445E-01
          2   -1    0    0  501    0  0.00000000000E+00  0.00000000000E+00  0.11314360466E+04  0.11314360466E+04  0.00000000000E+00 0. -1.
         -1   -1    0    0    0  501 -0.00000000000E+00 -0.00000000000E+00 -0.80513853117E+03  0.80513853117E+03  0.00000000000E+00 0.  1.
         24    2    1    2    0    0  0.48210399836E+03 -0.13098559021E+03  0.67239437372E+03  0.84147711932E+03  0.79925330445E+02 0.  0.
        254    2    1    2    0    0 -0.48210399836E+03  0.13098559021E+03 -0.34609685829E+03  0.10950974585E+04  0.91097415886E+03 0.  0.
         23    2    4    4    0    0 -0.63565457589E+03  0.32933748844E+03 -0.94367334240E+02  0.72768452160E+03  0.89998044791E+02 0.  0.
         23    2    4    4    0    0  0.15355057753E+03 -0.19835189824E+03 -0.25172952405E+03  0.36741293685E+03  0.93291250886E+02 0.  0.
          4    1    3    3  502    0  0.36103933438E+03 -0.98101362038E+02  0.55725432386E+03  0.67119718389E+03  0.00000000000E+00 0. -1.
         -3    1    3    3    0  502  0.12106466398E+03 -0.32884228167E+02  0.11514004986E+03  0.17027993542E+03  0.00000000000E+00 0.  1.
         13    1    5    5    0    0 -0.40840345697E+03  0.21662641773E+03 -0.17512073962E+02  0.46263058833E+03  0.00000000000E+00 0. -1.
        -13    1    5    5    0    0 -0.22725111891E+03  0.11271107071E+03 -0.76855260278E+02  0.26505393327E+03  0.00000000000E+00 0.  1.
          2    1    6    6  503    0  0.54318891616E+02 -0.14297181249E+03 -0.12823002516E+03  0.19958562199E+03  0.00000000000E+00 0. -1.
         -2    1    6    6    0  503  0.99231685916E+02 -0.55380085748E+02 -0.12349949889E+03  0.16782731486E+03  0.00000000000E+00 0.  1.
<mgrwt>
<rscale>  0 0.19088874E+04</rscale>
<asrwt>0</asrwt>
<pdfrwt beam="1">  1        2 0.17406708E+00 0.19088874E+04</pdfrwt>
<pdfrwt beam="2">  1       -1 0.12386747E+00 0.19088874E+04</pdfrwt>
<totfact> 0.12732934E+01</totfact>
</mgrwt>
</event>
<event>
12    7  0.1625631E-007  0.3469345E+04  0.7818608E-02  0.8121094E-01
          2   -1    0    0  501    0  0.00000000000E+00  0.00000000000E+00  0.20788182073E+04  0.20788182073E+04  0.00000000000E+00 0. -1.
         -1   -1    0    0    0  501 -0.00000000000E+00 -0.00000000000E+00 -0.14474994299E+04  0.14474994299E+04  0.00000000000E+00 0.  1.
         24    2    1    2    0    0 -0.62829876363E+02 -0.96659065797E+03 -0.10226821570E+04  0.14108007272E+04  0.78960775222E+02 0.  0.
        254    2    1    2    0    0  0.62829876363E+02  0.96659065797E+03  0.16540009344E+04  0.21155169101E+04  0.89523606516E+03 0.  0.
         23    2    4    4    0    0  0.35133069466E+02  0.10607117698E+04  0.10455106043E+04  0.14926236591E+04  0.92136707159E+02 0.  0.
         23    2    4    4    0    0  0.27696806897E+02 -0.94121111816E+02  0.60849033005E+03  0.62289325096E+03  0.90053448133E+02 0.  0.
          4    1    3    3  502    0 -0.75919409782E+02 -0.92782047366E+03 -0.98019231969E+03  0.13518104792E+04  0.00000000000E+00 0. -1.
         -3    1    3    3    0  502  0.13089533419E+02 -0.38770184306E+02 -0.42489837354E+02  0.58990247962E+02  0.00000000000E+00 0.  1.
         13    1    5    5    0    0  0.39148803319E+02  0.52263631939E+03  0.57274832406E+03  0.77635172046E+03  0.00000000000E+00 0.  1.
        -13    1    5    5    0    0 -0.40157338529E+01  0.53807545040E+03  0.47276228027E+03  0.71627193864E+03  0.00000000000E+00 0. -1.
          1    1    6    6  503    0  0.12247877243E+01 -0.46513367699E+02  0.49311237271E+03  0.49530274136E+03  0.00000000000E+00 0. -1.
         -1    1    6    6    0  503  0.26472019172E+02 -0.47607744117E+02  0.11537795734E+03  0.12759050960E+03  0.00000000000E+00 0.  1.
<mgrwt>
<rscale>  0 0.34693447E+04</rscale>
<asrwt>0</asrwt>
<pdfrwt beam="1">  1        2 0.31981819E+00 0.34693447E+04</pdfrwt>
<pdfrwt beam="2">  1       -1 0.22269222E+00 0.34693447E+04</pdfrwt>
<totfact> 0.59726728E-01</totfact>
</mgrwt>
</event>
<event>
12    7  0.1625631E-007  0.2006950E+04  0.7818608E-02  0.8603378E-01
          2   -1    0    0  501    0  0.00000000000E+00  0.00000000000E+00  0.14344830914E+04  0.14344830914E+04  0.00000000000E+00 0. -1.
         -1   -1    0    0    0  501 -0.00000000000E+00 -0.00000000000E+00 -0.70196863991E+03  0.70196863991E+03  0.00000000000E+00 0.  1.
         24    2    1    2    0    0 -0.61778195059E+03  0.39140099235E+03 -0.42767709876E+02  0.73692736662E+03  0.79897380249E+02 0.  0.
        254    2    1    2    0    0  0.61778195059E+03 -0.39140099235E+03  0.77528216140E+03  0.13995243647E+04  0.90705939297E+03 0.  0.
         23    2    4    4    0    0  0.12516391067E+03 -0.16718019999E+03  0.81694097405E+03  0.84824570985E+03  0.92265949247E+02 0.  0.
         23    2    4    4    0    0  0.49261803992E+03 -0.22422079237E+03 -0.41658812654E+02  0.55127865487E+03  0.96047913396E+02 0.  0.
          2    1    3    3  502    0 -0.30009052627E+03  0.23278755003E+03 -0.39314665032E+02  0.38182458052E+03  0.00000000000E+00 0. -1.
         -1    1    3    3    0  502 -0.31769142432E+03  0.15861344232E+03 -0.34530448444E+01  0.35510278609E+03  0.00000000000E+00 0.  1.
         13    1    5    5    0    0  0.82141897924E+02 -0.10732975559E+03  0.34405238860E+03  0.36964714788E+03  0.00000000000E+00 0. -1.
        -13    1    5    5    0    0  0.43022012748E+02 -0.59850444399E+02  0.47288858544E+03  0.47859856197E+03  0.00000000000E+00 0.  1.
          3    1    6    6  503    0 -0.26841857319E+01  0.36151498208E+01 -0.61714031569E+00  0.45447798009E+01  0.00000000000E+00 0. -1.
         -3    1    6    6    0  503  0.49530222565E+03 -0.22783594219E+03 -0.41041672338E+02  0.54673387507E+03  0.00000000000E+00 0.  1.
<mgrwt>
<rscale>  0 0.20069501E+04</rscale>
<asrwt>0</asrwt>
<pdfrwt beam="1">  1        2 0.22068971E+00 0.20069501E+04</pdfrwt>
<pdfrwt beam="2">  1       -1 0.10799518E+00 0.20069501E+04</pdfrwt>
<totfact> 0.11662946E+01</totfact>
</mgrwt>
</event>
<event>
12    7  0.1625631E-007  0.1621421E+04  0.7818608E-02  0.8807496E-01
         -1   -1    0    0    0  501 -0.00000000000E+00  0.00000000000E+00  0.69519300169E+03  0.69519300169E+03  0.00000000000E+00 0.  1.
          2   -1    0    0  501    0  0.00000000000E+00 -0.00000000000E+00 -0.94542262927E+03  0.94542262927E+03  0.00000000000E+00 0. -1.
         24    2    1    2    0    0  0.30306039094E+03 -0.22504168971E+03 -0.46197091747E+03  0.60216354214E+03  0.81819558986E+02 0.  0.
        254    2    1    2    0    0 -0.30306039094E+03  0.22504168971E+03  0.21174128989E+03  0.10384520888E+04  0.94395921748E+03 0.  0.
         23    2    4    4    0    0 -0.41467838185E+03  0.48945353265E+03  0.31459075892E+03  0.72052387435E+03  0.93082688537E+02 0.  0.
         23    2    4    4    0    0  0.11161799091E+03 -0.26441184294E+03 -0.10284946903E+03  0.31792821447E+03  0.90156184989E+02 0.  0.
          2    1    3    3  502    0  0.27411103287E+03 -0.22192112340E+03 -0.44712771961E+03  0.56948137898E+03  0.00000000000E+00 0. -1.
         -1    1    3    3    0  502  0.28949358069E+02 -0.31205663112E+01 -0.14843197858E+02  0.32682163168E+02  0.00000000000E+00 0.  1.
         13    1    5    5    0    0 -0.29357905700E+03  0.32652919823E+03  0.16806489864E+03  0.47016570500E+03  0.00000000000E+00 0. -1.
        -13    1    5    5    0    0 -0.12109932485E+03  0.16292433442E+03  0.14652586028E+03  0.25035816934E+03  0.00000000000E+00 0.  1.
          2    1    6    6  503    0  0.11270043171E+03 -0.17355783038E+03 -0.50293677760E+02  0.21296281792E+03  0.00000000000E+00 0. -1.
         -2    1    6    6    0  503 -0.10824407957E+01 -0.90854012565E+02 -0.52555791268E+02  0.10496539655E+03  0.00000000000E+00 0.  1.
<mgrwt>
<rscale>  0 0.16214206E+04</rscale>
<asrwt>0</asrwt>
<pdfrwt beam="1">  1        2 0.14544963E+00 0.16214206E+04</pdfrwt>
<pdfrwt beam="2">  1       -1 0.10695277E+00 0.16214206E+04</pdfrwt>
<totfact> 0.24360524E+01</totfact>
</mgrwt>
</event>
<event>
12    7  0.1625631E-007  0.1158374E+04  0.7818608E-02  0.9150093E-01
          2   -1    0    0  501    0  0.00000000000E+00  0.00000000000E+00  0.13840586767E+04  0.13840586767E+04  0.00000000000E+00 0. -1.
         -1   -1    0    0    0  501 -0.00000000000E+00 -0.00000000000E+00 -0.24237228763E+03  0.24237228763E+03  0.00000000000E+00 0.  1.
         24    2    1    2    0    0 -0.65732338448E+02 -0.15353533484E+03  0.41885273064E+03  0.45824239006E+03  0.81575969037E+02 0.  0.
        254    2    1    2    0    0  0.65732338448E+02  0.15353533484E+03  0.72283365848E+03  0.11681885743E+04  0.90237586845E+03 0.  0.
         23    2    4    4    0    0  0.18127328983E+03  0.15363966250E+03 -0.14153828913E+03  0.29156806161E+03  0.92269690381E+02 0.  0.
         23    2    4    4    0    0 -0.11554095138E+03 -0.10432766237E+00  0.86437194761E+03  0.87662051271E+03  0.89302503640E+02 0.  0.
          2    1    3    3  502    0 -0.47328058670E+02 -0.12285550818E+03  0.22150440696E+03  0.25767736286E+03  0.00000000000E+00 0. -1.
         -1    1    3    3    0  502 -0.18404279778E+02 -0.30679826656E+02  0.19734832367E+03  0.20056502720E+03  0.00000000000E+00 0.  1.
         13    1    5    5    0    0  0.34930500284E+02  0.69186950645E+02 -0.11489126263E+02  0.78351605037E+02  0.00000000000E+00 0.  1.
        -13    1    5    5    0    0  0.14634278954E+03  0.84452711853E+02 -0.13004916286E+03  0.21321645657E+03  0.00000000000E+00 0. -1.
          3    1    6    6  503    0 -0.68785788913E+02  0.41614877074E+02  0.57094097078E+03  0.57657339070E+03  0.00000000000E+00 0. -1.
         -3    1    6    6    0  503 -0.46755162465E+02 -0.41719204736E+02  0.29343097683E+03  0.30004712200E+03  0.00000000000E+00 0.  1.
<mgrwt>
<rscale>  0 0.11583738E+04</rscale>
<asrwt>0</asrwt>
<pdfrwt beam="1">  1        2 0.21293210E+00 0.11583738E+04</pdfrwt>
<pdfrwt beam="2">  1       -1 0.37288045E-01 0.11583738E+04</pdfrwt>
<totfact> 0.11525955E+02</totfact>
</mgrwt>
</event>
<event>
12    7  0.1625631E-007  0.1185395E+04  0.7818608E-02  0.9125738E-01
         -1   -1    0    0    0  501 -0.00000000000E+00  0.00000000000E+00  0.23713694883E+03  0.23713694883E+03  0.00000000000E+00 0.  1.
          2   -1    0    0  501    0  0.00000000000E+00 -0.00000000000E+00 -0.14813807120E+04  0.14813807120E+04  0.00000000000E+00 0. -1.
         24    2    1    2    0    0  0.22347452437E+03  0.35447516451E+02 -0.16690134011E+03  0.29256840190E+03  0.80887718440E+02 0.  0.
        254    2    1    2    0    0 -0.22347452437E+03 -0.35447516451E+02 -0.10773424230E+04  0.14259492589E+04  0.90634827911E+03 0.  0.
         23    2    4    4    0    0 -0.39876749707E+03  0.67556368189E+02 -0.10660427702E+03  0.42990870445E+03  0.99386330434E+02 0.  0.
         23    2    4    4    0    0  0.17529297270E+03 -0.10300388464E+03 -0.97073814602E+03  0.99604055446E+03  0.91797665895E+02 0.  0.
          4    1    3    3  502    0  0.20475774690E+03  0.34905401093E+02 -0.17553449205E+03  0.27194940676E+03  0.00000000000E+00 0. -1.
         -3    1    3    3    0  502  0.18716777475E+02  0.54211535815E+00  0.86331519390E+01  0.20618995138E+02  0.00000000000E+00 0.  1.
         13    1    5    5    0    0 -0.21448698357E+03  0.27690890551E+02 -0.10717001712E+03  0.24136458752E+03  0.00000000000E+00 0.  1.
        -13    1    5    5    0    0 -0.18428051351E+03  0.39865477638E+02  0.56574010899E+00  0.18854411693E+03  0.00000000000E+00 0. -1.
          1    1    6    6  503    0  0.14454445182E+03 -0.77715377443E+02 -0.56493887102E+03  0.58829304469E+03  0.00000000000E+00 0. -1.
         -1    1    6    6    0  503  0.30748520881E+02 -0.25288507198E+02 -0.40579927500E+03  0.40774750977E+03  0.00000000000E+00 0.  1.
<mgrwt>
<rscale>  0 0.11853946E+04</rscale>
<asrwt>0</asrwt>
<pdfrwt beam="1">  1        2 0.22790472E+00 0.11853946E+04</pdfrwt>
<pdfrwt beam="2">  1       -1 0.36482608E-01 0.11853946E+04</pdfrwt>
<totfact> 0.10534191E+02</totfact>
</mgrwt>
</event>
<event>
12    7  0.1625631E-007  0.1529700E+04  0.7818608E-02  0.8864940E-01
         -1   -1    0    0    0  501 -0.00000000000E+00  0.00000000000E+00  0.41238433397E+03  0.41238433397E+03  0.00000000000E+00 0.  1.
          2   -1    0    0  501    0  0.00000000000E+00 -0.00000000000E+00 -0.14185686963E+04  0.14185686963E+04  0.00000000000E+00 0. -1.
         24    2    1    2    0    0  0.46093218149E+03  0.66503618870E+01 -0.57781246109E+03  0.74382604915E+03  0.83109854785E+02 0.  0.
        254    2    1    2    0    0 -0.46093218149E+03 -0.66503618870E+01 -0.42837190126E+03  0.10871269811E+04  0.88647610462E+03 0.  0.
         23    2    4    4    0    0 -0.87070889325E+01  0.22284080654E+03  0.17183374168E+03  0.29632507538E+03  0.92454729789E+02 0.  0.
         23    2    4    4    0    0 -0.45222509256E+03 -0.22949116843E+03 -0.60020564295E+03  0.79080190575E+03  0.89146562410E+02 0.  0.
          2    1    3    3  502    0  0.44952309612E+03 -0.57913429731E+01 -0.56770639072E+03  0.72415129612E+03  0.00000000000E+00 0. -1.
         -1    1    3    3    0  502  0.11409085373E+02  0.12441704860E+02 -0.10106070364E+02  0.19674753037E+02  0.00000000000E+00 0.  1.
         13    1    5    5    0    0 -0.32266912913E+02  0.19776626663E+03  0.11832433640E+03  0.23270861280E+03  0.00000000000E+00 0. -1.
        -13    1    5    5    0    0  0.23559823981E+02  0.25074539914E+02  0.53509405285E+02  0.63616462585E+02  0.00000000000E+00 0.  1.
          1    1    6    6  503    0 -0.21616570843E+03 -0.15493494292E+03 -0.33981256717E+03  0.43151480953E+03  0.00000000000E+00 0. -1.
         -1    1    6    6    0  503 -0.23605938413E+03 -0.74556225508E+02 -0.26039307578E+03  0.35928709622E+03  0.00000000000E+00 0.  1.
<mgrwt>
<rscale>  0 0.15297000E+04</rscale>
<asrwt>0</asrwt>
<pdfrwt beam="1">  1        2 0.21824134E+00 0.15297000E+04</pdfrwt>
<pdfrwt beam="2">  1       -1 0.63443742E-01 0.15297000E+04</pdfrwt>
<totfact> 0.39091092E+01</totfact>
</mgrwt>
</event>
<event>
12    7  0.1625631E-007  0.1551593E+04  0.7818608E-02  0.8850851E-01
          2   -1    0    0  501    0  0.00000000000E+00  0.00000000000E+00  0.22714678701E+04  0.22714678701E+04  0.00000000000E+00 0. -1.
         -1   -1    0    0    0  501 -0.00000000000E+00 -0.00000000000E+00 -0.26496533184E+03  0.26496533184E+03  0.00000000000E+00 0.  1.
         24    2    1    2    0    0 -0.45559140061E+03  0.20318810860E+03  0.49821490967E+03  0.71091204353E+03  0.91262838154E+02 0.  0.
        254    2    1    2    0    0  0.45559140061E+03 -0.20318810860E+03  0.15082876286E+04  0.18255211584E+04  0.89930361807E+03 0.  0.
         23    2    4    4    0    0  0.11857021743E+03 -0.45907736126E+03  0.12016947211E+04  0.12951634734E+04  0.92559710596E+02 0.  0.
         23    2    4    4    0    0  0.33702118318E+03  0.25588925265E+03  0.30659290746E+03  0.53035768498E+03  0.90650292794E+02 0.  0.
          2    1    3    3  502    0 -0.18316193665E+03  0.45845123070E+02  0.22935991882E+03  0.29707918592E+03  0.00000000000E+00 0. -1.
         -1    1    3    3    0  502 -0.27242946395E+03  0.15734298553E+03  0.26885499085E+03  0.41383285760E+03  0.00000000000E+00 0.  1.
         13    1    5    5    0    0  0.10640006837E+03 -0.45483006881E+03  0.11372542960E+04  0.12294465014E+04  0.00000000000E+00 0. -1.
        -13    1    5    5    0    0  0.12170149054E+02 -0.42472924486E+01  0.64440425097E+02  0.65716971993E+02  0.00000000000E+00 0.  1.
          1    1    6    6  503    0  0.30989320315E+03  0.23382338314E+03  0.30770949741E+03  0.49537087789E+03  0.00000000000E+00 0. -1.
         -1    1    6    6    0  503  0.27127980026E+02  0.22065869514E+02 -0.11165899519E+01  0.34986807097E+02  0.00000000000E+00 0.  1.
<mgrwt>
<rscale>  0 0.15515930E+04</rscale>
<asrwt>0</asrwt>
<pdfrwt beam="1">  1        2 0.34945658E+00 0.15515930E+04</pdfrwt>
<pdfrwt beam="2">  1       -1 0.40763899E-01 0.15515930E+04</pdfrwt>
<totfact> 0.30381794E+01</totfact>
</mgrwt>
</event>
<event>
12    7  0.1625631E-007  0.1517948E+04  0.7818608E-02  0.8872604E-01
          2   -1    0    0  501    0  0.00000000000E+00  0.00000000000E+00  0.18023690473E+04  0.18023690473E+04  0.00000000000E+00 0. -1.
         -1   -1    0    0    0  501 -0.00000000000E+00 -0.00000000000E+00 -0.31960263290E+03  0.31960263290E+03  0.00000000000E+00 0.  1.
         24    2    1    2    0    0 -0.21725503362E+03 -0.41295706828E+03  0.67044320100E+03  0.82134772034E+03  0.85934289191E+02 0.  0.
        254    2    1    2    0    0  0.21725503362E+03  0.41295706828E+03  0.81232321337E+03  0.13006239598E+04  0.90223078645E+03 0.  0.
         23    2    4    4    0    0  0.21587176493E+03  0.21232770633E+03  0.97574679966E+03  0.10257593624E+04  0.91743004212E+02 0.  0.
         23    2    4    4    0    0  0.13832686895E+01  0.20062936194E+03 -0.16342358629E+03  0.27486459738E+03  0.92678066620E+02 0.  0.
          2    1    3    3  502    0 -0.38650150808E+02 -0.11304972943E+03  0.23168350421E+03  0.26067474294E+03  0.00000000000E+00 0. -1.
         -1    1    3    3    0  502 -0.17860488281E+03 -0.29990733884E+03  0.43875969679E+03  0.56067297740E+03  0.00000000000E+00 0.  1.
         13    1    5    5    0    0  0.10861529983E+03  0.16778502382E+03  0.64094618834E+03  0.67138745440E+03  0.00000000000E+00 0.  1.
        -13    1    5    5    0    0  0.10725646510E+03  0.44542682510E+02  0.33480061131E+03  0.35437190804E+03  0.00000000000E+00 0. -1.
          1    1    6    6  503    0  0.25409087703E+02  0.53987778416E+02 -0.92827988046E+02  0.11035097336E+03  0.00000000000E+00 0.  1.
         -1    1    6    6    0  503 -0.24025819013E+02  0.14664158353E+03 -0.70595598244E+02  0.16451362403E+03  0.00000000000E+00 0. -1.
<mgrwt>
<rscale>  0 0.15179485E+04</rscale>
<asrwt>0</asrwt>
<pdfrwt beam="1">  1        2 0.27728754E+00 0.15179485E+04</pdfrwt>
<pdfrwt beam="2">  1       -1 0.49169637E-01 0.15179485E+04</pdfrwt>
<totfact> 0.39185251E+01</totfact>
</mgrwt>
</event>
<event>
12    7  0.1625631E-007  0.1683949E+04  0.7818608E-02  0.8770572E-01
         -1   -1    0    0    0  501 -0.00000000000E+00  0.00000000000E+00  0.30982881967E+03  0.30982881967E+03  0.00000000000E+00 0.  1.
          2   -1    0    0  501    0  0.00000000000E+00 -0.00000000000E+00 -0.22881056300E+04  0.22881056300E+04  0.00000000000E+00 0. -1.
         24    2    1    2    0    0 -0.38939711087E+03  0.67625716345E+02 -0.19638090861E+02  0.40344889112E+03  0.78625731606E+02 0.  0.
        254    2    1    2    0    0  0.38939711087E+03 -0.67625716345E+02 -0.19586387195E+04  0.21944855586E+04  0.90735763942E+03 0.  0.
         23    2    4    4    0    0  0.40428859679E+03 -0.47882778489E+01 -0.25362877442E+03  0.48582124230E+03  0.90678151505E+02 0.  0.
         23    2    4    4    0    0 -0.14891485915E+02 -0.62837438496E+02 -0.17050099451E+04  0.17086643163E+04  0.91129209627E+02 0.  0.
          2    1    3    3  502    0 -0.36094440152E+03  0.75039059822E+02 -0.34919701312E+02  0.37031217510E+03  0.00000000000E+00 0. -1.
         -1    1    3    3    0  502 -0.28452709355E+02 -0.74133434764E+01  0.15281610451E+02  0.33136716027E+02  0.00000000000E+00 0.  1.
         13    1    5    5    0    0  0.38600607132E+03  0.15806448684E+02 -0.23057087096E+03  0.44990383133E+03  0.00000000000E+00 0. -1.
        -13    1    5    5    0    0  0.18282525466E+02 -0.20594726532E+02 -0.23057903460E+02  0.35917410964E+02  0.00000000000E+00 0.  1.
          4    1    6    6  503    0  0.16774348235E+02 -0.74673148008E+02 -0.12971084982E+04  0.12993644269E+04  0.00000000000E+00 0. -1.
         -4    1    6    6    0  503 -0.31665834150E+02  0.11835709511E+02 -0.40790144694E+03  0.40929988943E+03  0.00000000000E+00 0.  1.
<mgrwt>
<rscale>  0 0.16839490E+04</rscale>
<asrwt>0</asrwt>
<pdfrwt beam="1">  1        2 0.35201624E+00 0.16839490E+04</pdfrwt>
<pdfrwt beam="2">  1       -1 0.47665974E-01 0.16839490E+04</pdfrwt>
<totfact> 0.21976337E+01</totfact>
</mgrwt>
</event>
<event>
12    7  0.1625631E-007  0.1628013E+04  0.7818608E-02  0.8803521E-01
         -1   -1    0    0    0  501 -0.00000000000E+00  0.00000000000E+00  0.85238540964E+03  0.85238540964E+03  0.00000000000E+00 0.  1.
          2   -1    0    0  501    0  0.00000000000E+00 -0.00000000000E+00 -0.77735576559E+03  0.77735576559E+03  0.00000000000E+00 0. -1.
         24    2    1    2    0    0 -0.42853972654E+03 -0.29114922615E+03  0.24982906064E+03  0.58119846716E+03  0.83444170493E+02 0.  0.
        254    2    1    2    0    0  0.42853972654E+03  0.29114922615E+03 -0.17479941658E+03  0.10485427081E+04  0.89469145827E+03 0.  0.
         23    2    4    4    0    0 -0.12501778525E+03 -0.15738357494E+03  0.14154781663E+03  0.26374923387E+03  0.95544951120E+02 0.  0.
         23    2    4    4    0    0  0.55355751178E+03  0.44853280109E+03 -0.31634723321E+03  0.78479347420E+03  0.90651159264E+02 0.  0.
          4    1    3    3  502    0 -0.84862640290E+00 -0.16393791250E+02  0.83577883872E+01  0.18420889910E+02  0.00000000000E+00 0. -1.
         -3    1    3    3    0  502 -0.42769110013E+03 -0.27475543490E+03  0.24147127225E+03  0.56277757725E+03  0.00000000000E+00 0.  1.
         13    1    5    5    0    0 -0.38275058161E+02 -0.11779597836E+03  0.57126541554E+02  0.13639763321E+03  0.00000000000E+00 0. -1.
        -13    1    5    5    0    0 -0.86742727088E+02 -0.39587596583E+02  0.84421275080E+02  0.12735160066E+03  0.00000000000E+00 0.  1.
          4    1    6    6  503    0  0.73340216713E+02  0.44847666941E+02 -0.69798757218E+02  0.11073376688E+03  0.00000000000E+00 0. -1.
         -4    1    6    6    0  503  0.48021729507E+03  0.40368513415E+03 -0.24654847600E+03  0.67405970732E+03  0.00000000000E+00 0.  1.
<mgrwt>
<rscale>  0 0.16280132E+04</rscale>
<asrwt>0</asrwt>
<pdfrwt beam="1">  1        2 0.11959320E+00 0.16280132E+04</pdfrwt>
<pdfrwt beam="2">  1       -1 0.13113622E+00 0.16280132E+04</pdfrwt>
<totfact> 0.19396790E+01</totfact>
</mgrwt>
</event>
<event>
12    7  0.1625631E-007  0.1672981E+04  0.7818608E-02  0.8776926E-01
          2   -1    0    0  501    0  0.00000000000E+00  0.00000000000E+00  0.20061732341E+04  0.20061732341E+04  0.00000000000E+00 0. -1.
         -1   -1    0    0    0  501 -0.00000000000E+00 -0.00000000000E+00 -0.34878172477E+03  0.34878172477E+03  0.00000000000E+00 0.  1.
         24    2    1    2    0    0  0.47963723643E+03  0.15701620000E+03  0.11351356998E+04  0.12448740451E+04  0.80451013372E+02 0.  0.
        254    2    1    2    0    0 -0.47963723643E+03 -0.15701620000E+03  0.52225580957E+03  0.11100809138E+04  0.83953709803E+03 0.  0.
         23    2    4    4    0    0 -0.32180409991E+03  0.31488749167E+03  0.16295631049E+03  0.48874187029E+03  0.97989007093E+02 0.  0.
         23    2    4    4    0    0 -0.15783313652E+03 -0.47190369167E+03  0.35929949908E+03  0.62133904354E+03  0.96755794621E+02 0.  0.
          4    1    3    3  502    0  0.31684814336E+03  0.13600356388E+03  0.82026674281E+03  0.88979056227E+03  0.00000000000E+00 0. -1.
         -3    1    3    3    0  502  0.16278909307E+03  0.21012636115E+02  0.31486895696E+03  0.35508348280E+03  0.00000000000E+00 0.  1.
         13    1    5    5    0    0 -0.15098499594E+03  0.15684499146E+03  0.13036388087E+03  0.25375492464E+03  0.00000000000E+00 0. -1.
        -13    1    5    5    0    0 -0.17081910397E+03  0.15804250020E+03  0.32592429625E+02  0.23498694564E+03  0.00000000000E+00 0.  1.
          2    1    6    6  503    0 -0.79019806920E+02 -0.26879210360E+03  0.14386949612E+03  0.31494722853E+03  0.00000000000E+00 0. -1.
         -2    1    6    6    0  503 -0.78813329601E+02 -0.20311158807E+03  0.21543000296E+03  0.30639181501E+03  0.00000000000E+00 0.  1.
<mgrwt>
<rscale>  0 0.16729812E+04</rscale>
<asrwt>0</asrwt>
<pdfrwt beam="1">  1        2 0.30864203E+00 0.16729812E+04</pdfrwt>
<pdfrwt beam="2">  1       -1 0.53658728E-01 0.16729812E+04</pdfrwt>
<totfact> 0.25235812E+01</totfact>
</mgrwt>
</event>
<event>
12    7  0.1625631E-007  0.1528698E+04  0.7818608E-02  0.8865590E-01
         -1   -1    0    0    0  501 -0.00000000000E+00  0.00000000000E+00  0.91883873137E+03  0.91883873137E+03  0.00000000000E+00 0.  1.
          2   -1    0    0  501    0  0.00000000000E+00 -0.00000000000E+00 -0.63583491945E+03  0.63583491945E+03  0.00000000000E+00 0. -1.
         24    2    1    2    0    0 -0.28311619617E+03  0.27798650054E+03 -0.25296671532E+03  0.47744805467E+03  0.80828279922E+02 0.  0.
        254    2    1    2    0    0  0.28311619617E+03 -0.27798650054E+03  0.53597052724E+03  0.10772255962E+04  0.84600195267E+03 0.  0.
         23    2    4    4    0    0 -0.19969707538E+03  0.11661109645E+03  0.33196200787E+03  0.41477918496E+03  0.91465446322E+02 0.  0.
         23    2    4    4    0    0  0.48281327155E+03 -0.39459759699E+03  0.20400851937E+03  0.66244641120E+03  0.91650711913E+02 0.  0.
          4    1    3    3  502    0 -0.25157629674E+03  0.20795480135E+03 -0.22142674035E+03  0.39441809521E+03  0.00000000000E+00 0. -1.
         -3    1    3    3    0  502 -0.31539899425E+02  0.70031699186E+02 -0.31539974969E+02  0.83029959459E+02  0.00000000000E+00 0.  1.
         13    1    5    5    0    0 -0.13469693355E+02  0.84134182861E+01 -0.33730356719E+01  0.16235627982E+02  0.00000000000E+00 0.  1.
        -13    1    5    5    0    0 -0.18622738203E+03  0.10819767817E+03  0.33533504355E+03  0.39854355698E+03  0.00000000000E+00 0. -1.
          1    1    6    6  503    0  0.33146403678E+03 -0.32300647044E+03  0.14875047251E+03  0.48613608249E+03  0.00000000000E+00 0. -1.
         -1    1    6    6    0  503  0.15134923477E+03 -0.71591126551E+02  0.55258046854E+02  0.17631032871E+03  0.00000000000E+00 0.  1.
<mgrwt>
<rscale>  0 0.15286985E+04</rscale>
<asrwt>0</asrwt>
<pdfrwt beam="1">  1        2 0.97820757E-01 0.15286985E+04</pdfrwt>
<pdfrwt beam="2">  1       -1 0.14135980E+00 0.15286985E+04</pdfrwt>
<totfact> 0.20799923E+01</totfact>
</mgrwt>
</event>
<event>
12    7  0.1625631E-007  0.2205102E+04  0.7818608E-02  0.8516307E-01
         -1   -1    0    0    0  501 -0.00000000000E+00  0.00000000000E+00  0.39161718199E+03  0.39161718199E+03  0.00000000000E+00 0.  1.
          2   -1    0    0  501    0  0.00000000000E+00 -0.00000000000E+00 -0.31041009115E+04  0.31041009115E+04  0.00000000000E+00 0. -1.
         24    2    1    2    0    0 -0.58352610840E+03 -0.52840662307E+03 -0.39555622256E+03  0.88450989695E+03  0.78592328649E+02 0.  0.
        254    2    1    2    0    0  0.58352610840E+03  0.52840662307E+03 -0.23169275069E+04  0.26112081965E+04  0.91133906682E+03 0.  0.
         23    2    4    4    0    0 -0.16272034411E+02 -0.16579686181E+03 -0.90461856061E+03  0.92452121123E+03  0.93012640730E+02 0.  0.
         23    2    4    4    0    0  0.59979814281E+03  0.69420348488E+03 -0.14123089463E+04  0.16866869853E+04  0.92844687165E+02 0.  0.
          4    1    3    3  502    0 -0.41743293329E+03 -0.37873819584E+03 -0.32203489443E+03  0.64915279250E+03  0.00000000000E+00 0. -1.
         -3    1    3    3    0  502 -0.16609317511E+03 -0.14966842723E+03 -0.73521328126E+02  0.23535710445E+03  0.00000000000E+00 0.  1.
         13    1    5    5    0    0 -0.15215279419E+02 -0.14762766759E+03 -0.88651163263E+03  0.89884832299E+03  0.00000000000E+00 0. -1.
        -13    1    5    5    0    0 -0.10567549914E+01 -0.18169194218E+02 -0.18106927979E+02  0.25672888238E+02  0.00000000000E+00 0.  1.
          2    1    6    6  503    0  0.17616987997E+03  0.18634302647E+03 -0.32419225655E+03  0.41335235493E+03  0.00000000000E+00 0. -1.
         -2    1    6    6    0  503  0.42362826283E+03  0.50786045841E+03 -0.10881166898E+04  0.12733346303E+04  0.00000000000E+00 0.  1.
<mgrwt>
<rscale>  0 0.22051025E+04</rscale>
<asrwt>0</asrwt>
<pdfrwt beam="1">  1        2 0.47755397E+00 0.22051025E+04</pdfrwt>
<pdfrwt beam="2">  1       -1 0.60248800E-01 0.22051025E+04</pdfrwt>
<totfact> 0.43508268E+00</totfact>
</mgrwt>
</event>
<event>
12    7  0.1625631E-007  0.1430504E+04  0.7818608E-02  0.8932030E-01
         -1   -1    0    0    0  501 -0.00000000000E+00  0.00000000000E+00  0.26160122848E+03  0.26160122848E+03  0.00000000000E+00 0.  1.
          2   -1    0    0  501    0  0.00000000000E+00 -0.00000000000E+00 -0.19555919037E+04  0.19555919037E+04  0.00000000000E+00 0. -1.
         24    2    1    2    0    0  0.18226519233E+03  0.18851344073E+03 -0.10408607112E+04  0.10763683933E+04  0.80124779192E+02 0.  0.
        254    2    1    2    0    0 -0.18226519233E+03 -0.18851344073E+03 -0.65312996403E+03  0.11408247389E+04  0.89785545459E+03 0.  0.
         23    2    4    4    0    0 -0.82376221243E+02  0.23642250948E+03  0.84038812804E+02  0.27928854928E+03  0.90874236657E+02 0.  0.
         23    2    4    4    0    0 -0.99888971082E+02 -0.42493595022E+03 -0.73716877684E+03  0.86153618963E+03  0.90985889983E+02 0.  0.
          2    1    3    3  502    0  0.10991445998E+03  0.14984037914E+03 -0.81920740956E+03  0.84002030190E+03  0.00000000000E+00 0. -1.
         -1    1    3    3    0  502  0.72350732349E+02  0.38673061597E+02 -0.22165330163E+03  0.23634809136E+03  0.00000000000E+00 0.  1.
         13    1    5    5    0    0 -0.36396611408E+02  0.19018826445E+03  0.32884147270E+02  0.19641195585E+03  0.00000000000E+00 0.  1.
        -13    1    5    5    0    0 -0.45979609835E+02  0.46234245028E+02  0.51154665534E+02  0.82876593437E+02  0.00000000000E+00 0. -1.
          2    1    6    6  503    0 -0.10152804732E+02 -0.19172923505E+02 -0.97601903330E+01  0.23789530365E+02  0.00000000000E+00 0. -1.
         -2    1    6    6    0  503 -0.89736166351E+02 -0.40576302671E+03 -0.72740858650E+03  0.83774665927E+03  0.00000000000E+00 0.  1.
<mgrwt>
<rscale>  0 0.14305037E+04</rscale>
<asrwt>0</asrwt>
<pdfrwt beam="1">  1        2 0.30086029E+00 0.14305037E+04</pdfrwt>
<pdfrwt beam="2">  1       -1 0.40246343E-01 0.14305037E+04</pdfrwt>
<totfact> 0.47139703E+01</totfact>
</mgrwt>
</event>
<event>
12    7  0.1625631E-007  0.2634556E+04  0.7818608E-02  0.8356557E-01
         -1   -1    0    0    0  501 -0.00000000000E+00  0.00000000000E+00  0.21524867858E+04  0.21524867858E+04  0.00000000000E+00 0.  1.
          2   -1    0    0  501    0  0.00000000000E+00 -0.00000000000E+00 -0.80614744026E+03  0.80614744026E+03  0.00000000000E+00 0. -1.
         24    2    1    2    0    0 -0.29844497720E+03 -0.20180359960E+03 -0.64391836799E+03  0.74203719067E+03  0.78703433700E+02 0.  0.
        254    2    1    2    0    0  0.29844497720E+03  0.20180359960E+03  0.19902577135E+04  0.22165970354E+04  0.90685310488E+03 0.  0.
         23    2    4    4    0    0  0.13727756694E+03 -0.27811814032E+03  0.27135298644E+03  0.42229430452E+03  0.92223673839E+02 0.  0.
         23    2    4    4    0    0  0.16116741026E+03  0.47992173992E+03  0.17189047271E+04  0.17943027309E+04  0.92676958673E+02 0.  0.
          4    1    3    3  502    0 -0.30271222660E+03 -0.19474121687E+03 -0.62232393692E+03  0.71891996505E+03  0.00000000000E+00 0. -1.
         -3    1    3    3    0  502  0.42672493994E+01 -0.70623827321E+01 -0.21594431070E+02  0.23117225623E+02  0.00000000000E+00 0.  1.
         13    1    5    5    0    0  0.10058386329E+02 -0.59788381202E+02  0.10013672062E+03  0.11706060173E+03  0.00000000000E+00 0.  1.
        -13    1    5    5    0    0  0.12721918062E+03 -0.21832975912E+03  0.17121626583E+03  0.30523370278E+03  0.00000000000E+00 0. -1.
          1    1    6    6  503    0  0.12805047159E+03  0.43793415434E+03  0.14485543951E+04  0.15187142860E+04  0.00000000000E+00 0. -1.
         -1    1    6    6    0  503  0.33116938669E+02  0.41987585578E+02  0.27035033196E+03  0.27558844490E+03  0.00000000000E+00 0.  1.
<mgrwt>
<rscale>  0 0.26345563E+04</rscale>
<asrwt>0</asrwt>
<pdfrwt beam="1">  1        2 0.12402268E+00 0.26345563E+04</pdfrwt>
<pdfrwt beam="2">  1       -1 0.33115181E+00 0.26345563E+04</pdfrwt>
<totfact> 0.70955527E-01</totfact>
</mgrwt>
</event>
<event>
12    7  0.1625631E-007  0.2205458E+04  0.7818608E-02  0.8516160E-01
         -1   -1    0    0    0  501 -0.00000000000E+00  0.00000000000E+00  0.86878785177E+03  0.86878785177E+03  0.00000000000E+00 0.  1.
          2   -1    0    0  501    0  0.00000000000E+00 -0.00000000000E+00 -0.13996639451E+04  0.13996639451E+04  0.00000000000E+00 0. -1.
         24    2    1    2    0    0 -0.37884957465E+02 -0.62702261903E+03  0.45980029366E+03  0.78255166936E+03  0.79863448437E+02 0.  0.
        254    2    1    2    0    0  0.37884957465E+02  0.62702261903E+03 -0.99067638700E+03  0.14859001275E+04  0.91206734972E+03 0.  0.
         23    2    4    4    0    0 -0.11313800031E+03  0.47293624236E+02 -0.85007780853E+03  0.86383158801E+03  0.92389598270E+02 0.  0.
         23    2    4    4    0    0  0.15102295777E+03  0.57972899479E+03 -0.14059857847E+03  0.62206853951E+03  0.91146400955E+02 0.  0.
          4    1    3    3  502    0 -0.21710973094E+02 -0.55975974477E+03  0.37983137141E+03  0.67681179727E+03  0.00000000000E+00 0. -1.
         -3    1    3    3    0  502 -0.16173984371E+02 -0.67262874254E+02  0.79968922250E+02  0.10573987209E+03  0.00000000000E+00 0.  1.
         13    1    5    5    0    0  0.90532368345E+01 -0.23306860944E+01 -0.10926560107E+02  0.14379948214E+02  0.00000000000E+00 0.  1.
        -13    1    5    5    0    0 -0.12219123714E+03  0.49624310331E+02 -0.83915124843E+03  0.84945163979E+03  0.00000000000E+00 0. -1.
          3    1    6    6  503    0  0.12924761180E+03  0.54179452109E+03 -0.10764412649E+03  0.56730371602E+03  0.00000000000E+00 0. -1.
         -3    1    6    6    0  503  0.21775345972E+02  0.37934473698E+02 -0.32954451976E+02  0.54764823491E+02  0.00000000000E+00 0.  1.
<mgrwt>
<rscale>  0 0.22054578E+04</rscale>
<asrwt>0</asrwt>
<pdfrwt beam="1">  1        2 0.21533291E+00 0.22054578E+04</pdfrwt>
<pdfrwt beam="2">  1       -1 0.13365967E+00 0.22054578E+04</pdfrwt>
<totfact> 0.71226976E+00</totfact>
</mgrwt>
</event>
<event>
12    7  0.1625631E-007  0.1254434E+04  0.7818608E-02  0.9066501E-01
          2   -1    0    0  501    0  0.00000000000E+00  0.00000000000E+00  0.13477925482E+04  0.13477925482E+04  0.00000000000E+00 0. -1.
         -1   -1    0    0    0  501 -0.00000000000E+00 -0.00000000000E+00 -0.29188541244E+03  0.29188541244E+03  0.00000000000E+00 0.  1.
         24    2    1    2    0    0 -0.20234993997E+03  0.66195691373E+02  0.53092566582E+03  0.57752759453E+03  0.79553076991E+02 0.  0.
        254    2    1    2    0    0  0.20234993997E+03 -0.66195691373E+02  0.52498146999E+03  0.10621503662E+04  0.89846006519E+03 0.  0.
         23    2    4    4    0    0 -0.12335048831E+01 -0.37206677120E+03  0.56469700069E+03  0.68223925501E+03  0.90180345505E+02 0.  0.
         23    2    4    4    0    0  0.20358344485E+03  0.30587107983E+03 -0.39715530708E+02  0.37991111115E+03  0.88044264441E+02 0.  0.
          2    1    3    3  502    0 -0.10851828479E+03  0.72799578915E+02  0.35024161217E+03  0.37382507102E+03  0.00000000000E+00 0. -1.
         -1    1    3    3    0  502 -0.93831655175E+02 -0.66038875416E+01  0.18068405365E+03  0.20370252351E+03  0.00000000000E+00 0.  1.
         13    1    5    5    0    0 -0.28515877725E+02 -0.48575656816E+02  0.10948721345E+03  0.12312676243E+03  0.00000000000E+00 0. -1.
        -13    1    5    5    0    0  0.27282372841E+02 -0.32349111439E+03  0.45520978724E+03  0.55911249257E+03  0.00000000000E+00 0.  1.
          4    1    6    6  503    0  0.10917225473E+03  0.21855296216E+03 -0.54965971273E+02  0.25041013651E+03  0.00000000000E+00 0.  1.
         -4    1    6    6    0  503  0.94411190122E+02  0.87318117673E+02  0.15250440565E+02  0.12950097464E+03  0.00000000000E+00 0. -1.
<mgrwt>
<rscale>  0 0.12544337E+04</rscale>
<asrwt>0</asrwt>
<pdfrwt beam="1">  1        2 0.20735270E+00 0.12544337E+04</pdfrwt>
<pdfrwt beam="2">  1       -1 0.44905449E-01 0.12544337E+04</pdfrwt>
<totfact> 0.85405626E+01</totfact>
</mgrwt>
</event>
<event>
12    7  0.1625631E-007  0.2111466E+04  0.7818608E-02  0.8556209E-01
         -1   -1    0    0    0  501 -0.00000000000E+00  0.00000000000E+00  0.11679183332E+04  0.11679183332E+04  0.00000000000E+00 0.  1.
          2   -1    0    0  501    0  0.00000000000E+00 -0.00000000000E+00 -0.95432342206E+03  0.95432342206E+03  0.00000000000E+00 0. -1.
         24    2    1    2    0    0  0.21475117872E+03  0.16103395790E+03  0.90640229207E+03  0.94869750923E+03  0.80073994456E+02 0.  0.
        254    2    1    2    0    0 -0.21475117872E+03 -0.16103395790E+03 -0.69280738089E+03  0.11735442461E+04  0.90839089939E+03 0.  0.
         23    2    4    4    0    0 -0.22555439570E+03  0.28768446122E+03 -0.59528016302E+03  0.70495193767E+03  0.94665871862E+02 0.  0.
         23    2    4    4    0    0  0.10803216982E+02 -0.44871841912E+03 -0.97527217872E+02  0.46859230839E+03  0.92748391405E+02 0.  0.
          4    1    3    3  502    0  0.13311908591E+02 -0.90827786452E+01  0.63990766015E+02  0.65988801424E+02  0.00000000000E+00 0. -1.
         -3    1    3    3    0  502  0.20143927013E+03  0.17011673655E+03  0.84241152606E+03  0.88270870781E+03  0.00000000000E+00 0.  1.
         13    1    5    5    0    0 -0.15300322539E+03  0.19315197469E+03 -0.31157204505E+03  0.39723395067E+03  0.00000000000E+00 0. -1.
        -13    1    5    5    0    0 -0.72551170307E+02  0.94532486525E+02 -0.28370811798E+03  0.30771798701E+03  0.00000000000E+00 0.  1.
          1    1    6    6  503    0 -0.49031711461E+01 -0.32917426712E+03 -0.11065068770E+03  0.34730867238E+03  0.00000000000E+00 0. -1.
         -1    1    6    6    0  503  0.15706388128E+02 -0.11954415200E+03  0.13123469827E+02  0.12128363602E+03  0.00000000000E+00 0.  1.
<mgrwt>
<rscale>  0 0.21114657E+04</rscale>
<asrwt>0</asrwt>
<pdfrwt beam="1">  1        2 0.14681899E+00 0.21114657E+04</pdfrwt>
<pdfrwt beam="2">  1       -1 0.17967974E+00 0.21114657E+04</pdfrwt>
<totfact> 0.59264107E+00</totfact>
</mgrwt>
</event>
<event>
12    7  0.1625631E-007  0.3024061E+04  0.7818608E-02  0.8236893E-01
         -1   -1    0    0    0  501 -0.00000000000E+00  0.00000000000E+00  0.19256565127E+04  0.19256565127E+04  0.00000000000E+00 0.  1.
          2   -1    0    0  501    0  0.00000000000E+00 -0.00000000000E+00 -0.11872504896E+04  0.11872504896E+04  0.00000000000E+00 0. -1.
         24    2    1    2    0    0  0.75414530451E+03 -0.62919579440E+03 -0.65551161974E+03  0.11835109895E+04  0.79876721543E+02 0.  0.
        254    2    1    2    0    0 -0.75414530451E+03  0.62919579440E+03  0.13939176428E+04  0.19293960127E+04  0.90274032316E+03 0.  0.
         23    2    4    4    0    0 -0.48027556916E+03  0.12947782255E+02  0.14979664656E+03  0.51133700911E+03  0.90522009263E+02 0.  0.
         23    2    4    4    0    0 -0.27386973535E+03  0.61624801215E+03  0.12441209962E+04  0.14180590036E+04  0.91038673608E+02 0.  0.
          4    1    3    3  502    0  0.60561034723E+03 -0.50913552043E+03 -0.48886445129E+03  0.93003834468E+03  0.00000000000E+00 0. -1.
         -3    1    3    3    0  502  0.14853495728E+03 -0.12006027397E+03 -0.16664716845E+03  0.25347264482E+03  0.00000000000E+00 0.  1.
         13    1    5    5    0    0 -0.19798158501E+03 -0.38834675158E+02  0.67971621227E+02  0.21289664462E+03  0.00000000000E+00 0.  1.
        -13    1    5    5    0    0 -0.28229398415E+03  0.51782457413E+02  0.81825025336E+02  0.29844036449E+03  0.00000000000E+00 0. -1.
          3    1    6    6  503    0 -0.44366739615E+02  0.16027520753E+03  0.37289292812E+03  0.40829607587E+03  0.00000000000E+00 0. -1.
         -3    1    6    6    0  503 -0.22950299574E+03  0.45597280461E+03  0.87122806813E+03  0.10097629278E+04  0.00000000000E+00 0.  1.
<mgrwt>
<rscale>  0 0.30240613E+04</rscale>
<asrwt>0</asrwt>
<pdfrwt beam="1">  1        2 0.18265392E+00 0.30240613E+04</pdfrwt>
<pdfrwt beam="2">  1       -1 0.29625485E+00 0.30240613E+04</pdfrwt>
<totfact> 0.65520220E-01</totfact>
</mgrwt>
</event>
<event>
12    7  0.1625631E-007  0.1401484E+04  0.7818608E-02  0.8952745E-01
          2   -1    0    0  501    0  0.00000000000E+00  0.00000000000E+00  0.24340794783E+04  0.24340794783E+04  0.00000000000E+00 0. -1.
         -1   -1    0    0    0  501 -0.00000000000E+00 -0.00000000000E+00 -0.20173507148E+03  0.20173507148E+03  0.00000000000E+00 0.  1.
         24    2    1    2    0    0  0.12083357774E+03  0.19131055812E+03  0.25015717757E+02  0.24278154835E+03  0.84360007877E+02 0.  0.
        254    2    1    2    0    0 -0.12083357774E+03 -0.19131055812E+03  0.22073286891E+04  0.23930330014E+04  0.89616210655E+03 0.  0.
         23    2    4    4    0    0  0.13029604238E+03  0.29739038376E+03  0.11470137474E+04  0.11954102472E+04  0.89146078383E+02 0.  0.
         23    2    4    4    0    0 -0.25112962012E+03 -0.48870094188E+03  0.10603149416E+04  0.11976227542E+04  0.90209696375E+02 0.  0.
          4    1    3    3  502    0  0.45887639956E+02  0.24955258317E+02  0.30035739817E+02  0.60254344945E+02  0.00000000000E+00 0. -1.
         -3    1    3    3    0  502  0.74945937782E+02  0.16635529980E+03 -0.50200220607E+01  0.18252720341E+03  0.00000000000E+00 0.  1.
         13    1    5    5    0    0 -0.85602848324E+01  0.33771886885E+01  0.14761688065E+02  0.17395152036E+02  0.00000000000E+00 0.  1.
        -13    1    5    5    0    0  0.13885632722E+03  0.29401319507E+03  0.11322520594E+04  0.11780150951E+04  0.00000000000E+00 0. -1.
          4    1    6    6  503    0 -0.43330173830E+02 -0.11343251450E+03  0.31629481037E+03  0.33880207552E+03  0.00000000000E+00 0. -1.
         -4    1    6    6    0  503 -0.20779944629E+03 -0.37526842738E+03  0.74402013127E+03  0.85882067873E+03  0.00000000000E+00 0.  1.
<mgrwt>
<rscale>  0 0.14014838E+04</rscale>
<asrwt>0</asrwt>
<pdfrwt beam="1">  1        2 0.37447375E+00 0.14014838E+04</pdfrwt>
<pdfrwt beam="2">  1       -1 0.31036167E-01 0.14014838E+04</pdfrwt>
<totfact> 0.40611473E+01</totfact>
</mgrwt>
</event>
<event>
12    7  0.1625631E-007  0.1287293E+04  0.7818608E-02  0.9039703E-01
         -1   -1    0    0    0  501 -0.00000000000E+00  0.00000000000E+00  0.18176286239E+03  0.18176286239E+03  0.00000000000E+00 0.  1.
          2   -1    0    0  501    0  0.00000000000E+00 -0.00000000000E+00 -0.22792362379E+04  0.22792362379E+04  0.00000000000E+00 0. -1.
         24    2    1    2    0    0 -0.15490585916E+03  0.16826541627E+03 -0.13255705258E+03  0.27611572095E+03  0.79746120010E+02 0.  0.
        254    2    1    2    0    0  0.15490585916E+03 -0.16826541627E+03 -0.19649163229E+04  0.21848833793E+04  0.92763686302E+03 0.  0.
         23    2    4    4    0    0  0.37067929011E+03  0.25352743994E+03 -0.11457889907E+04  0.12342183864E+04  0.93719342371E+02 0.  0.
         23    2    4    4    0    0 -0.21577343096E+03 -0.42179285620E+03 -0.81912733222E+03  0.95066499294E+03  0.91252152693E+02 0.  0.
          4    1    3    3  502    0 -0.61554174009E+02  0.34264634483E+02 -0.75151515600E+02  0.10300840651E+03  0.00000000000E+00 0. -1.
         -3    1    3    3    0  502 -0.93351685149E+02  0.13400078179E+03 -0.57405536975E+02  0.17310731445E+03  0.00000000000E+00 0.  1.
         13    1    5    5    0    0  0.15524585258E+03  0.14233213962E+03 -0.63045501783E+03  0.66470538002E+03  0.00000000000E+00 0. -1.
        -13    1    5    5    0    0  0.21543343753E+03  0.11119530032E+03 -0.51533397286E+03  0.56951300635E+03  0.00000000000E+00 0.  1.
          1    1    6    6  503    0  0.58638779751E+01 -0.54729498074E+01 -0.32544361229E+02  0.33518259088E+02  0.00000000000E+00 0. -1.
         -1    1    6    6    0  503 -0.22163730893E+03 -0.41631990640E+03 -0.78658297099E+03  0.91714673386E+03  0.00000000000E+00 0.  1.
<mgrwt>
<rscale>  0 0.12872925E+04</rscale>
<asrwt>0</asrwt>
<pdfrwt beam="1">  1        2 0.35065174E+00 0.12872925E+04</pdfrwt>
<pdfrwt beam="2">  1       -1 0.27963516E-01 0.12872925E+04</pdfrwt>
<totfact> 0.60235715E+01</totfact>
</mgrwt>
</event>
<event>
12    7  0.1625631E-007  0.2335529E+04  0.7818608E-02  0.8464043E-01
          2   -1    0    0  501    0  0.00000000000E+00  0.00000000000E+00  0.94270001726E+03  0.94270001726E+03  0.00000000000E+00 0. -1.
         -1   -1    0    0    0  501 -0.00000000000E+00 -0.00000000000E+00 -0.14465619593E+04  0.14465619593E+04  0.00000000000E+00 0.  1.
         24    2    1    2    0    0  0.27618795827E+03  0.60342274366E+03  0.53860509089E+03  0.85844889399E+03  0.80251254219E+02 0.  0.
        254    2    1    2    0    0 -0.27618795827E+03 -0.60342274366E+03 -0.10424670329E+04  0.15308130826E+04  0.90346686888E+03 0.  0.
         23    2    4    4    0    0  0.14041079910E+03  0.16948548430E+03 -0.23348075186E+03  0.33353730833E+03  0.91067846506E+02 0.  0.
         23    2    4    4    0    0 -0.41659875737E+03 -0.77290822796E+03 -0.80898628106E+03  0.11972757742E+04  0.89826628103E+02 0.  0.
          2    1    3    3  502    0  0.26430614592E+03  0.51712245849E+03  0.48019022139E+03  0.75356222342E+03  0.00000000000E+00 0. -1.
         -1    1    3    3    0  502  0.11881812354E+02  0.86300285173E+02  0.58414869491E+02  0.10488667057E+03  0.00000000000E+00 0.  1.
         13    1    5    5    0    0  0.99860294632E+02  0.11606303897E+03 -0.21503995738E+03  0.26397895887E+03  0.00000000000E+00 0. -1.
        -13    1    5    5    0    0  0.40550504471E+02  0.53422445335E+02 -0.18440794480E+02  0.69558349459E+02  0.00000000000E+00 0.  1.
          1    1    6    6  503    0 -0.30469873509E+03 -0.64030378396E+03 -0.64925910471E+03  0.96144039855E+03  0.00000000000E+00 0. -1.
         -1    1    6    6    0  503 -0.11190002229E+03 -0.13260444401E+03 -0.15972717635E+03  0.23583537568E+03  0.00000000000E+00 0.  1.
<mgrwt>
<rscale>  0 0.23355290E+04</rscale>
<asrwt>0</asrwt>
<pdfrwt beam="1">  1        2 0.14503077E+00 0.23355290E+04</pdfrwt>
<pdfrwt beam="2">  1       -1 0.22254799E+00 0.23355290E+04</pdfrwt>
<totfact> 0.29945558E+00</totfact>
</mgrwt>
</event>
<event>
12    7  0.1842147E-007  0.1873632E+04  0.7818608E-02  0.8668094E-01
         -1   -1    0    0    0  501 -0.00000000000E+00  0.00000000000E+00  0.89306787851E+03  0.89306787851E+03  0.00000000000E+00 0.  1.
          2   -1    0    0  501    0  0.00000000000E+00 -0.00000000000E+00 -0.98270717111E+03  0.98270717111E+03  0.00000000000E+00 0. -1.
         24    2    1    2    0    0  0.22646238459E+03 -0.56804283837E+02 -0.72329324567E+03  0.76364018941E+03  0.74035676284E+02 0.  0.
        254    2    1    2    0    0 -0.22646238459E+03  0.56804283837E+02  0.63365395307E+03  0.11121348602E+04  0.88363718615E+03 0.  0.
         23    2    4    4    0    0  0.14339373769E+03  0.35934128139E+03  0.42755731947E+03  0.58387384970E+03  0.91735982076E+02 0.  0.
         23    2    4    4    0    0 -0.36985612228E+03 -0.30253699756E+03  0.20609663360E+03  0.52826101051E+03  0.90893821385E+02 0.  0.
          2    1    3    3  502    0  0.22323425800E+03 -0.67795976864E+02 -0.69512008508E+03  0.73322695062E+03  0.00000000000E+00 0. -1.
         -1    1    3    3    0  502  0.32281265943E+01  0.10991693027E+02 -0.28173160581E+02  0.30413238795E+02  0.00000000000E+00 0.  1.
         13    1    5    5    0    0  0.54435947094E+01  0.37554440119E+02  0.89407972306E+02  0.97127515195E+02  0.00000000000E+00 0.  1.
        -13    1    5    5    0    0  0.13795014298E+03  0.32178684127E+03  0.33814934717E+03  0.48674633451E+03  0.00000000000E+00 0. -1.
          4    1    6    6  503    0 -0.35992830919E+03 -0.30769677684E+03  0.20748393779E+03  0.51698672969E+03  0.00000000000E+00 0. -1.
         -4    1    6    6    0  503 -0.99278130858E+01  0.51597792873E+01 -0.13873041938E+01  0.11274280815E+02  0.00000000000E+00 0.  1.
<mgrwt>
<rscale>  0 0.18736320E+04</rscale>
<asrwt>0</asrwt>
<pdfrwt beam="1">  1        2 0.15118572E+00 0.18736320E+04</pdfrwt>
<pdfrwt beam="2">  1       -1 0.13739506E+00 0.18736320E+04</pdfrwt>
<totfact> 0.12183167E+01</totfact>
</mgrwt>
</event>
<event>
12    7  0.1625631E-007  0.1370251E+04  0.7818608E-02  0.8975638E-01
          2   -1    0    0  501    0  0.00000000000E+00  0.00000000000E+00  0.11297830312E+04  0.11297830312E+04  0.00000000000E+00 0. -1.
         -1   -1    0    0    0  501 -0.00000000000E+00 -0.00000000000E+00 -0.41547535878E+03  0.41547535878E+03  0.00000000000E+00 0.  1.
         24    2    1    2    0    0 -0.24250405009E+03 -0.22216344314E+03  0.44819295586E+03  0.56179960101E+03  0.81099052023E+02 0.  0.
        254    2    1    2    0    0  0.24250405009E+03  0.22216344314E+03  0.26611471657E+03  0.98345878898E+03  0.88781154389E+03 0.  0.
         23    2    4    4    0    0  0.27681435365E+03 -0.19667635292E+01 -0.26792223551E+03  0.39630454071E+03  0.92978009031E+02 0.  0.
         23    2    4    4    0    0 -0.34310303560E+02  0.22413020667E+03  0.53403695208E+03  0.58715424827E+03  0.90239119045E+02 0.  0.
          2    1    3    3  502    0 -0.13268585669E+03 -0.11117608192E+03  0.30096602009E+03  0.34719764257E+03  0.00000000000E+00 0. -1.
         -1    1    3    3    0  502 -0.10981819340E+03 -0.11098736122E+03  0.14722693577E+03  0.21460195845E+03  0.00000000000E+00 0.  1.
         13    1    5    5    0    0  0.22304012186E+03  0.16013597369E+02 -0.25303247319E+03  0.33768145307E+03  0.00000000000E+00 0. -1.
        -13    1    5    5    0    0  0.53774231790E+02 -0.17980360898E+02 -0.14889762320E+02  0.58623087641E+02  0.00000000000E+00 0.  1.
          3    1    6    6  503    0 -0.28331072892E+02  0.18057455101E+03  0.49741458690E+03  0.52993498604E+03  0.00000000000E+00 0. -1.
         -3    1    6    6    0  503 -0.59792306676E+01  0.43555655664E+02  0.36622365177E+02  0.57219262236E+02  0.00000000000E+00 0.  1.
<mgrwt>
<rscale>  0 0.13702511E+04</rscale>
<asrwt>0</asrwt>
<pdfrwt beam="1">  1        2 0.17381277E+00 0.13702511E+04</pdfrwt>
<pdfrwt beam="2">  1       -1 0.63919287E-01 0.13702511E+04</pdfrwt>
<totfact> 0.57670868E+01</totfact>
</mgrwt>
</event>
<event>
12    7  0.1625631E-007  0.1212479E+04  0.7818608E-02  0.9102004E-01
          2   -1    0    0  501    0  0.00000000000E+00  0.00000000000E+00  0.35907335366E+03  0.35907335366E+03  0.00000000000E+00 0. -1.
         -1   -1    0    0    0  501 -0.00000000000E+00 -0.00000000000E+00 -0.10235404862E+04  0.10235404862E+04  0.00000000000E+00 0.  1.
         24    2    1    2    0    0  0.18737271890E+03 -0.14383891115E+03 -0.26937269718E+02  0.25028451044E+03  0.78221170518E+02 0.  0.
        254    2    1    2    0    0 -0.18737271890E+03  0.14383891115E+03 -0.63752986280E+03  0.11323293294E+04  0.90549832473E+03 0.  0.
         23    2    4    4    0    0 -0.59624800892E+02  0.17544996015E+03 -0.84513776417E+03  0.86996111089E+03  0.90756204459E+02 0.  0.
         23    2    4    4    0    0 -0.12774791800E+03 -0.31611048996E+02  0.20760790137E+03  0.26236821850E+03  0.91745585151E+02 0.  0.
          2    1    3    3  502    0  0.67234364658E+02 -0.21928592161E+02  0.18690678944E+02  0.73148235963E+02  0.00000000000E+00 0. -1.
         -1    1    3    3    0  502  0.12013835424E+03 -0.12191031899E+03 -0.45627948662E+02  0.17713627447E+03  0.00000000000E+00 0.  1.
         13    1    5    5    0    0 -0.71215104725E+01  0.10844203237E+03 -0.31955239544E+03  0.33752647856E+03  0.00000000000E+00 0.  1.
        -13    1    5    5    0    0 -0.52503290419E+02  0.67007927776E+02 -0.52558536873E+03  0.53243463234E+03  0.00000000000E+00 0. -1.
          2    1    6    6  503    0  0.14560638227E+02 -0.19542849455E+01  0.24591126525E+02  0.28645329794E+02  0.00000000000E+00 0.  1.
         -2    1    6    6    0  503 -0.14230855623E+03 -0.29656764051E+02  0.18301677484E+03  0.23372288871E+03  0.00000000000E+00 0. -1.
<mgrwt>
<rscale>  0 0.12124786E+04</rscale>
<asrwt>0</asrwt>
<pdfrwt beam="1">  1        2 0.55242055E-01 0.12124786E+04</pdfrwt>
<pdfrwt beam="2">  1       -1 0.15746777E+00 0.12124786E+04</pdfrwt>
<totfact> 0.30969511E+01</totfact>
</mgrwt>
</event>
<event>
12    7  0.1625631E-007  0.1520090E+04  0.7818608E-02  0.8871202E-01
          2   -1    0    0  501    0  0.00000000000E+00  0.00000000000E+00  0.10533147995E+04  0.10533147995E+04  0.00000000000E+00 0. -1.
         -1   -1    0    0    0  501 -0.00000000000E+00 -0.00000000000E+00 -0.54842894166E+03  0.54842894166E+03  0.00000000000E+00 0.  1.
         24    2    1    2    0    0  0.44049857319E+03 -0.13336345918E+03  0.79467179950E+01  0.46701852781E+03  0.78856513740E+02 0.  0.
        254    2    1    2    0    0 -0.44049857319E+03  0.13336345918E+03  0.49693913984E+03  0.11347252133E+04  0.91039990986E+03 0.  0.
         23    2    4    4    0    0 -0.11895244227E+02  0.36509588187E+03  0.51605170314E+03  0.63906701333E+03  0.93063351615E+02 0.  0.
         23    2    4    4    0    0 -0.42860332896E+03 -0.23173242269E+03 -0.19112563305E+02  0.49565820002E+03  0.88943981510E+02 0.  0.
          2    1    3    3  502    0  0.83261485281E+02 -0.69543606947E+01  0.26410586060E+02  0.87626235340E+02  0.00000000000E+00 0. -1.
         -1    1    3    3    0  502  0.35723708791E+03 -0.12640909849E+03 -0.18463868065E+02  0.37939229247E+03  0.00000000000E+00 0.  1.
         13    1    5    5    0    0 -0.24175655049E+02  0.28700575806E+02  0.31111336616E+02  0.48745262484E+02  0.00000000000E+00 0. -1.
        -13    1    5    5    0    0  0.12280410822E+02  0.33639530607E+03  0.48494036653E+03  0.59032175085E+03  0.00000000000E+00 0.  1.
          4    1    6    6  503    0 -0.73019192796E+01  0.75615757062E+01  0.19179997474E+01  0.10685231647E+02  0.00000000000E+00 0. -1.
         -4    1    6    6    0  503 -0.42130140968E+03 -0.23929399840E+03 -0.21030563053E+02  0.48497296837E+03  0.00000000000E+00 0.  1.
<mgrwt>
<rscale>  0 0.15200899E+04</rscale>
<asrwt>0</asrwt>
<pdfrwt beam="1">  1        2 0.16204843E+00 0.15200899E+04</pdfrwt>
<pdfrwt beam="2">  1       -1 0.84373684E-01 0.15200899E+04</pdfrwt>
<totfact> 0.35675307E+01</totfact>
</mgrwt>
</event>
<event>
12    7  0.1625631E-007  0.1790652E+04  0.7818608E-02  0.8711286E-01
         -1   -1    0    0    0  501 -0.00000000000E+00  0.00000000000E+00  0.28291059387E+03  0.28291059387E+03  0.00000000000E+00 0.  1.
          2   -1    0    0  501    0  0.00000000000E+00 -0.00000000000E+00 -0.28334357935E+04  0.28334357935E+04  0.00000000000E+00 0. -1.
         24    2    1    2    0    0  0.44577371011E+03  0.46200207287E+03 -0.66635684195E+03  0.93067270765E+03  0.99800460883E+02 0.  0.
        254    2    1    2    0    0 -0.44577371011E+03 -0.46200207287E+03 -0.18841683577E+04  0.21856736797E+04  0.90272859607E+03 0.  0.
         23    2    4    4    0    0  0.17753943105E+03  0.12837067362E+03 -0.51055297664E+03  0.56320786574E+03  0.92409299571E+02 0.  0.
         23    2    4    4    0    0 -0.62331314115E+03 -0.59037274648E+03 -0.13736153810E+04  0.16224658140E+04  0.92286785509E+02 0.  0.
          2    1    3    3  502    0  0.20197295671E+03  0.23805335771E+03 -0.38909189823E+03  0.49885366755E+03  0.00000000000E+00 0. -1.
         -3    1    3    3    0  502  0.24380075339E+03  0.22394871515E+03 -0.27726494372E+03  0.43181904010E+03  0.00000000000E+00 0.  1.
         13    1    5    5    0    0  0.93771964670E+02  0.11472782651E+03 -0.37577547518E+03  0.40393423138E+03  0.00000000000E+00 0.  1.
        -13    1    5    5    0    0  0.83767466378E+02  0.13642847105E+02 -0.13477750147E+03  0.15927363436E+03  0.00000000000E+00 0. -1.
          3    1    6    6  503    0 -0.16348078664E+03 -0.11268247177E+03 -0.27321365375E+03  0.33774103636E+03  0.00000000000E+00 0. -1.
         -3    1    6    6    0  503 -0.45983235451E+03 -0.47769027471E+03 -0.11004017273E+04  0.12847247776E+04  0.00000000000E+00 0.  1.
<mgrwt>
<rscale>  0 0.17906524E+04</rscale>
<asrwt>0</asrwt>
<pdfrwt beam="1">  1        2 0.43591319E+00 0.17906524E+04</pdfrwt>
<pdfrwt beam="2">  1       -1 0.43524708E-01 0.17906524E+04</pdfrwt>
<totfact> 0.12406214E+01</totfact>
</mgrwt>
</event>
<event>
12    7  0.1625631E-007  0.1838474E+04  0.7818608E-02  0.8686103E-01
          2   -1    0    0  501    0  0.00000000000E+00  0.00000000000E+00  0.19707818410E+04  0.19707818410E+04  0.00000000000E+00 0. -1.
         -1   -1    0    0    0  501 -0.00000000000E+00 -0.00000000000E+00 -0.42876198000E+03  0.42876198000E+03  0.00000000000E+00 0.  1.
         24    2    1    2    0    0  0.27044255481E+03  0.35743862864E+02  0.14313617266E+04  0.14591999018E+04  0.77789213343E+02 0.  0.
        254    2    1    2    0    0 -0.27044255481E+03 -0.35743862864E+02  0.11065813436E+03  0.94034391921E+03  0.89307595674E+03 0.  0.
         23    2    4    4    0    0  0.21671606324E+03  0.22552792163E+03  0.18560385375E+03  0.37478931464E+03  0.90496101231E+02 0.  0.
         23    2    4    4    0    0 -0.48715861805E+03 -0.26127178449E+03 -0.74945719395E+02  0.56555460457E+03  0.92998308486E+02 0.  0.
          2    1    3    3  502    0  0.17798762185E+03  0.59397851692E+02  0.99262361572E+03  0.10102026236E+04  0.00000000000E+00 0. -1.
         -1    1    3    3    0  502  0.92454932967E+02 -0.23653988827E+02  0.43873811089E+03  0.44899727812E+03  0.00000000000E+00 0.  1.
         13    1    5    5    0    0  0.21783141169E+01  0.27468979919E+02 -0.21687662596E+01  0.27640431568E+02  0.00000000000E+00 0. -1.
        -13    1    5    5    0    0  0.21453774912E+03  0.19805894171E+03  0.18777262001E+03  0.34714888307E+03  0.00000000000E+00 0.  1.
          3    1    6    6  503    0 -0.49307457260E+02 -0.21997008830E+02  0.20111541270E+02  0.57615690842E+02  0.00000000000E+00 0. -1.
         -3    1    6    6    0  503 -0.43785116079E+03 -0.23927477566E+03 -0.95057260664E+02  0.50793891373E+03  0.00000000000E+00 0.  1.
<mgrwt>
<rscale>  0 0.18384736E+04</rscale>
<asrwt>0</asrwt>
<pdfrwt beam="1">  1        2 0.30319720E+00 0.18384736E+04</pdfrwt>
<pdfrwt beam="2">  1       -1 0.65963383E-01 0.18384736E+04</pdfrwt>
<totfact> 0.17315687E+01</totfact>
</mgrwt>
</event>
<event>
12    7  0.1625631E-007  0.1332239E+04  0.7818608E-02  0.9004383E-01
         -1   -1    0    0    0  501 -0.00000000000E+00  0.00000000000E+00  0.32608676223E+03  0.32608676223E+03  0.00000000000E+00 0.  1.
          2   -1    0    0  501    0  0.00000000000E+00 -0.00000000000E+00 -0.13607280389E+04  0.13607280389E+04  0.00000000000E+00 0. -1.
         24    2    1    2    0    0 -0.54704506510E+02  0.32543389976E+03 -0.18704293067E+03  0.38769710162E+03  0.80150973456E+02 0.  0.
        254    2    1    2    0    0  0.54704506510E+02 -0.32543389976E+03 -0.84759834603E+03  0.12991176995E+04  0.92756888419E+03 0.  0.
         23    2    4    4    0    0  0.12971877172E+03 -0.63424599226E+03 -0.55959331090E+03  0.86062485260E+03  0.91845113515E+02 0.  0.
         23    2    4    4    0    0 -0.75014265213E+02  0.30881209250E+03 -0.28800503513E+03  0.43849284694E+03  0.91307327709E+02 0.  0.
          4    1    3    3  502    0  0.12202701135E+02  0.16908917238E+02 -0.25903360855E+02  0.33253593802E+02  0.00000000000E+00 0. -1.
         -3    1    3    3    0  502 -0.66907207644E+02  0.30852498252E+03 -0.16113956982E+03  0.35444350782E+03  0.00000000000E+00 0.  1.
         13    1    5    5    0    0  0.30605462408E+02 -0.11331251974E+03 -0.58920690594E+02  0.13133190488E+03  0.00000000000E+00 0. -1.
        -13    1    5    5    0    0  0.99113309315E+02 -0.52093347252E+03 -0.50067262030E+03  0.72929294772E+03  0.00000000000E+00 0.  1.
          3    1    6    6  503    0 -0.89696550324E+02  0.18116436566E+03 -0.17744717449E+03  0.26898605588E+03  0.00000000000E+00 0. -1.
         -3    1    6    6    0  503  0.14682285111E+02  0.12764772684E+03 -0.11055786064E+03  0.16950679105E+03  0.00000000000E+00 0.  1.
<mgrwt>
<rscale>  0 0.13322393E+04</rscale>
<asrwt>0</asrwt>
<pdfrwt beam="1">  1        2 0.20934278E+00 0.13322393E+04</pdfrwt>
<pdfrwt beam="2">  1       -1 0.50167194E-01 0.13322393E+04</pdfrwt>
<totfact> 0.67750848E+01</totfact>
</mgrwt>
</event>
<event>
12    7  0.1625631E-007  0.2218653E+04  0.7818608E-02  0.8510704E-01
          2   -1    0    0  501    0  0.00000000000E+00  0.00000000000E+00  0.23892703920E+04  0.23892703920E+04  0.00000000000E+00 0. -1.
         -1   -1    0    0    0  501 -0.00000000000E+00 -0.00000000000E+00 -0.51505499512E+03  0.51505499512E+03  0.00000000000E+00 0.  1.
         24    2    1    2    0    0 -0.55436850294E+03  0.24798840848E+03 -0.12572691663E+03  0.62923851605E+03  0.10635395961E+03 0.  0.
        254    2    1    2    0    0  0.55436850294E+03 -0.24798840848E+03  0.19999423135E+04  0.22750868710E+04  0.89857015626E+03 0.  0.
         23    2    4    4    0    0  0.70941911588E+03 -0.15249132968E+03  0.91935053272E+03  0.11748476367E+04  0.92371423821E+02 0.  0.
         23    2    4    4    0    0 -0.15505061294E+03 -0.95497078800E+02  0.10805917808E+04  0.11002392343E+04  0.98424546776E+02 0.  0.
          2    1    3    3  502    0 -0.11473009596E+02  0.18765877960E+02 -0.21559651887E+02  0.30799459642E+02  0.00000000000E+00 0. -1.
         -1    1    3    3    0  502 -0.54289549335E+03  0.22922253052E+03 -0.10416726474E+03  0.59843905641E+03  0.00000000000E+00 0.  1.
         13    1    5    5    0    0  0.41503200530E+03 -0.63699841138E+02  0.46853935825E+03  0.62915686868E+03  0.00000000000E+00 0. -1.
        -13    1    5    5    0    0  0.29438711058E+03 -0.88791488545E+02  0.45081117447E+03  0.54569076805E+03  0.00000000000E+00 0.  1.
          1    1    6    6  503    0 -0.87002960628E+02 -0.10034441930E+03  0.57944105490E+03  0.59446652870E+03  0.00000000000E+00 0. -1.
         -1    1    6    6    0  503 -0.68047652309E+02  0.48473405022E+01  0.50115072586E+03  0.50577270560E+03  0.00000000000E+00 0.  1.
<mgrwt>
<rscale>  0 0.22186533E+04</rscale>
<asrwt>0</asrwt>
<pdfrwt beam="1">  1        2 0.36758005E+00 0.22186533E+04</pdfrwt>
<pdfrwt beam="2">  1       -1 0.79239231E-01 0.22186533E+04</pdfrwt>
<totfact> 0.66664006E+00</totfact>
</mgrwt>
</event>
<event>
12    7  0.1625631E-007  0.1632798E+04  0.7818608E-02  0.8800648E-01
          2   -1    0    0  501    0  0.00000000000E+00  0.00000000000E+00  0.25309411692E+04  0.25309411692E+04  0.00000000000E+00 0. -1.
         -1   -1    0    0    0  501 -0.00000000000E+00 -0.00000000000E+00 -0.26334377289E+03  0.26334377289E+03  0.00000000000E+00 0.  1.
         24    2    1    2    0    0 -0.35605369815E+03  0.10527905008E+03  0.15466322260E+04  0.15924610096E+04  0.77478450652E+02 0.  0.
        254    2    1    2    0    0  0.35605369815E+03 -0.10527905008E+03  0.72096517036E+03  0.12018239325E+04  0.88697918440E+03 0.  0.
         23    2    4    4    0    0 -0.35485129720E+02  0.23342502880E+03 -0.60231509197E+02  0.26028533429E+03  0.91510557008E+02 0.  0.
         23    2    4    4    0    0  0.39153882787E+03 -0.33870407888E+03  0.78119667956E+03  0.94153859824E+03  0.90573577992E+02 0.  0.
          4    1    3    3  502    0 -0.27094474735E+03  0.93076494386E+02  0.10471289300E+04  0.10856119408E+04  0.00000000000E+00 0. -1.
         -3    1    3    3    0  502 -0.85108950798E+02  0.12202555696E+02  0.49950329594E+03  0.50684906879E+03  0.00000000000E+00 0.  1.
         13    1    5    5    0    0  0.11689430566E+02  0.53390089988E+02  0.19202215135E+02  0.57929867616E+02  0.00000000000E+00 0.  1.
        -13    1    5    5    0    0 -0.47174560286E+02  0.18003493881E+03 -0.79433724332E+02  0.20235546667E+03  0.00000000000E+00 0. -1.
          3    1    6    6  503    0  0.20327760875E+03 -0.17808238973E+03  0.48827124440E+03  0.55807161894E+03  0.00000000000E+00 0. -1.
         -3    1    6    6    0  503  0.18826121912E+03 -0.16062168915E+03  0.29292543516E+03  0.38346697930E+03  0.00000000000E+00 0.  1.
<mgrwt>
<rscale>  0 0.16327983E+04</rscale>
<asrwt>0</asrwt>
<pdfrwt beam="1">  1        2 0.38937555E+00 0.16327983E+04</pdfrwt>
<pdfrwt beam="2">  1       -1 0.40514428E-01 0.16327983E+04</pdfrwt>
<totfact> 0.21691533E+01</totfact>
</mgrwt>
</event>
<event>
12    7  0.1625631E-007  0.1650616E+04  0.7818608E-02  0.8790042E-01
         -1   -1    0    0    0  501 -0.00000000000E+00  0.00000000000E+00  0.41073735696E+03  0.41073735696E+03  0.00000000000E+00 0.  1.
          2   -1    0    0  501    0  0.00000000000E+00 -0.00000000000E+00 -0.16583192371E+04  0.16583192371E+04  0.00000000000E+00 0. -1.
         24    2    1    2    0    0  0.55740273421E+03 -0.14784118071E+03 -0.41420395761E+03  0.71444777427E+03  0.79472516254E+02 0.  0.
        254    2    1    2    0    0 -0.55740273421E+03  0.14784118071E+03 -0.83337792255E+03  0.13546088198E+04  0.89882783119E+03 0.  0.
         23    2    4    4    0    0  0.11605254073E+03  0.31563140208E+03 -0.16124140318E+03  0.38425902971E+03  0.92546407945E+02 0.  0.
         23    2    4    4    0    0 -0.67345527494E+03 -0.16779022137E+03 -0.67213651936E+03  0.97034979010E+03  0.90086895643E+02 0.  0.
          2    1    3    3  502    0  0.55851453852E+03 -0.14964026137E+03 -0.40740009558E+03  0.70732279437E+03  0.00000000000E+00 0. -1.
         -1    1    3    3    0  502 -0.11118043089E+01  0.17990806566E+01 -0.68038620280E+01  0.71249798965E+01  0.00000000000E+00 0.  1.
         13    1    5    5    0    0  0.13655632592E+02  0.33352673859E+02  0.11512415761E+02  0.37834017387E+02  0.00000000000E+00 0. -1.
        -13    1    5    5    0    0  0.10239690814E+03  0.28227872822E+03 -0.17275381894E+03  0.34642501232E+03  0.00000000000E+00 0.  1.
          3    1    6    6  503    0 -0.45833821321E+03 -0.11141146057E+03 -0.51302376676E+03  0.69690732274E+03  0.00000000000E+00 0. -1.
         -3    1    6    6    0  503 -0.21511706172E+03 -0.56378760802E+02 -0.15911275261E+03  0.27344246736E+03  0.00000000000E+00 0.  1.
<mgrwt>
<rscale>  0 0.16506164E+04</rscale>
<asrwt>0</asrwt>
<pdfrwt beam="1">  1        2 0.25512605E+00 0.16506164E+04</pdfrwt>
<pdfrwt beam="2">  1       -1 0.63190360E-01 0.16506164E+04</pdfrwt>
<totfact> 0.28595522E+01</totfact>
</mgrwt>
</event>
<event>
12    7  0.1625631E-007  0.2394545E+04  0.7818608E-02  0.8441549E-01
         -1   -1    0    0    0  501 -0.00000000000E+00  0.00000000000E+00  0.92581726369E+03  0.92581726369E+03  0.00000000000E+00 0.  1.
          2   -1    0    0  501    0  0.00000000000E+00 -0.00000000000E+00 -0.15483195735E+04  0.15483195735E+04  0.00000000000E+00 0. -1.
         24    2    1    2    0    0 -0.92560580617E+03  0.17223828736E+03  0.15479290999E+03  0.95754378452E+03  0.80728670475E+02 0.  0.
        254    2    1    2    0    0  0.92560580617E+03 -0.17223828736E+03 -0.77729521980E+03  0.15165930527E+04  0.89969688933E+03 0.  0.
         23    2    4    4    0    0  0.28780897542E+03  0.16510908535E+03 -0.70645712869E+03  0.78587901600E+03  0.91810330116E+02 0.  0.
         23    2    4    4    0    0  0.63779683075E+03 -0.33734737271E+03 -0.70838091108E+02  0.73071403668E+03  0.91306741611E+02 0.  0.
          4    1    3    3  502    0 -0.23018306495E+03  0.78669071801E+02  0.41184526103E+02  0.24671690546E+03  0.00000000000E+00 0. -1.
         -3    1    3    3    0  502 -0.69542274122E+03  0.93569215562E+02  0.11360838388E+03  0.71082687906E+03  0.00000000000E+00 0.  1.
         13    1    5    5    0    0  0.21541263215E+03  0.13002983744E+03 -0.61261377515E+03  0.66227335611E+03  0.00000000000E+00 0.  1.
        -13    1    5    5    0    0  0.72396343270E+02  0.35079247904E+02 -0.93843353544E+02  0.12360565989E+03  0.00000000000E+00 0. -1.
          2    1    6    6  503    0  0.87984487004E+02 -0.71105131887E+02  0.13922829633E+02  0.11397830898E+03  0.00000000000E+00 0. -1.
         -2    1    6    6    0  503  0.54981234374E+03 -0.26624224082E+03 -0.84760920741E+02  0.61673572769E+03  0.00000000000E+00 0.  1.
<mgrwt>
<rscale>  0 0.23945446E+04</rscale>
<asrwt>0</asrwt>
<pdfrwt beam="1">  1        2 0.23820301E+00 0.23945446E+04</pdfrwt>
<pdfrwt beam="2">  1       -1 0.14243343E+00 0.23945446E+04</pdfrwt>
<totfact> 0.48937542E+00</totfact>
</mgrwt>
</event>
<event>
12    7  0.1625631E-007  0.2259785E+04  0.7818608E-02  0.8493948E-01
          2   -1    0    0  501    0  0.00000000000E+00  0.00000000000E+00  0.16252752336E+04  0.16252752336E+04  0.00000000000E+00 0. -1.
         -1   -1    0    0    0  501 -0.00000000000E+00 -0.00000000000E+00 -0.78550216810E+03  0.78550216810E+03  0.00000000000E+00 0.  1.
         24    2    1    2    0    0 -0.67987712846E+03 -0.65205521330E+03  0.24561439796E+03  0.97694820288E+03  0.81807381256E+02 0.  0.
        254    2    1    2    0    0  0.67987712846E+03  0.65205521330E+03  0.59415866752E+03  0.14338291988E+04  0.90301314396E+03 0.  0.
         23    2    4    4    0    0 -0.11687792326E+03  0.12625822667E+03 -0.12839476615E+03  0.23320405679E+03  0.91089666723E+02 0.  0.
         23    2    4    4    0    0  0.79675505172E+03  0.52579698663E+03  0.72255343367E+03  0.12006251420E+04  0.90200795602E+02 0.  0.
          4    1    3    3  502    0 -0.13048143432E+03 -0.16024111076E+03  0.77142677019E+02  0.22057563532E+03  0.00000000000E+00 0. -1.
         -1    1    3    3    0  502 -0.54939569414E+03 -0.49181410254E+03  0.16847172094E+03  0.75637256756E+03  0.00000000000E+00 0.  1.
         13    1    5    5    0    0 -0.10862660814E+03  0.11970991197E+03 -0.73969324105E+02  0.17776856845E+03  0.00000000000E+00 0.  1.
        -13    1    5    5    0    0 -0.82513151279E+01  0.65483146960E+01 -0.54425442044E+02  0.55435488348E+02  0.00000000000E+00 0. -1.
          1    1    6    6  503    0  0.14500227380E+03  0.13959060853E+03  0.15272353696E+03  0.25265723053E+03  0.00000000000E+00 0. -1.
         -1    1    6    6    0  503  0.65175277793E+03  0.38620637810E+03  0.56982989671E+03  0.94796791148E+03  0.00000000000E+00 0.  1.
<mgrwt>
<rscale>  0 0.22597851E+04</rscale>
<asrwt>0</asrwt>
<pdfrwt beam="1">  1        2 0.25004234E+00 0.22597851E+04</pdfrwt>
<pdfrwt beam="2">  1       -1 0.12084649E+00 0.22597851E+04</pdfrwt>
<totfact> 0.68042771E+00</totfact>
</mgrwt>
</event>
<event>
12    7  0.1625631E-007  0.1133580E+04  0.7818608E-02  0.9173067E-01
         -3   -1    0    0    0  501 -0.00000000000E+00  0.00000000000E+00  0.11043085510E+03  0.11043085510E+03  0.00000000000E+00 0.  1.
          2   -1    0    0  501    0  0.00000000000E+00 -0.00000000000E+00 -0.29090660140E+04  0.29090660140E+04  0.00000000000E+00 0. -1.
         24    2    1    2    0    0  0.27751073896E+02  0.95187955567E+02 -0.80949003224E+02  0.15271015706E+03  0.83287345726E+02 0.  0.
        254    2    1    2    0    0 -0.27751073896E+02 -0.95187955567E+02 -0.27176861557E+04  0.28667867120E+04  0.90709268688E+03 0.  0.
         23    2    4    4    0    0 -0.37708599254E+03 -0.22972507702E+03 -0.20218839165E+04  0.20715802583E+04  0.91993140226E+02 0.  0.
         23    2    4    4    0    0  0.34933491864E+03  0.13453712146E+03 -0.69580223917E+03  0.79520645378E+03  0.89874499454E+02 0.  0.
          4    1    3    3  502    0  0.75269053146E+01 -0.46453725728E+01 -0.43173029489E+02  0.44069765886E+02  0.00000000000E+00 0. -1.
         -3    1    3    3    0  502  0.20224168581E+02  0.99833328140E+02 -0.37775973735E+02  0.10864039117E+03  0.00000000000E+00 0.  1.
         13    1    5    5    0    0 -0.29484983879E+03 -0.22018686161E+03 -0.16230156671E+04  0.16642110855E+04  0.00000000000E+00 0. -1.
        -13    1    5    5    0    0 -0.82236153750E+02 -0.95382154109E+01 -0.39886824941E+03  0.40736917277E+03  0.00000000000E+00 0.  1.
          2    1    6    6  503    0  0.29338371203E+03  0.95299401040E+02 -0.62399118467E+03  0.69607541033E+03  0.00000000000E+00 0. -1.
         -2    1    6    6    0  503  0.55951206619E+02  0.39237720416E+02 -0.71811054506E+02  0.99131043447E+02  0.00000000000E+00 0.  1.
<mgrwt>
<rscale>  0 0.11335795E+04</rscale>
<asrwt>0</asrwt>
<pdfrwt beam="1">  1        2 0.44754863E+00 0.11335795E+04</pdfrwt>
<pdfrwt beam="2">  1       -3 0.16989362E-01 0.11335795E+04</pdfrwt>
<totfact> 0.40104828E+01</totfact>
</mgrwt>
</event>
<event>
12    7  0.1625631E-007  0.1948245E+04  0.7818608E-02  0.8631207E-01
         -1   -1    0    0    0  501 -0.00000000000E+00  0.00000000000E+00  0.45208672543E+03  0.45208672543E+03  0.00000000000E+00 0.  1.
          2   -1    0    0  501    0  0.00000000000E+00 -0.00000000000E+00 -0.20989667526E+04  0.20989667526E+04  0.00000000000E+00 0. -1.
         24    2    1    2    0    0  0.54962753067E+03 -0.43669714357E+03 -0.10472811367E+04  0.12633491082E+04  0.80363997835E+02 0.  0.
        254    2    1    2    0    0 -0.54962753067E+03  0.43669714357E+03 -0.59959889043E+03  0.12877043698E+04  0.89770200903E+03 0.  0.
         23    2    4    4    0    0 -0.55493855036E+03  0.71759603183E+02 -0.69966114232E+03  0.90055852949E+03  0.91508008627E+02 0.  0.
         23    2    4    4    0    0  0.53110196928E+01  0.36493754038E+03  0.10006225188E+03  0.38714584034E+03  0.81620047369E+02 0.  0.
          2    1    3    3  502    0  0.33265658562E+02 -0.24407397279E+02 -0.10191523990E+03  0.10995017601E+03  0.00000000000E+00 0. -1.
         -1    1    3    3    0  502  0.51636187211E+03 -0.41228974629E+03 -0.94536589683E+03  0.11533989322E+04  0.00000000000E+00 0.  1.
         13    1    5    5    0    0 -0.30303642114E+03 -0.51763681987E+01 -0.39357230966E+03  0.49674644463E+03  0.00000000000E+00 0. -1.
        -13    1    5    5    0    0 -0.25190212923E+03  0.76935971382E+02 -0.30608883266E+03  0.40381208486E+03  0.00000000000E+00 0.  1.
          4    1    6    6  503    0  0.19998974656E+02  0.66689767542E+02 -0.68830839081E+01  0.69963282700E+02  0.00000000000E+00 0. -1.
         -4    1    6    6    0  503 -0.14687954963E+02  0.29824777284E+03  0.10694533579E+03  0.31718255764E+03  0.00000000000E+00 0.  1.
<mgrwt>
<rscale>  0 0.19482454E+04</rscale>
<asrwt>0</asrwt>
<pdfrwt beam="1">  1        2 0.32291797E+00 0.19482454E+04</pdfrwt>
<pdfrwt beam="2">  1       -1 0.69551803E-01 0.19482454E+04</pdfrwt>
<totfact> 0.13066284E+01</totfact>
</mgrwt>
</event>
<event>
12    7  0.1625631E-007  0.1036676E+04  0.7818608E-02  0.9269209E-01
         -1   -1    0    0    0  501 -0.00000000000E+00  0.00000000000E+00  0.49977708117E+03  0.49977708117E+03  0.00000000000E+00 0.  1.
          2   -1    0    0  501    0  0.00000000000E+00 -0.00000000000E+00 -0.53758829536E+03  0.53758829536E+03  0.00000000000E+00 0. -1.
         24    2    1    2    0    0  0.59648201893E+02  0.10341232846E+03  0.43119308145E+02  0.15037235752E+03  0.80626010089E+02 0.  0.
        254    2    1    2    0    0 -0.59648201893E+02 -0.10341232846E+03 -0.80930522331E+02  0.88699301901E+03  0.87518846465E+03 0.  0.
         23    2    4    4    0    0 -0.42027400691E+03  0.83612446176E+02  0.67582401935E+02  0.44355803613E+03  0.92493612362E+02 0.  0.
         23    2    4    4    0    0  0.36062580502E+03 -0.18702477464E+03 -0.14851292427E+03  0.44343498287E+03  0.97720303871E+02 0.  0.
          4    1    3    3  502    0  0.20253143890E+02  0.10179994311E+03  0.38366165219E+02  0.11065884912E+03  0.00000000000E+00 0. -1.
         -1    1    3    3    0  502  0.39395058003E+02  0.16123853532E+01  0.47531429254E+01  0.39713508398E+02  0.00000000000E+00 0.  1.
         13    1    5    5    0    0 -0.27159626163E+03  0.42676300170E+02 -0.64336701552E+00  0.27492946340E+03  0.00000000000E+00 0. -1.
        -13    1    5    5    0    0 -0.14867774528E+03  0.40936146007E+02  0.68225768950E+02  0.16862857273E+03  0.00000000000E+00 0.  1.
          2    1    6    6  503    0  0.28077604419E+03 -0.96182254844E+02 -0.10144503722E+03  0.31365157216E+03  0.00000000000E+00 0. -1.
         -2    1    6    6    0  503  0.79849760825E+02 -0.90842519795E+02 -0.47067887044E+02  0.12978341072E+03  0.00000000000E+00 0.  1.
<mgrwt>
<rscale>  0 0.10366761E+04</rscale>
<asrwt>0</asrwt>
<pdfrwt beam="1">  1        2 0.82705892E-01 0.10366761E+04</pdfrwt>
<pdfrwt beam="2">  1       -1 0.76888782E-01 0.10366761E+04</pdfrwt>
<totfact> 0.10938893E+02</totfact>
</mgrwt>
</event>
<event>
12    7  0.1625631E-007  0.1930444E+04  0.7818608E-02  0.8639849E-01
          2   -1    0    0  501    0  0.00000000000E+00  0.00000000000E+00  0.11168580204E+04  0.11168580204E+04  0.00000000000E+00 0. -1.
         -1   -1    0    0    0  501 -0.00000000000E+00 -0.00000000000E+00 -0.83417388644E+03  0.83417388644E+03  0.00000000000E+00 0.  1.
         24    2    1    2    0    0  0.33029096366E+03 -0.42001047364E+03  0.64304927602E+03  0.83992706901E+03  0.80400194184E+02 0.  0.
        254    2    1    2    0    0 -0.33029096366E+03  0.42001047364E+03 -0.36036514208E+03  0.11111048378E+04  0.90509115913E+03 0.  0.
         23    2    4    4    0    0  0.14337015522E+03  0.45400444731E+03  0.35287302080E+02  0.48612332811E+03  0.91627817059E+02 0.  0.
         23    2    4    4    0    0 -0.47366111888E+03 -0.33993973677E+02 -0.39565244416E+03  0.62498150969E+03  0.92469373870E+02 0.  0.
          4    1    3    3  502    0  0.19596889104E+03 -0.30863504126E+03  0.42316809398E+03  0.55922323871E+03  0.00000000000E+00 0. -1.
         -3    1    3    3    0  502  0.13432207262E+03 -0.11137543237E+03  0.21988118205E+03  0.28070383030E+03  0.00000000000E+00 0.  1.
         13    1    5    5    0    0  0.67197089442E+02  0.34338600591E+03  0.36602442312E+02  0.35180838061E+03  0.00000000000E+00 0. -1.
        -13    1    5    5    0    0  0.76173065779E+02  0.11061844140E+03 -0.13151402317E+01  0.13431494750E+03  0.00000000000E+00 0.  1.
          1    1    6    6  503    0 -0.10784427053E+03 -0.44043533345E+02 -0.11611081651E+03  0.16447474343E+03  0.00000000000E+00 0. -1.
         -1    1    6    6    0  503 -0.36581684834E+03  0.10049559668E+02 -0.27954162765E+03  0.46050676626E+03  0.00000000000E+00 0.  1.
<mgrwt>
<rscale>  0 0.19304443E+04</rscale>
<asrwt>0</asrwt>
<pdfrwt beam="1">  1        2 0.17182431E+00 0.19304443E+04</pdfrwt>
<pdfrwt beam="2">  1       -1 0.12833444E+00 0.19304443E+04</pdfrwt>
<totfact> 0.11875382E+01</totfact>
</mgrwt>
</event>
<event>
12    7  0.1625631E-007  0.2032191E+04  0.7818608E-02  0.8591717E-01
          2   -1    0    0  501    0  0.00000000000E+00  0.00000000000E+00  0.19400850418E+04  0.19400850418E+04  0.00000000000E+00 0. -1.
         -1   -1    0    0    0  501 -0.00000000000E+00 -0.00000000000E+00 -0.53216726713E+03  0.53216726713E+03  0.00000000000E+00 0.  1.
         24    2    1    2    0    0 -0.25600732905E+03 -0.22597256029E+03  0.14650876317E+04  0.15063621016E+04  0.77728127919E+02 0.  0.
        254    2    1    2    0    0  0.25600732905E+03  0.22597256029E+03 -0.57169857050E+02  0.96589020737E+03  0.90170513451E+03 0.  0.
         23    2    4    4    0    0  0.32571113845E+03 -0.17354939738E+03  0.24503092344E+03  0.45163072666E+03  0.87880719066E+02 0.  0.
         23    2    4    4    0    0 -0.69703809395E+02  0.39952195766E+03 -0.30220078049E+03  0.51425948071E+03  0.93064956181E+02 0.  0.
          2    1    3    3  502    0 -0.14111022984E+03 -0.16986195031E+03  0.85873923797E+03  0.88667821556E+03  0.00000000000E+00 0. -1.
         -1    1    3    3    0  502 -0.11489709922E+03 -0.56110609975E+02  0.60634839376E+03  0.61968388601E+03  0.00000000000E+00 0.  1.
         13    1    5    5    0    0  0.29596686531E+03 -0.16658389435E+03  0.24857705149E+03  0.42087662058E+03  0.00000000000E+00 0. -1.
        -13    1    5    5    0    0  0.29744273135E+02 -0.69655030295E+01 -0.35461280551E+01  0.30754106083E+02  0.00000000000E+00 0.  1.
          2    1    6    6  503    0  0.15081646140E+02  0.17908722561E+03 -0.12273456753E+03  0.21763148783E+03  0.00000000000E+00 0. -1.
         -2    1    6    6    0  503 -0.84785455535E+02  0.22043473205E+03 -0.17946621296E+03  0.29662799288E+03  0.00000000000E+00 0.  1.
<mgrwt>
<rscale>  0 0.20321907E+04</rscale>
<asrwt>0</asrwt>
<pdfrwt beam="1">  1        2 0.29847462E+00 0.20321907E+04</pdfrwt>
<pdfrwt beam="2">  1       -1 0.81871888E-01 0.20321907E+04</pdfrwt>
<totfact> 0.11298479E+01</totfact>
</mgrwt>
</event>
<event>
12    7  0.1625631E-007  0.1972415E+04  0.7818608E-02  0.8619627E-01
         -1   -1    0    0    0  501 -0.00000000000E+00  0.00000000000E+00  0.36054317604E+03  0.36054317604E+03  0.00000000000E+00 0.  1.
          2   -1    0    0  501    0  0.00000000000E+00 -0.00000000000E+00 -0.26976110866E+04  0.26976110866E+04  0.00000000000E+00 0. -1.
         24    2    1    2    0    0 -0.67866238227E+03 -0.37474015285E+03 -0.10548032204E+04  0.13115529943E+04  0.80923493731E+02 0.  0.
        254    2    1    2    0    0  0.67866238227E+03  0.37474015285E+03 -0.12822646902E+04  0.17466012684E+04  0.89744105306E+03 0.  0.
         23    2    4    4    0    0  0.17376872427E+03  0.22385752986E+03  0.58247684478E+02  0.30353222650E+03  0.91821874141E+02 0.  0.
         23    2    4    4    0    0  0.50489365800E+03  0.15088262299E+03 -0.13405123747E+04  0.14430690419E+04  0.88270386467E+02 0.  0.
          4    1    3    3  502    0 -0.32074230109E+03 -0.17626131452E+03 -0.56623809608E+03  0.67421751397E+03  0.00000000000E+00 0. -1.
         -3    1    3    3    0  502 -0.35792008118E+03 -0.19847883834E+03 -0.48856512427E+03  0.63733548029E+03  0.00000000000E+00 0.  1.
         13    1    5    5    0    0  0.14875934414E+03  0.12163044243E+03  0.29244266548E+02  0.19436700883E+03  0.00000000000E+00 0. -1.
        -13    1    5    5    0    0  0.25009380129E+02  0.10222708743E+03  0.29003417930E+02  0.10916521768E+03  0.00000000000E+00 0.  1.
          3    1    6    6  503    0  0.13695806082E+03  0.64211313779E+02 -0.47792396136E+03  0.50129025133E+03  0.00000000000E+00 0. -1.
         -3    1    6    6    0  503  0.36793559718E+03  0.86671309215E+02 -0.86258841337E+03  0.94177879058E+03  0.00000000000E+00 0.  1.
<mgrwt>
<rscale>  0 0.19724150E+04</rscale>
<asrwt>0</asrwt>
<pdfrwt beam="1">  1        2 0.41501710E+00 0.19724150E+04</pdfrwt>
<pdfrwt beam="2">  1       -1 0.55468180E-01 0.19724150E+04</pdfrwt>
<totfact> 0.92920001E+00</totfact>
</mgrwt>
</event>
<event>
12    7  0.1625631E-007  0.2090866E+04  0.7818608E-02  0.8565278E-01
          2   -1    0    0  501    0  0.00000000000E+00  0.00000000000E+00  0.56053091229E+03  0.56053091229E+03  0.00000000000E+00 0. -1.
         -1   -1    0    0    0  501 -0.00000000000E+00 -0.00000000000E+00 -0.19498126835E+04  0.19498126835E+04  0.00000000000E+00 0.  1.
         24    2    1    2    0    0 -0.72490368614E+03  0.27216887738E+03 -0.14064779488E+03  0.79109943977E+03  0.80593234295E+02 0.  0.
        254    2    1    2    0    0  0.72490368614E+03 -0.27216887738E+03 -0.12486339763E+04  0.17192441560E+04  0.89283392022E+03 0.  0.
         23    2    4    4    0    0 -0.16531407202E+03 -0.12804979467E+03 -0.84298832158E+02  0.24374626823E+03  0.92630760799E+02 0.  0.
         23    2    4    4    0    0  0.89021775816E+03 -0.14411908271E+03 -0.11643351441E+04  0.14754978877E+04  0.90331179111E+02 0.  0.
          2    1    3    3  502    0 -0.50736121027E+03  0.21017586027E+03 -0.13158005772E+03  0.56471461954E+03  0.00000000000E+00 0. -1.
         -1    1    3    3    0  502 -0.21754247586E+03  0.61993017107E+02 -0.90677371603E+01  0.22638482023E+03  0.00000000000E+00 0.  1.
         13    1    5    5    0    0 -0.72201053104E+01 -0.51486438509E+02 -0.29308145206E+02  0.59682079777E+02  0.00000000000E+00 0. -1.
        -13    1    5    5    0    0 -0.15809396671E+03 -0.76563356163E+02 -0.54990686952E+02  0.18406418845E+03  0.00000000000E+00 0.  1.
          4    1    6    6  503    0  0.30423793307E+00 -0.54448766082E+01 -0.47747215079E+01  0.72482554782E+01  0.00000000000E+00 0. -1.
         -4    1    6    6    0  503  0.88991352023E+03 -0.13867420610E+03 -0.11595604226E+04  0.14682496323E+04  0.00000000000E+00 0.  1.
<mgrwt>
<rscale>  0 0.20908661E+04</rscale>
<asrwt>0</asrwt>
<pdfrwt beam="1">  1        2 0.86235524E-01 0.20908661E+04</pdfrwt>
<pdfrwt beam="2">  1       -1 0.29997118E+00 0.20908661E+04</pdfrwt>
<totfact> 0.18737628E+00</totfact>
</mgrwt>
</event>
<event>
12    7  0.1625631E-007  0.2076840E+04  0.7818608E-02  0.8571515E-01
         -1   -1    0    0    0  501 -0.00000000000E+00  0.00000000000E+00  0.10481318153E+04  0.10481318153E+04  0.00000000000E+00 0.  1.
          2   -1    0    0  501    0  0.00000000000E+00 -0.00000000000E+00 -0.10287979159E+04  0.10287979159E+04  0.00000000000E+00 0. -1.
         24    2    1    2    0    0 -0.15286187546E+03 -0.66841078004E+03 -0.47653603689E+03  0.83872049642E+03  0.78903439854E+02 0.  0.
        254    2    1    2    0    0  0.15286187546E+03  0.66841078004E+03  0.49586993629E+03  0.12382092347E+04  0.90395541447E+03 0.  0.
         23    2    4    4    0    0  0.11406455262E+03 -0.98174937659E+01  0.53178385315E+03  0.55137694297E+03  0.90085300739E+02 0.  0.
         23    2    4    4    0    0  0.38797322834E+02  0.67822827381E+03 -0.35913916861E+02  0.68683229174E+03  0.94604248850E+02 0.  0.
          4    1    3    3  502    0 -0.10618194387E+03 -0.53196715254E+03 -0.34048481212E+03  0.64046355389E+03  0.00000000000E+00 0. -1.
         -3    1    3    3    0  502 -0.46679931589E+02 -0.13644362751E+03 -0.13605122477E+03  0.19825694253E+03  0.00000000000E+00 0.  1.
         13    1    5    5    0    0  0.74144103832E+02 -0.31257629934E+02  0.18629424626E+03  0.20292839563E+03  0.00000000000E+00 0.  1.
        -13    1    5    5    0    0  0.39920448793E+02  0.21440136168E+02  0.34548960689E+03  0.34844854734E+03  0.00000000000E+00 0. -1.
          1    1    6    6  503    0  0.53302463208E+02  0.60176289954E+03 -0.55241343281E+02  0.60663938700E+03  0.00000000000E+00 0. -1.
         -1    1    6    6    0  503 -0.14505140375E+02  0.76465374264E+02  0.19327426420E+02  0.80192904740E+02  0.00000000000E+00 0.  1.
<mgrwt>
<rscale>  0 0.20768397E+04</rscale>
<asrwt>0</asrwt>
<pdfrwt beam="1">  1        2 0.15827660E+00 0.20768397E+04</pdfrwt>
<pdfrwt beam="2">  1       -1 0.16125105E+00 0.20768397E+04</pdfrwt>
<totfact> 0.72697655E+00</totfact>
</mgrwt>
</event>
<event>
12    7  0.1625631E-007  0.1819608E+04  0.7818608E-02  0.8695941E-01
          2   -1    0    0  501    0  0.00000000000E+00  0.00000000000E+00  0.13585131940E+04  0.13585131940E+04  0.00000000000E+00 0. -1.
         -1   -1    0    0    0  501 -0.00000000000E+00 -0.00000000000E+00 -0.60930088318E+03  0.60930088318E+03  0.00000000000E+00 0.  1.
         24    2    1    2    0    0  0.14463318604E+03  0.50026886502E+03 -0.19115242705E+03  0.56055063738E+03  0.80560976200E+02 0.  0.
        254    2    1    2    0    0 -0.14463318604E+03 -0.50026886502E+03  0.94036473790E+03  0.14072634398E+04  0.90824933416E+03 0.  0.
         23    2    4    4    0    0  0.12388934417E+03  0.14445265065E+03 -0.24034536131E+02  0.21312554341E+03  0.92896181032E+02 0.  0.
         23    2    4    4    0    0 -0.26852253021E+03 -0.64472151567E+03  0.96439927403E+03  0.11941378964E+04  0.90161931696E+02 0.  0.
          2    1    3    3  502    0  0.94684295163E+02  0.19416123285E+03 -0.93501994185E+02  0.23538547748E+03  0.00000000000E+00 0. -1.
         -1    1    3    3    0  502  0.49948890877E+02  0.30610763217E+03 -0.97650432862E+02  0.32516515990E+03  0.00000000000E+00 0.  1.
         13    1    5    5    0    0  0.10014968721E+03  0.67609934450E+02 -0.46733888097E+02  0.12955739802E+03  0.00000000000E+00 0. -1.
        -13    1    5    5    0    0  0.23739656961E+02  0.76842716196E+02  0.22699351966E+02  0.83568145395E+02  0.00000000000E+00 0.  1.
          2    1    6    6  503    0 -0.14781036616E+03 -0.28740736566E+03  0.50768744214E+03  0.60182841166E+03  0.00000000000E+00 0. -1.
         -2    1    6    6    0  503 -0.12071216405E+03 -0.35731415001E+03  0.45671183189E+03  0.59230948476E+03  0.00000000000E+00 0.  1.
<mgrwt>
<rscale>  0 0.18196080E+04</rscale>
<asrwt>0</asrwt>
<pdfrwt beam="1">  1        2 0.20900203E+00 0.18196080E+04</pdfrwt>
<pdfrwt beam="2">  1       -1 0.93738598E-01 0.18196080E+04</pdfrwt>
<totfact> 0.18123546E+01</totfact>
</mgrwt>
</event>
<event>
12    7  0.1625631E-007  0.1435834E+04  0.7818608E-02  0.8928281E-01
         -1   -1    0    0    0  501 -0.00000000000E+00  0.00000000000E+00  0.83911882286E+03  0.83911882286E+03  0.00000000000E+00 0.  1.
          2   -1    0    0  501    0  0.00000000000E+00 -0.00000000000E+00 -0.61422189948E+03  0.61422189948E+03  0.00000000000E+00 0. -1.
         24    2    1    2    0    0  0.30208089030E+02 -0.33779314774E+03 -0.20038498393E+03  0.40166429842E+03  0.78506863005E+02 0.  0.
        254    2    1    2    0    0 -0.30208089030E+02  0.33779314774E+03  0.42528190730E+03  0.10516764239E+04  0.90007880803E+03 0.  0.
         23    2    4    4    0    0 -0.18551589426E+03  0.29296808379E+03 -0.19186186239E+03  0.40687754141E+03  0.92151583406E+02 0.  0.
         23    2    4    4    0    0  0.15530780523E+03  0.44825063951E+02  0.61714376969E+03  0.64479888251E+03  0.93644891426E+02 0.  0.
          4    1    3    3  502    0 -0.67883456122E+01 -0.15117725765E+03 -0.50721588407E+02  0.15960364782E+03  0.00000000000E+00 0. -1.
         -3    1    3    3    0  502  0.36996434642E+02 -0.18661589008E+03 -0.14966339552E+03  0.24206065060E+03  0.00000000000E+00 0.  1.
         13    1    5    5    0    0 -0.12436180529E+02  0.58094429693E+02 -0.33241296344E+01  0.59503539268E+02  0.00000000000E+00 0. -1.
        -13    1    5    5    0    0 -0.17307971373E+03  0.23487365409E+03 -0.18853773276E+03  0.34737400215E+03  0.00000000000E+00 0.  1.
          1    1    6    6  503    0 -0.79608757673E+01 -0.90251005080E+01  0.77578902756E+02  0.78506777637E+02  0.00000000000E+00 0. -1.
         -1    1    6    6    0  503  0.16326868100E+03  0.53850164459E+02  0.53956486694E+03  0.56629210487E+03  0.00000000000E+00 0.  1.
<mgrwt>
<rscale>  0 0.14358345E+04</rscale>
<asrwt>0</asrwt>
<pdfrwt beam="1">  1        2 0.94495677E-01 0.14358345E+04</pdfrwt>
<pdfrwt beam="2">  1       -1 0.12909520E+00 0.14358345E+04</pdfrwt>
<totfact> 0.27607657E+01</totfact>
</mgrwt>
</event>
<event>
12    7  0.1625631E-007  0.1952800E+04  0.7818608E-02  0.8629012E-01
          2   -1    0    0  501    0  0.00000000000E+00  0.00000000000E+00  0.16574607080E+04  0.16574607080E+04  0.00000000000E+00 0. -1.
         -1   -1    0    0    0  501 -0.00000000000E+00 -0.00000000000E+00 -0.57519102874E+03  0.57519102874E+03  0.00000000000E+00 0.  1.
         24    2    1    2    0    0  0.58045088348E+03 -0.53647606724E+02  0.10056916285E+04  0.11648567510E+04  0.75327981391E+02 0.  0.
        254    2    1    2    0    0 -0.58045088348E+03  0.53647606724E+02  0.76578050703E+02  0.10677949857E+04  0.89135887265E+03 0.  0.
         23    2    4    4    0    0 -0.73790969121E+03 -0.82105877438E+02  0.24250074464E+03  0.78652876555E+03  0.92567815083E+02 0.  0.
         23    2    4    4    0    0  0.15745880773E+03  0.13575348416E+03 -0.16592269394E+03  0.28126622018E+03  0.91422435191E+02 0.  0.
          2    1    3    3  502    0  0.71403441515E+02 -0.53964455735E+01  0.80280551373E+02  0.10757574082E+03  0.00000000000E+00 0. -1.
         -1    1    3    3    0  502  0.50904744197E+03 -0.48251161151E+02  0.92541107715E+03  0.10572810102E+04  0.00000000000E+00 0.  1.
         13    1    5    5    0    0 -0.69735335066E+03 -0.60959277243E+02  0.21146905439E+03  0.73125706159E+03  0.00000000000E+00 0.  1.
        -13    1    5    5    0    0 -0.40556340550E+02 -0.21146600195E+02  0.31031690249E+02  0.55271703957E+02  0.00000000000E+00 0. -1.
          4    1    6    6  503    0  0.19496899224E+02  0.70914756462E+02 -0.41157295216E+02  0.84279028903E+02  0.00000000000E+00 0. -1.
         -4    1    6    6    0  503  0.13796190851E+03  0.64838727701E+02 -0.12476539872E+03  0.19698719128E+03  0.00000000000E+00 0.  1.
<mgrwt>
<rscale>  0 0.19527996E+04</rscale>
<asrwt>0</asrwt>
<pdfrwt beam="1">  1        2 0.25499395E+00 0.19527996E+04</pdfrwt>
<pdfrwt beam="2">  1       -1 0.88490928E-01 0.19527996E+04</pdfrwt>
<totfact> 0.13794559E+01</totfact>
</mgrwt>
</event>
<event>
12    7  0.1625631E-007  0.2529710E+04  0.7818608E-02  0.8392477E-01
          2   -1    0    0  501    0  0.00000000000E+00  0.00000000000E+00  0.11727121302E+04  0.11727121302E+04  0.00000000000E+00 0. -1.
         -1   -1    0    0    0  501 -0.00000000000E+00 -0.00000000000E+00 -0.13642373652E+04  0.13642373652E+04  0.00000000000E+00 0.  1.
         24    2    1    2    0    0 -0.38063945807E+03  0.27239824569E+03  0.88367760217E+03  0.10027656374E+04  0.74603068025E+02 0.  0.
        254    2    1    2    0    0  0.38063945807E+03 -0.27239824569E+03 -0.10752028371E+04  0.15341838579E+04  0.98922786445E+03 0.  0.
         23    2    4    4    0    0  0.59443433398E+03  0.36628545105E+02 -0.95525104513E+03  0.11292848245E+04  0.89921231834E+02 0.  0.
         23    2    4    4    0    0 -0.21379487590E+03 -0.30902679080E+03 -0.11995179196E+03  0.40489903343E+03  0.91372799482E+02 0.  0.
          4    1    3    3  502    0 -0.31117776704E+03  0.25450959846E+03  0.76109896319E+03  0.86074291758E+03  0.00000000000E+00 0. -1.
         -3    1    3    3    0  502 -0.69461691030E+02  0.17888647237E+02  0.12257863898E+03  0.14202271986E+03  0.00000000000E+00 0.  1.
         13    1    5    5    0    0  0.32974973617E+03 -0.23232168072E+02 -0.50469820244E+03  0.60331989664E+03  0.00000000000E+00 0. -1.
        -13    1    5    5    0    0  0.26468459781E+03  0.59860713178E+02 -0.45055284269E+03  0.52596492788E+03  0.00000000000E+00 0.  1.
          3    1    6    6  503    0 -0.18712910910E+03 -0.25712027311E+03 -0.64669020155E+02  0.32451536247E+03  0.00000000000E+00 0. -1.
         -3    1    6    6    0  503 -0.26665766809E+02 -0.51906517689E+02 -0.55282771802E+02  0.80383670956E+02  0.00000000000E+00 0.  1.
<mgrwt>
<rscale>  0 0.25297096E+04</rscale>
<asrwt>0</asrwt>
<pdfrwt beam="1">  1        2 0.18041725E+00 0.25297096E+04</pdfrwt>
<pdfrwt beam="2">  1       -1 0.20988267E+00 0.25297096E+04</pdfrwt>
<totfact> 0.25688399E+00</totfact>
</mgrwt>
</event>
<event>
12    7  0.1625631E-007  0.2326834E+04  0.7818608E-02  0.8467416E-01
          2   -1    0    0  501    0  0.00000000000E+00  0.00000000000E+00  0.13679354864E+04  0.13679354864E+04  0.00000000000E+00 0. -1.
         -3   -1    0    0    0  501 -0.00000000000E+00 -0.00000000000E+00 -0.98947544519E+03  0.98947544519E+03  0.00000000000E+00 0.  1.
         24    2    1    2    0    0 -0.60418386946E+03  0.11449500316E+03  0.94077019848E+03  0.11268916669E+04  0.81786360569E+02 0.  0.
        254    2    1    2    0    0  0.60418386946E+03 -0.11449500316E+03 -0.56231015730E+03  0.12305192646E+04  0.90544889074E+03 0.  0.
         23    2    4    4    0    0  0.75262773433E+02 -0.35175533634E+02 -0.66642215021E+03  0.67782054808E+03  0.91762791326E+02 0.  0.
         23    2    4    4    0    0  0.52892109603E+03 -0.79319469523E+02  0.10411199291E+03  0.55269871655E+03  0.92668549872E+02 0.  0.
          2    1    3    3  502    0 -0.55046565523E+03  0.11159431775E+03  0.81188717107E+03  0.98723173970E+03  0.00000000000E+00 0. -1.
         -1    1    3    3    0  502 -0.53718214238E+02  0.29006854107E+01  0.12888302742E+03  0.13965992723E+03  0.00000000000E+00 0.  1.
         13    1    5    5    0    0 -0.21123512719E+02  0.11516477725E+00 -0.10978477856E+03  0.11179854050E+03  0.00000000000E+00 0.  1.
        -13    1    5    5    0    0  0.96386286151E+02 -0.35290698411E+02 -0.55663737165E+03  0.56602200758E+03  0.00000000000E+00 0. -1.
          1    1    6    6  503    0  0.32421562293E+03 -0.91349712581E+02  0.80160929583E+02  0.34624603214E+03  0.00000000000E+00 0. -1.
         -1    1    6    6    0  503  0.20470547310E+03  0.12030243058E+02  0.23951063328E+02  0.20645268441E+03  0.00000000000E+00 0.  1.
<mgrwt>
<rscale>  0 0.23268335E+04</rscale>
<asrwt>0</asrwt>
<pdfrwt beam="1">  1        2 0.21045161E+00 0.23268335E+04</pdfrwt>
<pdfrwt beam="2">  1       -3 0.15222699E+00 0.23268335E+04</pdfrwt>
<totfact> 0.26838649E+00</totfact>
</mgrwt>
</event>
<event>
12    7  0.1625631E-007  0.1259822E+04  0.7818608E-02  0.9062047E-01
         -1   -1    0    0    0  501 -0.00000000000E+00  0.00000000000E+00  0.13503455843E+03  0.13503455843E+03  0.00000000000E+00 0.  1.
          2   -1    0    0  501    0  0.00000000000E+00 -0.00000000000E+00 -0.29384192074E+04  0.29384192074E+04  0.00000000000E+00 0. -1.
         24    2    1    2    0    0  0.46997462882E+02  0.57669915835E+01 -0.14304807537E+04  0.14334354701E+04  0.78867234178E+02 0.  0.
        254    2    1    2    0    0 -0.46997462882E+02 -0.57669915835E+01 -0.13729038953E+04  0.16400182957E+04  0.89585316033E+03 0.  0.
         23    2    4    4    0    0 -0.23476664088E+02 -0.39840784322E+03 -0.34470111960E+03  0.53542006958E+03  0.92605754431E+02 0.  0.
         23    2    4    4    0    0 -0.23520798793E+02  0.39264085164E+03 -0.10282027757E+04  0.11045982262E+04  0.90643405184E+02 0.  0.
          2    1    3    3  502    0  0.68214725065E+02  0.12160640324E+02 -0.11461113626E+04  0.11482039825E+04  0.00000000000E+00 0. -1.
         -1    1    3    3    0  502 -0.21217262184E+02 -0.63936487405E+01 -0.28436939107E+03  0.28523148763E+03  0.00000000000E+00 0.  1.
         13    1    5    5    0    0  0.15468437256E+02 -0.13133255458E+02 -0.65591634602E+01  0.21325514657E+02  0.00000000000E+00 0.  1.
        -13    1    5    5    0    0 -0.38945101345E+02 -0.38527458776E+03 -0.33814195614E+03  0.51409455492E+03  0.00000000000E+00 0. -1.
          1    1    6    6  503    0  0.21716177924E+02  0.16774639833E+03 -0.52494149306E+03  0.55151973461E+03  0.00000000000E+00 0. -1.
         -1    1    6    6    0  503 -0.45236976717E+02  0.22489445331E+03 -0.50326128267E+03  0.55307849156E+03  0.00000000000E+00 0.  1.
<mgrwt>
<rscale>  0 0.12598224E+04</rscale>
<asrwt>0</asrwt>
<pdfrwt beam="1">  1        2 0.45206450E+00 0.12598224E+04</pdfrwt>
<pdfrwt beam="2">  1       -1 0.20774547E-01 0.12598224E+04</pdfrwt>
<totfact> 0.41332681E+01</totfact>
</mgrwt>
</event>
<event>
12    7  0.1625631E-007  0.2236738E+04  0.7818608E-02  0.8503291E-01
         -1   -1    0    0    0  501 -0.00000000000E+00  0.00000000000E+00  0.92134918195E+03  0.92134918195E+03  0.00000000000E+00 0.  1.
          2   -1    0    0  501    0  0.00000000000E+00 -0.00000000000E+00 -0.13575189744E+04  0.13575189744E+04  0.00000000000E+00 0. -1.
         24    2    1    2    0    0  0.19102595477E+02 -0.72356247631E+03  0.42427787267E+03  0.84246118940E+03  0.76299253836E+02 0.  0.
        254    2    1    2    0    0 -0.19102595477E+02  0.72356247631E+03 -0.86044766511E+03  0.14364069669E+04  0.89386085272E+03 0.  0.
         23    2    4    4    0    0 -0.78016505889E+01  0.74582086754E+03 -0.10108959818E+04  0.12595715988E+04  0.91105950295E+02 0.  0.
         23    2    4    4    0    0 -0.11300944888E+02 -0.22258391231E+02  0.15044831670E+03  0.17683536818E+03  0.89514826168E+02 0.  0.
          2    1    3    3  502    0  0.24910901449E+01 -0.33251182652E+03  0.15166038957E+03  0.36547393076E+03  0.00000000000E+00 0. -1.
         -1    1    3    3    0  502  0.16611505333E+02 -0.39105064979E+03  0.27261748309E+03  0.47698725863E+03  0.00000000000E+00 0.  1.
         13    1    5    5    0    0 -0.47840653810E+02  0.50689945968E+03 -0.68457813453E+03  0.85316060192E+03  0.00000000000E+00 0. -1.
        -13    1    5    5    0    0  0.40039003221E+02  0.23892140786E+03 -0.32631784728E+03  0.40641099685E+03  0.00000000000E+00 0.  1.
          2    1    6    6  503    0  0.67698789003E+01 -0.14548969576E+02  0.15567940780E+03  0.15650425486E+03  0.00000000000E+00 0. -1.
         -2    1    6    6    0  503 -0.18070823789E+02 -0.77094216553E+01 -0.52310910972E+01  0.20331113318E+02  0.00000000000E+00 0.  1.
<mgrwt>
<rscale>  0 0.22367378E+04</rscale>
<asrwt>0</asrwt>
<pdfrwt beam="1">  1        2 0.20884907E+00 0.22367378E+04</pdfrwt>
<pdfrwt beam="2">  1       -1 0.14174603E+00 0.22367378E+04</pdfrwt>
<totfact> 0.64503251E+00</totfact>
</mgrwt>
</event>
<event>
12    7  0.1625631E-007  0.1373825E+04  0.7818608E-02  0.8972987E-01
          2   -1    0    0  501    0  0.00000000000E+00  0.00000000000E+00  0.14641764319E+04  0.14641764319E+04  0.00000000000E+00 0. -1.
         -1   -1    0    0    0  501 -0.00000000000E+00 -0.00000000000E+00 -0.32226206041E+03  0.32226206041E+03  0.00000000000E+00 0.  1.
         24    2    1    2    0    0 -0.28653850560E+03  0.13445155371E+03  0.32848855348E+02  0.32863323494E+03  0.82092754394E+02 0.  0.
        254    2    1    2    0    0  0.28653850560E+03 -0.13445155371E+03  0.11090655161E+04  0.14578052573E+04  0.89162117169E+03 0.  0.
         23    2    4    4    0    0 -0.38410344653E+02  0.29791257159E+03  0.13792904112E+03  0.34261142971E+03  0.90171594745E+02 0.  0.
         23    2    4    4    0    0  0.32494885025E+03 -0.43236412530E+03  0.97113647500E+03  0.11151938276E+04  0.89558517049E+02 0.  0.
          4    1    3    3  502    0 -0.29813331662E+02  0.95386240090E+01 -0.21540155092E+02  0.37997346936E+02  0.00000000000E+00 0. -1.
         -3    1    3    3    0  502 -0.25672517394E+03  0.12491292970E+03  0.54389010441E+02  0.29063588801E+03  0.00000000000E+00 0.  1.
         13    1    5    5    0    0  0.49868462340E+00  0.84207087397E+01 -0.11698552343E+02  0.14422660953E+02  0.00000000000E+00 0.  1.
        -13    1    5    5    0    0 -0.38909029276E+02  0.28949186285E+03  0.14962759346E+03  0.32818876876E+03  0.00000000000E+00 0. -1.
          3    1    6    6  503    0  0.29559622570E+03 -0.37300720290E+03  0.89943725297E+03  0.10175946512E+04  0.00000000000E+00 0. -1.
         -3    1    6    6    0  503  0.29352624551E+02 -0.59356922404E+02  0.71699222029E+02  0.97599176456E+02  0.00000000000E+00 0.  1.
<mgrwt>
<rscale>  0 0.13738246E+04</rscale>
<asrwt>0</asrwt>
<pdfrwt beam="1">  1        2 0.22525791E+00 0.13738246E+04</pdfrwt>
<pdfrwt beam="2">  1       -1 0.49578779E-01 0.13738246E+04</pdfrwt>
<totfact> 0.60280169E+01</totfact>
</mgrwt>
</event>
<event>
12    7  0.1625631E-007  0.1370722E+04  0.7818608E-02  0.8975288E-01
         -1   -1    0    0    0  501 -0.00000000000E+00  0.00000000000E+00  0.11751476613E+03  0.11751476613E+03  0.00000000000E+00 0.  1.
          2   -1    0    0  501    0  0.00000000000E+00 -0.00000000000E+00 -0.39971132213E+04  0.39971132213E+04  0.00000000000E+00 0. -1.
         24    2    1    2    0    0 -0.33624304839E+03  0.13766579765E+03 -0.73271536466E+03  0.82171544688E+03  0.79581471399E+02 0.  0.
        254    2    1    2    0    0  0.33624304839E+03 -0.13766579765E+03 -0.31468830905E+04  0.32929125405E+04  0.89910430708E+03 0.  0.
         23    2    4    4    0    0 -0.16863254505E+03 -0.15863972479E+03 -0.22126468113E+04  0.22267409786E+04  0.94688842002E+02 0.  0.
         23    2    4    4    0    0  0.50487559344E+03  0.20973927145E+02 -0.93423627919E+03  0.10661715619E+04  0.92655834195E+02 0.  0.
          2    1    3    3  502    0 -0.79936266943E+02  0.56849989099E+00 -0.13083943548E+03  0.15332673558E+03  0.00000000000E+00 0. -1.
         -1    1    3    3    0  502 -0.25630678145E+03  0.13709729776E+03 -0.60187592918E+03  0.66838871130E+03  0.00000000000E+00 0.  1.
         13    1    5    5    0    0  0.35577130737E+01  0.81191781352E+01 -0.43789332631E+02  0.44677556202E+02  0.00000000000E+00 0. -1.
        -13    1    5    5    0    0 -0.17219025813E+03 -0.16675890293E+03 -0.21688574786E+04  0.21820634224E+04  0.00000000000E+00 0.  1.
          2    1    6    6  503    0  0.11408257560E+03  0.43777134495E+02 -0.23055561224E+03  0.26093516799E+03  0.00000000000E+00 0. -1.
         -2    1    6    6    0  503  0.39079301784E+03 -0.22803207350E+02 -0.70368066695E+03  0.80523639392E+03  0.00000000000E+00 0.  1.
<mgrwt>
<rscale>  0 0.13707222E+04</rscale>
<asrwt>0</asrwt>
<pdfrwt beam="1">  1        2 0.61494051E+00 0.13707222E+04</pdfrwt>
<pdfrwt beam="2">  1       -1 0.18079194E-01 0.13707222E+04</pdfrwt>
<totfact> 0.95261384E+00</totfact>
</mgrwt>
</event>
<event>
12    7  0.1625631E-007  0.2763003E+04  0.7818608E-02  0.8314847E-01
          2   -1    0    0  501    0  0.00000000000E+00  0.00000000000E+00  0.13564956663E+04  0.13564956663E+04  0.00000000000E+00 0. -1.
         -1   -1    0    0    0  501 -0.00000000000E+00 -0.00000000000E+00 -0.14069682806E+04  0.14069682806E+04  0.00000000000E+00 0.  1.
         24    2    1    2    0    0  0.31172146751E+03  0.48745026861E+02 -0.12103578769E+04  0.12530696555E+04  0.75306177628E+02 0.  0.
        254    2    1    2    0    0 -0.31172146751E+03 -0.48745026861E+02  0.11598852626E+04  0.15103942915E+04  0.91455494221E+03 0.  0.
         23    2    4    4    0    0 -0.54712198611E+03  0.10578842501E+03  0.39089268108E+03  0.68746456577E+03  0.96316055375E+02 0.  0.
         23    2    4    4    0    0  0.23540051859E+03 -0.15453345187E+03  0.76899258151E+03  0.82292972568E+03  0.81054001093E+02 0.  0.
          4    1    3    3  502    0  0.16439503858E+03  0.60119142152E+01 -0.50106052674E+03  0.52737417768E+03  0.00000000000E+00 0. -1.
         -3    1    3    3    0  502  0.14732642893E+03  0.42733112646E+02 -0.70929735017E+03  0.72569547782E+03  0.00000000000E+00 0.  1.
         13    1    5    5    0    0 -0.43996227422E+03  0.11985167509E+03  0.29602500212E+03  0.54365616767E+03  0.00000000000E+00 0. -1.
        -13    1    5    5    0    0 -0.10715971188E+03 -0.14063250088E+02  0.94867678962E+02  0.14380839811E+03  0.00000000000E+00 0.  1.
          1    1    6    6  503    0  0.23067130024E+03 -0.14306112821E+03  0.76151158776E+03  0.80844024730E+03  0.00000000000E+00 0. -1.
         -1    1    6    6    0  503  0.47292183503E+01 -0.11472323656E+02  0.74809937479E+01  0.14489478380E+02  0.00000000000E+00 0.  1.
<mgrwt>
<rscale>  0 0.27630030E+04</rscale>
<asrwt>0</asrwt>
<pdfrwt beam="1">  1        2 0.20869164E+00 0.27630030E+04</pdfrwt>
<pdfrwt beam="2">  1       -1 0.21645666E+00 0.27630030E+04</pdfrwt>
<totfact> 0.17717421E+00</totfact>
</mgrwt>
</event>
<event>
12    7  0.1625631E-007  0.2756446E+04  0.7818608E-02  0.8316919E-01
          2   -1    0    0  501    0  0.00000000000E+00  0.00000000000E+00  0.32948914127E+04  0.32948914127E+04  0.00000000000E+00 0. -1.
         -1   -1    0    0    0  501 -0.00000000000E+00 -0.00000000000E+00 -0.57649790730E+03  0.57649790730E+03  0.00000000000E+00 0.  1.
         24    2    1    2    0    0  0.18046630364E+03 -0.54208294684E+03 -0.31407357295E+03  0.65704280063E+03  0.81492482074E+02 0.  0.
        254    2    1    2    0    0 -0.18046630364E+03  0.54208294684E+03  0.30324670783E+04  0.32143465193E+04  0.89985829842E+03 0.  0.
         23    2    4    4    0    0 -0.38688527086E+02  0.36999898379E+03  0.29266131496E+04  0.29516328529E+04  0.93144620516E+02 0.  0.
         23    2    4    4    0    0 -0.14177777656E+03  0.17208396305E+03  0.10585392869E+03  0.26271366648E+03  0.89997711475E+02 0.  0.
          2    1    3    3  502    0  0.14699205982E+03 -0.46889065642E+03 -0.23681259740E+03  0.54547714857E+03  0.00000000000E+00 0. -1.
         -1    1    3    3    0  502  0.33474243819E+02 -0.73192290415E+02 -0.77260975555E+02  0.11156565206E+03  0.00000000000E+00 0.  1.
         13    1    5    5    0    0 -0.27225574515E+02  0.12964914317E+03  0.73434287838E+03  0.74619675372E+03  0.00000000000E+00 0.  1.
        -13    1    5    5    0    0 -0.11462952571E+02  0.24034984062E+03  0.21922702712E+04  0.22054360991E+04  0.00000000000E+00 0. -1.
          3    1    6    6  503    0 -0.41347934324E+02  0.11874980674E+03  0.67448252604E+02  0.14268999633E+03  0.00000000000E+00 0. -1.
         -3    1    6    6    0  503 -0.10042984223E+03  0.53334156313E+02  0.38405676087E+02  0.12002367015E+03  0.00000000000E+00 0.  1.
<mgrwt>
<rscale>  0 0.27564455E+04</rscale>
<asrwt>0</asrwt>
<pdfrwt beam="1">  1        2 0.50690636E+00 0.27564455E+04</pdfrwt>
<pdfrwt beam="2">  1       -1 0.88691988E-01 0.27564455E+04</pdfrwt>
<totfact> 0.13898344E+00</totfact>
</mgrwt>
</event>
<event>
12    7  0.1625631E-007  0.1872113E+04  0.7818608E-02  0.8668863E-01
          2   -1    0    0  501    0  0.00000000000E+00  0.00000000000E+00  0.46112686331E+04  0.46112686331E+04  0.00000000000E+00 0. -1.
         -1   -1    0    0    0  501 -0.00000000000E+00 -0.00000000000E+00 -0.19001325563E+03  0.19001325563E+03  0.00000000000E+00 0.  1.
         24    2    1    2    0    0 -0.33935819909E+03 -0.46518852096E+03  0.60682602278E+03  0.83957586249E+03  0.71312408701E+02 0.  0.
        254    2    1    2    0    0  0.33935819909E+03  0.46518852096E+03  0.38144293547E+04  0.39617060262E+04  0.90204156731E+03 0.  0.
         23    2    4    4    0    0  0.16848148847E+03  0.59424699211E+03  0.35712224870E+04  0.36253947557E+04  0.91332265986E+02 0.  0.
         23    2    4    4    0    0  0.17087671062E+03 -0.12905847115E+03  0.24320686764E+03  0.33631127058E+03  0.90004172357E+02 0.  0.
          2    1    3    3  502    0 -0.13959660732E+03 -0.14670439570E+03  0.24416577133E+03  0.31721651342E+03  0.00000000000E+00 0. -1.
         -1    1    3    3    0  502 -0.19976159177E+03 -0.31848412525E+03  0.36266025145E+03  0.52235934907E+03  0.00000000000E+00 0.  1.
         13    1    5    5    0    0  0.15804570565E+03  0.55091336624E+03  0.34217734610E+04  0.34694405314E+04  0.00000000000E+00 0.  1.
        -13    1    5    5    0    0  0.10435782817E+02  0.43333625872E+02  0.14944902602E+03  0.15595422428E+03  0.00000000000E+00 0. -1.
          2    1    6    6  503    0  0.66106241683E+02 -0.36402914544E+02  0.15094159311E+03  0.16875595369E+03  0.00000000000E+00 0. -1.
         -2    1    6    6    0  503  0.10477046894E+03 -0.92655556609E+02  0.92265274532E+02  0.16755531689E+03  0.00000000000E+00 0.  1.
<mgrwt>
<rscale>  0 0.18721134E+04</rscale>
<asrwt>0</asrwt>
<pdfrwt beam="1">  1        2 0.70942586E+00 0.18721134E+04</pdfrwt>
<pdfrwt beam="2">  1       -1 0.29232812E-01 0.18721134E+04</pdfrwt>
<totfact> 0.11100994E+00</totfact>
</mgrwt>
</event>
<event>
12    7  0.1625631E-007  0.1489009E+04  0.7818608E-02  0.8891795E-01
         -1   -1    0    0    0  501 -0.00000000000E+00  0.00000000000E+00  0.38434620176E+03  0.38434620176E+03  0.00000000000E+00 0.  1.
          2   -1    0    0  501    0  0.00000000000E+00 -0.00000000000E+00 -0.14421560650E+04  0.14421560650E+04  0.00000000000E+00 0. -1.
         24    2    1    2    0    0  0.17485182869E+03  0.21208127839E+03  0.12494756891E+03  0.31236888635E+03  0.80067443714E+02 0.  0.
        254    2    1    2    0    0 -0.17485182869E+03 -0.21208127839E+03 -0.11827574322E+04  0.15141333804E+04  0.90450711424E+03 0.  0.
         23    2    4    4    0    0 -0.41680594076E+03 -0.18727016383E+03 -0.11641637068E+04  0.12539642913E+04  0.91389282589E+02 0.  0.
         23    2    4    4    0    0  0.24195411206E+03 -0.24811114557E+02 -0.18593725356E+02  0.26016908916E+03  0.90470130884E+02 0.  0.
          4    1    3    3  502    0  0.55440948614E+02  0.81900109059E+02  0.53623690623E+01  0.99045856295E+02  0.00000000000E+00 0. -1.
         -3    1    3    3    0  502  0.11941088008E+03  0.13018116933E+03  0.11958519985E+03  0.21332303006E+03  0.00000000000E+00 0.  1.
         13    1    5    5    0    0 -0.40418801018E+03 -0.19711370729E+03 -0.11316749447E+04  0.12177478974E+04  0.00000000000E+00 0.  1.
        -13    1    5    5    0    0 -0.12617930574E+02  0.98435434587E+01 -0.32488762121E+02  0.36216393856E+02  0.00000000000E+00 0. -1.
          3    1    6    6  503    0  0.50187519603E+02  0.31395104744E+02 -0.10856087210E+02  0.60185499543E+02  0.00000000000E+00 0. -1.
         -3    1    6    6    0  503  0.19176659246E+03 -0.56206219302E+02 -0.77376381460E+01  0.19998358962E+03  0.00000000000E+00 0.  1.
<mgrwt>
<rscale>  0 0.14890093E+04</rscale>
<asrwt>0</asrwt>
<pdfrwt beam="1">  1        2 0.22187017E+00 0.14890093E+04</pdfrwt>
<pdfrwt beam="2">  1       -1 0.59130184E-01 0.14890093E+04</pdfrwt>
<totfact> 0.43734932E+01</totfact>
</mgrwt>
</event>
<event>
12    7  0.1625631E-007  0.2240690E+04  0.7818608E-02  0.8501680E-01
         -1   -1    0    0    0  501 -0.00000000000E+00  0.00000000000E+00  0.10479358051E+04  0.10479358051E+04  0.00000000000E+00 0.  1.
          2   -1    0    0  501    0  0.00000000000E+00 -0.00000000000E+00 -0.11977574102E+04  0.11977574102E+04  0.00000000000E+00 0. -1.
         24    2    1    2    0    0 -0.39456528761E+02 -0.78551734175E+03 -0.57941199836E+03  0.98013390700E+03  0.79686259637E+02 0.  0.
        254    2    1    2    0    0  0.39456528761E+02  0.78551734175E+03  0.42959039322E+03  0.12655593082E+04  0.89358723406E+03 0.  0.
         23    2    4    4    0    0  0.24036208173E+03  0.89577980514E+03  0.26464908246E+03  0.96883770562E+03  0.91716810644E+02 0.  0.
         23    2    4    4    0    0 -0.20090555297E+03 -0.11026246339E+03  0.16494131076E+03  0.29672160261E+03  0.91198801605E+02 0.  0.
          2    1    3    3  502    0 -0.41842121276E+01 -0.58781368278E+03 -0.40173919239E+03  0.71199495223E+03  0.00000000000E+00 0. -1.
         -1    1    3    3    0  502 -0.35272316634E+02 -0.19770365897E+03 -0.17767280596E+03  0.26813895478E+03  0.00000000000E+00 0.  1.
         13    1    5    5    0    0  0.19002024494E+03  0.56296612325E+03  0.19267012629E+03  0.62462815097E+03  0.00000000000E+00 0. -1.
        -13    1    5    5    0    0  0.50341836794E+02  0.33281368189E+03  0.71978956172E+02  0.34420955466E+03  0.00000000000E+00 0.  1.
          1    1    6    6  503    0 -0.74114038897E+02  0.21982840419E+00  0.25888147762E+02  0.78505638528E+02  0.00000000000E+00 0. -1.
         -1    1    6    6    0  503 -0.12679151408E+03 -0.11048229180E+03  0.13905316300E+03  0.21821596409E+03  0.00000000000E+00 0.  1.
<mgrwt>
<rscale>  0 0.22406900E+04</rscale>
<asrwt>0</asrwt>
<pdfrwt beam="1">  1        2 0.18427037E+00 0.22406900E+04</pdfrwt>
<pdfrwt beam="2">  1       -1 0.16122089E+00 0.22406900E+04</pdfrwt>
<totfact> 0.56450536E+00</totfact>
</mgrwt>
</event>
<event>
12    7  0.1625631E-007  0.1196684E+04  0.7818608E-02  0.9115764E-01
          2   -1    0    0  501    0  0.00000000000E+00  0.00000000000E+00  0.74971280094E+03  0.74971280094E+03  0.00000000000E+00 0. -1.
         -1   -1    0    0    0  501 -0.00000000000E+00 -0.00000000000E+00 -0.47753346682E+03  0.47753346682E+03  0.00000000000E+00 0.  1.
         24    2    1    2    0    0  0.85415075765E+02 -0.22794627312E+03  0.65958025019E+02  0.26287656150E+03  0.74151108705E+02 0.  0.
        254    2    1    2    0    0 -0.85415075765E+02  0.22794627312E+03  0.20622130911E+03  0.96436970626E+03  0.91006948275E+03 0.  0.
         23    2    4    4    0    0  0.34233371123E+03  0.33842389295E+03  0.83931666352E+02  0.49711515174E+03  0.91410329352E+02 0.  0.
         23    2    4    4    0    0 -0.42774878699E+03 -0.11047761983E+03  0.12228964276E+03  0.46725455452E+03  0.90541331648E+02 0.  0.
          2    1    3    3  502    0  0.38900375447E+02 -0.10520430761E+03  0.68801234872E+02  0.13158569630E+03  0.00000000000E+00 0. -1.
         -1    1    3    3    0  502  0.46514700317E+02 -0.12274196551E+03 -0.28432098530E+01  0.13129086520E+03  0.00000000000E+00 0.  1.
         13    1    5    5    0    0  0.28526765817E+03  0.29801652957E+03  0.10185625828E+03  0.42493080148E+03  0.00000000000E+00 0. -1.
        -13    1    5    5    0    0  0.57066053056E+02  0.40407363386E+02 -0.17924591932E+02  0.72184350264E+02  0.00000000000E+00 0.  1.
          2    1    6    6  503    0 -0.41452577509E+03 -0.86309107752E+02  0.11521737281E+03  0.43881194525E+03  0.00000000000E+00 0. -1.
         -2    1    6    6    0  503 -0.13223011903E+02 -0.24168512082E+02  0.70722699474E+01  0.28442609273E+02  0.00000000000E+00 0.  1.
<mgrwt>
<rscale>  0 0.11966837E+04</rscale>
<asrwt>0</asrwt>
<pdfrwt beam="1">  1        2 0.11534043E+00 0.11966837E+04</pdfrwt>
<pdfrwt beam="2">  1       -1 0.73466687E-01 0.11966837E+04</pdfrwt>
<totfact> 0.78963640E+01</totfact>
</mgrwt>
</event>
<event>
12    7  0.1750703E-007  0.2521730E+04  0.7818608E-02  0.8395285E-01
         -1   -1    0    0    0  501 -0.00000000000E+00  0.00000000000E+00  0.81990998506E+03  0.81990998506E+03  0.00000000000E+00 0.  1.
          2   -1    0    0  501    0  0.00000000000E+00 -0.00000000000E+00 -0.19389691856E+04  0.19389691856E+04  0.00000000000E+00 0. -1.
         24    2    1    2    0    0  0.73850754484E+03 -0.79473507331E+02  0.40365989699E+03  0.84904030051E+03  0.78858653874E+02 0.  0.
        254    2    1    2    0    0 -0.73850754484E+03  0.79473507331E+02 -0.15227190975E+04  0.19098388702E+04  0.88153367933E+03 0.  0.
         23    2    4    4    0    0  0.42326679735E+02  0.21417481673E+03 -0.64409696145E+02  0.24767003525E+03  0.97618837656E+02 0.  0.
         23    2    4    4    0    0 -0.78083422458E+03 -0.13470130940E+03 -0.14583094014E+04  0.16621688349E+04  0.91062596713E+02 0.  0.
          2    1    3    3  502    0  0.19397110303E+03 -0.40504347387E+02  0.14107522042E+03  0.24324392857E+03  0.00000000000E+00 0. -1.
         -1    1    3    3    0  502  0.54453644181E+03 -0.38969159944E+02  0.26258467658E+03  0.60579637194E+03  0.00000000000E+00 0.  1.
         13    1    5    5    0    0  0.25351852659E+02  0.31511986054E+01 -0.17103764052E+02  0.30743864927E+02  0.00000000000E+00 0. -1.
        -13    1    5    5    0    0  0.16974827076E+02  0.21102361812E+03 -0.47305932092E+02  0.21692617032E+03  0.00000000000E+00 0.  1.
          1    1    6    6  503    0 -0.47973229591E+03 -0.79647407130E+02 -0.80061468307E+03  0.93673403693E+03  0.00000000000E+00 0. -1.
         -1    1    6    6    0  503 -0.30110192867E+03 -0.55053902267E+02 -0.65769471832E+03  0.72543479797E+03  0.00000000000E+00 0.  1.
<mgrwt>
<rscale>  0 0.25217297E+04</rscale>
<asrwt>0</asrwt>
<pdfrwt beam="1">  1        2 0.29830295E+00 0.25217297E+04</pdfrwt>
<pdfrwt beam="2">  1       -1 0.12614000E+00 0.25217297E+04</pdfrwt>
<totfact> 0.40040442E+00</totfact>
</mgrwt>
</event>
<event>
12    7  0.1625631E-007  0.1207981E+04  0.7818608E-02  0.9105899E-01
          2   -1    0    0  501    0  0.00000000000E+00  0.00000000000E+00  0.12522927264E+04  0.12522927264E+04  0.00000000000E+00 0. -1.
         -1   -1    0    0    0  501 -0.00000000000E+00 -0.00000000000E+00 -0.29130931106E+03  0.29130931106E+03  0.00000000000E+00 0.  1.
         24    2    1    2    0    0  0.80107697737E+02  0.13468864037E+03 -0.48692982054E+02  0.18434437441E+03  0.83985527291E+02 0.  0.
        254    2    1    2    0    0 -0.80107697737E+02 -0.13468864037E+03  0.10096763974E+04  0.13592576631E+04  0.89642439392E+03 0.  0.
         23    2    4    4    0    0 -0.23153445060E+03  0.31339794175E+03  0.29475754748E+03  0.49715685454E+03  0.91958982761E+02 0.  0.
         23    2    4    4    0    0  0.15142675286E+03 -0.44808658212E+03  0.71491884993E+03  0.86210080853E+03  0.91636212897E+02 0.  0.
          4    1    3    3  502    0 -0.99800983152E+01  0.36332357953E+02  0.94481334923E+01  0.38844688483E+02  0.00000000000E+00 0. -1.
         -3    1    3    3    0  502  0.90087796052E+02  0.98356282418E+02 -0.58141115547E+02  0.14549968593E+03  0.00000000000E+00 0.  1.
         13    1    5    5    0    0  0.20535382465E+01  0.12332943115E+02 -0.38027891888E+01  0.13068271149E+02  0.00000000000E+00 0. -1.
        -13    1    5    5    0    0 -0.23358798885E+03  0.30106499863E+03  0.29856033667E+03  0.48408858339E+03  0.00000000000E+00 0.  1.
          3    1    6    6  503    0  0.98626057998E+02 -0.16899586567E+03  0.25297755612E+03  0.31981923931E+03  0.00000000000E+00 0. -1.
         -3    1    6    6    0  503  0.52800694864E+02 -0.27909071645E+03  0.46194129381E+03  0.54228156922E+03  0.00000000000E+00 0.  1.
<mgrwt>
<rscale>  0 0.12079810E+04</rscale>
<asrwt>0</asrwt>
<pdfrwt beam="1">  1        2 0.19266042E+00 0.12079810E+04</pdfrwt>
<pdfrwt beam="2">  1       -1 0.44816818E-01 0.12079810E+04</pdfrwt>
<totfact> 0.97776952E+01</totfact>
</mgrwt>
</event>
<event>
12    7  0.1625631E-007  0.1382133E+04  0.7818608E-02  0.8966854E-01
         -1   -1    0    0    0  501 -0.00000000000E+00  0.00000000000E+00  0.46249504748E+03  0.46249504748E+03  0.00000000000E+00 0.  1.
          2   -1    0    0  501    0  0.00000000000E+00 -0.00000000000E+00 -0.10326007009E+04  0.10326007009E+04  0.00000000000E+00 0. -1.
         24    2    1    2    0    0 -0.17990394875E+03 -0.25623372963E+03 -0.41285558157E+03  0.52430937417E+03  0.80183749207E+02 0.  0.
        254    2    1    2    0    0  0.17990394875E+03  0.25623372963E+03 -0.15725007189E+03  0.97078637424E+03  0.90536039472E+03 0.  0.
         23    2    4    4    0    0 -0.30782390159E+03  0.26922830013E+03 -0.21435038352E+03  0.47069757372E+03  0.91491458702E+02 0.  0.
         23    2    4    4    0    0  0.48772785034E+03 -0.12994570493E+02  0.57100311632E+02  0.50008880052E+03  0.93707246014E+02 0.  0.
          4    1    3    3  502    0 -0.16053892586E+03 -0.16614036520E+03 -0.29657482193E+03  0.37594147506E+03  0.00000000000E+00 0. -1.
         -3    1    3    3    0  502 -0.19365022889E+02 -0.90093364430E+02 -0.11628075964E+03  0.14836789911E+03  0.00000000000E+00 0.  1.
         13    1    5    5    0    0 -0.29669897894E+03  0.22392376413E+03 -0.18163520362E+03  0.41371908760E+03  0.00000000000E+00 0.  1.
        -13    1    5    5    0    0 -0.11124922650E+02  0.45304535993E+02 -0.32715179899E+02  0.56978486127E+02  0.00000000000E+00 0. -1.
          1    1    6    6  503    0  0.23891531202E+03 -0.14873077354E+02  0.74386930936E+02  0.25066940428E+03  0.00000000000E+00 0. -1.
         -1    1    6    6    0  503  0.24881253832E+03  0.18785068605E+01 -0.17286619304E+02  0.24941939624E+03  0.00000000000E+00 0.  1.
<mgrwt>
<rscale>  0 0.13821327E+04</rscale>
<asrwt>0</asrwt>
<pdfrwt beam="1">  1        2 0.15886165E+00 0.13821327E+04</pdfrwt>
<pdfrwt beam="2">  1       -1 0.71153085E-01 0.13821327E+04</pdfrwt>
<totfact> 0.53255080E+01</totfact>
</mgrwt>
</event>
<event>
12    7  0.1625631E-007  0.1328626E+04  0.7818608E-02  0.9007168E-01
          4   -1    0    0  501    0  0.00000000000E+00  0.00000000000E+00  0.10913704659E+04  0.10913704659E+04  0.00000000000E+00 0. -1.
         -3   -1    0    0    0  501 -0.00000000000E+00 -0.00000000000E+00 -0.40436460370E+03  0.40436460370E+03  0.00000000000E+00 0.  1.
         24    2    1    2    0    0  0.15706105240E+03 -0.34303878293E+03  0.17794041463E+03  0.42478090822E+03  0.80201297108E+02 0.  0.
        254    2    1    2    0    0 -0.15706105240E+03  0.34303878293E+03  0.50906544760E+03  0.10709541614E+04  0.86339527745E+03 0.  0.
         23    2    4    4    0    0 -0.61787156260E+01  0.60473253375E+03  0.42444525029E+03  0.74435332566E+03  0.90379693653E+02 0.  0.
         23    2    4    4    0    0 -0.15088233677E+03 -0.26169375082E+03  0.84620197312E+02  0.32660083575E+03  0.90875900827E+02 0.  0.
          2    1    3    3  502    0  0.13483353021E+03 -0.33505946673E+03  0.17376529449E+03  0.40079833418E+03  0.00000000000E+00 0. -1.
         -1    1    3    3    0  502  0.22227522186E+02 -0.79793162042E+01  0.41751201427E+01  0.23982574044E+02  0.00000000000E+00 0.  1.
         13    1    5    5    0    0 -0.37263934496E+02  0.30980012310E+03  0.18149140729E+03  0.36097624300E+03  0.00000000000E+00 0.  1.
        -13    1    5    5    0    0  0.31085218870E+02  0.29493241065E+03  0.24295384300E+03  0.38337708266E+03  0.00000000000E+00 0. -1.
          3    1    6    6  503    0 -0.75715124673E+02 -0.16785268563E+03  0.85798443961E+01  0.18433913830E+03  0.00000000000E+00 0. -1.
         -3    1    6    6    0  503 -0.75167212097E+02 -0.93841065184E+02  0.76040352915E+02  0.14226169745E+03  0.00000000000E+00 0.  1.
<mgrwt>
<rscale>  0 0.13286257E+04</rscale>
<asrwt>0</asrwt>
<pdfrwt beam="1">  1        4 0.16790315E+00 0.13286257E+04</pdfrwt>
<pdfrwt beam="2">  1       -3 0.62209939E-01 0.13286257E+04</pdfrwt>
<totfact> 0.12310833E+00</totfact>
</mgrwt>
</event>
<event>
12    7  0.1625631E-007  0.1313267E+04  0.7818608E-02  0.9019110E-01
          2   -1    0    0  501    0  0.00000000000E+00  0.00000000000E+00  0.23136299826E+04  0.23136299826E+04  0.00000000000E+00 0. -1.
         -1   -1    0    0    0  501 -0.00000000000E+00 -0.00000000000E+00 -0.18635974843E+03  0.18635974843E+03  0.00000000000E+00 0.  1.
         24    2    1    2    0    0 -0.25983929712E+03 -0.11286585706E+03  0.92067811576E+03  0.96714916385E+03  0.86453168214E+02 0.  0.
        254    2    1    2    0    0  0.25983929712E+03  0.11286585706E+03  0.12065921184E+04  0.15328405672E+04  0.90193153961E+03 0.  0.
         23    2    4    4    0    0 -0.21798212947E+03 -0.22443148510E+03  0.26263463790E+03  0.41856383556E+03  0.91285437737E+02 0.  0.
         23    2    4    4    0    0  0.47782142658E+03  0.33729734216E+03  0.94395748054E+03  0.11142767316E+04  0.92054857971E+02 0.  0.
          4    1    3    3  502    0 -0.14176775218E+03 -0.28343101038E+02  0.55944594706E+03  0.57782453618E+03  0.00000000000E+00 0. -1.
         -3    1    3    3    0  502 -0.11807154494E+03 -0.84522756020E+02  0.36123216870E+03  0.38932462767E+03  0.00000000000E+00 0.  1.
         13    1    5    5    0    0 -0.41620652345E+02 -0.78856241128E+02  0.34681033218E+02  0.95673191289E+02  0.00000000000E+00 0.  1.
        -13    1    5    5    0    0 -0.17636147712E+03 -0.14557524397E+03  0.22795360468E+03  0.32289064427E+03  0.00000000000E+00 0. -1.
          3    1    6    6  503    0  0.43397469484E+03  0.30407873937E+03  0.89757133661E+03  0.10423205936E+04  0.00000000000E+00 0. -1.
         -3    1    6    6    0  503  0.43846731743E+02  0.33218602782E+02  0.46386143930E+02  0.71956138057E+02  0.00000000000E+00 0.  1.
<mgrwt>
<rscale>  0 0.13132669E+04</rscale>
<asrwt>0</asrwt>
<pdfrwt beam="1">  1        2 0.35594305E+00 0.13132669E+04</pdfrwt>
<pdfrwt beam="2">  1       -1 0.28670732E-01 0.13132669E+04</pdfrwt>
<totfact> 0.55036824E+01</totfact>
</mgrwt>
</event>
<event>
12    7  0.1625631E-007  0.3880205E+04  0.7818608E-02  0.8029159E-01
         -1   -1    0    0    0  501 -0.00000000000E+00  0.00000000000E+00  0.13679269980E+04  0.13679269980E+04  0.00000000000E+00 0.  1.
          2   -1    0    0  501    0  0.00000000000E+00 -0.00000000000E+00 -0.27516073299E+04  0.27516073299E+04  0.00000000000E+00 0. -1.
         24    2    1    2    0    0  0.21617427837E+03  0.13652206465E+04  0.62315680662E+03  0.15184668303E+04  0.82815316982E+02 0.  0.
        254    2    1    2    0    0 -0.21617427837E+03 -0.13652206465E+04 -0.20068371385E+04  0.26010674976E+04  0.90972418576E+03 0.  0.
         23    2    4    4    0    0  0.31477040747E+03 -0.75292492139E+03 -0.12017246274E+04  0.14555499456E+04  0.92234577483E+02 0.  0.
         23    2    4    4    0    0 -0.53094468584E+03 -0.61229572513E+03 -0.80511251114E+03  0.11455175520E+04  0.84829192996E+02 0.  0.
          2    1    3    3  502    0 -0.19267688576E+01  0.14959713716E+03  0.62789201002E+02  0.16225134713E+03  0.00000000000E+00 0. -1.
         -1    1    3    3    0  502  0.21810104723E+03  0.12156235094E+04  0.56036760562E+03  0.13562154832E+04  0.00000000000E+00 0.  1.
         13    1    5    5    0    0  0.99933939766E+02 -0.27514640308E+03 -0.50716986665E+03  0.58558825901E+03  0.00000000000E+00 0. -1.
        -13    1    5    5    0    0  0.21483646770E+03 -0.47777851831E+03 -0.69455476074E+03  0.86996168656E+03  0.00000000000E+00 0.  1.
          4    1    6    6  503    0 -0.45890734368E+02 -0.86692629984E+02 -0.75153180398E+02  0.12357011013E+03  0.00000000000E+00 0. -1.
         -4    1    6    6    0  503 -0.48505395147E+03 -0.52560309515E+03 -0.72995933074E+03  0.10219474419E+04  0.00000000000E+00 0.  1.
<mgrwt>
<rscale>  0 0.38802051E+04</rscale>
<asrwt>0</asrwt>
<pdfrwt beam="1">  1        2 0.42332420E+00 0.38802051E+04</pdfrwt>
<pdfrwt beam="2">  1       -1 0.21045031E+00 0.38802051E+04</pdfrwt>
<totfact> 0.28563555E-01</totfact>
</mgrwt>
</event>
<event>
12    7  0.1625631E-007  0.1967946E+04  0.7818608E-02  0.8621755E-01
          2   -1    0    0  501    0  0.00000000000E+00  0.00000000000E+00  0.24415504334E+04  0.24415504334E+04  0.00000000000E+00 0. -1.
         -1   -1    0    0    0  501 -0.00000000000E+00 -0.00000000000E+00 -0.39655243502E+03  0.39655243502E+03  0.00000000000E+00 0.  1.
         24    2    1    2    0    0 -0.67180091861E+03  0.27654602675E+03  0.43469895580E+03  0.85046561900E+03  0.80835683833E+02 0.  0.
        254    2    1    2    0    0  0.67180091861E+03 -0.27654602675E+03  0.16102990426E+04  0.19876372494E+04  0.91095809429E+03 0.  0.
         23    2    4    4    0    0  0.13279362160E+03  0.11175859671E+03 -0.46299620083E+02  0.20066984219E+03  0.89446077994E+02 0.  0.
         23    2    4    4    0    0  0.53900729701E+03 -0.38830462346E+03  0.16565986627E+04  0.17869674072E+04  0.87315740372E+02 0.  0.
          4    1    3    3  502    0 -0.19564350632E+03  0.11161707964E+03  0.10695805186E+03  0.24934870942E+03  0.00000000000E+00 0. -1.
         -3    1    3    3    0  502 -0.47615741229E+03  0.16492894711E+03  0.32774090393E+03  0.60111690958E+03  0.00000000000E+00 0.  1.
         13    1    5    5    0    0  0.13101141101E+03  0.71452219931E+02 -0.55626752223E+02  0.15925999218E+03  0.00000000000E+00 0.  1.
        -13    1    5    5    0    0  0.17822105912E+01  0.40306376775E+02  0.93271321400E+01  0.41409850004E+02  0.00000000000E+00 0. -1.
          4    1    6    6  503    0  0.71783115183E+02 -0.91789792516E+02  0.27510031386E+03  0.29876138358E+03  0.00000000000E+00 0. -1.
         -4    1    6    6    0  503  0.46722418183E+03 -0.29651483094E+03  0.13814983488E+04  0.14882060236E+04  0.00000000000E+00 0.  1.
<mgrwt>
<rscale>  0 0.19679459E+04</rscale>
<asrwt>0</asrwt>
<pdfrwt beam="1">  1        2 0.37562313E+00 0.19679459E+04</pdfrwt>
<pdfrwt beam="2">  1       -1 0.61008069E-01 0.19679459E+04</pdfrwt>
<totfact> 0.10877334E+01</totfact>
</mgrwt>
</event>
<event>
12    7  0.1625631E-007  0.1446305E+04  0.7818608E-02  0.8920966E-01
         -1   -1    0    0    0  501 -0.00000000000E+00  0.00000000000E+00  0.69681659139E+03  0.69681659139E+03  0.00000000000E+00 0.  1.
          2   -1    0    0  501    0  0.00000000000E+00 -0.00000000000E+00 -0.75048421567E+03  0.75048421567E+03  0.00000000000E+00 0. -1.
         24    2    1    2    0    0 -0.14501732739E+03 -0.13079505348E+02  0.39804656707E+03  0.43115271367E+03  0.79060067316E+02 0.  0.
        254    2    1    2    0    0  0.14501732739E+03  0.13079505348E+02 -0.45171419135E+03  0.10161480934E+04  0.89850438972E+03 0.  0.
         23    2    4    4    0    0  0.26633224926E+03  0.39970630059E+03 -0.30353351247E+03  0.57530620934E+03  0.90258781188E+02 0.  0.
         23    2    4    4    0    0 -0.12131492187E+03 -0.38662679525E+03 -0.14818067889E+03  0.44084188406E+03  0.90479080880E+02 0.  0.
          4    1    3    3  502    0 -0.30355456745E+02 -0.20322072876E+02  0.35896364193E+02  0.51215128257E+02  0.00000000000E+00 0. -1.
         -3    1    3    3    0  502 -0.11466187065E+03  0.72425675277E+01  0.36215020288E+03  0.37993758541E+03  0.00000000000E+00 0.  1.
         13    1    5    5    0    0  0.16239401916E+03  0.17849558696E+03 -0.18258594069E+03  0.30260554813E+03  0.00000000000E+00 0.  1.
        -13    1    5    5    0    0  0.10393823010E+03  0.22121071363E+03 -0.12094757177E+03  0.27270066120E+03  0.00000000000E+00 0. -1.
          3    1    6    6  503    0 -0.43022547650E+01 -0.15301446180E+03 -0.68331776804E+02  0.16763402589E+03  0.00000000000E+00 0. -1.
         -3    1    6    6    0  503 -0.11701266710E+03 -0.23361233345E+03 -0.79848902081E+02  0.27320785817E+03  0.00000000000E+00 0.  1.
<mgrwt>
<rscale>  0 0.14463054E+04</rscale>
<asrwt>0</asrwt>
<pdfrwt beam="1">  1        2 0.11545911E+00 0.14463054E+04</pdfrwt>
<pdfrwt beam="2">  1       -1 0.10720255E+00 0.14463054E+04</pdfrwt>
<totfact> 0.33673113E+01</totfact>
</mgrwt>
</event>
<event>
12    7  0.1625631E-007  0.1930525E+04  0.7818608E-02  0.8639810E-01
          2   -1    0    0  501    0  0.00000000000E+00  0.00000000000E+00  0.48464392296E+03  0.48464392296E+03  0.00000000000E+00 0. -1.
         -1   -1    0    0    0  501 -0.00000000000E+00 -0.00000000000E+00 -0.19225070458E+04  0.19225070458E+04  0.00000000000E+00 0.  1.
         24    2    1    2    0    0 -0.66839541603E+02 -0.48682136930E+03  0.14817589915E+03  0.51935228328E+03  0.79423718905E+02 0.  0.
        254    2    1    2    0    0  0.66839541603E+02  0.48682136930E+03 -0.15860390220E+04  0.18877986855E+04  0.89822131334E+03 0.  0.
         23    2    4    4    0    0  0.54899866737E+02  0.66606321429E+03 -0.67407915246E+03  0.95400028609E+03  0.95287151686E+02 0.  0.
         23    2    4    4    0    0  0.11939674866E+02 -0.17924184499E+03 -0.91195986951E+03  0.93379839939E+03  0.89657416140E+02 0.  0.
          4    1    3    3  502    0 -0.59302629534E+02 -0.41808738412E+03  0.96843292924E+02  0.43323490858E+03  0.00000000000E+00 0. -1.
         -3    1    3    3    0  502 -0.75369120693E+01 -0.68733985184E+02  0.51332606222E+02  0.86117374695E+02  0.00000000000E+00 0.  1.
         13    1    5    5    0    0  0.65608163986E+02  0.65674391309E+03 -0.66611147488E+03  0.93772143813E+03  0.00000000000E+00 0. -1.
        -13    1    5    5    0    0 -0.10708297249E+02  0.93193012056E+01 -0.79676775798E+01  0.16278847961E+02  0.00000000000E+00 0.  1.
          2    1    6    6  503    0 -0.29922145854E+02 -0.22958429109E+02 -0.13485602183E+03  0.14003060702E+03  0.00000000000E+00 0.  1.
         -2    1    6    6    0  503  0.41861820720E+02 -0.15628341588E+03 -0.77710384768E+03  0.79376779237E+03  0.00000000000E+00 0. -1.
<mgrwt>
<rscale>  0 0.19305247E+04</rscale>
<asrwt>0</asrwt>
<pdfrwt beam="1">  1        2 0.74560603E-01 0.19305247E+04</pdfrwt>
<pdfrwt beam="2">  1       -1 0.29577031E+00 0.19305247E+04</pdfrwt>
<totfact> 0.23995546E+00</totfact>
</mgrwt>
</event>
<event>
12    7  0.1625631E-007  0.2632031E+04  0.7818608E-02  0.8357402E-01
         -1   -1    0    0    0  501 -0.00000000000E+00  0.00000000000E+00  0.62175802558E+03  0.62175802558E+03  0.00000000000E+00 0.  1.
          2   -1    0    0  501    0  0.00000000000E+00 -0.00000000000E+00 -0.27854830476E+04  0.27854830476E+04  0.00000000000E+00 0. -1.
         24    2    1    2    0    0  0.45943277155E+02 -0.77888340381E+03 -0.20859730281E+04  0.22289214512E+04  0.89650543365E+02 0.  0.
        254    2    1    2    0    0 -0.45943277155E+02  0.77888340381E+03 -0.77751993887E+02  0.11783196220E+04  0.87955762610E+03 0.  0.
         23    2    4    4    0    0 -0.10195922190E+03  0.44491822639E+03 -0.46324901331E+03  0.65716949654E+03  0.94467919129E+02 0.  0.
         23    2    4    4    0    0  0.56015944741E+02  0.33396517742E+03  0.38549701942E+03  0.52115012548E+03  0.91208417969E+02 0.  0.
          4    1    3    3  502    0  0.12187832398E+02 -0.68892022193E+03 -0.18487999394E+04  0.19730232719E+04  0.00000000000E+00 0. -1.
         -3    1    3    3    0  502  0.33755444757E+02 -0.89963181874E+02 -0.23717308876E+03  0.25589817931E+03  0.00000000000E+00 0.  1.
         13    1    5    5    0    0 -0.66736860671E+01  0.39437776847E+02 -0.87484726816E+02  0.96194873847E+02  0.00000000000E+00 0. -1.
        -13    1    5    5    0    0 -0.95285535829E+02  0.40548044955E+03 -0.37576428649E+03  0.56097462269E+03  0.00000000000E+00 0.  1.
          3    1    6    6  503    0  0.79709209602E+02  0.22367183970E+03  0.24898752040E+03  0.34406022043E+03  0.00000000000E+00 0. -1.
         -3    1    6    6    0  503 -0.23693264861E+02  0.11029333771E+03  0.13650949903E+03  0.17708990504E+03  0.00000000000E+00 0.  1.
<mgrwt>
<rscale>  0 0.26320307E+04</rscale>
<asrwt>0</asrwt>
<pdfrwt beam="1">  1        2 0.42853586E+00 0.26320307E+04</pdfrwt>
<pdfrwt beam="2">  1       -1 0.95655080E-01 0.26320307E+04</pdfrwt>
<totfact> 0.24948380E+00</totfact>
</mgrwt>
</event>
<event>
12    7  0.1625631E-007  0.1105646E+04  0.7818608E-02  0.9199707E-01
         -1   -1    0    0    0  501 -0.00000000000E+00  0.00000000000E+00  0.58438879712E+03  0.58438879712E+03  0.00000000000E+00 0.  1.
          2   -1    0    0  501    0  0.00000000000E+00 -0.00000000000E+00 -0.52296185464E+03  0.52296185464E+03  0.00000000000E+00 0. -1.
         24    2    1    2    0    0  0.69059761063E+02 -0.85637739679E+02 -0.12033041266E+03  0.18188179383E+03  0.80613309454E+02 0.  0.
        254    2    1    2    0    0 -0.69059761063E+02  0.85637739679E+02  0.18175735514E+03  0.92546885792E+03  0.90075179588E+03 0.  0.
         23    2    4    4    0    0 -0.44871403385E+03 -0.10597512928E+03  0.61121944541E+02  0.47393071187E+03  0.91101127038E+02 0.  0.
         23    2    4    4    0    0  0.37965427279E+03  0.19161286896E+03  0.12063541060E+03  0.45153814606E+03  0.92092001035E+02 0.  0.
          2    1    3    3  502    0  0.11359978225E+02 -0.67890648742E+02 -0.92776249195E+02  0.11552325180E+03  0.00000000000E+00 0. -1.
         -1    1    3    3    0  502  0.57699782838E+02 -0.17747090937E+02 -0.27554163466E+02  0.66358542032E+02  0.00000000000E+00 0.  1.
         13    1    5    5    0    0 -0.44212518905E+03 -0.92034609265E+02  0.68617906375E+02  0.45678602121E+03  0.00000000000E+00 0.  1.
        -13    1    5    5    0    0 -0.65888447991E+01 -0.13940520012E+02 -0.74959618338E+01  0.17144690659E+02  0.00000000000E+00 0. -1.
          2    1    6    6  503    0  0.76957865835E+02  0.60278417253E+01  0.41984203128E+02  0.87872187306E+02  0.00000000000E+00 0. -1.
         -2    1    6    6    0  503  0.30269640695E+03  0.18558502723E+03  0.78651207475E+02  0.36366595875E+03  0.00000000000E+00 0.  1.
<mgrwt>
<rscale>  0 0.11056456E+04</rscale>
<asrwt>0</asrwt>
<pdfrwt beam="1">  1        2 0.80455670E-01 0.11056456E+04</pdfrwt>
<pdfrwt beam="2">  1       -1 0.89905968E-01 0.11056456E+04</pdfrwt>
<totfact> 0.80331532E+01</totfact>
</mgrwt>
</event>
<event>
12    7  0.1625631E-007  0.1667246E+04  0.7818608E-02  0.8780269E-01
          2   -1    0    0  501    0  0.00000000000E+00  0.00000000000E+00  0.71635205164E+03  0.71635205164E+03  0.00000000000E+00 0. -1.
         -1   -1    0    0    0  501 -0.00000000000E+00 -0.00000000000E+00 -0.97009134958E+03  0.97009134958E+03  0.00000000000E+00 0.  1.
         24    2    1    2    0    0 -0.25578920959E+03  0.45713587945E+03  0.20720030803E+03  0.56889268184E+03  0.79407706023E+02 0.  0.
        254    2    1    2    0    0  0.25578920959E+03 -0.45713587945E+03 -0.46093960597E+03  0.11175507194E+04  0.87295644680E+03 0.  0.
         23    2    4    4    0    0  0.56462973336E+03 -0.37986846262E+03 -0.31218707950E+03  0.75415886823E+03  0.90487796064E+02 0.  0.
         23    2    4    4    0    0 -0.30884052376E+03 -0.77267416826E+02 -0.14875252647E+03  0.36339185115E+03  0.92593739141E+02 0.  0.
          2    1    3    3  502    0 -0.19719525304E+03  0.35588999311E+03  0.12400930588E+03  0.42534922471E+03  0.00000000000E+00 0. -1.
         -1    1    3    3    0  502 -0.58593956558E+02  0.10124588634E+03  0.83191002150E+02  0.14354345713E+03  0.00000000000E+00 0.  1.
         13    1    5    5    0    0  0.18546375350E+03 -0.83105716985E+02 -0.11782739241E+03  0.23491840809E+03  0.00000000000E+00 0. -1.
        -13    1    5    5    0    0  0.37916597986E+03 -0.29676274564E+03 -0.19435968709E+03  0.51924046014E+03  0.00000000000E+00 0.  1.
          1    1    6    6  503    0 -0.29332661350E+02 -0.14790947271E+02  0.11979858680E+02  0.34967043871E+02  0.00000000000E+00 0. -1.
         -1    1    6    6    0  503 -0.27950786241E+03 -0.62476469555E+02 -0.16073238515E+03  0.32842480728E+03  0.00000000000E+00 0.  1.
<mgrwt>
<rscale>  0 0.16672455E+04</rscale>
<asrwt>0</asrwt>
<pdfrwt beam="1">  1        2 0.11020801E+00 0.16672455E+04</pdfrwt>
<pdfrwt beam="2">  1       -1 0.14924482E+00 0.16672455E+04</pdfrwt>
<totfact> 0.15330518E+01</totfact>
</mgrwt>
</event>
<event>
12    7  0.1625631E-007  0.1082233E+04  0.7818608E-02  0.9222684E-01
          2   -1    0    0  501    0  0.00000000000E+00  0.00000000000E+00  0.42887608429E+03  0.42887608429E+03  0.00000000000E+00 0. -1.
         -1   -1    0    0    0  501 -0.00000000000E+00 -0.00000000000E+00 -0.68273072928E+03  0.68273072928E+03  0.00000000000E+00 0.  1.
         24    2    1    2    0    0  0.84578098995E+02  0.10575864980E+03  0.64307382859E+02  0.16954659465E+03  0.79197610010E+02 0.  0.
        254    2    1    2    0    0 -0.84578098995E+02 -0.10575864980E+03 -0.31816202785E+03  0.94206021893E+03  0.87630590166E+03 0.  0.
         23    2    4    4    0    0 -0.18060840939E+03 -0.22408931679E+03  0.22113722350E+03  0.37435288601E+03  0.91667836266E+02 0.  0.
         23    2    4    4    0    0  0.96030310398E+02  0.11833066699E+03 -0.53929925135E+03  0.56770733291E+03  0.90686085336E+02 0.  0.
          2    1    3    3  502    0 -0.11678235357E+02 -0.25560297330E+01  0.42187448470E+01  0.12677234601E+02  0.00000000000E+00 0. -1.
         -1    1    3    3    0  502  0.96256334351E+02  0.10831467953E+03  0.60088638012E+02  0.15686936005E+03  0.00000000000E+00 0.  1.
         13    1    5    5    0    0 -0.10811821422E+03 -0.19685542275E+03  0.16664464286E+03  0.27966416057E+03  0.00000000000E+00 0.  1.
        -13    1    5    5    0    0 -0.72490195176E+02 -0.27233894033E+02  0.54492580636E+02  0.94688725439E+02  0.00000000000E+00 0. -1.
          3    1    6    6  503    0  0.26268672180E+02  0.99150612270E+02 -0.26898341255E+03  0.28787664594E+03  0.00000000000E+00 0. -1.
         -3    1    6    6    0  503  0.69761638218E+02  0.19180054721E+02 -0.27031583880E+03  0.27983068698E+03  0.00000000000E+00 0.  1.
<mgrwt>
<rscale>  0 0.10822327E+04</rscale>
<asrwt>0</asrwt>
<pdfrwt beam="1">  1        2 0.65980937E-01 0.10822327E+04</pdfrwt>
<pdfrwt beam="2">  1       -1 0.10503550E+00 0.10822327E+04</pdfrwt>
<totfact> 0.71126659E+01</totfact>
</mgrwt>
</event>
<event>
12    7  0.1625631E-007  0.1703513E+04  0.7818608E-02  0.8759363E-01
          2   -1    0    0  501    0  0.00000000000E+00  0.00000000000E+00  0.19441169685E+04  0.19441169685E+04  0.00000000000E+00 0. -1.
         -1   -1    0    0    0  501 -0.00000000000E+00 -0.00000000000E+00 -0.37317164283E+03  0.37317164283E+03  0.00000000000E+00 0.  1.
         24    2    1    2    0    0 -0.13411088188E+03 -0.10981168551E+03 -0.22533678742E+03  0.29510952522E+03  0.79174675198E+02 0.  0.
        254    2    1    2    0    0  0.13411088188E+03  0.10981168551E+03  0.17962821131E+04  0.20221790861E+04  0.91243328062E+03 0.  0.
         23    2    4    4    0    0 -0.38347416549E+03  0.63552176370E+02  0.72836539884E+03  0.83108067775E+03  0.95329030117E+02 0.  0.
         23    2    4    4    0    0  0.51758504737E+03  0.46259509141E+02  0.10679167143E+04  0.11910984084E+04  0.90747376689E+02 0.  0.
          4    1    3    3  502    0 -0.68882505582E+02 -0.78585355817E+01 -0.75682476511E+02  0.10263719310E+03  0.00000000000E+00 0. -1.
         -3    1    3    3    0  502 -0.65228376303E+02 -0.10195314993E+03 -0.14965431091E+03  0.19247233212E+03  0.00000000000E+00 0.  1.
         13    1    5    5    0    0 -0.89460549567E+02 -0.23762753356E+02  0.19403933630E+03  0.21498633075E+03  0.00000000000E+00 0. -1.
        -13    1    5    5    0    0 -0.29401361592E+03  0.87314929726E+02  0.53432606254E+03  0.61609434701E+03  0.00000000000E+00 0.  1.
          1    1    6    6  503    0  0.20749845690E+03  0.58361710842E+02  0.39216519300E+03  0.44749886873E+03  0.00000000000E+00 0. -1.
         -1    1    6    6    0  503  0.31008659048E+03 -0.12102201700E+02  0.67575152127E+03  0.74359953966E+03  0.00000000000E+00 0.  1.
<mgrwt>
<rscale>  0 0.17035132E+04</rscale>
<asrwt>0</asrwt>
<pdfrwt beam="1">  1        2 0.29909491E+00 0.17035132E+04</pdfrwt>
<pdfrwt beam="2">  1       -1 0.57411023E-01 0.17035132E+04</pdfrwt>
<totfact> 0.23893919E+01</totfact>
</mgrwt>
</event>
<event>
12    7  0.1625631E-007  0.3313959E+04  0.7818608E-02  0.8159353E-01
         -1   -1    0    0    0  501 -0.00000000000E+00  0.00000000000E+00  0.62867762353E+03  0.62867762353E+03  0.00000000000E+00 0.  1.
          2   -1    0    0  501    0  0.00000000000E+00 -0.00000000000E+00 -0.43672320171E+04  0.43672320171E+04  0.00000000000E+00 0. -1.
         24    2    1    2    0    0  0.75182505341E+03  0.21838911656E+03 -0.37465992736E+04  0.38283628139E+04  0.80131145866E+02 0.  0.
        254    2    1    2    0    0 -0.75182505341E+03 -0.21838911656E+03  0.80448800665E+01  0.11675468267E+04  0.86612132831E+03 0.  0.
         23    2    4    4    0    0 -0.50009227545E+03 -0.53168694547E+03  0.10975394113E+03  0.74394155655E+03  0.92842985834E+02 0.  0.
         23    2    4    4    0    0 -0.25173277795E+03  0.31329782891E+03 -0.10170906106E+03  0.42360527018E+03  0.87015922249E+02 0.  0.
          4    1    3    3  502    0  0.67627972847E+03  0.22026488707E+03 -0.33621525749E+04  0.34365594464E+04  0.00000000000E+00 0. -1.
         -1    1    3    3    0  502  0.75545324940E+02 -0.18757705099E+01 -0.38444669872E+03  0.39180336751E+03  0.00000000000E+00 0.  1.
         13    1    5    5    0    0 -0.13554921415E+02 -0.15501014717E+01  0.11228351668E+02  0.17669595080E+02  0.00000000000E+00 0. -1.
        -13    1    5    5    0    0 -0.48653735404E+03 -0.53013684400E+03  0.98525589459E+02  0.72627196147E+03  0.00000000000E+00 0.  1.
          4    1    6    6  503    0 -0.87756502536E+02  0.10449925346E+03 -0.77702745526E+02  0.15703188967E+03  0.00000000000E+00 0. -1.
         -4    1    6    6    0  503 -0.16397627542E+03  0.20879857545E+03 -0.24006315534E+02  0.26657338051E+03  0.00000000000E+00 0.  1.
<mgrwt>
<rscale>  0 0.33139590E+04</rscale>
<asrwt>0</asrwt>
<pdfrwt beam="1">  1        2 0.67188186E+00 0.33139590E+04</pdfrwt>
<pdfrwt beam="2">  1       -1 0.96719633E-01 0.33139590E+04</pdfrwt>
<totfact> 0.15986987E-01</totfact>
</mgrwt>
</event>
<event>
12    7  0.1625631E-007  0.1160103E+04  0.7818608E-02  0.9148513E-01
          2   -1    0    0  501    0  0.00000000000E+00  0.00000000000E+00  0.70436318554E+03  0.70436318554E+03  0.00000000000E+00 0. -1.
         -1   -1    0    0    0  501 -0.00000000000E+00 -0.00000000000E+00 -0.47767967378E+03  0.47767967378E+03  0.00000000000E+00 0.  1.
         24    2    1    2    0    0 -0.81688570185E+02 -0.19597495586E+03  0.79486138036E+02  0.23996443549E+03  0.78649083512E+02 0.  0.
        254    2    1    2    0    0  0.81688570185E+02  0.19597495586E+03  0.14719737373E+03  0.94207842383E+03  0.90596108305E+03 0.  0.
         23    2    4    4    0    0  0.69923756210E+02 -0.97693597441E+02 -0.33654413563E+03  0.36853319912E+03  0.90118771421E+02 0.  0.
         23    2    4    4    0    0  0.11764813975E+02  0.29366855330E+03  0.48374150936E+03  0.57354522471E+03  0.92566985859E+02 0.  0.
          4    1    3    3  502    0 -0.41627854219E+02 -0.46500687462E+02  0.55201424052E+02  0.83321002146E+02  0.00000000000E+00 0. -1.
         -3    1    3    3    0  502 -0.40060715966E+02 -0.14947426839E+03  0.24284713984E+02  0.15664343334E+03  0.00000000000E+00 0.  1.
         13    1    5    5    0    0  0.51395547790E+02 -0.10298545164E+03 -0.32771174081E+03  0.34733627891E+03  0.00000000000E+00 0.  1.
        -13    1    5    5    0    0  0.18528208420E+02  0.52918542034E+01 -0.88323948251E+01  0.21196920213E+02  0.00000000000E+00 0. -1.
          3    1    6    6  503    0 -0.25792589227E+02  0.23270577354E+02  0.64411089933E+02  0.73181732254E+02  0.00000000000E+00 0. -1.
         -3    1    6    6    0  503  0.37557403202E+02  0.27039797594E+03  0.41933041943E+03  0.50036349246E+03  0.00000000000E+00 0.  1.
<mgrwt>
<rscale>  0 0.11601034E+04</rscale>
<asrwt>0</asrwt>
<pdfrwt beam="1">  1        2 0.10836357E+00 0.11601034E+04</pdfrwt>
<pdfrwt beam="2">  1       -1 0.73489181E-01 0.11601034E+04</pdfrwt>
<totfact> 0.85720665E+01</totfact>
</mgrwt>
</event>
<event>
12    7  0.1625631E-007  0.1797953E+04  0.7818608E-02  0.8707389E-01
          2   -1    0    0  501    0  0.00000000000E+00  0.00000000000E+00  0.31769186501E+04  0.31769186501E+04  0.00000000000E+00 0. -1.
         -1   -1    0    0    0  501 -0.00000000000E+00 -0.00000000000E+00 -0.25438440859E+03  0.25438440859E+03  0.00000000000E+00 0.  1.
         24    2    1    2    0    0 -0.35219898190E+03 -0.33470957439E+03  0.19738674511E+04  0.20343697255E+04  0.80205007214E+02 0.  0.
        254    2    1    2    0    0  0.35219898190E+03  0.33470957439E+03  0.94866679042E+03  0.13969333333E+04  0.90298363015E+03 0.  0.
         23    2    4    4    0    0 -0.11460255946E+03 -0.17080845159E+03  0.55346475013E+03  0.59816973562E+03  0.95783762734E+02 0.  0.
         23    2    4    4    0    0  0.46680154136E+03  0.50551802597E+03  0.39520204028E+03  0.79876359765E+03  0.91577719362E+02 0.  0.
          2    1    3    3  502    0 -0.27341021863E+03 -0.27594545713E+03  0.16864497200E+04  0.17306102106E+04  0.00000000000E+00 0. -1.
         -1    1    3    3    0  502 -0.78788763267E+02 -0.58764117259E+02  0.28741773114E+03  0.30375951486E+03  0.00000000000E+00 0.  1.
         13    1    5    5    0    0 -0.13063585986E+03 -0.13895719312E+03  0.48018380947E+03  0.51667332066E+03  0.00000000000E+00 0.  1.
        -13    1    5    5    0    0  0.16033300397E+02 -0.31851258464E+02  0.73280940662E+02  0.81496414962E+02  0.00000000000E+00 0. -1.
          4    1    6    6  503    0  0.39093583720E+03  0.45303592499E+03  0.36838706621E+03  0.70269581519E+03  0.00000000000E+00 0.  1.
         -4    1    6    6    0  503  0.75865704162E+02  0.52482100987E+02  0.26814974075E+02  0.96067782459E+02  0.00000000000E+00 0. -1.
<mgrwt>
<rscale>  0 0.17979528E+04</rscale>
<asrwt>0</asrwt>
<pdfrwt beam="1">  1        2 0.48875669E+00 0.17979528E+04</pdfrwt>
<pdfrwt beam="2">  1       -1 0.39136065E-01 0.17979528E+04</pdfrwt>
<totfact> 0.91960509E+00</totfact>
</mgrwt>
</event>
<event>
12    7  0.1625631E-007  0.1610511E+04  0.7818608E-02  0.8814117E-01
          2   -1    0    0  501    0  0.00000000000E+00  0.00000000000E+00  0.71416466614E+03  0.71416466614E+03  0.00000000000E+00 0. -1.
         -1   -1    0    0    0  501 -0.00000000000E+00 -0.00000000000E+00 -0.90796451762E+03  0.90796451762E+03  0.00000000000E+00 0.  1.
         24    2    1    2    0    0 -0.18268381882E+01  0.54054641874E+03 -0.19076101666E+03  0.57877822210E+03  0.80004354570E+02 0.  0.
        254    2    1    2    0    0  0.18268381882E+01 -0.54054641874E+03 -0.30388348225E+01  0.10433509617E+04  0.89240026139E+03 0.  0.
         23    2    4    4    0    0 -0.90053973556E+02  0.22099070816E+03  0.76672538945E+02  0.26655912342E+03  0.90710951938E+02 0.  0.
         23    2    4    4    0    0  0.91880811745E+02 -0.76153712690E+03 -0.79711373768E+02  0.77679183824E+03  0.93117010465E+02 0.  0.
          4    1    3    3  502    0  0.12717561859E+02  0.10957045325E+03 -0.85375989329E+01  0.11063593992E+03  0.00000000000E+00 0. -1.
         -3    1    3    3    0  502 -0.14544400048E+02  0.43097596549E+03 -0.18222341772E+03  0.46814228218E+03  0.00000000000E+00 0.  1.
         13    1    5    5    0    0 -0.18391329887E+02  0.10311030253E+03  0.74600834242E+02  0.12858950180E+03  0.00000000000E+00 0. -1.
        -13    1    5    5    0    0 -0.71662643669E+02  0.11788040563E+03  0.20717047028E+01  0.13796962162E+03  0.00000000000E+00 0.  1.
          3    1    6    6  503    0  0.46191133088E+02 -0.45453875984E+03 -0.92497112340E+02  0.46614892552E+03  0.00000000000E+00 0. -1.
         -3    1    6    6    0  503  0.45689678656E+02 -0.30699836706E+03  0.12785738573E+02  0.31064291272E+03  0.00000000000E+00 0.  1.
<mgrwt>
<rscale>  0 0.16105107E+04</rscale>
<asrwt>0</asrwt>
<pdfrwt beam="1">  1        2 0.10987149E+00 0.16105107E+04</pdfrwt>
<pdfrwt beam="2">  1       -1 0.13968685E+00 0.16105107E+04</pdfrwt>
<totfact> 0.18429787E+01</totfact>
</mgrwt>
</event>
<event>
12    7  0.1625631E-007  0.2953697E+04  0.7818608E-02  0.8257078E-01
          2   -1    0    0  501    0  0.00000000000E+00  0.00000000000E+00  0.43547566646E+04  0.43547566646E+04  0.00000000000E+00 0. -1.
         -1   -1    0    0    0  501 -0.00000000000E+00 -0.00000000000E+00 -0.50085027156E+03  0.50085027156E+03  0.00000000000E+00 0.  1.
         24    2    1    2    0    0  0.71269128422E+03 -0.11160006774E+04  0.21758413478E+04  0.25483190155E+04  0.79106606734E+02 0.  0.
        254    2    1    2    0    0 -0.71269128422E+03  0.11160006774E+04  0.16780650452E+04  0.23072879206E+04  0.86849805658E+03 0.  0.
         23    2    4    4    0    0 -0.57619989747E+03  0.79522193862E+03  0.56408729173E+03  0.11361901086E+04  0.91374157820E+02 0.  0.
         23    2    4    4    0    0 -0.13649138674E+03  0.32077873879E+03  0.11139777535E+04  0.11710978120E+04  0.94840667508E+02 0.  0.
          4    1    3    3  502    0  0.32410776422E+03 -0.49634126834E+03  0.89974442977E+03  0.10774695060E+04  0.00000000000E+00 0. -1.
         -3    1    3    3    0  502  0.38858352000E+03 -0.61965940907E+03  0.12760969181E+04  0.14708495095E+04  0.00000000000E+00 0.  1.
         13    1    5    5    0    0 -0.19059811888E+03  0.31412559010E+03  0.24839058467E+03  0.44350920151E+03  0.00000000000E+00 0.  1.
        -13    1    5    5    0    0 -0.38560177860E+03  0.48109634852E+03  0.31569670706E+03  0.69268090710E+03  0.00000000000E+00 0. -1.
          2    1    6    6  503    0 -0.87562599618E+02  0.18081607561E+03  0.78414387314E+03  0.80947098517E+03  0.00000000000E+00 0. -1.
         -2    1    6    6    0  503 -0.48928787124E+02  0.13996266318E+03  0.32983388033E+03  0.36162682686E+03  0.00000000000E+00 0.  1.
<mgrwt>
<rscale>  0 0.29536967E+04</rscale>
<asrwt>0</asrwt>
<pdfrwt beam="1">  1        2 0.66996254E+00 0.29536967E+04</pdfrwt>
<pdfrwt beam="2">  1       -1 0.77053891E-01 0.29536967E+04</pdfrwt>
<totfact> 0.27879016E-01</totfact>
</mgrwt>
</event>
<event>
12    7  0.1625631E-007  0.1224885E+04  0.7818608E-02  0.9091349E-01
         -1   -1    0    0    0  501 -0.00000000000E+00  0.00000000000E+00  0.49123916340E+03  0.49123916340E+03  0.00000000000E+00 0.  1.
          2   -1    0    0  501    0  0.00000000000E+00 -0.00000000000E+00 -0.76355020312E+03  0.76355020312E+03  0.00000000000E+00 0. -1.
         24    2    1    2    0    0  0.19264535544E+03  0.18669613050E+03 -0.92703473134E+02  0.29456726164E+03  0.78792509698E+02 0.  0.
        254    2    1    2    0    0 -0.19264535544E+03 -0.18669613050E+03 -0.17960756658E+03  0.96022210488E+03  0.90432291501E+03 0.  0.
         23    2    4    4    0    0  0.32990677198E+03  0.41318771845E+01  0.58594102891E+02  0.34893334509E+03  0.97291622537E+02 0.  0.
         23    2    4    4    0    0 -0.52255212743E+03 -0.19082800768E+03 -0.23820166947E+03  0.61128875978E+03  0.86358891289E+02 0.  0.
          4    1    3    3  502    0  0.14216479387E+03  0.17874475431E+03 -0.78922863121E+02  0.24163885063E+03  0.00000000000E+00 0. -1.
         -3    1    3    3    0  502  0.50480561577E+02  0.79513761841E+01 -0.13780610014E+02  0.52928411016E+02  0.00000000000E+00 0.  1.
         13    1    5    5    0    0  0.31155492668E+03  0.53789336524E-01  0.27719577926E+02  0.31278562984E+03  0.00000000000E+00 0.  1.
        -13    1    5    5    0    0  0.18351845303E+02  0.40780878480E+01  0.30874524965E+02  0.36147715258E+02  0.00000000000E+00 0. -1.
          2    1    6    6  503    0 -0.12720544591E+03 -0.50029118780E+02 -0.10030277533E+03  0.16954287050E+03  0.00000000000E+00 0. -1.
         -2    1    6    6    0  503 -0.39534668151E+03 -0.14079888890E+03 -0.13789889414E+03  0.44174588929E+03  0.00000000000E+00 0.  1.
<mgrwt>
<rscale>  0 0.12248849E+04</rscale>
<asrwt>0</asrwt>
<pdfrwt beam="1">  1        2 0.11746926E+00 0.12248849E+04</pdfrwt>
<pdfrwt beam="2">  1       -1 0.75575257E-01 0.12248849E+04</pdfrwt>
<totfact> 0.72536319E+01</totfact>
</mgrwt>
</event>
<event>
12    7  0.1625631E-007  0.2992575E+04  0.7818608E-02  0.8245854E-01
         -1   -1    0    0    0  501 -0.00000000000E+00  0.00000000000E+00  0.13242404944E+04  0.13242404944E+04  0.00000000000E+00 0.  1.
          2   -1    0    0  501    0  0.00000000000E+00 -0.00000000000E+00 -0.16906867760E+04  0.16906867760E+04  0.00000000000E+00 0. -1.
         24    2    1    2    0    0  0.75947062549E+03 -0.53429147853E+03 -0.11677263502E+04  0.14940929658E+04  0.80411108251E+02 0.  0.
        254    2    1    2    0    0 -0.75947062549E+03  0.53429147853E+03  0.80128006865E+03  0.15208343047E+04  0.89923535230E+03 0.  0.
         23    2    4    4    0    0 -0.67056739400E+03 -0.60308905982E+02  0.48826118921E+03  0.83670880369E+03  0.91568767829E+02 0.  0.
         23    2    4    4    0    0 -0.88903231493E+02  0.59460038451E+03  0.31301887944E+03  0.68412550098E+03  0.92701026850E+02 0.  0.
          4    1    3    3  502    0  0.72874898145E+03 -0.49625561106E+03 -0.11236737616E+04  0.14282812860E+04  0.00000000000E+00 0. -1.
         -3    1    3    3    0  502  0.30721644045E+02 -0.38035867466E+02 -0.44052588592E+02  0.65811679727E+02  0.00000000000E+00 0.  1.
         13    1    5    5    0    0 -0.31677349629E+03  0.13916816111E+02  0.24963584934E+03  0.40355567521E+03  0.00000000000E+00 0. -1.
        -13    1    5    5    0    0 -0.35379389771E+03 -0.74225722093E+02  0.23862533987E+03  0.43315312847E+03  0.00000000000E+00 0.  1.
          1    1    6    6  503    0 -0.34022736715E+02  0.12577425807E+03  0.29829493162E+02  0.13366566226E+03  0.00000000000E+00 0. -1.
         -1    1    6    6    0  503 -0.54880494779E+02  0.46882612644E+03  0.28318938628E+03  0.55045983872E+03  0.00000000000E+00 0.  1.
<mgrwt>
<rscale>  0 0.29925747E+04</rscale>
<asrwt>0</asrwt>
<pdfrwt beam="1">  1        2 0.26010566E+00 0.29925747E+04</pdfrwt>
<pdfrwt beam="2">  1       -1 0.20372931E+00 0.29925747E+04</pdfrwt>
<totfact> 0.13727653E+00</totfact>
</mgrwt>
</event>
<event>
12    7  0.1625631E-007  0.1886117E+04  0.7818608E-02  0.8661798E-01
          2   -1    0    0  501    0  0.00000000000E+00  0.00000000000E+00  0.15796006923E+04  0.15796006923E+04  0.00000000000E+00 0. -1.
         -1   -1    0    0    0  501 -0.00000000000E+00 -0.00000000000E+00 -0.56302818156E+03  0.56302818156E+03  0.00000000000E+00 0.  1.
         24    2    1    2    0    0 -0.98568009453E+02 -0.50165762982E+03 -0.19243502093E+03  0.55196466873E+03  0.79105803881E+02 0.  0.
        254    2    1    2    0    0  0.98568009453E+02  0.50165762982E+03  0.12090075316E+04  0.15906642051E+04  0.89840824339E+03 0.  0.
         23    2    4    4    0    0  0.37031912951E+02 -0.86747952360E+02  0.91438118612E+03  0.92382321142E+03  0.91977185250E+02 0.  0.
         23    2    4    4    0    0  0.61536096502E+02  0.58840558218E+03  0.29462634550E+03  0.66684099367E+03  0.88681492221E+02 0.  0.
          4    1    3    3  502    0 -0.14435316785E+02 -0.12456715958E+02  0.13080656240E+01  0.19111754991E+02  0.00000000000E+00 0. -1.
         -3    1    3    3    0  502 -0.84132692668E+02 -0.48920091386E+03 -0.19374308655E+03  0.53285291374E+03  0.00000000000E+00 0.  1.
         13    1    5    5    0    0 -0.45996254810E+01  0.98296103888E+00  0.41832886280E+03  0.41835530380E+03  0.00000000000E+00 0. -1.
        -13    1    5    5    0    0  0.41631538432E+02 -0.87730913399E+02  0.49605232332E+03  0.50546790762E+03  0.00000000000E+00 0.  1.
          4    1    6    6  503    0 -0.22257887054E+02  0.17229158815E+03  0.88789120556E+02  0.19509821325E+03  0.00000000000E+00 0.  1.
         -4    1    6    6    0  503  0.83793983556E+02  0.41611399403E+03  0.20583722494E+03  0.47174278042E+03  0.00000000000E+00 0. -1.
<mgrwt>
<rscale>  0 0.18861174E+04</rscale>
<asrwt>0</asrwt>
<pdfrwt beam="1">  1        2 0.24301549E+00 0.18861174E+04</pdfrwt>
<pdfrwt beam="2">  1       -1 0.86619721E-01 0.18861174E+04</pdfrwt>
<totfact> 0.16069151E+01</totfact>
</mgrwt>
</event>
<event>
12    7  0.1625631E-007  0.1618158E+04  0.7818608E-02  0.8809470E-01
          2   -1    0    0  501    0  0.00000000000E+00  0.00000000000E+00  0.74228426904E+03  0.74228426904E+03  0.00000000000E+00 0. -1.
         -1   -1    0    0    0  501 -0.00000000000E+00 -0.00000000000E+00 -0.88188418407E+03  0.88188418407E+03  0.00000000000E+00 0.  1.
         24    2    1    2    0    0 -0.12662580067E+01  0.24723071671E+03 -0.54917200230E+03  0.60735012784E+03  0.78483494975E+02 0.  0.
        254    2    1    2    0    0  0.12662580067E+01 -0.24723071671E+03  0.40957208727E+03  0.10168183253E+04  0.89724332332E+03 0.  0.
         23    2    4    4    0    0  0.14358305290E+03  0.28001427586E+03  0.31481368291E+03  0.45467183060E+03  0.92707771148E+02 0.  0.
         23    2    4    4    0    0 -0.14231679489E+03 -0.52724499257E+03  0.94758404358E+02  0.56214649467E+03  0.93745261094E+02 0.  0.
          2    1    3    3  502    0 -0.25843715490E+02  0.26314007184E+02 -0.69562776336E+02  0.78735661908E+02  0.00000000000E+00 0. -1.
         -1    1    3    3    0  502  0.24577457483E+02  0.22091670952E+03 -0.47960922597E+03  0.52861446593E+03  0.00000000000E+00 0.  1.
         13    1    5    5    0    0  0.12788635976E+03  0.16689160058E+03  0.23506071188E+03  0.31537480183E+03  0.00000000000E+00 0. -1.
        -13    1    5    5    0    0  0.15696693134E+02  0.11312267528E+03  0.79752971031E+02  0.13929702878E+03  0.00000000000E+00 0.  1.
          2    1    6    6  503    0 -0.14001429152E+03 -0.49771913350E+03  0.66650998921E+02  0.52131630834E+03  0.00000000000E+00 0. -1.
         -2    1    6    6    0  503 -0.23025033709E+01 -0.29525859064E+02  0.28107405437E+02  0.40830186328E+02  0.00000000000E+00 0.  1.
<mgrwt>
<rscale>  0 0.16181579E+04</rscale>
<asrwt>0</asrwt>
<pdfrwt beam="1">  1        2 0.11419758E+00 0.16181579E+04</pdfrwt>
<pdfrwt beam="2">  1       -1 0.13567449E+00 0.16181579E+04</pdfrwt>
<totfact> 0.18903224E+01</totfact>
</mgrwt>
</event>
<event>
12    7  0.1625631E-007  0.1467134E+04  0.7818608E-02  0.8906608E-01
          2   -1    0    0  501    0  0.00000000000E+00  0.00000000000E+00  0.15654073565E+04  0.15654073565E+04  0.00000000000E+00 0. -1.
         -1   -1    0    0    0  501 -0.00000000000E+00 -0.00000000000E+00 -0.34375737774E+03  0.34375737774E+03  0.00000000000E+00 0.  1.
         24    2    1    2    0    0 -0.36415124138E+03 -0.97536173937E+02  0.81154438034E+02  0.39388186496E+03  0.80233714301E+02 0.  0.
        254    2    1    2    0    0  0.36415124138E+03  0.97536173937E+02  0.11404955408E+04  0.15152828693E+04  0.92370594008E+03 0.  0.
         23    2    4    4    0    0  0.20460537957E+03 -0.38334200113E+03  0.74025977538E+03  0.86321878340E+03  0.91365648935E+02 0.  0.
         23    2    4    4    0    0  0.15954586181E+03  0.48087817507E+03  0.40023576539E+03  0.65206408592E+03  0.91105449739E+02 0.  0.
          2    1    3    3  502    0 -0.23650130096E+03 -0.36368032719E+02  0.80090470628E+02  0.25232911573E+03  0.00000000000E+00 0. -1.
         -1    1    3    3    0  502 -0.12764994042E+03 -0.61168141218E+02  0.10639674058E+01  0.14155274924E+03  0.00000000000E+00 0.  1.
         13    1    5    5    0    0  0.67048741504E+02 -0.70033609044E+02  0.22128031027E+03  0.24158893983E+03  0.00000000000E+00 0. -1.
        -13    1    5    5    0    0  0.13755663806E+03 -0.31330839208E+03  0.51897946511E+03  0.62162984358E+03  0.00000000000E+00 0.  1.
          1    1    6    6  503    0  0.77596020552E+01  0.45016893297E+02  0.73657220701E+02  0.86672476990E+02  0.00000000000E+00 0. -1.
         -1    1    6    6    0  503  0.15178625976E+03  0.43586128177E+03  0.32657854469E+03  0.56539160893E+03  0.00000000000E+00 0.  1.
<mgrwt>
<rscale>  0 0.14671337E+04</rscale>
<asrwt>0</asrwt>
<pdfrwt beam="1">  1        2 0.24083190E+00 0.14671337E+04</pdfrwt>
<pdfrwt beam="2">  1       -1 0.52885751E-01 0.14671337E+04</pdfrwt>
<totfact> 0.46382341E+01</totfact>
</mgrwt>
</event>
<event>
12    7  0.1625631E-007  0.1466008E+04  0.7818608E-02  0.8907377E-01
          2   -1    0    0  501    0  0.00000000000E+00  0.00000000000E+00  0.18566752495E+04  0.18566752495E+04  0.00000000000E+00 0. -1.
         -1   -1    0    0    0  501 -0.00000000000E+00 -0.00000000000E+00 -0.28938559545E+03  0.28938559545E+03  0.00000000000E+00 0.  1.
         24    2    1    2    0    0 -0.25337721404E+03  0.23949181290E+03  0.89116491203E+03  0.96033327933E+03  0.80676923016E+02 0.  0.
        254    2    1    2    0    0  0.25337721404E+03 -0.23949181290E+03  0.67612474206E+03  0.11857275657E+04  0.90953221609E+03 0.  0.
         23    2    4    4    0    0 -0.79435767010E+02 -0.26502009543E+03  0.77243577946E+03  0.82532687632E+03  0.89228511825E+02 0.  0.
         23    2    4    4    0    0  0.33281298105E+03  0.25528282534E+02 -0.96311037397E+02  0.36040068934E+03  0.95899256448E+02 0.  0.
          2    1    3    3  502    0 -0.12848097978E+03  0.74722033962E+02  0.42934606815E+03  0.45434435262E+03  0.00000000000E+00 0. -1.
         -3    1    3    3    0  502 -0.12489623426E+03  0.16476977894E+03  0.46181884388E+03  0.50598892671E+03  0.00000000000E+00 0.  1.
         13    1    5    5    0    0 -0.69794287263E+02 -0.92853591313E+02  0.36063438342E+03  0.37888017955E+03  0.00000000000E+00 0. -1.
        -13    1    5    5    0    0 -0.96414797465E+01 -0.17216650412E+03  0.41180139604E+03  0.44644669676E+03  0.00000000000E+00 0.  1.
          3    1    6    6  503    0  0.33135264746E+03  0.37109818618E+02 -0.84871203679E+02  0.34405644425E+03  0.00000000000E+00 0. -1.
         -3    1    6    6    0  503  0.14603335983E+01 -0.11581536084E+02 -0.11439833718E+02  0.16344245096E+02  0.00000000000E+00 0.  1.
<mgrwt>
<rscale>  0 0.14660083E+04</rscale>
<asrwt>0</asrwt>
<pdfrwt beam="1">  1        2 0.28564234E+00 0.14660083E+04</pdfrwt>
<pdfrwt beam="2">  1       -1 0.44520862E-01 0.14660083E+04</pdfrwt>
<totfact> 0.44253508E+01</totfact>
</mgrwt>
</event>
<event>
12    7  0.1625631E-007  0.1963466E+04  0.7818608E-02  0.8623894E-01
          2   -1    0    0  501    0  0.00000000000E+00  0.00000000000E+00  0.22799557776E+04  0.22799557776E+04  0.00000000000E+00 0. -1.
         -1   -1    0    0    0  501 -0.00000000000E+00 -0.00000000000E+00 -0.42272754240E+03  0.42272754240E+03  0.00000000000E+00 0.  1.
         24    2    1    2    0    0 -0.84985720330E+02  0.14517545323E+03  0.17693526736E+04  0.17793045002E+04  0.83768347444E+02 0.  0.
        254    2    1    2    0    0  0.84985720330E+02 -0.14517545323E+03  0.87875561558E+02  0.92337881973E+03  0.90366356878E+03 0.  0.
         23    2    4    4    0    0  0.13620734401E+03  0.25005736695E+03 -0.25196560500E+03  0.39183326844E+03  0.94686413114E+02 0.  0.
         23    2    4    4    0    0 -0.51221623682E+02 -0.39523282018E+03  0.33984116655E+03  0.53154555129E+03  0.90642251352E+02 0.  0.
          2    1    3    3  502    0 -0.69421873679E+02  0.86622493242E+02  0.14508536842E+04  0.14550942464E+04  0.00000000000E+00 0. -1.
         -1    1    3    3    0  502 -0.15563846651E+02  0.58552959985E+02  0.31849898937E+03  0.32421025381E+03  0.00000000000E+00 0.  1.
         13    1    5    5    0    0  0.45892438188E+02  0.55647404829E+02 -0.12028647492E+03  0.14025542982E+03  0.00000000000E+00 0.  1.
        -13    1    5    5    0    0  0.90314905824E+02  0.19440996212E+03 -0.13167913008E+03  0.25157783862E+03  0.00000000000E+00 0. -1.
          3    1    6    6  503    0 -0.64529573332E+02 -0.22574896209E+03  0.16034107971E+03  0.28431658686E+03  0.00000000000E+00 0. -1.
         -3    1    6    6    0  503  0.13307949649E+02 -0.16948385809E+03  0.17950008685E+03  0.24722896443E+03  0.00000000000E+00 0.  1.
<mgrwt>
<rscale>  0 0.19634664E+04</rscale>
<asrwt>0</asrwt>
<pdfrwt beam="1">  1        2 0.35076242E+00 0.19634664E+04</pdfrwt>
<pdfrwt beam="2">  1       -1 0.65035008E-01 0.19634664E+04</pdfrwt>
<totfact> 0.11836389E+01</totfact>
</mgrwt>
</event>
<event>
12    7  0.1625631E-007  0.2767391E+04  0.7818608E-02  0.8313464E-01
          2   -1    0    0  501    0  0.00000000000E+00  0.00000000000E+00  0.40838252139E+04  0.40838252139E+04  0.00000000000E+00 0. -1.
         -1   -1    0    0    0  501 -0.00000000000E+00 -0.00000000000E+00 -0.46882825246E+03  0.46882825246E+03  0.00000000000E+00 0.  1.
         24    2    1    2    0    0 -0.94437258834E+02 -0.11882415718E+04  0.11425281605E+04  0.16531702260E+04  0.82248222745E+02 0.  0.
        254    2    1    2    0    0  0.94437258834E+02  0.11882415718E+04  0.24724688010E+04  0.28994832404E+04  0.93437929149E+03 0.  0.
         23    2    4    4    0    0 -0.38002879665E+03  0.77679999260E+03  0.12588741188E+04  0.15299059417E+04  0.89487589865E+02 0.  0.
         23    2    4    4    0    0  0.47446605548E+03  0.41144157916E+03  0.12135946822E+04  0.13695772986E+04  0.92345619067E+02 0.  0.
          4    1    3    3  502    0 -0.12257558263E+02 -0.21954451131E+02  0.31403873460E+02  0.40229950626E+02  0.00000000000E+00 0. -1.
         -3    1    3    3    0  502 -0.82179700571E+02 -0.11662871206E+04  0.11111242870E+04  0.16129402754E+04  0.00000000000E+00 0.  1.
         13    1    5    5    0    0 -0.10585864229E+03  0.16264784083E+03  0.33496056187E+03  0.38711619739E+03  0.00000000000E+00 0. -1.
        -13    1    5    5    0    0 -0.27417015436E+03  0.61415215177E+03  0.92391355696E+03  0.11427897444E+04  0.00000000000E+00 0.  1.
          2    1    6    6  503    0  0.22743611138E+01  0.38938703606E+01  0.42426306757E+02  0.42665283896E+02  0.00000000000E+00 0. -1.
         -2    1    6    6    0  503  0.47219169437E+03  0.40754770880E+03  0.11711683754E+04  0.13269120147E+04  0.00000000000E+00 0.  1.
<mgrwt>
<rscale>  0 0.27673906E+04</rscale>
<asrwt>0</asrwt>
<pdfrwt beam="1">  1        2 0.62828078E+00 0.27673906E+04</pdfrwt>
<pdfrwt beam="2">  1       -1 0.72127426E-01 0.27673906E+04</pdfrwt>
<totfact> 0.56217340E-01</totfact>
</mgrwt>
</event>
<event>
12    7  0.1625631E-007  0.1760666E+04  0.7818608E-02  0.8727501E-01
         -1   -1    0    0    0  501 -0.00000000000E+00  0.00000000000E+00  0.28893652411E+03  0.28893652411E+03  0.00000000000E+00 0.  1.
          2   -1    0    0  501    0  0.00000000000E+00 -0.00000000000E+00 -0.26822019987E+04  0.26822019987E+04  0.00000000000E+00 0. -1.
         24    2    1    2    0    0 -0.56855115285E+03  0.11941099239E+03 -0.40819288365E+03  0.71446897801E+03  0.79593289778E+02 0.  0.
        254    2    1    2    0    0  0.56855115285E+03 -0.11941099239E+03 -0.19850725910E+04  0.22566695448E+04  0.90251584176E+03 0.  0.
         23    2    4    4    0    0  0.39441260471E+03  0.32688761689E+02 -0.19700189777E+03  0.45145069183E+03  0.91477437307E+02 0.  0.
         23    2    4    4    0    0  0.17413854813E+03 -0.15209975408E+03 -0.17880706932E+04  0.18052188530E+04  0.90331247006E+02 0.  0.
          4    1    3    3  502    0 -0.71606810313E+02  0.18263945122E+02 -0.87125301052E+02  0.11424502203E+03  0.00000000000E+00 0. -1.
         -3    1    3    3    0  502 -0.49694434253E+03  0.10114704727E+03 -0.32106758260E+03  0.60022395599E+03  0.00000000000E+00 0.  1.
         13    1    5    5    0    0  0.44487373768E+02 -0.29112011622E+01  0.65577839199E+01  0.45062246359E+02  0.00000000000E+00 0. -1.
        -13    1    5    5    0    0  0.34992523094E+03  0.35599962851E+02 -0.20355968169E+03  0.40638844548E+03  0.00000000000E+00 0.  1.
          2    1    6    6  503    0  0.25562944841E+02  0.10761193966E+02 -0.18933157569E+03  0.19135232687E+03  0.00000000000E+00 0. -1.
         -2    1    6    6    0  503  0.14857560329E+03 -0.16286094805E+03 -0.15987391175E+04  0.16138665261E+04  0.00000000000E+00 0.  1.
<mgrwt>
<rscale>  0 0.17606659E+04</rscale>
<asrwt>0</asrwt>
<pdfrwt beam="1">  1        2 0.41264646E+00 0.17606659E+04</pdfrwt>
<pdfrwt beam="2">  1       -1 0.44451774E-01 0.17606659E+04</pdfrwt>
<totfact> 0.14734952E+01</totfact>
</mgrwt>
</event>
<event>
12    7  0.1625631E-007  0.1479520E+04  0.7818608E-02  0.8898188E-01
          2   -1    0    0  501    0  0.00000000000E+00  0.00000000000E+00  0.26994613113E+04  0.26994613113E+04  0.00000000000E+00 0. -1.
         -1   -1    0    0    0  501 -0.00000000000E+00 -0.00000000000E+00 -0.20272362073E+03  0.20272362073E+03  0.00000000000E+00 0.  1.
         24    2    1    2    0    0 -0.26010596736E+03 -0.37505554603E+03  0.94140542734E+03  0.10491351341E+04  0.78221314510E+02 0.  0.
        254    2    1    2    0    0  0.26010596736E+03  0.37505554603E+03  0.15553322633E+04  0.18530497980E+04  0.89800519367E+03 0.  0.
         23    2    4    4    0    0 -0.74546577421E+02  0.58263969821E+03  0.80081211180E+03  0.99712050946E+03  0.89011582602E+02 0.  0.
         23    2    4    4    0    0  0.33465254478E+03 -0.20758415218E+03  0.75452015147E+03  0.85592928856E+03  0.90723657658E+02 0.  0.
          2    1    3    3  502    0 -0.32650931731E+02 -0.10514606873E+03  0.22099693398E+03  0.24690367341E+03  0.00000000000E+00 0. -1.
         -1    1    3    3    0  502 -0.22745503563E+03 -0.26990947729E+03  0.72040849336E+03  0.80223146066E+03  0.00000000000E+00 0.  1.
         13    1    5    5    0    0 -0.29297686496E+00  0.31091182184E+03  0.45532809912E+03  0.55135281321E+03  0.00000000000E+00 0. -1.
        -13    1    5    5    0    0 -0.74253600556E+02  0.27172787637E+03  0.34548401269E+03  0.44576769625E+03  0.00000000000E+00 0.  1.
          1    1    6    6  503    0  0.99367985529E+02 -0.11293475466E+03  0.27241656826E+03  0.31118972030E+03  0.00000000000E+00 0. -1.
         -1    1    6    6    0  503  0.23528455926E+03 -0.94649397524E+02  0.48210358321E+03  0.54473956826E+03  0.00000000000E+00 0.  1.
<mgrwt>
<rscale>  0 0.14795196E+04</rscale>
<asrwt>0</asrwt>
<pdfrwt beam="1">  1        2 0.41530171E+00 0.14795196E+04</pdfrwt>
<pdfrwt beam="2">  1       -1 0.31188251E-01 0.14795196E+04</pdfrwt>
<totfact> 0.28033163E+01</totfact>
</mgrwt>
</event>
<event>
12    7  0.1625631E-007  0.2310146E+04  0.7818608E-02  0.8473931E-01
         -1   -1    0    0    0  501 -0.00000000000E+00  0.00000000000E+00  0.83705289286E+03  0.83705289286E+03  0.00000000000E+00 0.  1.
          2   -1    0    0  501    0  0.00000000000E+00 -0.00000000000E+00 -0.15939186053E+04  0.15939186053E+04  0.00000000000E+00 0. -1.
         24    2    1    2    0    0 -0.81276769407E+03  0.53713107293E+03 -0.35536448512E+03  0.10400780207E+04  0.79857734433E+02 0.  0.
        254    2    1    2    0    0  0.81276769407E+03 -0.53713107293E+03 -0.40150122736E+03  0.13908934775E+04  0.90789884693E+03 0.  0.
         23    2    4    4    0    0  0.74856840340E+03 -0.70715442373E+02 -0.49543485484E+03  0.90422472223E+03  0.82530749089E+02 0.  0.
         23    2    4    4    0    0  0.64199290673E+02 -0.46641563055E+03  0.93933627484E+02  0.48666875531E+03  0.79736200504E+02 0.  0.
          4    1    3    3  502    0 -0.18220633343E+03  0.10752358056E+03 -0.11089935078E+03  0.23887053883E+03  0.00000000000E+00 0. -1.
         -3    1    3    3    0  502 -0.63056136064E+03  0.42960749237E+03 -0.24446513434E+03  0.80120748183E+03  0.00000000000E+00 0.  1.
         13    1    5    5    0    0  0.57096552114E+03 -0.82114343047E+02 -0.40310519749E+03  0.70373161924E+03  0.00000000000E+00 0.  1.
        -13    1    5    5    0    0  0.17760288226E+03  0.11398900674E+02 -0.92329657349E+02  0.20049310299E+03  0.00000000000E+00 0. -1.
          3    1    6    6  503    0  0.60492251570E+02 -0.16004457766E+03  0.31098409443E+02  0.17389850606E+03  0.00000000000E+00 0. -1.
         -3    1    6    6    0  503  0.37070391032E+01 -0.30637105289E+03  0.62835218041E+02  0.31277024925E+03  0.00000000000E+00 0.  1.
<mgrwt>
<rscale>  0 0.23101465E+04</rscale>
<asrwt>0</asrwt>
<pdfrwt beam="1">  1        2 0.24521825E+00 0.23101465E+04</pdfrwt>
<pdfrwt beam="2">  1       -1 0.12877737E+00 0.23101465E+04</pdfrwt>
<totfact> 0.60229668E+00</totfact>
</mgrwt>
</event>
<event>
12    7  0.1625631E-007  0.2112060E+04  0.7818608E-02  0.8555949E-01
          2   -1    0    0  501    0  0.00000000000E+00  0.00000000000E+00  0.10470025746E+04  0.10470025746E+04  0.00000000000E+00 0. -1.
         -1   -1    0    0    0  501 -0.00000000000E+00 -0.00000000000E+00 -0.10651357342E+04  0.10651357342E+04  0.00000000000E+00 0.  1.
         24    2    1    2    0    0  0.41755655667E+03  0.52060825514E+02 -0.76577381899E+03  0.87710810676E+03  0.76454440824E+02 0.  0.
        254    2    1    2    0    0 -0.41755655667E+03 -0.52060825514E+02  0.74764065933E+03  0.12350302021E+04  0.88840826027E+03 0.  0.
         23    2    4    4    0    0 -0.31382352045E+03 -0.28534536113E+03 -0.65371169629E+01  0.43392161189E+03  0.91312946831E+02 0.  0.
         23    2    4    4    0    0 -0.10373303622E+03  0.23328453562E+03  0.75417777630E+03  0.80110859016E+03  0.88366495967E+02 0.  0.
          4    1    3    3  502    0  0.21452606288E+03 -0.79033248807E+01 -0.35128401381E+03  0.41168477329E+03  0.00000000000E+00 0. -1.
         -3    1    3    3    0  502  0.20303049379E+03  0.59964150395E+02 -0.41448980518E+03  0.46542333347E+03  0.00000000000E+00 0.  1.
         13    1    5    5    0    0 -0.28136035310E+03 -0.27005805392E+03 -0.29844476910E+02  0.39113385635E+03  0.00000000000E+00 0.  1.
        -13    1    5    5    0    0 -0.32463167348E+02 -0.15287307214E+02  0.23307359947E+02  0.42787755536E+02  0.00000000000E+00 0. -1.
          4    1    6    6  503    0 -0.10143883568E+02  0.71497570447E+00  0.54742337844E+01  0.11548887376E+02  0.00000000000E+00 0. -1.
         -4    1    6    6    0  503 -0.93589152653E+02  0.23256955991E+03  0.74870354251E+03  0.78955970278E+03  0.00000000000E+00 0.  1.
<mgrwt>
<rscale>  0 0.21120605E+04</rscale>
<asrwt>0</asrwt>
<pdfrwt beam="1">  1        2 0.16107732E+00 0.21120605E+04</pdfrwt>
<pdfrwt beam="2">  1       -1 0.16386704E+00 0.21120605E+04</pdfrwt>
<totfact> 0.67457974E+00</totfact>
</mgrwt>
</event>
<event>
12    7  0.1625631E-007  0.1058162E+04  0.7818608E-02  0.9246957E-01
         -1   -1    0    0    0  501 -0.00000000000E+00  0.00000000000E+00  0.34445220934E+03  0.34445220934E+03  0.00000000000E+00 0.  1.
          2   -1    0    0  501    0  0.00000000000E+00 -0.00000000000E+00 -0.81267281889E+03  0.81267281889E+03  0.00000000000E+00 0. -1.
         24    2    1    2    0    0  0.34855893272E+02  0.88369318986E+02  0.26961087255E+02  0.12674885084E+03  0.79462576919E+02 0.  0.
        254    2    1    2    0    0 -0.34855893272E+02 -0.88369318986E+02 -0.49518169680E+03  0.10303761774E+04  0.89858003775E+03 0.  0.
         23    2    4    4    0    0  0.29425011852E+03 -0.58698601921E+02  0.11128123821E+03  0.33360240719E+03  0.94225230120E+02 0.  0.
         23    2    4    4    0    0 -0.32910601179E+03 -0.29670717065E+02 -0.60646293501E+03  0.69677377019E+03  0.92224057805E+02 0.  0.
          4    1    3    3  502    0  0.11782500666E+02  0.58013421447E+02 -0.23337058054E+02  0.63631774049E+02  0.00000000000E+00 0. -1.
         -3    1    3    3    0  502  0.23073392606E+02  0.30355897538E+02  0.50298145309E+02  0.63117076796E+02  0.00000000000E+00 0.  1.
         13    1    5    5    0    0  0.42430188051E+02 -0.35149964581E+02 -0.48198885743E+01  0.55308879884E+02  0.00000000000E+00 0.  1.
        -13    1    5    5    0    0  0.25181993047E+03 -0.23548637339E+02  0.11610112678E+03  0.27829352731E+03  0.00000000000E+00 0. -1.
          4    1    6    6  503    0 -0.21925656903E+03 -0.62593535264E+02 -0.38791139267E+03  0.44996293434E+03  0.00000000000E+00 0. -1.
         -4    1    6    6    0  503 -0.10984944276E+03  0.32922818199E+02 -0.21855154234E+03  0.24681083585E+03  0.00000000000E+00 0.  1.
<mgrwt>
<rscale>  0 0.10581625E+04</rscale>
<asrwt>0</asrwt>
<pdfrwt beam="1">  1        2 0.12502659E+00 0.10581625E+04</pdfrwt>
<pdfrwt beam="2">  1       -1 0.52992649E-01 0.10581625E+04</pdfrwt>
<totfact> 0.13753726E+02</totfact>
</mgrwt>
</event>
<event>
12    7  0.1625631E-007  0.2381600E+04  0.7818608E-02  0.8446424E-01
         -1   -1    0    0    0  501 -0.00000000000E+00  0.00000000000E+00  0.54069446922E+03  0.54069446922E+03  0.00000000000E+00 0.  1.
          2   -1    0    0  501    0  0.00000000000E+00 -0.00000000000E+00 -0.26225620858E+04  0.26225620858E+04  0.00000000000E+00 0. -1.
         24    2    1    2    0    0 -0.62732898202E+03 -0.80437603117E+03 -0.86144140415E+03  0.13374876481E+04  0.78926958832E+02 0.  0.
        254    2    1    2    0    0  0.62732898202E+03  0.80437603117E+03 -0.12204262124E+04  0.18257689069E+04  0.89634229529E+03 0.  0.
         23    2    4    4    0    0  0.60052628033E+03  0.29376880843E+03 -0.11024918528E+04  0.12923359101E+04  0.87817383327E+02 0.  0.
         23    2    4    4    0    0  0.26802701683E+02  0.51060722274E+03 -0.11793435963E+03  0.53343299685E+03  0.95938147880E+02 0.  0.
          4    1    3    3  502    0 -0.29573725774E+03 -0.42181044351E+03 -0.47302672853E+03  0.69938463078E+03  0.00000000000E+00 0. -1.
         -3    1    3    3    0  502 -0.33159172428E+03 -0.38256558766E+03 -0.38841467562E+03  0.63810301732E+03  0.00000000000E+00 0.  1.
         13    1    5    5    0    0  0.55137059788E+03  0.25161288978E+03 -0.95261385944E+03  0.11290667596E+04  0.00000000000E+00 0. -1.
        -13    1    5    5    0    0  0.49155682455E+02  0.42155918652E+02 -0.14987799334E+03  0.16326915043E+03  0.00000000000E+00 0.  1.
          3    1    6    6  503    0  0.48320377463E+02  0.36496426604E+03 -0.50845716814E+02  0.37164372897E+03  0.00000000000E+00 0. -1.
         -3    1    6    6    0  503 -0.21517675780E+02  0.14564295670E+03 -0.67088642818E+02  0.16178926788E+03  0.00000000000E+00 0.  1.
<mgrwt>
<rscale>  0 0.23816001E+04</rscale>
<asrwt>0</asrwt>
<pdfrwt beam="1">  1        2 0.40347109E+00 0.23816001E+04</pdfrwt>
<pdfrwt beam="2">  1       -1 0.83183764E-01 0.23816001E+04</pdfrwt>
<totfact> 0.43379870E+00</totfact>
</mgrwt>
</event>
<event>
12    7  0.1625631E-007  0.1915301E+04  0.7818608E-02  0.8647277E-01
         -1   -1    0    0    0  501 -0.00000000000E+00  0.00000000000E+00  0.99300671779E+03  0.99300671779E+03  0.00000000000E+00 0.  1.
          2   -1    0    0  501    0  0.00000000000E+00 -0.00000000000E+00 -0.92355339283E+03  0.92355339283E+03  0.00000000000E+00 0. -1.
         24    2    1    2    0    0 -0.18290529081E+03 -0.65977636762E+03 -0.26721780793E+03  0.73931376295E+03  0.80126665606E+02 0.  0.
        254    2    1    2    0    0  0.18290529081E+03  0.65977636762E+03  0.33667113289E+03  0.11772463477E+04  0.89655022766E+03 0.  0.
         23    2    4    4    0    0 -0.15659685061E+02  0.20826401394E+03 -0.29310022053E+03  0.37108893226E+03  0.90444077368E+02 0.  0.
         23    2    4    4    0    0  0.19856497587E+03  0.45151235368E+03  0.62977135342E+03  0.80615741542E+03  0.99931805168E+02 0.  0.
          4    1    3    3  502    0 -0.17224466813E+03 -0.65565240197E+03 -0.26254555991E+03  0.72696524603E+03  0.00000000000E+00 0. -1.
         -3    1    3    3    0  502 -0.10660622676E+02 -0.41239656446E+01 -0.46722480217E+01  0.12348516917E+02  0.00000000000E+00 0.  1.
         13    1    5    5    0    0  0.11933278744E+02  0.32295743278E+02 -0.86947305867E+01  0.35510794351E+02  0.00000000000E+00 0. -1.
        -13    1    5    5    0    0 -0.27592963805E+02  0.17596827067E+03 -0.28440548994E+03  0.33557813791E+03  0.00000000000E+00 0.  1.
          1    1    6    6  503    0  0.58051678720E+01  0.90482315895E+02  0.81016680755E+02  0.12159133203E+03  0.00000000000E+00 0. -1.
         -1    1    6    6    0  503  0.19275980800E+03  0.36103003778E+03  0.54875467266E+03  0.68456608339E+03  0.00000000000E+00 0.  1.
<mgrwt>
<rscale>  0 0.19153013E+04</rscale>
<asrwt>0</asrwt>
<pdfrwt beam="1">  1        2 0.14208514E+00 0.19153013E+04</pdfrwt>
<pdfrwt beam="2">  1       -1 0.15277026E+00 0.19153013E+04</pdfrwt>
<totfact> 0.10018340E+01</totfact>
</mgrwt>
</event>
<event>
12    7  0.1625631E-007  0.1195228E+04  0.7818608E-02  0.9117044E-01
          2   -1    0    0  501    0  0.00000000000E+00  0.00000000000E+00  0.28273800325E+04  0.28273800325E+04  0.00000000000E+00 0. -1.
         -1   -1    0    0    0  501 -0.00000000000E+00 -0.00000000000E+00 -0.12631568953E+03  0.12631568953E+03  0.00000000000E+00 0.  1.
         24    2    1    2    0    0  0.19830109620E+03  0.63776754576E+02  0.91228964032E+03  0.93922645080E+03  0.80517941330E+02 0.  0.
        254    2    1    2    0    0 -0.19830109620E+03 -0.63776754576E+02  0.17887747027E+04  0.20144692713E+04  0.90276281975E+03 0.  0.
         23    2    4    4    0    0  0.28648917496E+03  0.20575059336E+03  0.72045131677E+03  0.80731198155E+03  0.91066907713E+02 0.  0.
         23    2    4    4    0    0 -0.48479027116E+03 -0.26952734794E+03  0.10683233859E+04  0.12071572897E+04  0.90814464277E+02 0.  0.
          4    1    3    3  502    0  0.11872421346E+02  0.47023974315E+01  0.10668550973E+02  0.16639859076E+02  0.00000000000E+00 0. -1.
         -3    1    3    3    0  502  0.18642867486E+03  0.59074357145E+02  0.90162108934E+03  0.92258659172E+03  0.00000000000E+00 0.  1.
         13    1    5    5    0    0  0.28790005413E+03  0.21172780571E+03  0.71376755465E+03  0.79823506998E+03  0.00000000000E+00 0. -1.
        -13    1    5    5    0    0 -0.14108791712E+01 -0.59772123496E+01  0.66837621182E+01  0.90769115651E+01  0.00000000000E+00 0.  1.
          3    1    6    6  503    0 -0.45533588707E+03 -0.27523798948E+03  0.10109972450E+04  0.11424544412E+04  0.00000000000E+00 0. -1.
         -3    1    6    6    0  503 -0.29454384095E+02  0.57106415393E+01  0.57326140975E+02  0.64702848533E+02  0.00000000000E+00 0.  1.
<mgrwt>
<rscale>  0 0.11952279E+04</rscale>
<asrwt>0</asrwt>
<pdfrwt beam="1">  1        2 0.43498150E+00 0.11952279E+04</pdfrwt>
<pdfrwt beam="2">  1       -1 0.19433185E-01 0.11952279E+04</pdfrwt>
<totfact> 0.54326444E+01</totfact>
</mgrwt>
</event>
<event>
12    7  0.1625631E-007  0.2064946E+04  0.7818608E-02  0.8576844E-01
          2   -1    0    0  501    0  0.00000000000E+00  0.00000000000E+00  0.13903502743E+04  0.13903502743E+04  0.00000000000E+00 0. -1.
         -1   -1    0    0    0  501 -0.00000000000E+00 -0.00000000000E+00 -0.76671392897E+03  0.76671392897E+03  0.00000000000E+00 0.  1.
         24    2    1    2    0    0  0.43712974230E+03  0.45517715834E+03  0.84370398434E+03  0.10573553602E+04  0.88855430627E+02 0.  0.
        254    2    1    2    0    0 -0.43712974230E+03 -0.45517715834E+03 -0.22006763905E+03  0.10997088430E+04  0.87330471000E+03 0.  0.
         23    2    4    4    0    0  0.17561587265E+03 -0.34466471919E+03 -0.25145233609E+03  0.47029658835E+03  0.91191558263E+02 0.  0.
         23    2    4    4    0    0 -0.61274561496E+03 -0.11051243915E+03  0.31384697042E+02  0.62941225464E+03  0.86629089980E+02 0.  0.
          4    1    3    3  502    0  0.34164733843E+03  0.34975799799E+03  0.58766708841E+03  0.76446462823E+03  0.00000000000E+00 0. -1.
         -3    1    3    3    0  502  0.95482403868E+02  0.10541916035E+03  0.25603689593E+03  0.29289073200E+03  0.00000000000E+00 0.  1.
         13    1    5    5    0    0  0.38667876770E+02 -0.13333761203E+03 -0.13204901289E+03  0.19160131858E+03  0.00000000000E+00 0. -1.
        -13    1    5    5    0    0  0.13694799588E+03 -0.21132710716E+03 -0.11940332320E+03  0.27869526976E+03  0.00000000000E+00 0.  1.
          4    1    6    6  503    0 -0.36467001544E+02 -0.19501047343E+02  0.19864819651E+02  0.45877490219E+02  0.00000000000E+00 0. -1.
         -4    1    6    6    0  503 -0.57627861341E+03 -0.91011391806E+02  0.11519877391E+02  0.58353476442E+03  0.00000000000E+00 0.  1.
<mgrwt>
<rscale>  0 0.20649464E+04</rscale>
<asrwt>0</asrwt>
<pdfrwt beam="1">  1        2 0.21390004E+00 0.20649464E+04</pdfrwt>
<pdfrwt beam="2">  1       -1 0.11795599E+00 0.20649464E+04</pdfrwt>
<totfact> 0.99663486E+00</totfact>
</mgrwt>
</event>
<event>
12    7  0.1625631E-007  0.1223322E+04  0.7818608E-02  0.9092684E-01
         -1   -1    0    0    0  501 -0.00000000000E+00  0.00000000000E+00  0.14680241382E+03  0.14680241382E+03  0.00000000000E+00 0.  1.
          2   -1    0    0  501    0  0.00000000000E+00 -0.00000000000E+00 -0.25485216461E+04  0.25485216461E+04  0.00000000000E+00 0. -1.
         24    2    1    2    0    0 -0.63037052128E+02 -0.10029310992E+03 -0.10465776475E+04  0.10562906008E+04  0.79954257389E+02 0.  0.
        254    2    1    2    0    0  0.63037052128E+02  0.10029310992E+03 -0.13551415848E+04  0.16390334592E+04  0.91432466198E+03 0.  0.
         23    2    4    4    0    0 -0.29755587424E+03 -0.22274755799E+03 -0.34806377734E+03  0.51791354842E+03  0.94499088094E+02 0.  0.
         23    2    4    4    0    0  0.36059292637E+03  0.32304066792E+03 -0.10070778075E+04  0.11211199108E+04  0.91222871354E+02 0.  0.
          2    1    3    3  502    0 -0.18140398259E+01 -0.41039060317E+02 -0.61576008899E+03  0.61712882156E+03  0.00000000000E+00 0. -1.
         -1    1    3    3    0  502 -0.61223012302E+02 -0.59254049606E+02 -0.43081755849E+03  0.43916177923E+03  0.00000000000E+00 0.  1.
         13    1    5    5    0    0 -0.23068961506E+02 -0.65963374505E+01  0.10357949539E+01  0.24015859842E+02  0.00000000000E+00 0.  1.
        -13    1    5    5    0    0 -0.27448691274E+03 -0.21615122054E+03 -0.34909957229E+03  0.49389768858E+03  0.00000000000E+00 0. -1.
          4    1    6    6  503    0  0.34161698158E+03  0.27279064275E+03 -0.86428019513E+03  0.96855415572E+03  0.00000000000E+00 0. -1.
         -4    1    6    6    0  503  0.18975944791E+02  0.50250025168E+02 -0.14279761238E+03  0.15256575504E+03  0.00000000000E+00 0.  1.
<mgrwt>
<rscale>  0 0.12233219E+04</rscale>
<asrwt>0</asrwt>
<pdfrwt beam="1">  1        2 0.39208023E+00 0.12233219E+04</pdfrwt>
<pdfrwt beam="2">  1       -1 0.22584988E-01 0.12233219E+04</pdfrwt>
<totfact> 0.61394294E+01</totfact>
</mgrwt>
</event>
<event>
12    7  0.1625631E-007  0.1387046E+04  0.7818608E-02  0.8963249E-01
          2   -1    0    0  501    0  0.00000000000E+00  0.00000000000E+00  0.25070729867E+04  0.25070729867E+04  0.00000000000E+00 0. -1.
         -1   -1    0    0    0  501 -0.00000000000E+00 -0.00000000000E+00 -0.19184701289E+03  0.19184701289E+03  0.00000000000E+00 0.  1.
         24    2    1    2    0    0  0.23452460621E+03  0.25040417768E+03  0.29988340791E+03  0.46278854206E+03  0.80864907136E+02 0.  0.
        254    2    1    2    0    0 -0.23452460621E+03 -0.25040417768E+03  0.20153425659E+04  0.22361314575E+04  0.90607626297E+03 0.  0.
         23    2    4    4    0    0  0.41804234930E+02 -0.53828532420E+03  0.97419764497E+03  0.11174305056E+04  0.89951092781E+02 0.  0.
         23    2    4    4    0    0 -0.27632884114E+03  0.28788114652E+03  0.10411449209E+04  0.11187009519E+04  0.90971921383E+02 0.  0.
          4    1    3    3  502    0  0.13537714074E+03  0.10380155307E+03  0.18573275519E+03  0.25218721023E+03  0.00000000000E+00 0. -1.
         -3    1    3    3    0  502  0.99147465469E+02  0.14660262461E+03  0.11415065272E+03  0.21060133183E+03  0.00000000000E+00 0.  1.
         13    1    5    5    0    0  0.60461528181E+02 -0.26011884270E+03  0.51805360069E+03  0.58283526138E+03  0.00000000000E+00 0.  1.
        -13    1    5    5    0    0 -0.18657293251E+02 -0.27816648150E+03  0.45614404427E+03  0.53459524423E+03  0.00000000000E+00 0. -1.
          4    1    6    6  503    0 -0.59118150041E+02  0.28331707376E+02  0.24466448366E+03  0.25329498785E+03  0.00000000000E+00 0.  1.
         -4    1    6    6    0  503 -0.21721069110E+03  0.25954943915E+03  0.79648043728E+03  0.86540596408E+03  0.00000000000E+00 0. -1.
<mgrwt>
<rscale>  0 0.13870464E+04</rscale>
<asrwt>0</asrwt>
<pdfrwt beam="1">  1        2 0.38570351E+00 0.13870464E+04</pdfrwt>
<pdfrwt beam="2">  1       -1 0.29514927E-01 0.13870464E+04</pdfrwt>
<totfact> 0.40330695E+01</totfact>
</mgrwt>
</event>
<event>
12    7  0.1625631E-007  0.2827655E+04  0.7818608E-02  0.8294734E-01
          2   -1    0    0  501    0  0.00000000000E+00  0.00000000000E+00  0.41433073697E+04  0.41433073697E+04  0.00000000000E+00 0. -1.
         -1   -1    0    0    0  501 -0.00000000000E+00 -0.00000000000E+00 -0.48244268011E+03  0.48244268011E+03  0.00000000000E+00 0.  1.
         24    2    1    2    0    0 -0.28965328236E+03  0.12027269287E+04  0.11859908830E+04  0.17158935468E+04  0.85236144907E+02 0.  0.
        254    2    1    2    0    0  0.28965328236E+03 -0.12027269287E+04  0.24748738066E+04  0.29098565030E+04  0.90100689247E+03 0.  0.
         23    2    4    4    0    0 -0.23280817844E+03 -0.74966960995E+03  0.16511817227E+04  0.18305767426E+04  0.91684005648E+02 0.  0.
         23    2    4    4    0    0  0.52246146080E+03 -0.45305731879E+03  0.82369208387E+03  0.10792797604E+04  0.90273141665E+02 0.  0.
          2    1    3    3  502    0  0.49385923809E+01  0.36534400677E+02  0.28603175017E+02  0.46661480352E+02  0.00000000000E+00 0. -1.
         -1    1    3    3    0  502 -0.29459187474E+03  0.11661925281E+04  0.11573877080E+04  0.16692320665E+04  0.00000000000E+00 0.  1.
         13    1    5    5    0    0 -0.21856758512E+03 -0.74097787461E+03  0.15999941419E+04  0.17767389380E+04  0.00000000000E+00 0.  1.
        -13    1    5    5    0    0 -0.14240593325E+02 -0.86917353439E+01  0.51187580856E+02  0.53837804519E+02  0.00000000000E+00 0. -1.
          4    1    6    6  503    0  0.27899450508E+03 -0.19046967451E+03  0.36447581856E+03  0.49694995029E+03  0.00000000000E+00 0. -1.
         -4    1    6    6    0  503  0.24346695572E+03 -0.26258764427E+03  0.45921626531E+03  0.58232981014E+03  0.00000000000E+00 0.  1.
<mgrwt>
<rscale>  0 0.28276551E+04</rscale>
<asrwt>0</asrwt>
<pdfrwt beam="1">  1        2 0.63743188E+00 0.28276551E+04</pdfrwt>
<pdfrwt beam="2">  1       -1 0.74221953E-01 0.28276551E+04</pdfrwt>
<totfact> 0.46940140E-01</totfact>
</mgrwt>
</event>
<event>
12    7  0.1625631E-007  0.1922915E+04  0.7818608E-02  0.8643533E-01
         -1   -1    0    0    0  501 -0.00000000000E+00  0.00000000000E+00  0.83129406493E+03  0.83129406493E+03  0.00000000000E+00 0.  1.
          2   -1    0    0  501    0  0.00000000000E+00 -0.00000000000E+00 -0.11120019816E+04  0.11120019816E+04  0.00000000000E+00 0. -1.
         24    2    1    2    0    0  0.20299034930E+03 -0.28623557656E+03  0.55735356039E+03  0.66569168121E+03  0.96780865610E+02 0.  0.
        254    2    1    2    0    0 -0.20299034930E+03  0.28623557656E+03 -0.83806147710E+03  0.12776043654E+04  0.89821488954E+03 0.  0.
         23    2    4    4    0    0 -0.15355423618E+03  0.49847456619E+03 -0.89000308306E+03  0.10357687746E+04  0.93035853147E+02 0.  0.
         23    2    4    4    0    0 -0.49436113124E+02 -0.21223898963E+03  0.51941605963E+02  0.24183559077E+03  0.91088992379E+02 0.  0.
          2    1    3    3  502    0  0.95601406192E+01 -0.65914940622E+02  0.67668566959E+02  0.94948463074E+02  0.00000000000E+00 0. -1.
         -1    1    3    3    0  502  0.19343020868E+03 -0.22032063594E+03  0.48968499343E+03  0.57074321813E+03  0.00000000000E+00 0.  1.
         13    1    5    5    0    0 -0.84593718006E+02  0.32866808932E+03 -0.65546663034E+03  0.73811605696E+03  0.00000000000E+00 0. -1.
        -13    1    5    5    0    0 -0.68960518172E+02  0.16980647687E+03 -0.23453645273E+03  0.29765271763E+03  0.00000000000E+00 0.  1.
          4    1    6    6  503    0 -0.23204531570E+02 -0.29171832539E+02  0.42681317844E+02  0.56666930321E+02  0.00000000000E+00 0. -1.
         -4    1    6    6    0  503 -0.26231581554E+02 -0.18306715709E+03  0.92602881191E+01  0.18516866045E+03  0.00000000000E+00 0.  1.
<mgrwt>
<rscale>  0 0.19229151E+04</rscale>
<asrwt>0</asrwt>
<pdfrwt beam="1">  1        2 0.17107723E+00 0.19229151E+04</pdfrwt>
<pdfrwt beam="2">  1       -1 0.12789140E+00 0.19229151E+04</pdfrwt>
<totfact> 0.12069287E+01</totfact>
</mgrwt>
</event>
<event>
12    7  0.1625631E-007  0.1632744E+04  0.7818608E-02  0.8800681E-01
          2   -1    0    0  501    0  0.00000000000E+00  0.00000000000E+00  0.12844284960E+04  0.12844284960E+04  0.00000000000E+00 0. -1.
         -1   -1    0    0    0  501 -0.00000000000E+00 -0.00000000000E+00 -0.51887930239E+03  0.51887930239E+03  0.00000000000E+00 0.  1.
         24    2    1    2    0    0 -0.78213361302E+02  0.34696339357E+03  0.75487623465E+03  0.83799875738E+03  0.76830081158E+02 0.  0.
        254    2    1    2    0    0  0.78213361302E+02 -0.34696339357E+03  0.10672958943E+02  0.96530904098E+03  0.89733310771E+03 0.  0.
         23    2    4    4    0    0  0.18832849865E+03  0.16858166593E+03 -0.25253235439E+03  0.36884545921E+03  0.91580463383E+02 0.  0.
         23    2    4    4    0    0 -0.11011513735E+03 -0.51554505950E+03  0.26320531334E+03  0.59646358177E+03  0.92626754032E+02 0.  0.
          2    1    3    3  502    0 -0.63148136618E+02  0.26310310214E+03  0.64107349666E+03  0.69583486377E+03  0.00000000000E+00 0. -1.
         -1    1    3    3    0  502 -0.15065224685E+02  0.83860291433E+02  0.11380273799E+03  0.14216389361E+03  0.00000000000E+00 0.  1.
         13    1    5    5    0    0  0.15514093082E+03  0.16278888402E+03 -0.24813072021E+03  0.33486980080E+03  0.00000000000E+00 0. -1.
        -13    1    5    5    0    0  0.33187567832E+02  0.57927819034E+01 -0.44016341839E+01  0.33975658408E+02  0.00000000000E+00 0.  1.
          4    1    6    6  503    0 -0.31373175841E+02 -0.33074984730E+03  0.18961536903E+03  0.38253591442E+03  0.00000000000E+00 0. -1.
         -4    1    6    6    0  503 -0.78741961507E+02 -0.18479521220E+03  0.73589944312E+02  0.21392766735E+03  0.00000000000E+00 0.  1.
<mgrwt>
<rscale>  0 0.16327441E+04</rscale>
<asrwt>0</asrwt>
<pdfrwt beam="1">  1        2 0.19760438E+00 0.16327441E+04</pdfrwt>
<pdfrwt beam="2">  1       -1 0.79827585E-01 0.16327441E+04</pdfrwt>
<totfact> 0.28850894E+01</totfact>
</mgrwt>
</event>
<event>
12    7  0.1625631E-007  0.2966067E+04  0.7818608E-02  0.8253488E-01
         -1   -1    0    0    0  501 -0.00000000000E+00  0.00000000000E+00  0.71051635521E+03  0.71051635521E+03  0.00000000000E+00 0.  1.
          2   -1    0    0  501    0  0.00000000000E+00 -0.00000000000E+00 -0.30954783702E+04  0.30954783702E+04  0.00000000000E+00 0. -1.
         24    2    1    2    0    0  0.87308001903E+03  0.93049129125E+03 -0.53211336548E+03  0.13845296577E+04  0.75465068776E+02 0.  0.
        254    2    1    2    0    0 -0.87308001903E+03 -0.93049129125E+03 -0.18528486495E+04  0.24214650677E+04  0.89574672392E+03 0.  0.
         23    2    4    4    0    0  0.16744384081E+03 -0.61481508560E+02 -0.25758999638E+03  0.32597975141E+03  0.89959859798E+02 0.  0.
         23    2    4    4    0    0 -0.10405238598E+04 -0.86900978269E+03 -0.15952586531E+04  0.20954853163E+04  0.91327077712E+02 0.  0.
          2    1    3    3  502    0  0.50031696681E+03  0.57392965210E+03 -0.34355195063E+03  0.83530847931E+03  0.00000000000E+00 0. -1.
         -1    1    3    3    0  502  0.37276305222E+03  0.35656163915E+03 -0.18856141486E+03  0.54922117839E+03  0.00000000000E+00 0.  1.
         13    1    5    5    0    0  0.12087757051E+03  0.47303501268E+00 -0.13780517388E+03  0.18330814702E+03  0.00000000000E+00 0.  1.
        -13    1    5    5    0    0  0.46566270297E+02 -0.61954543573E+02 -0.11978482250E+03  0.14267160439E+03  0.00000000000E+00 0. -1.
          3    1    6    6  503    0 -0.59731258011E+03 -0.48772838726E+03 -0.83836788570E+03  0.11390882362E+04  0.00000000000E+00 0. -1.
         -3    1    6    6    0  503 -0.44321127974E+03 -0.38128139543E+03 -0.75689076743E+03  0.95639708009E+03  0.00000000000E+00 0.  1.
<mgrwt>
<rscale>  0 0.29660668E+04</rscale>
<asrwt>0</asrwt>
<pdfrwt beam="1">  1        2 0.47622744E+00 0.29660668E+04</pdfrwt>
<pdfrwt beam="2">  1       -1 0.10931021E+00 0.29660668E+04</pdfrwt>
<totfact> 0.11437863E+00</totfact>
</mgrwt>
</event>
<event>
12    7  0.1625631E-007  0.1444819E+04  0.7818608E-02  0.8922000E-01
          2   -1    0    0  501    0  0.00000000000E+00  0.00000000000E+00  0.75610010893E+03  0.75610010893E+03  0.00000000000E+00 0. -1.
         -1   -1    0    0    0  501 -0.00000000000E+00 -0.00000000000E+00 -0.69022051753E+03  0.69022051753E+03  0.00000000000E+00 0.  1.
         24    2    1    2    0    0 -0.22069926182E+03  0.37210638193E+03  0.40654804670E+02  0.44194403003E+03  0.80562949864E+02 0.  0.
        254    2    1    2    0    0  0.22069926182E+03 -0.37210638193E+03  0.25224786732E+02  0.10043765964E+04  0.90607104243E+03 0.  0.
         23    2    4    4    0    0 -0.10849961405E+03  0.80671068436E+02 -0.30654413429E+03  0.34698623802E+03  0.90278212093E+02 0.  0.
         23    2    4    4    0    0  0.32919887587E+03 -0.45277745037E+03  0.33176892102E+03  0.65739035840E+03  0.93338882133E+02 0.  0.
          2    1    3    3  502    0 -0.11085913870E+03  0.15064079720E+03  0.53085932275E+02  0.19442354441E+03  0.00000000000E+00 0. -1.
         -1    1    3    3    0  502 -0.10984012312E+03  0.22146558473E+03 -0.12431127605E+02  0.24752048562E+03  0.00000000000E+00 0.  1.
         13    1    5    5    0    0 -0.27119217570E+01  0.49521473982E+02 -0.12621998195E+03  0.13561421293E+03  0.00000000000E+00 0. -1.
        -13    1    5    5    0    0 -0.10578769229E+03  0.31149594454E+02 -0.18032415234E+03  0.21137202509E+03  0.00000000000E+00 0.  1.
          3    1    6    6  503    0  0.90398242937E+02 -0.15647985339E+03  0.15371141436E+03  0.23724456948E+03  0.00000000000E+00 0. -1.
         -3    1    6    6    0  503  0.23880063294E+03 -0.29629759698E+03  0.17805750666E+03  0.42014578892E+03  0.00000000000E+00 0.  1.
<mgrwt>
<rscale>  0 0.14448194E+04</rscale>
<asrwt>0</asrwt>
<pdfrwt beam="1">  1        2 0.11632309E+00 0.14448194E+04</pdfrwt>
<pdfrwt beam="2">  1       -1 0.10618777E+00 0.14448194E+04</pdfrwt>
<totfact> 0.34103011E+01</totfact>
</mgrwt>
</event>
<event>
12    7  0.1625631E-007  0.3060565E+04  0.7818608E-02  0.8226645E-01
          2   -1    0    0  501    0  0.00000000000E+00  0.00000000000E+00  0.31923251284E+04  0.31923251284E+04  0.00000000000E+00 0. -1.
         -3   -1    0    0    0  501 -0.00000000000E+00 -0.00000000000E+00 -0.73356066808E+03  0.73356066808E+03  0.00000000000E+00 0.  1.
         24    2    1    2    0    0 -0.13051488397E+04  0.47810381930E+03  0.12916292817E+04  0.18991095969E+04  0.79462596095E+02 0.  0.
        254    2    1    2    0    0  0.13051488397E+04 -0.47810381930E+03  0.11671351787E+04  0.20267761996E+04  0.90200913631E+03 0.  0.
         23    2    4    4    0    0  0.21272387855E+03  0.24644096746E+03  0.18193521786E+03  0.38440227983E+03  0.93167002204E+02 0.  0.
         23    2    4    4    0    0  0.10924249611E+04 -0.72454478675E+03  0.98519996082E+03  0.16423739197E+04  0.91737046077E+02 0.  0.
          4    1    3    3  502    0 -0.93867071162E+02  0.13744686104E+02  0.94505263799E+02  0.13390738714E+03  0.00000000000E+00 0. -1.
         -3    1    3    3    0  502 -0.12112817685E+04  0.46435913319E+03  0.11971240179E+04  0.17652022098E+04  0.00000000000E+00 0.  1.
         13    1    5    5    0    0  0.19296465891E+03  0.24225412215E+03  0.18920740969E+03  0.36293506743E+03  0.00000000000E+00 0.  1.
        -13    1    5    5    0    0  0.19759219639E+02  0.41868453087E+01 -0.72721918378E+01  0.21467212406E+02  0.00000000000E+00 0. -1.
          3    1    6    6  503    0  0.50935365602E+03 -0.29791285324E+03  0.48207039788E+03  0.76196133992E+03  0.00000000000E+00 0. -1.
         -3    1    6    6    0  503  0.58307130513E+03 -0.42663193352E+03  0.50312956294E+03  0.88041257980E+03  0.00000000000E+00 0.  1.
<mgrwt>
<rscale>  0 0.30605648E+04</rscale>
<asrwt>0</asrwt>
<pdfrwt beam="1">  1        2 0.49112694E+00 0.30605648E+04</pdfrwt>
<pdfrwt beam="2">  1       -3 0.11285549E+00 0.30605648E+04</pdfrwt>
<totfact> 0.46819562E-01</totfact>
</mgrwt>
</event>
<event>
12    7  0.1625631E-007  0.1326434E+04  0.7818608E-02  0.9008861E-01
          2   -1    0    0  501    0  0.00000000000E+00  0.00000000000E+00  0.38770734950E+03  0.38770734950E+03  0.00000000000E+00 0. -1.
         -1   -1    0    0    0  501 -0.00000000000E+00 -0.00000000000E+00 -0.11345072017E+04  0.11345072017E+04  0.00000000000E+00 0.  1.
         24    2    1    2    0    0 -0.15499742591E+03  0.72028859358E+02 -0.55729512573E+03  0.58842551780E+03  0.80339120103E+02 0.  0.
        254    2    1    2    0    0  0.15499742591E+03 -0.72028859358E+02 -0.18950472646E+03  0.93378903339E+03  0.89824137007E+03 0.  0.
         23    2    4    4    0    0 -0.10179733080E+03 -0.25914509002E+03  0.24909780561E+03  0.38447143992E+03  0.90827843298E+02 0.  0.
         23    2    4    4    0    0  0.25679475671E+03  0.18711623066E+03 -0.43860253207E+03  0.54931759347E+03  0.91769311367E+02 0.  0.
          4    1    3    3  502    0 -0.58584198338E+01  0.25341237015E+02 -0.37431939769E+02  0.45581240563E+02  0.00000000000E+00 0. -1.
         -3    1    3    3    0  502 -0.14913900608E+03  0.46687622343E+02 -0.51986318596E+03  0.54284427724E+03  0.00000000000E+00 0.  1.
         13    1    5    5    0    0  0.12236880343E+02 -0.65748153081E+02  0.74071348338E+02  0.99795418325E+02  0.00000000000E+00 0.  1.
        -13    1    5    5    0    0 -0.11403421114E+03 -0.19339693694E+03  0.17502645727E+03  0.28467602160E+03  0.00000000000E+00 0. -1.
          2    1    6    6  503    0  0.32517395311E+02  0.17111918159E+02 -0.12789049506E+02  0.38907049852E+02  0.00000000000E+00 0. -1.
         -2    1    6    6    0  503  0.22427736140E+03  0.17000431250E+03 -0.42581348256E+03  0.51041054362E+03  0.00000000000E+00 0.  1.
<mgrwt>
<rscale>  0 0.13264340E+04</rscale>
<asrwt>0</asrwt>
<pdfrwt beam="1">  1        2 0.59647284E-01 0.13264340E+04</pdfrwt>
<pdfrwt beam="2">  1       -1 0.17453957E+00 0.13264340E+04</pdfrwt>
<totfact> 0.21022470E+01</totfact>
</mgrwt>
</event>
<event>
12    7  0.1625631E-007  0.1938908E+04  0.7818608E-02  0.8635728E-01
         -1   -1    0    0    0  501 -0.00000000000E+00  0.00000000000E+00  0.30655644501E+03  0.30655644501E+03  0.00000000000E+00 0.  1.
          2   -1    0    0  501    0  0.00000000000E+00 -0.00000000000E+00 -0.30657998629E+04  0.30657998629E+04  0.00000000000E+00 0. -1.
         24    2    1    2    0    0 -0.16794211766E+03  0.38976151409E+03 -0.85242956853E+01  0.43117681141E+03  0.75645134179E+02 0.  0.
        254    2    1    2    0    0  0.16794211766E+03 -0.38976151409E+03 -0.27507191222E+04  0.29411794965E+04  0.95076945081E+03 0.  0.
         23    2    4    4    0    0 -0.19670808281E+03 -0.41764698042E+02 -0.21077566020E+04  0.21191994138E+04  0.89049999413E+02 0.  0.
         23    2    4    4    0    0  0.36465020047E+03 -0.34799681605E+03 -0.64296252023E+03  0.82198008271E+03  0.90437278045E+02 0.  0.
          2    1    3    3  502    0 -0.16065500459E+02  0.50298098857E+02  0.23734561942E+02  0.57890659732E+02  0.00000000000E+00 0. -1.
         -1    1    3    3    0  502 -0.15187661720E+03  0.33946341524E+03 -0.32258857627E+02  0.37328615167E+03  0.00000000000E+00 0.  1.
         13    1    5    5    0    0 -0.13715607535E+03 -0.12700430347E+02 -0.99728893371E+03  0.10067563296E+04  0.00000000000E+00 0.  1.
        -13    1    5    5    0    0 -0.59552007459E+02 -0.29064267694E+02 -0.11104676683E+04  0.11124430842E+04  0.00000000000E+00 0. -1.
          4    1    6    6  503    0  0.29155845391E+03 -0.25396941137E+03 -0.43236203237E+03  0.58003768928E+03  0.00000000000E+00 0. -1.
         -4    1    6    6    0  503  0.73091746560E+02 -0.94027404685E+02 -0.21060048787E+03  0.24194239343E+03  0.00000000000E+00 0.  1.
<mgrwt>
<rscale>  0 0.19389076E+04</rscale>
<asrwt>0</asrwt>
<pdfrwt beam="1">  1        2 0.47166150E+00 0.19389076E+04</pdfrwt>
<pdfrwt beam="2">  1       -1 0.47162532E-01 0.19389076E+04</pdfrwt>
<totfact> 0.75648063E+00</totfact>
</mgrwt>
</event>
<event>
12    7  0.1625631E-007  0.1430512E+04  0.7818608E-02  0.8932024E-01
          2   -1    0    0  501    0  0.00000000000E+00  0.00000000000E+00  0.97910243868E+03  0.97910243868E+03  0.00000000000E+00 0. -1.
         -1   -1    0    0    0  501 -0.00000000000E+00 -0.00000000000E+00 -0.52251058706E+03  0.52251058706E+03  0.00000000000E+00 0.  1.
         24    2    1    2    0    0 -0.13248417413E+03  0.41469151966E+03  0.22989788732E+03  0.49866031493E+03  0.79296646969E+02 0.  0.
        254    2    1    2    0    0  0.13248417413E+03 -0.41469151966E+03  0.22669396430E+03  0.10029527108E+04  0.87464442708E+03 0.  0.
         23    2    4    4    0    0  0.41273618638E+03 -0.42331466734E+03 -0.47277973771E+02  0.60011831837E+03  0.91434797016E+02 0.  0.
         23    2    4    4    0    0 -0.28025201225E+03  0.86231476766E+01  0.27397193807E+03  0.40283439245E+03  0.92732819663E+02 0.  0.
          2    1    3    3  502    0 -0.50099814728E+02  0.75890514330E+02  0.71573691382E+02  0.11572447839E+03  0.00000000000E+00 0. -1.
         -1    1    3    3    0  502 -0.82384359400E+02  0.33880100533E+03  0.15832419594E+03  0.38293583654E+03  0.00000000000E+00 0.  1.
         13    1    5    5    0    0  0.23162817743E+03 -0.22135625508E+03  0.18714476839E+02  0.32093680980E+03  0.00000000000E+00 0. -1.
        -13    1    5    5    0    0  0.18110800895E+03 -0.20195841225E+03 -0.65992450610E+02  0.27918150856E+03  0.00000000000E+00 0.  1.
          4    1    6    6  503    0 -0.16158491580E+03 -0.38634010309E+02  0.17449197386E+03  0.24093509647E+03  0.00000000000E+00 0.  1.
         -4    1    6    6    0  503 -0.11866709645E+03  0.47257157986E+02  0.99479964214E+02  0.16189929599E+03  0.00000000000E+00 0. -1.
<mgrwt>
<rscale>  0 0.14305123E+04</rscale>
<asrwt>0</asrwt>
<pdfrwt beam="1">  1        2 0.15063114E+00 0.14305123E+04</pdfrwt>
<pdfrwt beam="2">  1       -1 0.80386244E-01 0.14305123E+04</pdfrwt>
<totfact> 0.44466101E+01</totfact>
</mgrwt>
</event>
<event>
12    7  0.1625631E-007  0.1584767E+04  0.7818608E-02  0.8829961E-01
         -1   -1    0    0    0  501 -0.00000000000E+00  0.00000000000E+00  0.92729319836E+03  0.92729319836E+03  0.00000000000E+00 0.  1.
          2   -1    0    0  501    0  0.00000000000E+00 -0.00000000000E+00 -0.67710138269E+03  0.67710138269E+03  0.00000000000E+00 0. -1.
         24    2    1    2    0    0  0.44721837418E+03  0.23061464677E+03  0.79326852322E+02  0.52089398622E+03  0.10885956947E+03 0.  0.
        254    2    1    2    0    0 -0.44721837418E+03 -0.23061464677E+03  0.17086496334E+03  0.10835005948E+04  0.94424113117E+03 0.  0.
         23    2    4    4    0    0 -0.57210284177E+03 -0.48829061196E+03  0.19321616242E+03  0.78189776566E+03  0.91116668226E+02 0.  0.
         23    2    4    4    0    0  0.12488446759E+03  0.25767596519E+03 -0.22351199079E+02  0.30160282918E+03  0.92041605731E+02 0.  0.
          2    1    3    3  502    0  0.22836270946E+00 -0.78044284178E+01 -0.13083689296E+01  0.79166332308E+01  0.00000000000E+00 0. -1.
         -1    1    3    3    0  502  0.44699001147E+03  0.23841907519E+03  0.80635221252E+02  0.51297735299E+03  0.00000000000E+00 0.  1.
         13    1    5    5    0    0 -0.55252836969E+03 -0.46092806574E+03  0.16555533639E+03  0.73834331480E+03  0.00000000000E+00 0. -1.
        -13    1    5    5    0    0 -0.19574472075E+02 -0.27362546221E+02  0.27660826029E+02  0.43554450856E+02  0.00000000000E+00 0.  1.
          2    1    6    6  503    0  0.93856033486E+02  0.11669205838E+03  0.20187720086E+02  0.15110769521E+03  0.00000000000E+00 0. -1.
         -2    1    6    6    0  503  0.31028434101E+02  0.14098390682E+03 -0.42538919165E+02  0.15049513397E+03  0.00000000000E+00 0.  1.
<mgrwt>
<rscale>  0 0.15847669E+04</rscale>
<asrwt>0</asrwt>
<pdfrwt beam="1">  1        2 0.10416944E+00 0.15847669E+04</pdfrwt>
<pdfrwt beam="2">  1       -1 0.14266049E+00 0.15847669E+04</pdfrwt>
<totfact> 0.18693457E+01</totfact>
</mgrwt>
</event>
<event>
12    7  0.1625631E-007  0.1623816E+04  0.7818608E-02  0.8806049E-01
          2   -1    0    0  501    0  0.00000000000E+00  0.00000000000E+00  0.16109934576E+04  0.16109934576E+04  0.00000000000E+00 0. -1.
         -1   -1    0    0    0  501 -0.00000000000E+00 -0.00000000000E+00 -0.40918495616E+03  0.40918495616E+03  0.00000000000E+00 0.  1.
         24    2    1    2    0    0  0.10414993054E+03 -0.15790186275E+03  0.10725489827E+04  0.10917910384E+04  0.76590763082E+02 0.  0.
        254    2    1    2    0    0 -0.10414993054E+03  0.15790186275E+03  0.12925951873E+03  0.92838737533E+03  0.89967487972E+03 0.  0.
         23    2    4    4    0    0  0.25348845866E+03  0.36299709922E+03  0.21110322558E+03  0.49892167876E+03  0.91296095064E+02 0.  0.
         23    2    4    4    0    0 -0.35763838920E+03 -0.20509523646E+03 -0.81843706848E+02  0.42946569657E+03  0.88165292109E+02 0.  0.
          2    1    3    3  502    0  0.11194816517E+03 -0.15884214884E+03  0.10518827466E+04  0.10696824447E+04  0.00000000000E+00 0. -1.
         -1    1    3    3    0  502 -0.77982346266E+01  0.94028608696E+00  0.20666236140E+02  0.22108593745E+02  0.00000000000E+00 0.  1.
         13    1    5    5    0    0  0.73405243442E+02  0.17644285096E+03  0.68544796635E+02  0.20302413296E+03  0.00000000000E+00 0. -1.
        -13    1    5    5    0    0  0.18008321521E+03  0.18655424825E+03  0.14255842895E+03  0.29589754580E+03  0.00000000000E+00 0.  1.
          4    1    6    6  503    0 -0.29612052778E+03 -0.15175509578E+03 -0.97113597432E+02  0.34662375406E+03  0.00000000000E+00 0.  1.
         -4    1    6    6    0  503 -0.61517861414E+02 -0.53340140684E+02  0.15269890584E+02  0.82841942515E+02  0.00000000000E+00 0. -1.
<mgrwt>
<rscale>  0 0.16238156E+04</rscale>
<asrwt>0</asrwt>
<pdfrwt beam="1">  1        2 0.24784515E+00 0.16238156E+04</pdfrwt>
<pdfrwt beam="2">  1       -1 0.62951532E-01 0.16238156E+04</pdfrwt>
<totfact> 0.30687258E+01</totfact>
</mgrwt>
</event>
<event>
12    7  0.1625631E-007  0.1116330E+04  0.7818608E-02  0.9189420E-01
         -1   -1    0    0    0  501 -0.00000000000E+00  0.00000000000E+00  0.29630068611E+03  0.29630068611E+03  0.00000000000E+00 0.  1.
          2   -1    0    0  501    0  0.00000000000E+00 -0.00000000000E+00 -0.10514593957E+04  0.10514593957E+04  0.00000000000E+00 0. -1.
         24    2    1    2    0    0  0.34936837623E+02 -0.68556434521E+02 -0.33819727362E+03  0.35449648812E+03  0.73278897850E+02 0.  0.
        254    2    1    2    0    0 -0.34936837623E+02  0.68556434521E+02 -0.41696143596E+03  0.99326359367E+03  0.89821776875E+03 0.  0.
         23    2    4    4    0    0 -0.74993615259E+02  0.38275406168E+03 -0.51173063183E+03  0.65029558069E+03  0.94294160188E+02 0.  0.
         23    2    4    4    0    0  0.40056777636E+02 -0.31419762716E+03  0.94769195870E+02  0.34296801298E+03  0.91220409446E+02 0.  0.
          4    1    3    3  502    0  0.57857049888E+02 -0.53723927891E+02 -0.25049117991E+03  0.26263954360E+03  0.00000000000E+00 0. -1.
         -3    1    3    3    0  502 -0.22920212265E+02 -0.14832506630E+02 -0.87706093710E+02  0.91856944523E+02  0.00000000000E+00 0.  1.
         13    1    5    5    0    0 -0.57000062736E+02  0.35077379675E+03 -0.49647472975E+03  0.61055582948E+03  0.00000000000E+00 0. -1.
        -13    1    5    5    0    0 -0.17993552524E+02  0.31980264928E+02 -0.15255902083E+02  0.39739751202E+02  0.00000000000E+00 0.  1.
          3    1    6    6  503    0  0.61528258473E+02 -0.27615844729E+03  0.97354638819E+02  0.29921086261E+03  0.00000000000E+00 0. -1.
         -3    1    6    6    0  503 -0.21471480836E+02 -0.38039179862E+02 -0.25854429494E+01  0.43757150377E+02  0.00000000000E+00 0.  1.
<mgrwt>
<rscale>  0 0.11163300E+04</rscale>
<asrwt>0</asrwt>
<pdfrwt beam="1">  1        2 0.16176298E+00 0.11163300E+04</pdfrwt>
<pdfrwt beam="2">  1       -1 0.45584722E-01 0.11163300E+04</pdfrwt>
<totfact> 0.12623796E+02</totfact>
</mgrwt>
</event>
<event>
12    7  0.1625631E-007  0.2720885E+04  0.7818608E-02  0.8328260E-01
         -1   -1    0    0    0  501 -0.00000000000E+00  0.00000000000E+00  0.59451328518E+03  0.59451328518E+03  0.00000000000E+00 0.  1.
          2   -1    0    0  501    0  0.00000000000E+00 -0.00000000000E+00 -0.31131422134E+04  0.31131422134E+04  0.00000000000E+00 0. -1.
         24    2    1    2    0    0  0.83075921527E+02  0.10115633503E+04 -0.22916371713E+03  0.10435271708E+04  0.79189181020E+02 0.  0.
        254    2    1    2    0    0 -0.83075921527E+02 -0.10115633503E+04 -0.22894652111E+04  0.26641283279E+04  0.90871710327E+03 0.  0.
         23    2    4    4    0    0  0.25275923850E+03  0.16569389036E+02 -0.57971047479E+03  0.63901340399E+03  0.90067300395E+02 0.  0.
         23    2    4    4    0    0 -0.33583516003E+03 -0.10281327394E+04 -0.17097547363E+04  0.20251149239E+04  0.89370083841E+02 0.  0.
          4    1    3    3  502    0  0.60618953403E+02  0.46192610364E+03 -0.71973386647E+02  0.47141335484E+03  0.00000000000E+00 0. -1.
         -3    1    3    3    0  502  0.22456968124E+02  0.54963724671E+03 -0.15719033048E+03  0.57211381594E+03  0.00000000000E+00 0.  1.
         13    1    5    5    0    0  0.36282998458E+02 -0.74393432020E-02 -0.18507616108E+03  0.18859915544E+03  0.00000000000E+00 0. -1.
        -13    1    5    5    0    0  0.21647624005E+03  0.16576828379E+02 -0.39463431371E+03  0.45041424855E+03  0.00000000000E+00 0.  1.
          3    1    6    6  503    0 -0.57242260868E+02 -0.20322682970E+03 -0.27281557379E+03  0.34497269173E+03  0.00000000000E+00 0. -1.
         -3    1    6    6    0  503 -0.27859289916E+03 -0.82490590968E+03 -0.14369391626E+04  0.16801422321E+04  0.00000000000E+00 0.  1.
<mgrwt>
<rscale>  0 0.27208854E+04</rscale>
<asrwt>0</asrwt>
<pdfrwt beam="1">  1        2 0.47894496E+00 0.27208854E+04</pdfrwt>
<pdfrwt beam="2">  1       -1 0.91463582E-01 0.27208854E+04</pdfrwt>
<totfact> 0.17121231E+00</totfact>
</mgrwt>
</event>
<event>
12    7  0.1625631E-007  0.3039856E+04  0.7818608E-02  0.8232441E-01
         -1   -1    0    0    0  501 -0.00000000000E+00  0.00000000000E+00  0.73053190903E+03  0.73053190903E+03  0.00000000000E+00 0.  1.
          2   -1    0    0  501    0  0.00000000000E+00 -0.00000000000E+00 -0.31623269960E+04  0.31623269960E+04  0.00000000000E+00 0. -1.
         24    2    1    2    0    0 -0.50696408140E+03  0.10675503101E+04 -0.18473487853E+03  0.11988053010E+04  0.79567141706E+02 0.  0.
        254    2    1    2    0    0  0.50696408140E+03 -0.10675503101E+04 -0.22470602084E+04  0.26940536040E+04  0.90109322305E+03 0.  0.
         23    2    4    4    0    0  0.31700894344E+03  0.60768555300E+02 -0.46015358238E+03  0.57057747906E+03  0.98131812864E+02 0.  0.
         23    2    4    4    0    0  0.18995513796E+03 -0.11283188654E+04 -0.17869066261E+04  0.21234761250E+04  0.83241495946E+02 0.  0.
          2    1    3    3  502    0 -0.33455323414E+03  0.69879890095E+03 -0.82780222986E+02  0.77916515307E+03  0.00000000000E+00 0. -1.
         -1    1    3    3    0  502 -0.17241084726E+03  0.36875140912E+03 -0.10195465554E+03  0.41964014795E+03  0.00000000000E+00 0.  1.
         13    1    5    5    0    0  0.14912376051E+02 -0.10686247317E+01 -0.78539587188E+02  0.79949907279E+02  0.00000000000E+00 0. -1.
        -13    1    5    5    0    0  0.30209656739E+03  0.61837180032E+02 -0.38161399519E+03  0.49062757178E+03  0.00000000000E+00 0.  1.
          3    1    6    6  503    0 -0.55815313390E+01 -0.52618173028E+02 -0.10235152037E+03  0.11522004751E+03  0.00000000000E+00 0. -1.
         -3    1    6    6    0  503  0.19553666930E+03 -0.10757006923E+04 -0.16845551057E+04  0.20082560775E+04  0.00000000000E+00 0.  1.
<mgrwt>
<rscale>  0 0.30398558E+04</rscale>
<asrwt>0</asrwt>
<pdfrwt beam="1">  1        2 0.48651184E+00 0.30398558E+04</pdfrwt>
<pdfrwt beam="2">  1       -1 0.11238952E+00 0.30398558E+04</pdfrwt>
<totfact> 0.96370238E-01</totfact>
</mgrwt>
</event>
<event>
12    7  0.1625631E-007  0.1435119E+04  0.7818608E-02  0.8928783E-01
         -1   -1    0    0    0  501 -0.00000000000E+00  0.00000000000E+00  0.30033710024E+03  0.30033710024E+03  0.00000000000E+00 0.  1.
          2   -1    0    0  501    0  0.00000000000E+00 -0.00000000000E+00 -0.17143780953E+04  0.17143780953E+04  0.00000000000E+00 0. -1.
         24    2    1    2    0    0 -0.14471138502E+03 -0.34425820348E+03 -0.74451317930E+03  0.83682389019E+03  0.80741893897E+02 0.  0.
        254    2    1    2    0    0  0.14471138502E+03  0.34425820348E+03 -0.66952781574E+03  0.11778913053E+04  0.89426245337E+03 0.  0.
         23    2    4    4    0    0  0.18626653453E+03 -0.23325011054E+03 -0.45905665342E+03  0.55502643467E+03  0.90666951993E+02 0.  0.
         23    2    4    4    0    0 -0.41555149513E+02  0.57750831402E+03 -0.21047116232E+03  0.62286487066E+03  0.91759760903E+02 0.  0.
          4    1    3    3  502    0 -0.13751418818E+03 -0.33384913161E+03 -0.74000298581E+03  0.82338922365E+03  0.00000000000E+00 0. -1.
         -3    1    3    3    0  502 -0.71971968429E+01 -0.10409071878E+02 -0.45101934918E+01  0.13434666541E+02  0.00000000000E+00 0.  1.
         13    1    5    5    0    0  0.23596809591E+02  0.19646034395E+01 -0.19749810827E+02  0.30833814510E+02  0.00000000000E+00 0. -1.
        -13    1    5    5    0    0  0.16266972494E+03 -0.23521471397E+03 -0.43930684260E+03  0.52419262016E+03  0.00000000000E+00 0.  1.
          3    1    6    6  503    0 -0.16248076655E+02  0.40808685398E+02 -0.39362344410E+02  0.58980869409E+02  0.00000000000E+00 0. -1.
         -3    1    6    6    0  503 -0.25307072858E+02  0.53669962862E+03 -0.17110881791E+03  0.56388400125E+03  0.00000000000E+00 0.  1.
<mgrwt>
<rscale>  0 0.14351186E+04</rscale>
<asrwt>0</asrwt>
<pdfrwt beam="1">  1        2 0.26375047E+00 0.14351186E+04</pdfrwt>
<pdfrwt beam="2">  1       -1 0.46205709E-01 0.14351186E+04</pdfrwt>
<totfact> 0.49627419E+01</totfact>
</mgrwt>
</event>
<event>
12    7  0.1625631E-007  0.1842629E+04  0.7818608E-02  0.8683953E-01
         -1   -1    0    0    0  501 -0.00000000000E+00  0.00000000000E+00  0.22196034485E+04  0.22196034485E+04  0.00000000000E+00 0.  1.
          2   -1    0    0  501    0  0.00000000000E+00 -0.00000000000E+00 -0.38241965532E+03  0.38241965532E+03  0.00000000000E+00 0. -1.
         24    2    1    2    0    0 -0.18257074957E+03 -0.66789744573E+03  0.86806534459E+03  0.11133706983E+04  0.81472650264E+02 0.  0.
        254    2    1    2    0    0  0.18257074957E+03  0.66789744573E+03  0.96911844855E+03  0.14886524055E+04  0.89301530805E+03 0.  0.
         23    2    4    4    0    0  0.12990933478E+03  0.80343771360E+03  0.10157315456E+04  0.13046616131E+04  0.89681419963E+02 0.  0.
         23    2    4    4    0    0  0.52661414789E+02 -0.13554026787E+03 -0.46613097099E+02  0.18399079234E+03  0.10264230134E+03 0.  0.
          2    1    3    3  502    0 -0.12208035595E+03 -0.52134240748E+03  0.62288857611E+03  0.82139618784E+03  0.00000000000E+00 0. -1.
         -1    1    3    3    0  502 -0.60490393612E+02 -0.14655503825E+03  0.24517676848E+03  0.29197451046E+03  0.00000000000E+00 0.  1.
         13    1    5    5    0    0 -0.89266983950E+01  0.28474473649E+02  0.54745198491E+02  0.62349966733E+02  0.00000000000E+00 0.  1.
        -13    1    5    5    0    0  0.13883603317E+03  0.77496323995E+03  0.96098634716E+03  0.12423116464E+04  0.00000000000E+00 0. -1.
          4    1    6    6  503    0  0.13067002329E+02 -0.82929716580E+02  0.24124440314E+02  0.87350289424E+02  0.00000000000E+00 0. -1.
         -4    1    6    6    0  503  0.39594412460E+02 -0.52610551287E+02 -0.70737537413E+02  0.96640502917E+02  0.00000000000E+00 0.  1.
<mgrwt>
<rscale>  0 0.18426285E+04</rscale>
<asrwt>0</asrwt>
<pdfrwt beam="1">  1        2 0.58833794E-01 0.18426285E+04</pdfrwt>
<pdfrwt beam="2">  1       -1 0.34147745E+00 0.18426285E+04</pdfrwt>
<totfact> 0.15954531E+00</totfact>
</mgrwt>
</event>
<event>
12    7  0.2889594E-007  0.1804021E+04  0.7818608E-02  0.8704164E-01
          2   -1    0    0  501    0  0.00000000000E+00  0.00000000000E+00  0.60230739646E+03  0.60230739646E+03  0.00000000000E+00 0. -1.
         -1   -1    0    0    0  501 -0.00000000000E+00 -0.00000000000E+00 -0.13508438093E+04  0.13508438093E+04  0.00000000000E+00 0.  1.
         24    2    1    2    0    0 -0.57633810507E+03  0.26561717645E+03  0.91847682596E+01  0.63985370899E+03  0.81303832358E+02 0.  0.
        254    2    1    2    0    0  0.57633810507E+03 -0.26561717645E+03 -0.75772118112E+03  0.13132974968E+04  0.86480681716E+03 0.  0.
         23    2    4    4    0    0  0.36829238722E+03 -0.33160548627E+03 -0.90436518969E+03  0.10350927358E+04  0.89101596194E+02 0.  0.
         23    2    4    4    0    0  0.20804571785E+03  0.65988309821E+02  0.14664400857E+03  0.27820476097E+03  0.90862236529E+02 0.  0.
          4    1    3    3  502    0 -0.44360272945E+03  0.20934076135E+03 -0.26832455077E+02  0.49125036039E+03  0.00000000000E+00 0. -1.
         -3    1    3    3    0  502 -0.13273537562E+03  0.56276415104E+02  0.36017223337E+02  0.14860334860E+03  0.00000000000E+00 0.  1.
         13    1    5    5    0    0  0.48757084121E+02 -0.14379647691E+02 -0.64273305425E+02  0.81945624105E+02  0.00000000000E+00 0. -1.
        -13    1    5    5    0    0  0.31953530310E+03 -0.31722583858E+03 -0.84009188426E+03  0.95314711173E+03  0.00000000000E+00 0.  1.
          1    1    6    6  503    0 -0.73686432187E+01 -0.27778900942E+01 -0.13027859346E+01  0.79819062542E+01  0.00000000000E+00 0. -1.
         -1    1    6    6    0  503  0.21541436107E+03  0.68766199915E+02  0.14794679450E+03  0.27022285471E+03  0.00000000000E+00 0.  1.
<mgrwt>
<rscale>  0 0.18040213E+04</rscale>
<asrwt>0</asrwt>
<pdfrwt beam="1">  1        2 0.92662678E-01 0.18040213E+04</pdfrwt>
<pdfrwt beam="2">  1       -1 0.20782212E+00 0.18040213E+04</pdfrwt>
<totfact> 0.70776591E+00</totfact>
</mgrwt>
</event>
<event>
12    7  0.1625631E-007  0.3116251E+04  0.7818608E-02  0.8211292E-01
          2   -1    0    0  501    0  0.00000000000E+00  0.00000000000E+00  0.12952374271E+04  0.12952374271E+04  0.00000000000E+00 0. -1.
         -1   -1    0    0    0  501 -0.00000000000E+00 -0.00000000000E+00 -0.18743709479E+04  0.18743709479E+04  0.00000000000E+00 0.  1.
         24    2    1    2    0    0 -0.85896797095E+03  0.11390963240E+04 -0.37233563250E+03  0.14766993916E+04  0.81491468841E+02 0.  0.
        254    2    1    2    0    0  0.85896797095E+03 -0.11390963240E+04 -0.20679788834E+03  0.16929089834E+04  0.88758607980E+03 0.  0.
         23    2    4    4    0    0  0.89485959102E+03 -0.68251594463E+03 -0.38481834835E+03  0.11929904580E+04  0.92408708472E+02 0.  0.
         23    2    4    4    0    0 -0.35891620062E+02 -0.45658037936E+03  0.17802046001E+03  0.49991852539E+03  0.92051054529E+02 0.  0.
          4    1    3    3  502    0 -0.33731658123E+03  0.44319078268E+03 -0.18649256292E+03  0.58734999944E+03  0.00000000000E+00 0. -1.
         -3    1    3    3    0  502 -0.52165138972E+03  0.69590554132E+03 -0.18584306958E+03  0.88934939217E+03  0.00000000000E+00 0.  1.
         13    1    5    5    0    0  0.19294433140E+03 -0.12941507127E+03 -0.11669097443E+03  0.25998569038E+03  0.00000000000E+00 0.  1.
        -13    1    5    5    0    0  0.70191525962E+03 -0.55310087336E+03 -0.26812737393E+03  0.93300476764E+03  0.00000000000E+00 0. -1.
          4    1    6    6  503    0 -0.15778700613E+02 -0.41606716660E+03  0.18221738416E+03  0.45449315683E+03  0.00000000000E+00 0.  1.
         -4    1    6    6    0  503 -0.20112919448E+02 -0.40513212763E+02 -0.41969241426E+01  0.45425368566E+02  0.00000000000E+00 0. -1.
<mgrwt>
<rscale>  0 0.31162512E+04</rscale>
<asrwt>0</asrwt>
<pdfrwt beam="1">  1        2 0.19926730E+00 0.31162512E+04</pdfrwt>
<pdfrwt beam="2">  1       -1 0.28836476E+00 0.31162512E+04</pdfrwt>
<totfact> 0.63119901E-01</totfact>
</mgrwt>
</event>
<event>
12    7  0.1625631E-007  0.1128425E+04  0.7818608E-02  0.9177922E-01
          2   -1    0    0  501    0  0.00000000000E+00  0.00000000000E+00  0.21263705969E+04  0.21263705969E+04  0.00000000000E+00 0. -1.
         -1   -1    0    0    0  501 -0.00000000000E+00 -0.00000000000E+00 -0.14970845661E+03  0.14970845661E+03  0.00000000000E+00 0.  1.
         24    2    1    2    0    0  0.96561094961E+02 -0.11491785715E+03  0.14199203795E+03  0.22476369373E+03  0.88469317975E+02 0.  0.
        254    2    1    2    0    0 -0.96561094961E+02  0.11491785715E+03  0.18346701024E+04  0.20513153598E+04  0.90517962965E+03 0.  0.
         23    2    4    4    0    0 -0.31321647504E+03  0.57818329997E+02  0.17696151472E+04  0.18009096800E+04  0.10144154387E+03 0.  0.
         23    2    4    4    0    0  0.21665538008E+03  0.57099527157E+02  0.65054955219E+02  0.25040567985E+03  0.90944750191E+02 0.  0.
          4    1    3    3  502    0 -0.35658742616E+01 -0.57894610167E+02  0.36445272756E+02  0.68503717066E+02  0.00000000000E+00 0. -1.
         -3    1    3    3    0  502  0.10012696922E+03 -0.57023246987E+02  0.10554676520E+03  0.15625997666E+03  0.00000000000E+00 0.  1.
         13    1    5    5    0    0 -0.71113700078E+02  0.47481571558E+02  0.32236960965E+03  0.33351735068E+03  0.00000000000E+00 0.  1.
        -13    1    5    5    0    0 -0.24210277496E+03  0.10336758438E+02  0.14472455375E+04  0.14673923293E+04  0.00000000000E+00 0. -1.
          1    1    6    6  503    0  0.10522153531E+03  0.30704203855E+02 -0.15069750209E+02  0.11064093726E+03  0.00000000000E+00 0. -1.
         -1    1    6    6    0  503  0.11143384477E+03  0.26395323302E+02  0.80124705428E+02  0.13976474259E+03  0.00000000000E+00 0.  1.
<mgrwt>
<rscale>  0 0.11284248E+04</rscale>
<asrwt>0</asrwt>
<pdfrwt beam="1">  1        2 0.32713392E+00 0.11284248E+04</pdfrwt>
<pdfrwt beam="2">  1       -1 0.23032072E-01 0.11284248E+04</pdfrwt>
<totfact> 0.10366473E+02</totfact>
</mgrwt>
</event>
<event>
12    7  0.1625631E-007  0.1131138E+04  0.7818608E-02  0.9175364E-01
         -1   -1    0    0    0  501 -0.00000000000E+00  0.00000000000E+00  0.20942872958E+03  0.20942872958E+03  0.00000000000E+00 0.  1.
          2   -1    0    0  501    0  0.00000000000E+00 -0.00000000000E+00 -0.15273359259E+04  0.15273359259E+04  0.00000000000E+00 0. -1.
         24    2    1    2    0    0 -0.10860622353E+03 -0.14608325082E+03 -0.31512133391E+03  0.37237843734E+03  0.78921591164E+02 0.  0.
        254    2    1    2    0    0  0.10860622353E+03  0.14608325082E+03 -0.10027858624E+04  0.13643862182E+04  0.90710233076E+03 0.  0.
         23    2    4    4    0    0  0.24215269971E+02 -0.22862626502E+03  0.38885672550E+02  0.25040432028E+03  0.91290085610E+02 0.  0.
         23    2    4    4    0    0  0.84390953562E+02  0.37470951584E+03 -0.10416715350E+04  0.11139818979E+04  0.91362069403E+02 0.  0.
          2    1    3    3  502    0 -0.64838636951E+02 -0.47468311604E+02 -0.19505105249E+03  0.21095545152E+03  0.00000000000E+00 0. -1.
         -1    1    3    3    0  502 -0.43767586582E+02 -0.98614939217E+02 -0.12007028142E+03  0.16142298583E+03  0.00000000000E+00 0.  1.
         13    1    5    5    0    0  0.29449301847E+02 -0.12860040521E+03  0.64741188940E+02  0.14695831771E+03  0.00000000000E+00 0.  1.
        -13    1    5    5    0    0 -0.52340318760E+01 -0.10002585981E+03 -0.25855516390E+02  0.10344600257E+03  0.00000000000E+00 0. -1.
          2    1    6    6  503    0  0.39193526039E+02  0.18011623358E+03 -0.37227951320E+03  0.41541548602E+03  0.00000000000E+00 0. -1.
         -2    1    6    6    0  503  0.45197427523E+02  0.19459328226E+03 -0.66939202178E+03  0.69856641186E+03  0.00000000000E+00 0.  1.
<mgrwt>
<rscale>  0 0.11311375E+04</rscale>
<asrwt>0</asrwt>
<pdfrwt beam="1">  1        2 0.23497476E+00 0.11311375E+04</pdfrwt>
<pdfrwt beam="2">  1       -1 0.32219805E-01 0.11311375E+04</pdfrwt>
<totfact> 0.12435436E+02</totfact>
</mgrwt>
</event>
<event>
12    7  0.1625631E-007  0.1521041E+04  0.7818608E-02  0.8870580E-01
          2   -1    0    0  501    0  0.00000000000E+00  0.00000000000E+00  0.10226981092E+04  0.10226981092E+04  0.00000000000E+00 0. -1.
         -1   -1    0    0    0  501 -0.00000000000E+00 -0.00000000000E+00 -0.56555415046E+03  0.56555415046E+03  0.00000000000E+00 0.  1.
         24    2    1    2    0    0  0.32065143669E+03 -0.33143840970E+03  0.31531203351E+03  0.56404112787E+03  0.77794294059E+02 0.  0.
        254    2    1    2    0    0 -0.32065143669E+03  0.33143840970E+03  0.14183192524E+03  0.10242111318E+04  0.90345082002E+03 0.  0.
         23    2    4    4    0    0 -0.31411009040E+03 -0.10056189154E+03 -0.25794214868E+03  0.42843627890E+03  0.90805562003E+02 0.  0.
         23    2    4    4    0    0 -0.65413462885E+01  0.43200030124E+03  0.39977407392E+03  0.59577485289E+03  0.91985410124E+02 0.  0.
          2    1    3    3  502    0  0.22705856844E+03 -0.19596128702E+03  0.23391700929E+03  0.38035981222E+03  0.00000000000E+00 0. -1.
         -1    1    3    3    0  502  0.93592868244E+02 -0.13547712267E+03  0.81395024213E+02  0.18368131565E+03  0.00000000000E+00 0.  1.
         13    1    5    5    0    0 -0.11823820677E+03 -0.84954977608E+02 -0.11004450795E+03  0.18250319310E+03  0.00000000000E+00 0. -1.
        -13    1    5    5    0    0 -0.19587188363E+03 -0.15606913934E+02 -0.14789764073E+03  0.24593308580E+03  0.00000000000E+00 0.  1.
          1    1    6    6  503    0  0.11987531151E+02  0.24559564313E+03  0.16815971511E+03  0.29789026606E+03  0.00000000000E+00 0. -1.
         -1    1    6    6    0  503 -0.18528877439E+02  0.18640465811E+03  0.23161435881E+03  0.29788458683E+03  0.00000000000E+00 0.  1.
<mgrwt>
<rscale>  0 0.15210406E+04</rscale>
<asrwt>0</asrwt>
<pdfrwt beam="1">  1        2 0.15733817E+00 0.15210406E+04</pdfrwt>
<pdfrwt beam="2">  1       -1 0.87008331E-01 0.15210406E+04</pdfrwt>
<totfact> 0.34889669E+01</totfact>
</mgrwt>
</event>
<event>
12    7  0.1625631E-007  0.1835246E+04  0.7818608E-02  0.8687777E-01
          4   -1    0    0  501    0  0.00000000000E+00  0.00000000000E+00  0.10826161303E+04  0.10826161303E+04  0.00000000000E+00 0. -1.
         -3   -1    0    0    0  501 -0.00000000000E+00 -0.00000000000E+00 -0.77777531310E+03  0.77777531310E+03  0.00000000000E+00 0.  1.
         24    2    1    2    0    0 -0.15998405228E+03 -0.47505814410E+03  0.58004839335E+03  0.77079306594E+03  0.79941695094E+02 0.  0.
        254    2    1    2    0    0  0.15998405228E+03  0.47505814410E+03 -0.27520757611E+03  0.10895983775E+04  0.92747521640E+03 0.  0.
         23    2    4    4    0    0  0.11120015003E+03  0.45381165976E+03 -0.59058924461E+03  0.75837588749E+03  0.89598186232E+02 0.  0.
         23    2    4    4    0    0  0.48783902256E+02  0.21246484333E+02  0.31538166850E+03  0.33122249000E+03  0.86089830077E+02 0.  0.
          2    1    3    3  502    0 -0.14005560961E+03 -0.44616994917E+03  0.56267624614E+03  0.73163362095E+03  0.00000000000E+00 0. -1.
         -1    1    3    3    0  502 -0.19928442675E+02 -0.28888194925E+02  0.17372147205E+02  0.39159444991E+02  0.00000000000E+00 0.  1.
         13    1    5    5    0    0  0.75556040082E+02  0.33655276713E+03 -0.49313067812E+03  0.60179261042E+03  0.00000000000E+00 0. -1.
        -13    1    5    5    0    0  0.35644109945E+02  0.11725889263E+03 -0.97458566489E+02  0.15658327707E+03  0.00000000000E+00 0.  1.
          1    1    6    6  503    0  0.19795432816E+02  0.45575130995E+02  0.25620899599E+03  0.26098276065E+03  0.00000000000E+00 0. -1.
         -1    1    6    6    0  503  0.28988469440E+02 -0.24328646662E+02  0.59172672505E+02  0.70239729358E+02  0.00000000000E+00 0.  1.
<mgrwt>
<rscale>  0 0.18352461E+04</rscale>
<asrwt>0</asrwt>
<pdfrwt beam="1">  1        4 0.16655633E+00 0.18352461E+04</pdfrwt>
<pdfrwt beam="2">  1       -3 0.11965774E+00 0.18352461E+04</pdfrwt>
<totfact> 0.27433275E-01</totfact>
</mgrwt>
</event>
<event>
12    7  0.1625631E-007  0.2150457E+04  0.7818608E-02  0.8539336E-01
         -1   -1    0    0    0  501 -0.00000000000E+00  0.00000000000E+00  0.10043299374E+04  0.10043299374E+04  0.00000000000E+00 0.  1.
          2   -1    0    0  501    0  0.00000000000E+00 -0.00000000000E+00 -0.11511325181E+04  0.11511325181E+04  0.00000000000E+00 0. -1.
         24    2    1    2    0    0 -0.80357965281E+03 -0.20382072303E+03  0.24500619438E+03  0.86803439446E+03  0.78565444912E+02 0.  0.
        254    2    1    2    0    0  0.80357965281E+03  0.20382072303E+03 -0.39180877506E+03  0.12874280610E+04  0.90370003345E+03 0.  0.
         23    2    4    4    0    0  0.45176215309E+03  0.17653657807E+03 -0.66765727155E+03  0.83037305792E+03  0.92189894731E+02 0.  0.
         23    2    4    4    0    0  0.35181749972E+03  0.27284144959E+02  0.27584849649E+03  0.45705500307E+03  0.91032440044E+02 0.  0.
          2    1    3    3  502    0 -0.72618298268E+03 -0.19951031789E+03  0.23977903906E+03  0.79034174813E+03  0.00000000000E+00 0. -1.
         -1    1    3    3    0  502 -0.77396670138E+02 -0.43104051453E+01  0.52271553194E+01  0.77692646330E+02  0.00000000000E+00 0.  1.
         13    1    5    5    0    0  0.31461219966E+03  0.15981859838E+03 -0.43938894466E+03  0.56354721653E+03  0.00000000000E+00 0. -1.
        -13    1    5    5    0    0  0.13714995343E+03  0.16717979690E+02 -0.22826832689E+03  0.26682584139E+03  0.00000000000E+00 0.  1.
          3    1    6    6  503    0  0.25178151090E+02 -0.93238862930E+01  0.54594703690E+02  0.60839590884E+02  0.00000000000E+00 0. -1.
         -3    1    6    6    0  503  0.32663934863E+03  0.36608031252E+02  0.22125379280E+03  0.39621541219E+03  0.00000000000E+00 0.  1.
<mgrwt>
<rscale>  0 0.21504575E+04</rscale>
<asrwt>0</asrwt>
<pdfrwt beam="1">  1        2 0.17709731E+00 0.21504575E+04</pdfrwt>
<pdfrwt beam="2">  1       -1 0.15451230E+00 0.21504575E+04</pdfrwt>
<totfact> 0.68279360E+00</totfact>
</mgrwt>
</event>
<event>
12    7  0.1625631E-007  0.1799600E+04  0.7818608E-02  0.8706512E-01
         -1   -1    0    0    0  501 -0.00000000000E+00  0.00000000000E+00  0.85314735992E+03  0.85314735992E+03  0.00000000000E+00 0.  1.
          2   -1    0    0  501    0  0.00000000000E+00 -0.00000000000E+00 -0.94900381789E+03  0.94900381789E+03  0.00000000000E+00 0. -1.
         24    2    1    2    0    0  0.16958323919E+03 -0.62326410327E+03 -0.19780445316E+03  0.68024689280E+03  0.79953836972E+02 0.  0.
        254    2    1    2    0    0 -0.16958323919E+03  0.62326410327E+03  0.10194799519E+03  0.11219042850E+04  0.91162449154E+03 0.  0.
         23    2    4    4    0    0 -0.43900954749E+03  0.31009750759E+03 -0.22222285504E+03  0.58879788082E+03  0.91706598223E+02 0.  0.
         23    2    4    4    0    0  0.26942630830E+03  0.31316659567E+03  0.32417085023E+03  0.53310640419E+03  0.91933920818E+02 0.  0.
          4    1    3    3  502    0  0.17084658100E+03 -0.62519453238E+03 -0.19850548414E+03  0.67783566209E+03  0.00000000000E+00 0. -1.
         -3    1    3    3    0  502 -0.12633418160E+01  0.19304291188E+01  0.70103098201E+00  0.24112307158E+01  0.00000000000E+00 0.  1.
         13    1    5    5    0    0 -0.15505206092E+03  0.11437699022E+03 -0.33180811123E+02  0.19551011154E+03  0.00000000000E+00 0. -1.
        -13    1    5    5    0    0 -0.28395748657E+03  0.19572051737E+03 -0.18904204392E+03  0.39328776928E+03  0.00000000000E+00 0.  1.
          2    1    6    6  503    0  0.21999543917E+03  0.29893908720E+03  0.29379870476E+03  0.47337115462E+03  0.00000000000E+00 0.  1.
         -2    1    6    6    0  503  0.49430869127E+02  0.14227508478E+02  0.30372145470E+02  0.59735249565E+02  0.00000000000E+00 0. -1.
<mgrwt>
<rscale>  0 0.17996001E+04</rscale>
<asrwt>0</asrwt>
<pdfrwt beam="1">  1        2 0.14600059E+00 0.17996001E+04</pdfrwt>
<pdfrwt beam="2">  1       -1 0.13125344E+00 0.17996001E+04</pdfrwt>
<totfact> 0.14499714E+01</totfact>
</mgrwt>
</event>
<event>
12    7  0.1625631E-007  0.1606281E+04  0.7818608E-02  0.8816699E-01
         -1   -1    0    0    0  501 -0.00000000000E+00  0.00000000000E+00  0.61828960288E+03  0.61828960288E+03  0.00000000000E+00 0.  1.
          2   -1    0    0  501    0  0.00000000000E+00 -0.00000000000E+00 -0.10432563800E+04  0.10432563800E+04  0.00000000000E+00 0. -1.
         24    2    1    2    0    0 -0.16957357404E+03  0.50895825414E+03 -0.21248722185E+03  0.58262377152E+03  0.80659396386E+02 0.  0.
        254    2    1    2    0    0  0.16957357404E+03 -0.50895825414E+03 -0.21247955532E+03  0.10789222114E+04  0.91166434358E+03 0.  0.
         23    2    4    4    0    0 -0.17561277607E+03  0.18868836396E+03 -0.70790060461E+02  0.28265319804E+03  0.91861046630E+02 0.  0.
         23    2    4    4    0    0  0.34518635012E+03 -0.69764661810E+03 -0.14168949486E+03  0.79626901336E+03  0.90022267329E+02 0.  0.
          2    1    3    3  502    0  0.64339933039E+01  0.20380391281E+02 -0.18481398015E+02  0.28254533993E+02  0.00000000000E+00 0. -1.
         -1    1    3    3    0  502 -0.17600756735E+03  0.48857786286E+03 -0.19400582383E+03  0.55436923753E+03  0.00000000000E+00 0.  1.
         13    1    5    5    0    0 -0.18282894535E+03  0.19233468029E+03 -0.70462381472E+02  0.27456146799E+03  0.00000000000E+00 0. -1.
        -13    1    5    5    0    0  0.72161692794E+01 -0.36463163224E+01 -0.32767898914E+00  0.80917300568E+01  0.00000000000E+00 0.  1.
          3    1    6    6  503    0  0.17315467850E+03 -0.25637258985E+03 -0.70851920785E+02  0.31737901977E+03  0.00000000000E+00 0. -1.
         -3    1    6    6    0  503  0.17203167162E+03 -0.44127402826E+03 -0.70837574073E+02  0.47888999358E+03  0.00000000000E+00 0.  1.
<mgrwt>
<rscale>  0 0.16062809E+04</rscale>
<asrwt>0</asrwt>
<pdfrwt beam="1">  1        2 0.16050098E+00 0.16062809E+04</pdfrwt>
<pdfrwt beam="2">  1       -1 0.95121479E-01 0.16062809E+04</pdfrwt>
<totfact> 0.27601773E+01</totfact>
</mgrwt>
</event>
<event>
12    7  0.1625631E-007  0.2291508E+04  0.7818608E-02  0.8481277E-01
         -1   -1    0    0    0  501 -0.00000000000E+00  0.00000000000E+00  0.42713012725E+03  0.42713012725E+03  0.00000000000E+00 0.  1.
          2   -1    0    0  501    0  0.00000000000E+00 -0.00000000000E+00 -0.30734242698E+04  0.30734242698E+04  0.00000000000E+00 0. -1.
         24    2    1    2    0    0 -0.94199169904E+02 -0.53982041845E+03  0.10079275641E+03  0.56295251770E+03  0.80478504327E+02 0.  0.
        254    2    1    2    0    0  0.94199169904E+02  0.53982041845E+03 -0.27470868989E+04  0.29376018793E+04  0.88472526993E+03 0.  0.
         23    2    4    4    0    0 -0.27485560525E+03 -0.90983030066E+02 -0.75514683662E+03  0.81409354852E+03  0.93156027065E+02 0.  0.
         23    2    4    4    0    0  0.36905477515E+03  0.63080344851E+03 -0.19919400623E+04  0.21235083308E+04  0.85720484107E+02 0.  0.
          2    1    3    3  502    0  0.10303610124E+02 -0.10728665291E+03  0.33819624579E+02  0.11296175141E+03  0.00000000000E+00 0. -1.
         -1    1    3    3    0  502 -0.10450278003E+03 -0.43253376554E+03  0.66973131832E+02  0.44999076629E+03  0.00000000000E+00 0.  1.
         13    1    5    5    0    0 -0.20691915131E+03 -0.43468294057E+02 -0.43909598948E+03  0.48735030086E+03  0.00000000000E+00 0.  1.
        -13    1    5    5    0    0 -0.67936453935E+02 -0.47514736009E+02 -0.31605084714E+03  0.32674324766E+03  0.00000000000E+00 0. -1.
          3    1    6    6  503    0  0.29784351277E+03  0.50795120501E+03 -0.14983923041E+04  0.16099393410E+04  0.00000000000E+00 0. -1.
         -3    1    6    6    0  503  0.71211262379E+02  0.12285224350E+03 -0.49354775825E+03  0.51356898981E+03  0.00000000000E+00 0.  1.
<mgrwt>
<rscale>  0 0.22915079E+04</rscale>
<asrwt>0</asrwt>
<pdfrwt beam="1">  1        2 0.47283450E+00 0.22915079E+04</pdfrwt>
<pdfrwt beam="2">  1       -1 0.65712327E-01 0.22915079E+04</pdfrwt>
<totfact> 0.37951643E+00</totfact>
</mgrwt>
</event>
<event>
12    7  0.1625631E-007  0.2322150E+04  0.7818608E-02  0.8469239E-01
         -1   -1    0    0    0  501 -0.00000000000E+00  0.00000000000E+00  0.70296781624E+03  0.70296781624E+03  0.00000000000E+00 0.  1.
          2   -1    0    0  501    0  0.00000000000E+00 -0.00000000000E+00 -0.19177197355E+04  0.19177197355E+04  0.00000000000E+00 0. -1.
         24    2    1    2    0    0 -0.39308138978E+03  0.77875193645E+03 -0.20049173088E+00  0.87592549360E+03  0.79233027275E+02 0.  0.
        254    2    1    2    0    0  0.39308138978E+03 -0.77875193645E+03 -0.12145514275E+04  0.17447620581E+04  0.89893932603E+03 0.  0.
         23    2    4    4    0    0  0.20540826710E+02 -0.64319185733E+03 -0.24693483928E+03  0.69533888801E+03  0.91660588244E+02 0.  0.
         23    2    4    4    0    0  0.37254056307E+03 -0.13556007913E+03 -0.96761658822E+03  0.10494231701E+04  0.88567047879E+02 0.  0.
          4    1    3    3  502    0 -0.21219786801E+02  0.14034243762E+02 -0.27032286724E+01  0.25584112161E+02  0.00000000000E+00 0. -1.
         -3    1    3    3    0  502 -0.37186160298E+03  0.76471769269E+03  0.25027369416E+01  0.85034138143E+03  0.00000000000E+00 0.  1.
         13    1    5    5    0    0  0.38123081901E+02 -0.61712601800E+03 -0.23920895987E+03  0.66296215423E+03  0.00000000000E+00 0. -1.
        -13    1    5    5    0    0 -0.17582255191E+02 -0.26065839330E+02 -0.77258794145E+01  0.32376733781E+02  0.00000000000E+00 0.  1.
          3    1    6    6  503    0  0.27762818367E+03 -0.57993335041E+02 -0.67164373959E+03  0.72907197739E+03  0.00000000000E+00 0. -1.
         -3    1    6    6    0  503  0.94912379400E+02 -0.77566744085E+02 -0.29597284863E+03  0.32035119272E+03  0.00000000000E+00 0.  1.
<mgrwt>
<rscale>  0 0.23221501E+04</rscale>
<asrwt>0</asrwt>
<pdfrwt beam="1">  1        2 0.29503380E+00 0.23221501E+04</pdfrwt>
<pdfrwt beam="2">  1       -1 0.10814890E+00 0.23221501E+04</pdfrwt>
<totfact> 0.60739484E+00</totfact>
</mgrwt>
</event>
<event>
12    7  0.1625631E-007  0.1312780E+04  0.7818608E-02  0.9019491E-01
         -1   -1    0    0    0  501 -0.00000000000E+00  0.00000000000E+00  0.29209851306E+03  0.29209851306E+03  0.00000000000E+00 0.  1.
          2   -1    0    0  501    0  0.00000000000E+00 -0.00000000000E+00 -0.14750089257E+04  0.14750089257E+04  0.00000000000E+00 0. -1.
         24    2    1    2    0    0  0.52834661701E+02 -0.29034438250E+03 -0.52700454005E+03  0.60923229114E+03  0.79616816100E+02 0.  0.
        254    2    1    2    0    0 -0.52834661701E+02  0.29034438250E+03 -0.65590587264E+03  0.11578751477E+04  0.90739791817E+03 0.  0.
         23    2    4    4    0    0 -0.45693112938E+03  0.22098954039E+03 -0.47293740913E+03  0.69978577036E+03  0.91694588121E+02 0.  0.
         23    2    4    4    0    0  0.40409646767E+03  0.69354842108E+02 -0.18296846351E+03  0.45808937730E+03  0.90908578527E+02 0.  0.
          4    1    3    3  502    0  0.57477049205E+02 -0.26687394487E+03 -0.51400869379E+03  0.58200537019E+03  0.00000000000E+00 0. -1.
         -3    1    3    3    0  502 -0.46423875039E+01 -0.23470437633E+02 -0.12995846256E+02  0.27226920949E+02  0.00000000000E+00 0.  1.
         13    1    5    5    0    0 -0.18699022039E+03  0.11905304539E+03 -0.15532868994E+03  0.27067687758E+03  0.00000000000E+00 0. -1.
        -13    1    5    5    0    0 -0.26994090898E+03  0.10193649500E+03 -0.31760871920E+03  0.42910889278E+03  0.00000000000E+00 0.  1.
          3    1    6    6  503    0  0.28442486515E+03  0.62359680311E+01 -0.11784175645E+03  0.30793354929E+03  0.00000000000E+00 0. -1.
         -3    1    6    6    0  503  0.11967160252E+03  0.63118874077E+02 -0.65126707058E+02  0.15015582802E+03  0.00000000000E+00 0.  1.
<mgrwt>
<rscale>  0 0.13127801E+04</rscale>
<asrwt>0</asrwt>
<pdfrwt beam="1">  1        2 0.22692445E+00 0.13127801E+04</pdfrwt>
<pdfrwt beam="2">  1       -1 0.44938232E-01 0.13127801E+04</pdfrwt>
<totfact> 0.71836671E+01</totfact>
</mgrwt>
</event>
<event>
12    7  0.1625631E-007  0.2760534E+04  0.7818608E-02  0.8315627E-01
          2   -1    0    0  501    0  0.00000000000E+00  0.00000000000E+00  0.10631846644E+04  0.10631846644E+04  0.00000000000E+00 0. -1.
         -1   -1    0    0    0  501 -0.00000000000E+00 -0.00000000000E+00 -0.17919154726E+04  0.17919154726E+04  0.00000000000E+00 0.  1.
         24    2    1    2    0    0  0.75189563699E+02 -0.75961571875E+02 -0.15918155465E+04  0.15973633313E+04  0.79178577764E+02 0.  0.
        254    2    1    2    0    0 -0.75189563699E+02  0.75961571875E+02  0.86308473838E+03  0.12577368057E+04  0.90860496135E+03 0.  0.
         23    2    4    4    0    0  0.29900222596E+03  0.26128425096E+03  0.68091182370E+03  0.79326104481E+03  0.89164918152E+02 0.  0.
         23    2    4    4    0    0 -0.37419178966E+03 -0.18532267909E+03  0.18217291468E+03  0.46447576084E+03  0.90480775514E+02 0.  0.
          4    1    3    3  502    0 -0.79727232206E+00  0.66684139440E+01 -0.13673845183E+02  0.15234087756E+02  0.00000000000E+00 0. -1.
         -3    1    3    3    0  502  0.75986836021E+02 -0.82629985819E+02 -0.15781417013E+04  0.15821292436E+04  0.00000000000E+00 0.  1.
         13    1    5    5    0    0  0.26511957696E+03  0.25106097188E+03  0.57072627234E+03  0.67753116506E+03  0.00000000000E+00 0.  1.
        -13    1    5    5    0    0  0.33882649004E+02  0.10223279081E+02  0.11018555136E+03  0.11572987975E+03  0.00000000000E+00 0. -1.
          4    1    6    6  503    0 -0.29704596223E+03 -0.18085071452E+03  0.13017090385E+03  0.37133239669E+03  0.00000000000E+00 0. -1.
         -4    1    6    6    0  503 -0.77145827431E+02 -0.44719645676E+01  0.52002010823E+02  0.93143364158E+02  0.00000000000E+00 0.  1.
<mgrwt>
<rscale>  0 0.27605340E+04</rscale>
<asrwt>0</asrwt>
<pdfrwt beam="1">  1        2 0.16356687E+00 0.27605340E+04</pdfrwt>
<pdfrwt beam="2">  1       -1 0.27567930E+00 0.27605340E+04</pdfrwt>
<totfact> 0.10845998E+00</totfact>
</mgrwt>
</event>
<event>
12    7  0.1625631E-007  0.1313964E+04  0.7818608E-02  0.9018564E-01
         -1   -1    0    0    0  501 -0.00000000000E+00  0.00000000000E+00  0.10246282788E+04  0.10246282788E+04  0.00000000000E+00 0.  1.
          2   -1    0    0  501    0  0.00000000000E+00 -0.00000000000E+00 -0.42125051682E+03  0.42125051682E+03  0.00000000000E+00 0. -1.
         24    2    1    2    0    0  0.96161798616E+01  0.37772709411E+02  0.54216177381E+03  0.54774627060E+03  0.67582094359E+02 0.  0.
        254    2    1    2    0    0 -0.96161798616E+01 -0.37772709411E+02  0.61215988161E+02  0.89813252501E+03  0.89519572540E+03 0.  0.
         23    2    4    4    0    0  0.28575665069E+03 -0.20797422826E+02  0.35941719464E+03  0.46843068693E+03  0.90317176903E+02 0.  0.
         23    2    4    4    0    0 -0.29537283055E+03 -0.16975286585E+02 -0.29820120648E+03  0.42970183808E+03  0.90478951812E+02 0.  0.
          4    1    3    3  502    0  0.18876466644E+02  0.19645465113E+02  0.69542600997E+02  0.74688945942E+02  0.00000000000E+00 0. -1.
         -3    1    3    3    0  502 -0.92602867823E+01  0.18127244298E+02  0.47261917281E+03  0.47305732465E+03  0.00000000000E+00 0.  1.
         13    1    5    5    0    0  0.17809360250E+02 -0.14873069549E+02  0.71071404215E+02  0.74763132675E+02  0.00000000000E+00 0.  1.
        -13    1    5    5    0    0  0.26794729044E+03 -0.59243532774E+01  0.28834579042E+03  0.39366755425E+03  0.00000000000E+00 0. -1.
          1    1    6    6  503    0 -0.23818995217E+03  0.23392662739E+02 -0.23405576872E+03  0.33475927598E+03  0.00000000000E+00 0. -1.
         -1    1    6    6    0  503 -0.57182878388E+02 -0.40367949323E+02 -0.64145437752E+02  0.94942562098E+02  0.00000000000E+00 0.  1.
<mgrwt>
<rscale>  0 0.13139638E+04</rscale>
<asrwt>0</asrwt>
<pdfrwt beam="1">  1        2 0.64807772E-01 0.13139638E+04</pdfrwt>
<pdfrwt beam="2">  1       -1 0.15763512E+00 0.13139638E+04</pdfrwt>
<totfact> 0.25593277E+01</totfact>
</mgrwt>
</event>
<event>
12    7  0.1625631E-007  0.1503728E+04  0.7818608E-02  0.8881978E-01
          4   -1    0    0  501    0  0.00000000000E+00  0.00000000000E+00  0.59670848903E+03  0.59670848903E+03  0.00000000000E+00 0. -1.
         -3   -1    0    0    0  501 -0.00000000000E+00 -0.00000000000E+00 -0.94736243474E+03  0.94736243474E+03  0.00000000000E+00 0.  1.
         24    2    1    2    0    0 -0.39145143146E+03 -0.30947126182E+03 -0.85886392558E+02  0.51257296576E+03  0.79673632545E+02 0.  0.
        254    2    1    2    0    0  0.39145143146E+03  0.30947126182E+03 -0.26476755316E+03  0.10314979580E+04  0.86306401563E+03 0.  0.
         23    2    4    4    0    0  0.24092123567E+03  0.78683241562E+02  0.29577190119E+03  0.40005127081E+03  0.91246410574E+02 0.  0.
         23    2    4    4    0    0  0.15053019578E+03  0.23078802026E+03 -0.56053945435E+03  0.63144668719E+03  0.92725340376E+02 0.  0.
          4    1    3    3  502    0 -0.12838166536E+03 -0.14855749521E+03 -0.21253873795E+02  0.19749154041E+03  0.00000000000E+00 0. -1.
         -3    1    3    3    0  502 -0.26306976610E+03 -0.16091376661E+03 -0.64632518762E+02  0.31508142535E+03  0.00000000000E+00 0.  1.
         13    1    5    5    0    0  0.93479688207E+02  0.77863703063E+02  0.12490494242E+03  0.17436299207E+03  0.00000000000E+00 0.  1.
        -13    1    5    5    0    0  0.14744154747E+03  0.81953849984E+00  0.17086695877E+03  0.22568827875E+03  0.00000000000E+00 0. -1.
          2    1    6    6  503    0  0.12697087887E+03  0.15724069310E+03 -0.31691127411E+03  0.37587098226E+03  0.00000000000E+00 0. -1.
         -2    1    6    6    0  503  0.23559316915E+02  0.73547327162E+02 -0.24362818024E+03  0.25557570493E+03  0.00000000000E+00 0.  1.
<mgrwt>
<rscale>  0 0.15037276E+04</rscale>
<asrwt>0</asrwt>
<pdfrwt beam="1">  1        4 0.91801306E-01 0.15037276E+04</pdfrwt>
<pdfrwt beam="2">  1       -3 0.14574807E+00 0.15037276E+04</pdfrwt>
<totfact> 0.77602748E-01</totfact>
</mgrwt>
</event>
<event>
12    7  0.1625631E-007  0.1690306E+04  0.7818608E-02  0.8766913E-01
         -1   -1    0    0    0  501 -0.00000000000E+00  0.00000000000E+00  0.66046820102E+03  0.66046820102E+03  0.00000000000E+00 0.  1.
          2   -1    0    0  501    0  0.00000000000E+00 -0.00000000000E+00 -0.10814805299E+04  0.10814805299E+04  0.00000000000E+00 0. -1.
         24    2    1    2    0    0  0.10706406607E+03  0.58509645935E+03 -0.54149526574E+02  0.60258163824E+03  0.79824047276E+02 0.  0.
        254    2    1    2    0    0 -0.10706406607E+03 -0.58509645935E+03 -0.36686280233E+03  0.11393670927E+04  0.89987136591E+03 0.  0.
         23    2    4    4    0    0 -0.61853905427E+02 -0.67794722647E+02  0.27681321908E+03  0.30726942174E+03  0.96782794165E+02 0.  0.
         23    2    4    4    0    0 -0.45210160645E+02 -0.51730173670E+03 -0.64367602140E+03  0.83209767095E+03  0.91775094942E+02 0.  0.
          4    1    3    3  502    0  0.96908735406E+02  0.48698397282E+03 -0.15896411440E+02  0.49678706573E+03  0.00000000000E+00 0. -1.
         -3    1    3    3    0  502  0.10155330666E+02  0.98112486535E+02 -0.38253115134E+02  0.10579457251E+03  0.00000000000E+00 0.  1.
         13    1    5    5    0    0 -0.44588395474E+02 -0.62930634982E+02  0.27875425502E+03  0.28922711581E+03  0.00000000000E+00 0. -1.
        -13    1    5    5    0    0 -0.17265509954E+02 -0.48640876646E+01 -0.19410359404E+01  0.18042305930E+02  0.00000000000E+00 0.  1.
          1    1    6    6  503    0  0.29197613685E+01 -0.40631082313E+03 -0.49923647539E+03  0.64368786563E+03  0.00000000000E+00 0. -1.
         -1    1    6    6    0  503 -0.48129922014E+02 -0.11099091357E+03 -0.14443954601E+03  0.18840980532E+03  0.00000000000E+00 0.  1.
<mgrwt>
<rscale>  0 0.16903059E+04</rscale>
<asrwt>0</asrwt>
<pdfrwt beam="1">  1        2 0.16638162E+00 0.16903059E+04</pdfrwt>
<pdfrwt beam="2">  1       -1 0.10161049E+00 0.16903059E+04</pdfrwt>
<totfact> 0.22326912E+01</totfact>
</mgrwt>
</event>
<event>
12    7  0.1625631E-007  0.1620770E+04  0.7818608E-02  0.8807889E-01
          2   -1    0    0  501    0  0.00000000000E+00  0.00000000000E+00  0.12193163572E+04  0.12193163572E+04  0.00000000000E+00 0. -1.
         -1   -1    0    0    0  501 -0.00000000000E+00 -0.00000000000E+00 -0.53859989403E+03  0.53859989403E+03  0.00000000000E+00 0.  1.
         24    2    1    2    0    0 -0.49119678510E+03 -0.26365268397E+03  0.15245429246E+03  0.58326639033E+03  0.78551584008E+02 0.  0.
        254    2    1    2    0    0  0.49119678510E+03  0.26365268397E+03  0.52826217067E+03  0.11746498609E+04  0.88879376417E+03 0.  0.
         23    2    4    4    0    0 -0.13957375306E+03  0.30358769518E+03  0.92629980105E+00  0.34646624516E+03  0.91606112228E+02 0.  0.
         23    2    4    4    0    0  0.63077053815E+03 -0.39935011217E+02  0.52733587087E+03  0.82818361571E+03  0.91316502829E+02 0.  0.
          4    1    3    3  502    0 -0.47213995680E+03 -0.26859903193E+03  0.14501665120E+03  0.56222007069E+03  0.00000000000E+00 0. -1.
         -3    1    3    3    0  502 -0.19056828298E+02  0.49463479667E+01  0.74376412607E+01  0.21046319643E+02  0.00000000000E+00 0.  1.
         13    1    5    5    0    0 -0.79289328960E+02  0.13869204130E+03 -0.43083591480E+02  0.16546442476E+03  0.00000000000E+00 0.  1.
        -13    1    5    5    0    0 -0.60284424096E+02  0.16489565388E+03  0.44009891281E+02  0.18100182040E+03  0.00000000000E+00 0. -1.
          4    1    6    6  503    0  0.14069439944E+03 -0.38710287066E+02  0.90729531367E+02  0.17182912507E+03  0.00000000000E+00 0. -1.
         -4    1    6    6    0  503  0.49007613871E+03 -0.12247241509E+01  0.43660633951E+03  0.65635449064E+03  0.00000000000E+00 0.  1.
<mgrwt>
<rscale>  0 0.16207698E+04</rscale>
<asrwt>0</asrwt>
<pdfrwt beam="1">  1        2 0.18758713E+00 0.16207698E+04</pdfrwt>
<pdfrwt beam="2">  1       -1 0.82861523E-01 0.16207698E+04</pdfrwt>
<totfact> 0.29132264E+01</totfact>
</mgrwt>
</event>
